<event>
 7    1  0.2679104E-009  0.1290155E+03  0.7561462E-02  0.1228924E+00
          2   -1    0    0  501    0  0.00000000000E+00  0.00000000000E+00  0.99179453951E+03  0.99179453951E+03  0.00000000000E+00 0. -1.
         -2   -1    0    0    0  501 -0.00000000000E+00 -0.00000000000E+00 -0.17435546663E+02  0.17435546663E+02  0.00000000000E+00 0.  1.
         25    2    1    2    0    0 -0.68167599166E+02  0.26158040011E+02  0.46775005377E+03  0.48966233760E+03  0.12509207578E+03 0.  0.
          5    1    3    3  502    0 -0.70769519180E+02  0.69469475125E+02  0.28513554582E+03  0.30191734748E+03  0.41800000000E+01 0.  1.
         -5    1    3    3    0  502  0.26019200142E+01 -0.43311435113E+02  0.18261450796E+03  0.18774499012E+03  0.41800000000E+01 0.  1.
        -11    1    1    2    0    0 -0.20014355067E+02 -0.17486168279E+02  0.10670365755E+03  0.10996368048E+03  0.00000000000E+00 0. -1.
         11    1    1    2    0    0  0.88181954233E+02 -0.86718717322E+01  0.39990528152E+03  0.40960406809E+03  0.00000000000E+00 0.  1.
</event>
<event>
 7    1  0.2679104E-009  0.9563007E+02  0.7561462E-02  0.1289763E+00
          3   -1    0    0  501    0  0.00000000000E+00  0.00000000000E+00  0.57452236148E+03  0.57452236148E+03  0.00000000000E+00 0. -1.
         -3   -1    0    0    0  501 -0.00000000000E+00 -0.00000000000E+00 -0.28434117655E+02  0.28434117655E+02  0.00000000000E+00 0.  1.
         25    2    1    2    0    0 -0.29727041530E+02  0.64047268987E+02  0.30522401088E+03  0.33732869577E+03  0.12507278885E+03 0.  0.
          5    1    3    3  502    0  0.11535191826E+02  0.43824387249E+01 -0.83310125082E+01  0.15464300471E+02  0.41800000000E+01 0. -1.
         -5    1    3    3    0  502 -0.41262233356E+02  0.59664830262E+02  0.31355502339E+03  0.32186439530E+03  0.41800000000E+01 0. -1.
        -11    1    1    2    0    0 -0.23916347757E+02 -0.26885135308E+01  0.10027652194E+03  0.10312420011E+03  0.00000000000E+00 0. -1.
         11    1    1    2    0    0  0.53643389287E+02 -0.61358755456E+02  0.14058771100E+03  0.16250358325E+03  0.00000000000E+00 0.  1.
</event>
<event>
 7    1  0.2679104E-009  0.9889968E+02  0.7561462E-02  0.1282627E+00
         -1   -1    0    0    0  501 -0.00000000000E+00  0.00000000000E+00  0.44301867994E+02  0.44301867994E+02  0.00000000000E+00 0.  1.
          1   -1    0    0  501    0  0.00000000000E+00 -0.00000000000E+00 -0.35311567402E+03  0.35311567402E+03  0.00000000000E+00 0. -1.
         25    2    1    2    0    0 -0.49348843336E+02  0.30396954171E+02 -0.19186001023E+03  0.23625604703E+03  0.12508946027E+03 0.  0.
          5    1    3    3  502    0 -0.26680061630E+02 -0.20706622937E+02 -0.17417899214E+03  0.17747220522E+03  0.41800000000E+01 0.  1.
         -5    1    3    3    0  502 -0.22668781706E+02  0.51103577108E+02 -0.17681018090E+02  0.58783841810E+02  0.41800000000E+01 0.  1.
        -11    1    1    2    0    0  0.51438137452E+02  0.21512759169E+02 -0.79558674982E+02  0.97150725970E+02  0.00000000000E+00 0. -1.
         11    1    1    2    0    0 -0.20892941161E+01 -0.51909713340E+02 -0.37395120809E+02  0.64010769010E+02  0.00000000000E+00 0.  1.
</event>
<event>
 7    1  0.2679104E-009  0.1979773E+03  0.7561462E-02  0.1151457E+00
          4   -1    0    0  501    0  0.00000000000E+00  0.00000000000E+00  0.21313901152E+03  0.21313901152E+03  0.00000000000E+00 0. -1.
         -4   -1    0    0    0  501 -0.00000000000E+00 -0.00000000000E+00 -0.19181730931E+03  0.19181730931E+03  0.00000000000E+00 0.  1.
         25    2    1    2    0    0 -0.16282019459E+03  0.48351016607E+02  0.26444180955E+02  0.21259282639E+03  0.12509267985E+03 0.  0.
          5    1    3    3  502    0 -0.17633283839E+03  0.22072493047E+02  0.35779996645E+02  0.18132331732E+03  0.41800000000E+01 0.  1.
         -5    1    3    3    0  502  0.13512643797E+02  0.26278523560E+02 -0.93358156896E+01  0.31269509070E+02  0.41800000000E+01 0.  1.
        -11    1    1    2    0    0  0.65714548692E+02 -0.61935804322E+02 -0.21819600003E+02  0.92900703501E+02  0.00000000000E+00 0. -1.
         11    1    1    2    0    0  0.97105645902E+02  0.13584787715E+02  0.16697121250E+02  0.99462790939E+02  0.00000000000E+00 0.  1.
</event>
<event>
 7    1  0.2679104E-009  0.9340795E+02  0.7561462E-02  0.1294803E+00
          1   -1    0    0  501    0  0.00000000000E+00  0.00000000000E+00  0.88868253751E+02  0.88868253751E+02  0.00000000000E+00 0. -1.
         -1   -1    0    0    0  501 -0.00000000000E+00 -0.00000000000E+00 -0.14825050300E+03  0.14825050300E+03  0.00000000000E+00 0.  1.
         25    2    1    2    0    0 -0.76870034230E+01 -0.93495946288E+01  0.26961174763E+01  0.12570567710E+03  0.12509253881E+03 0.  0.
          5    1    3    3  502    0  0.87219749676E+01 -0.56309298062E+02 -0.31456818964E+02  0.65221267658E+02  0.41800000000E+01 0.  1.
         -5    1    3    3    0  502 -0.16408978391E+02  0.46959703434E+02  0.34152936441E+02  0.60484409445E+02  0.41800000000E+01 0.  1.
        -11    1    1    2    0    0  0.38498874484E+02  0.24288491342E+02 -0.62882215922E+01  0.45952539418E+02  0.00000000000E+00 0. -1.
         11    1    1    2    0    0 -0.30811871061E+02 -0.14938896713E+02 -0.55790145138E+02  0.65460540234E+02  0.00000000000E+00 0.  1.
</event>
<event>
 7    1  0.2679104E-009  0.1417866E+03  0.7561462E-02  0.1210945E+00
          3   -1    0    0  501    0  0.00000000000E+00  0.00000000000E+00  0.98252230040E+03  0.98252230040E+03  0.00000000000E+00 0. -1.
         -3   -1    0    0    0  501 -0.00000000000E+00 -0.00000000000E+00 -0.27366337171E+02  0.27366337171E+02  0.00000000000E+00 0.  1.
         25    2    1    2    0    0  0.91236858134E+02 -0.61692744312E+02  0.68299811178E+03  0.70303979062E+03  0.12509343514E+03 0.  0.
          5    1    3    3  502    0 -0.28359508950E+02 -0.29371448048E+02  0.13025227695E+03  0.13656526557E+03  0.41800000000E+01 0. -1.
         -5    1    3    3    0  502  0.11959636708E+03 -0.32321296263E+02  0.55274583483E+03  0.56647452506E+03  0.41800000000E+01 0. -1.
        -11    1    1    2    0    0 -0.86344453552E+02  0.37921861376E+02  0.26539931288E+03  0.28165622220E+03  0.00000000000E+00 0.  1.
         11    1    1    2    0    0 -0.48924045820E+01  0.23770882936E+02  0.67585385702E+01  0.25192624749E+02  0.00000000000E+00 0. -1.
</event>
<event>
 7    1  0.2679104E-009  0.9502590E+02  0.7561462E-02  0.1291118E+00
          1   -1    0    0  501    0  0.00000000000E+00  0.00000000000E+00  0.20045661246E+03  0.20045661246E+03  0.00000000000E+00 0. -1.
         -1   -1    0    0    0  501 -0.00000000000E+00 -0.00000000000E+00 -0.97071884338E+02  0.97071884338E+02  0.00000000000E+00 0.  1.
         25    2    1    2    0    0  0.34147421209E+02  0.57976963054E+02 -0.89766494605E-01  0.14203763676E+03  0.12508919849E+03 0.  0.
          5    1    3    3  502    0  0.16003372532E+02  0.30099121172E+00 -0.56724593385E+02  0.59087650341E+02  0.41800000000E+01 0.  1.
         -5    1    3    3    0  502  0.18144048677E+02  0.57675971842E+02  0.56634826891E+02  0.82949986421E+02  0.41800000000E+01 0.  1.
        -11    1    1    2    0    0 -0.26648407856E+02  0.20777528631E+02  0.15496544080E+02  0.37175075194E+02  0.00000000000E+00 0. -1.
         11    1    1    2    0    0 -0.74990133538E+01 -0.78754491686E+02  0.87977950539E+02  0.11831578484E+03  0.00000000000E+00 0.  1.
</event>
<event>
 7    1  0.2679104E-009  0.1167784E+03  0.7561462E-02  0.1248508E+00
         -1   -1    0    0    0  501 -0.00000000000E+00  0.00000000000E+00  0.19119295085E+02  0.19119295085E+02  0.00000000000E+00 0.  1.
          1   -1    0    0  501    0  0.00000000000E+00 -0.00000000000E+00 -0.80534551150E+03  0.80534551150E+03  0.00000000000E+00 0. -1.
         25    2    1    2    0    0  0.54626563673E+02  0.23531628674E+02 -0.49516101815E+03  0.51417020720E+03  0.12509504015E+03 0.  0.
          5    1    3    3  502    0  0.70162318664E+02 -0.33557276179E+02 -0.24542244507E+03  0.25748493294E+03  0.41800000000E+01 0. -1.
         -5    1    3    3    0  502 -0.15535754991E+02  0.57088904853E+02 -0.24973857307E+03  0.25668527426E+03  0.41800000000E+01 0. -1.
        -11    1    1    2    0    0 -0.49996733887E+02 -0.49277255789E+02 -0.13610555328E+03  0.15314255767E+03  0.00000000000E+00 0.  1.
         11    1    1    2    0    0 -0.46298297860E+01  0.25745627115E+02 -0.15495964499E+03  0.15715204171E+03  0.00000000000E+00 0. -1.
</event>
<event>
 7    1  0.2679104E-009  0.1464185E+03  0.7561462E-02  0.1204944E+00
         -1   -1    0    0    0  501 -0.00000000000E+00  0.00000000000E+00  0.13542995034E+03  0.13542995034E+03  0.00000000000E+00 0.  1.
          1   -1    0    0  501    0  0.00000000000E+00 -0.00000000000E+00 -0.39325951396E+03  0.39325951396E+03  0.00000000000E+00 0. -1.
         25    2    1    2    0    0 -0.74221220165E+02  0.12313366977E+03  0.31123696079E+02  0.19309709158E+03  0.12508841740E+03 0.  0.
          5    1    3    3  502    0 -0.67541676877E+02  0.80369978549E+02  0.76716682174E+02  0.13009278724E+03  0.41800000000E+01 0.  1.
         -5    1    3    3    0  502 -0.66795432877E+01  0.42763691220E+02 -0.45592986095E+02  0.63004304347E+02  0.41800000000E+01 0.  1.
        -11    1    1    2    0    0  0.41982686810E+02 -0.57850336909E+02 -0.53907322726E+02  0.89527687984E+02  0.00000000000E+00 0.  1.
         11    1    1    2    0    0  0.32238533355E+02 -0.65283332859E+02 -0.23504593698E+03  0.24606468473E+03  0.00000000000E+00 0. -1.
</event>
<event>
 7    1  0.2679104E-009  0.1547244E+03  0.7561462E-02  0.1194785E+00
          4   -1    0    0  501    0  0.00000000000E+00  0.00000000000E+00  0.65531324184E+03  0.65531324184E+03  0.00000000000E+00 0.  1.
         -4   -1    0    0    0  501 -0.00000000000E+00 -0.00000000000E+00 -0.41687518647E+02  0.41687518647E+02  0.00000000000E+00 0. -1.
         25    2    1    2    0    0  0.10614824388E+03 -0.37848372351E+02  0.43696118809E+03  0.46827631465E+03  0.12509067910E+03 0.  0.
          5    1    3    3  502    0  0.97400653715E+02  0.24994140344E+02  0.21505864129E+03  0.23744322688E+03  0.41800000000E+01 0.  1.
         -5    1    3    3    0  502  0.87475901626E+01 -0.62842512695E+02  0.22190254680E+03  0.23083308777E+03  0.41800000000E+01 0.  1.
        -11    1    1    2    0    0 -0.43231258804E+02  0.63876948581E+02  0.96951955045E+02  0.12389062872E+03  0.00000000000E+00 0.  1.
         11    1    1    2    0    0 -0.62916985074E+02 -0.26028576230E+02  0.79712580053E+02  0.10483381711E+03  0.00000000000E+00 0. -1.
</event>
<event>
 7    1  0.2679104E-009  0.5408811E+02  0.7561462E-02  0.1424461E+00
         -1   -1    0    0    0  501 -0.00000000000E+00  0.00000000000E+00  0.86467570135E+02  0.86467570135E+02  0.00000000000E+00 0.  1.
          1   -1    0    0  501    0  0.00000000000E+00 -0.00000000000E+00 -0.13768253544E+03  0.13768253544E+03  0.00000000000E+00 0. -1.
         25    2    1    2    0    0  0.39778920504E+02  0.47613286032E+00 -0.33088063371E+02  0.13536844940E+03  0.12508880020E+03 0.  0.
          5    1    3    3  502    0  0.10726234011E+02  0.41915896733E+01  0.47744617467E+02  0.49291403075E+02  0.41800000000E+01 0.  1.
         -5    1    3    3    0  502  0.29052686493E+02 -0.37154568130E+01 -0.80832680838E+02  0.86077046321E+02  0.41800000000E+01 0.  1.
        -11    1    1    2    0    0 -0.40676371504E+02 -0.21012368045E+02  0.16372586628E+02  0.48622509216E+02  0.00000000000E+00 0.  1.
         11    1    1    2    0    0  0.89745099918E+00  0.20536235184E+02 -0.34499488561E+02  0.40159146963E+02  0.00000000000E+00 0. -1.
</event>
<event>
 7    1  0.2679104E-009  0.1066655E+03  0.7561462E-02  0.1266872E+00
         -1   -1    0    0    0  501 -0.00000000000E+00  0.00000000000E+00  0.41995462853E+03  0.41995462853E+03  0.00000000000E+00 0.  1.
          1   -1    0    0  501    0  0.00000000000E+00 -0.00000000000E+00 -0.28946577941E+02  0.28946577941E+02  0.00000000000E+00 0. -1.
         25    2    1    2    0    0 -0.33050319489E+02  0.16390142438E+02  0.27113348309E+03  0.30086692847E+03  0.12508630064E+03 0.  0.
          5    1    3    3  502    0  0.22164267083E+02 -0.42935809232E+02  0.11753361277E+03  0.12714700539E+03  0.41800000000E+01 0.  1.
         -5    1    3    3    0  502 -0.55214586572E+02  0.59325951670E+02  0.15359987032E+03  0.17371992308E+03  0.41800000000E+01 0.  1.
        -11    1    1    2    0    0 -0.69502721526E+00 -0.41569430093E+02  0.39746492405E+02  0.57517686320E+02  0.00000000000E+00 0. -1.
         11    1    1    2    0    0  0.33745346704E+02  0.25179287655E+02  0.80128075090E+02  0.90516591676E+02  0.00000000000E+00 0.  1.
</event>
<event>
 7    1  0.2679104E-009  0.1097555E+03  0.7561462E-02  0.1261023E+00
          2   -1    0    0  501    0  0.00000000000E+00  0.00000000000E+00  0.13092799825E+03  0.13092799825E+03  0.00000000000E+00 0. -1.
         -2   -1    0    0    0  501 -0.00000000000E+00 -0.00000000000E+00 -0.12593067528E+03  0.12593067528E+03  0.00000000000E+00 0.  1.
         25    2    1    2    0    0 -0.30062996433E+02 -0.12938838572E+02  0.63162627257E+02  0.14390299682E+03  0.12508939888E+03 0.  0.
          5    1    3    3  502    0 -0.77936882139E+02  0.24049783829E+01  0.45942478988E+02  0.90598704704E+02  0.41800000000E+01 0.  1.
         -5    1    3    3    0  502  0.47873885706E+02 -0.15343816954E+02  0.17220148269E+02  0.53304292114E+02  0.41800000000E+01 0.  1.
        -11    1    1    2    0    0  0.98575536382E+01 -0.36374503962E+02 -0.55982610664E+01  0.38100084373E+02  0.00000000000E+00 0. -1.
         11    1    1    2    0    0  0.20205442795E+02  0.49313342534E+02 -0.52567043224E+02  0.74855592334E+02  0.00000000000E+00 0.  1.
</event>
<event>
 7    1  0.2679104E-009  0.1441599E+03  0.7561462E-02  0.1207839E+00
          2   -1    0    0  501    0  0.00000000000E+00  0.00000000000E+00  0.53628222448E+03  0.53628222448E+03  0.00000000000E+00 0. -1.
         -2   -1    0    0    0  501 -0.00000000000E+00 -0.00000000000E+00 -0.56655583611E+02  0.56655583611E+02  0.00000000000E+00 0.  1.
         25    2    1    2    0    0  0.80791568477E+02  0.82816493102E+02  0.37740102923E+03  0.41408347481E+03  0.12509091965E+03 0.  0.
          5    1    3    3  502    0 -0.14889055065E+02  0.62841210446E+02  0.21462319936E+03  0.22416799904E+03  0.41800000000E+01 0.  1.
         -5    1    3    3    0  502  0.95680623542E+02  0.19975282656E+02  0.16277782987E+03  0.18991547577E+03  0.41800000000E+01 0.  1.
        -11    1    1    2    0    0 -0.80957666180E+02 -0.54815698427E+02  0.31390094067E+02  0.10268516209E+03  0.00000000000E+00 0.  1.
         11    1    1    2    0    0  0.16609770289E+00 -0.28000794675E+02  0.70835517567E+02  0.76169171191E+02  0.00000000000E+00 0. -1.
</event>
<event>
 7    1  0.2679104E-009  0.9789811E+02  0.7561462E-02  0.1284779E+00
         -3   -1    0    0    0  501 -0.00000000000E+00  0.00000000000E+00  0.14794305572E+03  0.14794305572E+03  0.00000000000E+00 0.  1.
          3   -1    0    0  501    0  0.00000000000E+00 -0.00000000000E+00 -0.97509935475E+02  0.97509935475E+02  0.00000000000E+00 0. -1.
         25    2    1    2    0    0  0.17078081879E+02  0.37035561643E+02  0.23850946758E+02  0.13371243762E+03  0.12508738788E+03 0.  0.
          5    1    3    3  502    0 -0.37140789448E+02  0.26362498426E+02 -0.31384053578E+02  0.55469367971E+02  0.41800000000E+01 0.  1.
         -5    1    3    3    0  502  0.54218871327E+02  0.10673063217E+02  0.55235000335E+02  0.78243069651E+02  0.41800000000E+01 0.  1.
        -11    1    1    2    0    0  0.22479270887E+02  0.16637562052E+02  0.34706627764E+02  0.44572144904E+02  0.00000000000E+00 0.  1.
         11    1    1    2    0    0 -0.39557352766E+02 -0.53673123695E+02 -0.81244542815E+01  0.67168408664E+02  0.00000000000E+00 0. -1.
</event>
<event>
 7    1  0.2679104E-009  0.8973269E+02  0.7561462E-02  0.1303500E+00
          2   -1    0    0  501    0  0.00000000000E+00  0.00000000000E+00  0.25138857224E+03  0.25138857224E+03  0.00000000000E+00 0.  1.
         -2   -1    0    0    0  501 -0.00000000000E+00 -0.00000000000E+00 -0.47006133551E+02  0.47006133551E+02  0.00000000000E+00 0. -1.
         25    2    1    2    0    0  0.19722591935E+01  0.16973473368E+02  0.82941115855E+02  0.15105689716E+03  0.12508784463E+03 0.  0.
          5    1    3    3  502    0  0.37732402743E+02 -0.42251811591E+02  0.33855096880E+02  0.66125560748E+02  0.41800000000E+01 0. -1.
         -5    1    3    3    0  502 -0.35760143550E+02  0.59225284958E+02  0.49086018975E+02  0.84931336407E+02  0.41800000000E+01 0. -1.
        -11    1    1    2    0    0  0.80392440565E+01  0.16532736920E+02  0.10850576604E+03  0.11005208812E+03  0.00000000000E+00 0.  1.
         11    1    1    2    0    0 -0.10011503250E+02 -0.33506210287E+02  0.12935556796E+02  0.37285720521E+02  0.00000000000E+00 0. -1.
</event>
<event>
 7    1  0.2679104E-009  0.8128357E+02  0.7561462E-02  0.1325448E+00
         -1   -1    0    0    0  501 -0.00000000000E+00  0.00000000000E+00  0.37188718597E+02  0.37188718597E+02  0.00000000000E+00 0.  1.
          1   -1    0    0  501    0  0.00000000000E+00 -0.00000000000E+00 -0.36771012874E+03  0.36771012874E+03  0.00000000000E+00 0. -1.
         25    2    1    2    0    0  0.30136512286E+02  0.19656726371E+02 -0.23517700998E+03  0.26879398165E+03  0.12508949710E+03 0.  0.
          5    1    3    3  502    0  0.27595665072E+02  0.38778914135E+02 -0.18524250478E+02  0.51243976895E+02  0.41800000000E+01 0. -1.
         -5    1    3    3    0  502  0.25408472137E+01 -0.19122187764E+02 -0.21665275950E+03  0.21755000475E+03  0.41800000000E+01 0. -1.
        -11    1    1    2    0    0  0.26995008737E+02 -0.26109520710E+02 -0.51798816605E+02  0.63980895353E+02  0.00000000000E+00 0.  1.
         11    1    1    2    0    0 -0.57131521023E+02  0.64527943388E+01 -0.43545583557E+02  0.72123970332E+02  0.00000000000E+00 0. -1.
</event>
<event>
 7    1  0.2679104E-009  0.5364649E+02  0.7561462E-02  0.1426610E+00
         -2   -1    0    0    0  501 -0.00000000000E+00  0.00000000000E+00  0.34064459269E+02  0.34064459269E+02  0.00000000000E+00 0.  1.
          2   -1    0    0  501    0  0.00000000000E+00 -0.00000000000E+00 -0.39286202338E+03  0.39286202338E+03  0.00000000000E+00 0. -1.
         25    2    1    2    0    0 -0.17251521675E+02  0.24069659625E+02 -0.25234287466E+03  0.28319936637E+03  0.12509193102E+03 0.  0.
          5    1    3    3  502    0 -0.31773755309E+02  0.16618040229E+02 -0.26152900864E+03  0.26400876036E+03  0.41800000000E+01 0. -1.
         -5    1    3    3    0  502  0.14522233634E+02  0.74516193960E+01  0.91861339838E+01  0.19190606007E+02  0.41800000000E+01 0. -1.
        -11    1    1    2    0    0  0.24821268188E+02  0.41153248458E+01  0.73727120261E+01  0.26218087948E+02  0.00000000000E+00 0.  1.
         11    1    1    2    0    0 -0.75697465127E+01 -0.28184984471E+02 -0.11382740148E+03  0.11750902833E+03  0.00000000000E+00 0. -1.
</event>
<event>
 7    1  0.2679104E-009  0.1131178E+03  0.7561462E-02  0.1254903E+00
          1   -1    0    0  501    0  0.00000000000E+00  0.00000000000E+00  0.10726667502E+02  0.10726667502E+02  0.00000000000E+00 0. -1.
         -1   -1    0    0    0  501 -0.00000000000E+00 -0.00000000000E+00 -0.13086447427E+04  0.13086447427E+04  0.00000000000E+00 0.  1.
         25    2    1    2    0    0  0.47805244760E+02 -0.23829332187E+02 -0.75409465986E+03  0.76626343101E+03  0.12509081168E+03 0.  0.
          5    1    3    3  502    0  0.61254011615E+02  0.30951161744E+02 -0.25984677493E+03  0.26878959651E+03  0.41800000000E+01 0.  1.
         -5    1    3    3    0  502 -0.13448766855E+02 -0.54780493931E+02 -0.49424788494E+03  0.49747383450E+03  0.41800000000E+01 0.  1.
        -11    1    1    2    0    0  0.25089694722E+02  0.78732620819E+01 -0.14035339542E+03  0.14279550638E+03  0.00000000000E+00 0.  1.
         11    1    1    2    0    0 -0.72894939482E+02  0.15956070105E+02 -0.40347001992E+03  0.41031247282E+03  0.00000000000E+00 0. -1.
</event>
<event>
 7    1  0.2679104E-009  0.2023705E+03  0.7561462E-02  0.1147754E+00
         -3   -1    0    0    0  501 -0.00000000000E+00  0.00000000000E+00  0.44230838062E+03  0.44230838062E+03  0.00000000000E+00 0.  1.
          3   -1    0    0  501    0  0.00000000000E+00 -0.00000000000E+00 -0.10607272180E+03  0.10607272180E+03  0.00000000000E+00 0. -1.
         25    2    1    2    0    0  0.17340218907E+03  0.64346691810E+02  0.20959037942E+03  0.30624578677E+03  0.12509811689E+03 0.  0.
          5    1    3    3  502    0  0.13203706706E+03  0.94821031608E+02  0.19238633187E+03  0.25190233862E+03  0.41800000000E+01 0. -1.
         -5    1    3    3    0  502  0.41365122009E+02 -0.30474339798E+02  0.17204047558E+02  0.54343448155E+02  0.41800000000E+01 0. -1.
        -11    1    1    2    0    0 -0.81692477714E+02 -0.60594200922E+01  0.10180025272E+03  0.13066625020E+03  0.00000000000E+00 0.  1.
         11    1    1    2    0    0 -0.91709711355E+02 -0.58287271718E+02  0.24845026677E+02  0.11146906545E+03  0.00000000000E+00 0. -1.
</event>
<event>
 7    1  0.2679104E-009  0.1637289E+03  0.7561462E-02  0.1184550E+00
         -2   -1    0    0    0  501 -0.00000000000E+00  0.00000000000E+00  0.95674473256E+02  0.95674473256E+02  0.00000000000E+00 0.  1.
          2   -1    0    0  501    0  0.00000000000E+00 -0.00000000000E+00 -0.36982471589E+03  0.36982471589E+03  0.00000000000E+00 0. -1.
         25    2    1    2    0    0 -0.15497483320E+03 -0.50469168979E+01 -0.14820458881E+03  0.24830317409E+03  0.12508875180E+03 0.  0.
          5    1    3    3  502    0 -0.51719631919E+02  0.18552378574E+02  0.11817006256E+02  0.56358008423E+02  0.41800000000E+01 0. -1.
         -5    1    3    3    0  502 -0.10325520128E+03 -0.23599295472E+02 -0.16002159506E+03  0.19194516567E+03  0.41800000000E+01 0. -1.
        -11    1    1    2    0    0  0.12877645194E+03 -0.19746981302E+02 -0.63154861880E+02  0.14478209290E+03  0.00000000000E+00 0.  1.
         11    1    1    2    0    0  0.26198381252E+02  0.24793898200E+02 -0.62790791950E+02  0.72413922155E+02  0.00000000000E+00 0. -1.
</event>
<event>
 7    1  0.2679104E-009  0.7945527E+02  0.7561462E-02  0.1330604E+00
         -2   -1    0    0    0  501 -0.00000000000E+00  0.00000000000E+00  0.12594632485E+03  0.12594632485E+03  0.00000000000E+00 0.  1.
          2   -1    0    0  501    0  0.00000000000E+00 -0.00000000000E+00 -0.12711424822E+03  0.12711424822E+03  0.00000000000E+00 0. -1.
         25    2    1    2    0    0  0.27661822885E+02  0.29416579683E+02  0.49331443221E+02  0.14039775853E+03  0.12508967865E+03 0.  0.
          5    1    3    3  502    0  0.33831387273E+02 -0.18847460470E+02  0.75526829507E+02  0.84979785281E+02  0.41800000000E+01 0.  1.
         -5    1    3    3    0  502 -0.61695643880E+01  0.48264040153E+02 -0.26195386285E+02  0.55417973251E+02  0.41800000000E+01 0.  1.
        -11    1    1    2    0    0 -0.22567827456E+01  0.17566384308E+02 -0.56221782516E+02  0.58945396387E+02  0.00000000000E+00 0. -1.
         11    1    1    2    0    0 -0.25405040140E+02 -0.46982963991E+02  0.57224159241E+01  0.53717418161E+02  0.00000000000E+00 0.  1.
</event>
<event>
 7    1  0.2679104E-009  0.1445565E+03  0.7561462E-02  0.1207326E+00
         -2   -1    0    0    0  501 -0.00000000000E+00  0.00000000000E+00  0.17931053008E+03  0.17931053008E+03  0.00000000000E+00 0.  1.
          2   -1    0    0  501    0  0.00000000000E+00 -0.00000000000E+00 -0.17179805153E+03  0.17179805153E+03  0.00000000000E+00 0. -1.
         25    2    1    2    0    0 -0.12528258483E+03  0.28114163977E+02 -0.41325419797E+02  0.18396052714E+03  0.12509017926E+03 0.  0.
          5    1    3    3  502    0  0.15092623815E+02 -0.11369871752E+01  0.22102464191E+02  0.27112199409E+02  0.41800000000E+01 0.  1.
         -5    1    3    3    0  502 -0.14037520864E+03  0.29251151152E+02 -0.63427883987E+02  0.15684832773E+03  0.41800000000E+01 0.  1.
        -11    1    1    2    0    0  0.32145484304E+02  0.16341792419E+01  0.60652825526E+02  0.68664167855E+02  0.00000000000E+00 0.  1.
         11    1    1    2    0    0  0.93137100522E+02 -0.29748343218E+02 -0.11814927175E+02  0.98483886611E+02  0.00000000000E+00 0. -1.
</event>
<event>
 7    1  0.2679104E-009  0.1187893E+03  0.7561462E-02  0.1245108E+00
          1   -1    0    0  501    0  0.00000000000E+00  0.00000000000E+00  0.59853305023E+03  0.59853305023E+03  0.00000000000E+00 0. -1.
         -1   -1    0    0    0  501 -0.00000000000E+00 -0.00000000000E+00 -0.32072165632E+02  0.32072165632E+02  0.00000000000E+00 0.  1.
         25    2    1    2    0    0 -0.22125282937E+02 -0.84158757470E+02  0.33026669473E+03  0.36372109190E+03  0.12507884888E+03 0.  0.
          5    1    3    3  502    0  0.25333620883E+01 -0.11229932783E+03  0.21739043142E+03  0.24473174912E+03  0.41800000000E+01 0. -1.
         -5    1    3    3    0  502 -0.24658645025E+02  0.28140570361E+02  0.11287626332E+03  0.11898934278E+03  0.41800000000E+01 0. -1.
        -11    1    1    2    0    0  0.20973068340E+02  0.64336432308E+02  0.23753252004E+03  0.24698328728E+03  0.00000000000E+00 0. -1.
         11    1    1    2    0    0  0.11522145965E+01  0.19822325162E+02 -0.13383301728E+01  0.19900836690E+02  0.00000000000E+00 0.  1.
</event>
<event>
 7    1  0.2679104E-009  0.1516784E+03  0.7561462E-02  0.1198426E+00
         -1   -1    0    0    0  501 -0.00000000000E+00  0.00000000000E+00  0.11100409065E+03  0.11100409065E+03  0.00000000000E+00 0.  1.
          1   -1    0    0  501    0  0.00000000000E+00 -0.00000000000E+00 -0.50086672834E+03  0.50086672834E+03  0.00000000000E+00 0. -1.
         25    2    1    2    0    0  0.12589046625E+03 -0.15290654786E+02 -0.41478617536E+03  0.45141597842E+03  0.12508637289E+03 0.  0.
          5    1    3    3  502    0  0.14669773547E+03 -0.90739377329E+01 -0.39593829652E+03  0.42235905222E+03  0.41800000000E+01 0. -1.
         -5    1    3    3    0  502 -0.20807269220E+02 -0.62167170534E+01 -0.18847878839E+02  0.29056926197E+02  0.41800000000E+01 0. -1.
        -11    1    1    2    0    0 -0.81257953034E+02 -0.11623414504E+02  0.56376293250E+02  0.99580345132E+02  0.00000000000E+00 0.  1.
         11    1    1    2    0    0 -0.44632513217E+02  0.26914069290E+02 -0.31452755581E+02  0.60874495443E+02  0.00000000000E+00 0. -1.
</event>
<event>
 7    1  0.2679104E-009  0.1378307E+03  0.7561462E-02  0.1216278E+00
         -1   -1    0    0    0  501 -0.00000000000E+00  0.00000000000E+00  0.33023541156E+02  0.33023541156E+02  0.00000000000E+00 0.  1.
          1   -1    0    0  501    0  0.00000000000E+00 -0.00000000000E+00 -0.81982523154E+03  0.81982523154E+03  0.00000000000E+00 0. -1.
         25    2    1    2    0    0 -0.10773282704E+03 -0.57805950745E+02 -0.34920266112E+03  0.39056264199E+03  0.12509511909E+03 0.  0.
          5    1    3    3  502    0 -0.11501086020E+03 -0.23861161880E+02 -0.33077682480E+03  0.35103793703E+03  0.41800000000E+01 0. -1.
         -5    1    3    3    0  502  0.72780331643E+01 -0.33944788865E+02 -0.18425836325E+02  0.39524704959E+02  0.41800000000E+01 0. -1.
        -11    1    1    2    0    0  0.52466453566E+02  0.36571415631E+02 -0.94441914875E+02  0.11405907450E+03  0.00000000000E+00 0.  1.
         11    1    1    2    0    0  0.55266373474E+02  0.21234535114E+02 -0.34315711439E+03  0.34822705620E+03  0.00000000000E+00 0. -1.
</event>
<event>
 7    1  0.2679104E-009  0.1906220E+03  0.7561462E-02  0.1157902E+00
          1   -1    0    0  501    0  0.00000000000E+00  0.00000000000E+00  0.27157383847E+03  0.27157383847E+03  0.00000000000E+00 0.  1.
         -1   -1    0    0    0  501 -0.00000000000E+00 -0.00000000000E+00 -0.15062966221E+03  0.15062966221E+03  0.00000000000E+00 0. -1.
         25    2    1    2    0    0  0.12286859952E+03  0.10563056001E+03  0.12574485512E+03  0.24023606339E+03  0.12508832722E+03 0.  0.
          5    1    3    3  502    0 -0.61191141801E+01  0.65986650451E+02  0.62348236426E+02  0.91084886680E+02  0.41800000000E+01 0. -1.
         -5    1    3    3    0  502  0.12898771370E+03  0.39643909555E+02  0.63396618696E+02  0.14915117671E+03  0.41800000000E+01 0. -1.
        -11    1    1    2    0    0 -0.56277065772E+02 -0.97731910687E+02 -0.16240571835E+02  0.11394029433E+03  0.00000000000E+00 0. -1.
         11    1    1    2    0    0 -0.66591533752E+02 -0.78986493190E+01  0.11439892972E+02  0.68027142963E+02  0.00000000000E+00 0.  1.
</event>
<event>
 7    1  0.2679104E-009  0.9797954E+02  0.7561462E-02  0.1284603E+00
          2   -1    0    0  501    0  0.00000000000E+00  0.00000000000E+00  0.79726870519E+03  0.79726870519E+03  0.00000000000E+00 0. -1.
         -2   -1    0    0    0  501 -0.00000000000E+00 -0.00000000000E+00 -0.21850948628E+02  0.21850948628E+02  0.00000000000E+00 0.  1.
         25    2    1    2    0    0  0.58518780259E+02  0.45131710710E+02  0.38296322617E+03  0.40959738750E+03  0.12509143974E+03 0.  0.
          5    1    3    3  502    0  0.60185055441E+02  0.24790390958E+02  0.38325166666E+03  0.38876228827E+03  0.41800000000E+01 0. -1.
         -5    1    3    3    0  502 -0.16662751820E+01  0.20341319752E+02 -0.28844048807E+00  0.20835099236E+02  0.41800000000E+01 0. -1.
        -11    1    1    2    0    0 -0.20476963708E+02 -0.64172412530E+02  0.16671122388E+03  0.17980555259E+03  0.00000000000E+00 0.  1.
         11    1    1    2    0    0 -0.38041816551E+02  0.19040701819E+02  0.22574330650E+03  0.22971671372E+03  0.00000000000E+00 0. -1.
</event>
<event>
 7    1  0.2679104E-009  0.1136399E+03  0.7561462E-02  0.1253974E+00
          1   -1    0    0  501    0  0.00000000000E+00  0.00000000000E+00  0.59100306346E+02  0.59100306346E+02  0.00000000000E+00 0. -1.
         -1   -1    0    0    0  501 -0.00000000000E+00 -0.00000000000E+00 -0.26947482245E+03  0.26947482245E+03  0.00000000000E+00 0.  1.
         25    2    1    2    0    0 -0.33796364076E+02  0.44894886132E+02 -0.95238565826E+02  0.16695832897E+03  0.12508778583E+03 0.  0.
          5    1    3    3  502    0 -0.67324013553E+02 -0.14003061560E+02 -0.53815023751E+02  0.87419321178E+02  0.41800000000E+01 0.  1.
         -5    1    3    3    0  502  0.33527649477E+02  0.58897947692E+02 -0.41423542075E+02  0.79539007788E+02  0.41800000000E+01 0.  1.
        -11    1    1    2    0    0  0.32626572778E+02  0.11112658735E+02 -0.10085269037E+01  0.34481901948E+02  0.00000000000E+00 0.  1.
         11    1    1    2    0    0  0.11697912973E+01 -0.56007544867E+02 -0.11412742338E+03  0.12713489789E+03  0.00000000000E+00 0. -1.
</event>
<event>
 7    1  0.2679104E-009  0.1283109E+03  0.7561462E-02  0.1229984E+00
         -2   -1    0    0    0  501 -0.00000000000E+00  0.00000000000E+00  0.12024017001E+03  0.12024017001E+03  0.00000000000E+00 0.  1.
          2   -1    0    0  501    0  0.00000000000E+00 -0.00000000000E+00 -0.18849938457E+03  0.18849938457E+03  0.00000000000E+00 0. -1.
         25    2    1    2    0    0  0.12051258270E+02  0.95930050245E+02 -0.76240813574E+02  0.17552117677E+03  0.12508882634E+03 0.  0.
          5    1    3    3  502    0  0.52012460306E+02  0.20337528742E+01 -0.83495938592E+01  0.52883081372E+02  0.41800000000E+01 0. -1.
         -5    1    3    3    0  502 -0.39961202036E+02  0.93896297370E+02 -0.67891219715E+02  0.12263809540E+03  0.41800000000E+01 0. -1.
        -11    1    1    2    0    0 -0.15408955491E+02 -0.15799140708E+02 -0.35641543062E+02  0.41920977425E+02  0.00000000000E+00 0. -1.
         11    1    1    2    0    0  0.33576972206E+01 -0.80130909536E+02  0.43623142077E+02  0.91297400392E+02  0.00000000000E+00 0.  1.
</event>
<event>
 7    1  0.2679104E-009  0.1973841E+03  0.7561462E-02  0.1151965E+00
         -2   -1    0    0    0  501 -0.00000000000E+00  0.00000000000E+00  0.26856689342E+03  0.26856689342E+03  0.00000000000E+00 0. -1.
          2   -1    0    0  501    0  0.00000000000E+00 -0.00000000000E+00 -0.15521136717E+03  0.15521136717E+03  0.00000000000E+00 0.  1.
         25    2    1    2    0    0 -0.16561100353E+03 -0.40351558505E+02  0.86778062175E+02  0.22854624405E+03  0.12509077036E+03 0.  0.
          5    1    3    3  502    0 -0.14245112789E+03  0.13190490351E+02  0.28402389040E+02  0.14591257991E+03  0.41800000000E+01 0.  1.
         -5    1    3    3    0  502 -0.23159875641E+02 -0.53542048856E+02  0.58375673135E+02  0.82633664141E+02  0.41800000000E+01 0.  1.
        -11    1    1    2    0    0  0.11854060164E+02  0.37551673571E+02  0.14076674943E+01  0.39403406682E+02  0.00000000000E+00 0. -1.
         11    1    1    2    0    0  0.15375694336E+03  0.27998849340E+01  0.25169796578E+02  0.15582860985E+03  0.00000000000E+00 0.  1.
</event>
<event>
 7    1  0.2679104E-009  0.8433128E+02  0.7561462E-02  0.1317191E+00
          2   -1    0    0  501    0  0.00000000000E+00  0.00000000000E+00  0.47063426186E+03  0.47063426186E+03  0.00000000000E+00 0. -1.
         -2   -1    0    0    0  501 -0.00000000000E+00 -0.00000000000E+00 -0.26540339040E+02  0.26540339040E+02  0.00000000000E+00 0.  1.
         25    2    1    2    0    0  0.35682284308E+01 -0.88356260581E+01  0.30816851464E+03  0.33272528729E+03  0.12508989906E+03 0.  0.
          5    1    3    3  502    0 -0.36557944669E+02  0.21369047170E+02  0.25845563346E+03  0.26193492772E+03  0.41800000000E+01 0. -1.
         -5    1    3    3    0  502  0.40126173100E+02 -0.30204673228E+02  0.49712881179E+02  0.70790359567E+02  0.41800000000E+01 0. -1.
        -11    1    1    2    0    0 -0.91133978245E+01 -0.32630260022E+02  0.16059490029E+02  0.37492600724E+02  0.00000000000E+00 0.  1.
         11    1    1    2    0    0  0.55451693937E+01  0.41465886080E+02  0.11986591815E+03  0.12695671288E+03  0.00000000000E+00 0. -1.
</event>
<event>
 7    1  0.2679104E-009  0.9135932E+02  0.7561462E-02  0.1299593E+00
          1   -1    0    0  501    0  0.00000000000E+00  0.00000000000E+00  0.20755232671E+03  0.20755232671E+03  0.00000000000E+00 0. -1.
         -1   -1    0    0    0  501 -0.00000000000E+00 -0.00000000000E+00 -0.67877492723E+02  0.67877492723E+02  0.00000000000E+00 0.  1.
         25    2    1    2    0    0 -0.45389494130E+02 -0.13438602139E+02  0.85719835019E+02  0.15885845006E+03  0.12508922749E+03 0.  0.
          5    1    3    3  502    0 -0.25337656128E+02  0.26580139492E+02 -0.21385871618E+02  0.42700451266E+02  0.41800000000E+01 0. -1.
         -5    1    3    3    0  502 -0.20051838003E+02 -0.40018741631E+02  0.10710570664E+03  0.11615799879E+03  0.41800000000E+01 0. -1.
        -11    1    1    2    0    0  0.21636881314E+02 -0.38234777555E+02  0.10965279485E+02  0.45280130321E+02  0.00000000000E+00 0.  1.
         11    1    1    2    0    0  0.23752612816E+02  0.51673379693E+02  0.42989719480E+02  0.71291239052E+02  0.00000000000E+00 0. -1.
</event>
<event>
 7    1  0.2679104E-009  0.1058552E+03  0.7561462E-02  0.1268444E+00
          2   -1    0    0  501    0  0.00000000000E+00  0.00000000000E+00  0.15542286917E+03  0.15542286917E+03  0.00000000000E+00 0. -1.
         -2   -1    0    0    0  501 -0.00000000000E+00 -0.00000000000E+00 -0.11882482153E+03  0.11882482153E+03  0.00000000000E+00 0.  1.
         25    2    1    2    0    0  0.38297317586E+02 -0.34749769310E+02 -0.45404626956E+02  0.14277388272E+03  0.12509424621E+03 0.  0.
          5    1    3    3  502    0  0.62560410119E+02  0.21718461841E+02 -0.18299935779E+00  0.66355123297E+02  0.41800000000E+01 0.  1.
         -5    1    3    3    0  502 -0.24263092533E+02 -0.56468231152E+02 -0.45221627598E+02  0.76418759420E+02  0.41800000000E+01 0.  1.
        -11    1    1    2    0    0 -0.48370755279E+02  0.47304538612E+02  0.90718333105E+02  0.11316918883E+03  0.00000000000E+00 0. -1.
         11    1    1    2    0    0  0.10073437694E+02 -0.12554769302E+02 -0.87156585114E+01  0.18304619157E+02  0.00000000000E+00 0.  1.
</event>
<event>
 7    1  0.2679104E-009  0.1008945E+03  0.7561462E-02  0.1278426E+00
         -1   -1    0    0    0  501 -0.00000000000E+00  0.00000000000E+00  0.10836125993E+03  0.10836125993E+03  0.00000000000E+00 0.  1.
          1   -1    0    0  501    0  0.00000000000E+00 -0.00000000000E+00 -0.11099697404E+03  0.11099697404E+03  0.00000000000E+00 0. -1.
         25    2    1    2    0    0  0.87639117826E+01 -0.13963821708E+02 -0.10774239766E+02  0.12663104492E+03  0.12509013882E+03 0.  0.
          5    1    3    3  502    0  0.50310003639E+02 -0.49589220500E+02 -0.11752426139E+02  0.71734086571E+02  0.41800000000E+01 0.  1.
         -5    1    3    3    0  502 -0.41546091856E+02  0.35625398792E+02  0.97818637250E+00  0.54896958351E+02  0.41800000000E+01 0.  1.
        -11    1    1    2    0    0  0.33039845023E+02  0.59918405302E+01  0.29870895321E+02  0.44942228465E+02  0.00000000000E+00 0.  1.
         11    1    1    2    0    0 -0.41803756805E+02  0.79719811782E+01 -0.21732369658E+02  0.47784960583E+02  0.00000000000E+00 0. -1.
</event>
<event>
 7    1  0.2679104E-009  0.1472452E+03  0.7561462E-02  0.1203899E+00
          2   -1    0    0  501    0  0.00000000000E+00  0.00000000000E+00  0.11983199026E+04  0.11983199026E+04  0.00000000000E+00 0. -1.
         -2   -1    0    0    0  501 -0.00000000000E+00 -0.00000000000E+00 -0.18470269134E+02  0.18470269134E+02  0.00000000000E+00 0.  1.
         25    2    1    2    0    0  0.71948968662E+02 -0.73101829287E+02  0.58927830974E+03  0.61107959402E+03  0.12509521321E+03 0.  0.
          5    1    3    3  502    0 -0.32821308166E+02 -0.39762754656E+02  0.19236743378E+03  0.19920094605E+03  0.41800000000E+01 0.  1.
         -5    1    3    3    0  502  0.10477027683E+03 -0.33339074631E+02  0.39691087595E+03  0.41187864797E+03  0.41800000000E+01 0.  1.
        -11    1    1    2    0    0 -0.10204530326E+02 -0.19166920192E+02  0.64668782354E+02  0.68216967684E+02  0.00000000000E+00 0. -1.
         11    1    1    2    0    0 -0.61744438336E+02  0.92268749479E+02  0.52590254133E+03  0.53749360998E+03  0.00000000000E+00 0.  1.
</event>
<event>
 7    1  0.2679104E-009  0.8956709E+02  0.7561462E-02  0.1303903E+00
         -2   -1    0    0    0  501 -0.00000000000E+00  0.00000000000E+00  0.30738127996E+02  0.30738127996E+02  0.00000000000E+00 0.  1.
          2   -1    0    0  501    0  0.00000000000E+00 -0.00000000000E+00 -0.54061998073E+03  0.54061998073E+03  0.00000000000E+00 0. -1.
         25    2    1    2    0    0 -0.25699531452E+02 -0.20983659045E+02 -0.14793133197E+03  0.19655016790E+03  0.12509000624E+03 0.  0.
          5    1    3    3  502    0  0.26893767811E+02 -0.15266380127E+02  0.76814418207E+01  0.32137424566E+02  0.41800000000E+01 0. -1.
         -5    1    3    3    0  502 -0.52593299263E+02 -0.57172789180E+01 -0.15561277379E+03  0.16441274334E+03  0.41800000000E+01 0. -1.
        -11    1    1    2    0    0 -0.29808137307E+02  0.25420409995E+02 -0.10972765209E+03  0.11651128669E+03  0.00000000000E+00 0.  1.
         11    1    1    2    0    0  0.55507668759E+02 -0.44367509493E+01 -0.25222286868E+03  0.25829665413E+03  0.00000000000E+00 0. -1.
</event>
<event>
 7    1  0.2679104E-009  0.1941461E+03  0.7561462E-02  0.1154774E+00
         -1   -1    0    0    0  501 -0.00000000000E+00  0.00000000000E+00  0.29950648644E+03  0.29950648644E+03  0.00000000000E+00 0.  1.
          1   -1    0    0  501    0  0.00000000000E+00 -0.00000000000E+00 -0.17129091851E+03  0.17129091851E+03  0.00000000000E+00 0. -1.
         25    2    1    2    0    0 -0.96505268987E+02 -0.14280193843E+03 -0.35783198626E+02  0.21594800333E+03  0.12508973690E+03 0.  0.
          5    1    3    3  502    0 -0.10988148284E+03 -0.55454378501E+02 -0.88320254162E+01  0.12346904648E+03  0.41800000000E+01 0.  1.
         -5    1    3    3    0  502  0.13376213855E+02 -0.87347559929E+02 -0.26951173210E+02  0.92478956849E+02  0.41800000000E+01 0.  1.
        -11    1    1    2    0    0  0.16095799313E+02  0.56371743504E+02  0.11082636335E+03  0.12537675635E+03  0.00000000000E+00 0.  1.
         11    1    1    2    0    0  0.80409469674E+02  0.86430194926E+02  0.53172403216E+02  0.12947264527E+03  0.00000000000E+00 0. -1.
</event>
<event>
 7    1  0.2679104E-009  0.1413169E+03  0.7561462E-02  0.1211568E+00
          2   -1    0    0  501    0  0.00000000000E+00  0.00000000000E+00  0.13558560751E+04  0.13558560751E+04  0.00000000000E+00 0.  1.
         -2   -1    0    0    0  501 -0.00000000000E+00 -0.00000000000E+00 -0.17457772750E+02  0.17457772750E+02  0.00000000000E+00 0. -1.
         25    2    1    2    0    0  0.17683298453E+02 -0.10004856028E+03  0.84436368176E+03  0.85960490125E+03  0.12509254863E+03 0.  0.
          5    1    3    3  502    0  0.15600444126E+02  0.19282664255E+02  0.46625663344E+02  0.52977541279E+02  0.41800000000E+01 0.  1.
         -5    1    3    3    0  502  0.20828543266E+01 -0.11933122454E+03  0.79773801842E+03  0.80662735997E+03  0.41800000000E+01 0.  1.
        -11    1    1    2    0    0 -0.32416068395E+02  0.11354289030E+03  0.45198569186E+03  0.46715506534E+03  0.00000000000E+00 0.  1.
         11    1    1    2    0    0  0.14732769942E+02 -0.13494330017E+02  0.42048928732E+02  0.46553881259E+02  0.00000000000E+00 0. -1.
</event>
<event>
 7    1  0.2679104E-009  0.1685907E+03  0.7561462E-02  0.1179326E+00
          1   -1    0    0  501    0  0.00000000000E+00  0.00000000000E+00  0.22050561872E+03  0.22050561872E+03  0.00000000000E+00 0. -1.
         -1   -1    0    0    0  501 -0.00000000000E+00 -0.00000000000E+00 -0.13523048106E+03  0.13523048106E+03  0.00000000000E+00 0.  1.
         25    2    1    2    0    0 -0.88926522156E+02 -0.10225554937E+03  0.70546988356E+02  0.19745117171E+03  0.12508382759E+03 0.  0.
          5    1    3    3  502    0 -0.11840911101E+03 -0.92588895409E+02  0.70660199389E+02  0.16614378502E+03  0.41800000000E+01 0.  1.
         -5    1    3    3    0  502  0.29482588858E+02 -0.96666539650E+01 -0.11321103231E+00  0.31307386690E+02  0.41800000000E+01 0.  1.
        -11    1    1    2    0    0  0.25926597799E+02 -0.91716408748E+01 -0.71724708583E+01  0.28420974789E+02  0.00000000000E+00 0.  1.
         11    1    1    2    0    0  0.62999924358E+02  0.11142719025E+03  0.21900620166E+02  0.12986395327E+03  0.00000000000E+00 0. -1.
</event>
<event>
 7    1  0.2679104E-009  0.1641178E+03  0.7561462E-02  0.1184125E+00
         -1   -1    0    0    0  501 -0.00000000000E+00  0.00000000000E+00  0.99123315121E+03  0.99123315121E+03  0.00000000000E+00 0.  1.
          1   -1    0    0  501    0  0.00000000000E+00 -0.00000000000E+00 -0.31552730159E+02  0.31552730159E+02  0.00000000000E+00 0. -1.
         25    2    1    2    0    0 -0.59765621633E+02 -0.11354628223E+03  0.66391234604E+03  0.68767144746E+03  0.12509088172E+03 0.  0.
          5    1    3    3  502    0 -0.94006640509E+02 -0.84670084787E+02  0.38831321650E+03  0.40842489913E+03  0.41800000000E+01 0. -1.
         -5    1    3    3    0  502  0.34241018876E+02 -0.28876197440E+02  0.27559912954E+03  0.27924654833E+03  0.41800000000E+01 0. -1.
        -11    1    1    2    0    0  0.18211354272E+02  0.11366044261E+03  0.23224942903E+03  0.25921062270E+03  0.00000000000E+00 0.  1.
         11    1    1    2    0    0  0.41554267361E+02 -0.11416037958E+00  0.63518645980E+02  0.75903811206E+02  0.00000000000E+00 0. -1.
</event>
<event>
 7    1  0.2679104E-009  0.1212659E+03  0.7561462E-02  0.1241023E+00
          1   -1    0    0  501    0  0.00000000000E+00  0.00000000000E+00  0.49591349305E+03  0.49591349305E+03  0.00000000000E+00 0. -1.
         -1   -1    0    0    0  501 -0.00000000000E+00 -0.00000000000E+00 -0.42438193277E+02  0.42438193277E+02  0.00000000000E+00 0.  1.
         25    2    1    2    0    0 -0.64817366362E+02 -0.79444568223E+01  0.37901632018E+03  0.40442988802E+03  0.12508300437E+03 0.  0.
          5    1    3    3  502    0  0.19339375678E+02 -0.44919732110E+02  0.13306223372E+03  0.14182674017E+03  0.41800000000E+01 0. -1.
         -5    1    3    3    0  502 -0.84156742040E+02  0.36975275288E+02  0.24595408646E+03  0.26260314785E+03  0.41800000000E+01 0. -1.
        -11    1    1    2    0    0 -0.17645277026E+02  0.69440145724E+01 -0.47786519651E+01  0.19555322915E+02  0.00000000000E+00 0.  1.
         11    1    1    2    0    0  0.82462643388E+02  0.10004422498E+01  0.79237631557E+02  0.11436647539E+03  0.00000000000E+00 0. -1.
</event>
<event>
 7    1  0.2679104E-009  0.1059336E+03  0.7561462E-02  0.1268291E+00
          2   -1    0    0  501    0  0.00000000000E+00  0.00000000000E+00  0.34822895536E+03  0.34822895536E+03  0.00000000000E+00 0.  1.
         -2   -1    0    0    0  501 -0.00000000000E+00 -0.00000000000E+00 -0.42213711985E+02  0.42213711985E+02  0.00000000000E+00 0. -1.
         25    2    1    2    0    0  0.30504633201E+02 -0.47356204955E+02  0.17147510544E+03  0.21960032927E+03  0.12508976791E+03 0.  0.
          5    1    3    3  502    0 -0.25366788680E+02 -0.65767279354E+02  0.56700830672E+02  0.90560839222E+02  0.41800000000E+01 0. -1.
         -5    1    3    3    0  502  0.55871421881E+02  0.18411074400E+02  0.11477427477E+03  0.12903949005E+03  0.41800000000E+01 0. -1.
        -11    1    1    2    0    0 -0.65148944876E+01 -0.14519965919E+02  0.88866450830E+02  0.90280226758E+02  0.00000000000E+00 0.  1.
         11    1    1    2    0    0 -0.23989738713E+02  0.61876170874E+02  0.45673687099E+02  0.80562111310E+02  0.00000000000E+00 0. -1.
</event>
<event>
 7    1  0.2679104E-009  0.1134788E+03  0.7561462E-02  0.1254260E+00
          2   -1    0    0  501    0  0.00000000000E+00  0.00000000000E+00  0.98468404173E+02  0.98468404173E+02  0.00000000000E+00 0. -1.
         -2   -1    0    0    0  501 -0.00000000000E+00 -0.00000000000E+00 -0.63788362574E+03  0.63788362574E+03  0.00000000000E+00 0.  1.
         25    2    1    2    0    0  0.10827091232E+02 -0.71678233185E+02 -0.59054953286E+03  0.60799149200E+03  0.12509959458E+03 0.  0.
          5    1    3    3  502    0 -0.51888012559E+02 -0.45504038457E+02 -0.20157822866E+03  0.21310616610E+03  0.41800000000E+01 0. -1.
         -5    1    3    3    0  502  0.62715103791E+02 -0.26174194729E+02 -0.38897130420E+03  0.39488532589E+03  0.41800000000E+01 0. -1.
        -11    1    1    2    0    0 -0.13800243664E+02 -0.37048011233E+01  0.50953058002E+02  0.52918677197E+02  0.00000000000E+00 0. -1.
         11    1    1    2    0    0  0.29731524321E+01  0.75383034309E+02  0.18125328310E+00  0.75441860725E+02  0.00000000000E+00 0.  1.
</event>
<event>
 7    1  0.2679104E-009  0.1171249E+03  0.7561462E-02  0.1247917E+00
         -2   -1    0    0    0  501 -0.00000000000E+00  0.00000000000E+00  0.18227673600E+02  0.18227673600E+02  0.00000000000E+00 0.  1.
          2   -1    0    0  501    0  0.00000000000E+00 -0.00000000000E+00 -0.79075526408E+03  0.79075526408E+03  0.00000000000E+00 0. -1.
         25    2    1    2    0    0 -0.27425784077E+02 -0.35835012802E+02 -0.35895407242E+03  0.38279364666E+03  0.12508648223E+03 0.  0.
          5    1    3    3  502    0  0.60537245185E+00 -0.80022800805E+02 -0.23020993811E+03  0.24375828833E+03  0.41800000000E+01 0.  1.
         -5    1    3    3    0  502 -0.28031156529E+02  0.44187788003E+02 -0.12874413432E+03  0.13903535833E+03  0.41800000000E+01 0.  1.
        -11    1    1    2    0    0  0.61159794600E+02  0.19934559554E+02 -0.29308577981E+03  0.30006196271E+03  0.00000000000E+00 0.  1.
         11    1    1    2    0    0 -0.33734010523E+02  0.15900453248E+02 -0.12048773825E+03  0.12612732831E+03  0.00000000000E+00 0. -1.
</event>
<event>
 7    1  0.2679104E-009  0.1043475E+03  0.7561462E-02  0.1271411E+00
          1   -1    0    0  501    0  0.00000000000E+00  0.00000000000E+00  0.35648581549E+03  0.35648581549E+03  0.00000000000E+00 0. -1.
         -1   -1    0    0    0  501 -0.00000000000E+00 -0.00000000000E+00 -0.39984272866E+02  0.39984272866E+02  0.00000000000E+00 0.  1.
         25    2    1    2    0    0  0.30770986200E+02  0.24916002715E+02  0.12114303212E+03  0.17858146698E+03  0.12509214737E+03 0.  0.
          5    1    3    3  502    0  0.22299298014E+02  0.66384615314E+02  0.11623886627E+03  0.13576863509E+03  0.41800000000E+01 0.  1.
         -5    1    3    3    0  502  0.84716881858E+01 -0.41468612599E+02  0.49041658480E+01  0.42812831888E+02  0.41800000000E+01 0.  1.
        -11    1    1    2    0    0 -0.12222589415E+02  0.33002658096E+02  0.61391075841E+02  0.70763206021E+02  0.00000000000E+00 0.  1.
         11    1    1    2    0    0 -0.18548396784E+02 -0.57918660811E+02  0.13396743467E+03  0.14712541536E+03  0.00000000000E+00 0. -1.
</event>
<event>
 7    1  0.2679104E-009  0.1421219E+03  0.7561462E-02  0.1210502E+00
          4   -1    0    0  501    0  0.00000000000E+00  0.00000000000E+00  0.53571128476E+02  0.53571128476E+02  0.00000000000E+00 0. -1.
         -4   -1    0    0    0  501 -0.00000000000E+00 -0.00000000000E+00 -0.51768237396E+03  0.51768237396E+03  0.00000000000E+00 0.  1.
         25    2    1    2    0    0  0.56760011484E+02 -0.95334903735E+02 -0.34993184887E+03  0.38782779945E+03  0.12509060873E+03 0.  0.
          5    1    3    3  502    0  0.96197088011E+02 -0.74369462180E+02 -0.23944420696E+03  0.26858089525E+03  0.41800000000E+01 0. -1.
         -5    1    3    3    0  502 -0.39437076527E+02 -0.20965441555E+02 -0.11048764191E+03  0.11924690420E+03  0.41800000000E+01 0. -1.
        -11    1    1    2    0    0 -0.29748466607E+02  0.82724349553E+02 -0.12403413553E+03  0.15202880007E+03  0.00000000000E+00 0.  1.
         11    1    1    2    0    0 -0.27011544877E+02  0.12610554182E+02  0.98547389226E+01  0.31396902915E+02  0.00000000000E+00 0. -1.
</event>
<event>
 7    1  0.2679104E-009  0.1159506E+03  0.7561462E-02  0.1249931E+00
          2   -1    0    0  501    0  0.00000000000E+00  0.00000000000E+00  0.35636460424E+03  0.35636460424E+03  0.00000000000E+00 0. -1.
         -2   -1    0    0    0  501 -0.00000000000E+00 -0.00000000000E+00 -0.63771008433E+02  0.63771008433E+02  0.00000000000E+00 0.  1.
         25    2    1    2    0    0 -0.69829070245E+02 -0.34543703765E+02  0.25358743660E+03  0.29329728794E+03  0.12508934643E+03 0.  0.
          5    1    3    3  502    0 -0.40267327187E+02  0.44516685299E+02  0.13371386453E+03  0.14662899740E+03  0.41800000000E+01 0.  1.
         -5    1    3    3    0  502 -0.29561743058E+02 -0.79060389064E+02  0.11987357207E+03  0.14666829055E+03  0.41800000000E+01 0.  1.
        -11    1    1    2    0    0  0.53495532906E+02  0.53438743230E+01 -0.21336424200E+02  0.57840920043E+02  0.00000000000E+00 0.  1.
         11    1    1    2    0    0  0.16333537338E+02  0.29199829442E+02  0.60342583403E+02  0.68997404684E+02  0.00000000000E+00 0. -1.
</event>
<event>
 7    1  0.2679104E-009  0.1665202E+03  0.7561462E-02  0.1181526E+00
         -2   -1    0    0    0  501 -0.00000000000E+00  0.00000000000E+00  0.22125186607E+02  0.22125186607E+02  0.00000000000E+00 0.  1.
          2   -1    0    0  501    0  0.00000000000E+00 -0.00000000000E+00 -0.15706196147E+04  0.15706196147E+04  0.00000000000E+00 0. -1.
         25    2    1    2    0    0 -0.83221795815E+02  0.12563126331E+03 -0.80169302438E+03  0.82526867329E+03  0.12509035195E+03 0.  0.
          5    1    3    3  502    0 -0.98182362338E+02  0.72292658895E+02 -0.68795111946E+03  0.69868463557E+03  0.41800000000E+01 0.  1.
         -5    1    3    3    0  502  0.14960566523E+02  0.53338604419E+02 -0.11374190491E+03  0.12658403772E+03  0.41800000000E+01 0.  1.
        -11    1    1    2    0    0  0.79097387640E+01 -0.42852803761E+02 -0.77744922137E+02  0.89124630016E+02  0.00000000000E+00 0.  1.
         11    1    1    2    0    0  0.75312057051E+02 -0.82778459553E+02 -0.66905648156E+03  0.67835149798E+03  0.00000000000E+00 0. -1.
</event>
<event>
 7    1  0.2679104E-009  0.1098400E+03  0.7561462E-02  0.1260867E+00
          1   -1    0    0  501    0  0.00000000000E+00  0.00000000000E+00  0.25432610669E+03  0.25432610669E+03  0.00000000000E+00 0. -1.
         -1   -1    0    0    0  501 -0.00000000000E+00 -0.00000000000E+00 -0.72726070546E+02  0.72726070546E+02  0.00000000000E+00 0.  1.
         25    2    1    2    0    0  0.29090654234E+02  0.48180284794E+02  0.17143813839E+03  0.21955963651E+03  0.12509113750E+03 0.  0.
          5    1    3    3  502    0 -0.37130420848E+02  0.26664565168E+02  0.13127486176E+03  0.13906915157E+03  0.41800000000E+01 0.  1.
         -5    1    3    3    0  502  0.66221075082E+02  0.21515719626E+02  0.40163276632E+02  0.80490484940E+02  0.41800000000E+01 0.  1.
        -11    1    1    2    0    0  0.25553095515E+02 -0.41820964769E+02 -0.77900831275E+01  0.49624985438E+02  0.00000000000E+00 0. -1.
         11    1    1    2    0    0 -0.54643749749E+02 -0.63593200242E+01  0.17951980882E+02  0.57867555291E+02  0.00000000000E+00 0.  1.
</event>
<event>
 7    1  0.2679104E-009  0.1104692E+03  0.7561462E-02  0.1259703E+00
          1   -1    0    0  501    0  0.00000000000E+00  0.00000000000E+00  0.38181017162E+03  0.38181017162E+03  0.00000000000E+00 0. -1.
         -1   -1    0    0    0  501 -0.00000000000E+00 -0.00000000000E+00 -0.47653227247E+02  0.47653227247E+02  0.00000000000E+00 0.  1.
         25    2    1    2    0    0 -0.78719430614E+02 -0.23317751333E+02  0.19959907317E+03  0.24945505578E+03  0.12509024167E+03 0.  0.
          5    1    3    3  502    0 -0.78828423473E+02  0.75287607580E+01  0.20319455510E+03  0.21811946774E+03  0.41800000000E+01 0. -1.
         -5    1    3    3    0  502  0.10899285952E+00 -0.30846512091E+02 -0.35954819263E+01  0.31335588042E+02  0.41800000000E+01 0. -1.
        -11    1    1    2    0    0 -0.45014295176E+01 -0.17323000348E+02  0.55252545474E+02  0.58079195846E+02  0.00000000000E+00 0.  1.
         11    1    1    2    0    0  0.83220860131E+02  0.40640751682E+02  0.79305325731E+02  0.12192914724E+03  0.00000000000E+00 0. -1.
</event>
<event>
 7    1  0.2679104E-009  0.1301353E+03  0.7561462E-02  0.1227255E+00
         -1   -1    0    0    0  501 -0.00000000000E+00  0.00000000000E+00  0.91624146778E+02  0.91624146778E+02  0.00000000000E+00 0.  1.
          1   -1    0    0  501    0  0.00000000000E+00 -0.00000000000E+00 -0.20215729248E+03  0.20215729248E+03  0.00000000000E+00 0. -1.
         25    2    1    2    0    0 -0.14555831888E+02  0.81686982496E+02 -0.48254552047E+02  0.15767888852E+03  0.12509794059E+03 0.  0.
          5    1    3    3  502    0 -0.48048492868E+02  0.93114917184E+02 -0.59174997257E+02  0.12040846386E+03  0.41800000000E+01 0.  1.
         -5    1    3    3    0  502  0.33492660980E+02 -0.11427934688E+02  0.10920445210E+02  0.37270424660E+02  0.41800000000E+01 0.  1.
        -11    1    1    2    0    0 -0.31607722327E+02 -0.76478163325E+01 -0.25888606536E+02  0.41566298292E+02  0.00000000000E+00 0.  1.
         11    1    1    2    0    0  0.46163554215E+02 -0.74039166164E+02 -0.36389987121E+02  0.94536252447E+02  0.00000000000E+00 0. -1.
</event>
<event>
 7    1  0.2679104E-009  0.2203135E+03  0.7561462E-02  0.1133650E+00
          1   -1    0    0  501    0  0.00000000000E+00  0.00000000000E+00  0.22193696377E+04  0.22193696377E+04  0.00000000000E+00 0. -1.
         -1   -1    0    0    0  501 -0.00000000000E+00 -0.00000000000E+00 -0.26550339193E+02  0.26550339193E+02  0.00000000000E+00 0.  1.
         25    2    1    2    0    0 -0.66824241991E+02 -0.19381095342E+03  0.15264703840E+04  0.15452467723E+04  0.12509032362E+03 0.  0.
          5    1    3    3  502    0 -0.37063362675E+02 -0.19374369027E+03  0.14450468439E+04  0.14584540322E+04  0.41800000000E+01 0. -1.
         -5    1    3    3    0  502 -0.29760879317E+02 -0.67263150838E-01  0.81423540080E+02  0.86792740141E+02  0.41800000000E+01 0. -1.
        -11    1    1    2    0    0 -0.11042303687E+02  0.27572464999E+02  0.57009403074E+02  0.64282543009E+02  0.00000000000E+00 0.  1.
         11    1    1    2    0    0  0.77866545678E+02  0.16623848842E+03  0.60933951140E+03  0.63639066156E+03  0.00000000000E+00 0. -1.
</event>
<event>
 7    1  0.2679104E-009  0.1120872E+03  0.7561462E-02  0.1256753E+00
         -3   -1    0    0    0  501 -0.00000000000E+00  0.00000000000E+00  0.15563444570E+03  0.15563444570E+03  0.00000000000E+00 0.  1.
          3   -1    0    0  501    0  0.00000000000E+00 -0.00000000000E+00 -0.12256403029E+03  0.12256403029E+03  0.00000000000E+00 0. -1.
         25    2    1    2    0    0 -0.29033864845E+02 -0.14718508397E+02 -0.62333671315E+02  0.14350116019E+03  0.12508995403E+03 0.  0.
          5    1    3    3  502    0 -0.33774303953E+02 -0.67685371683E+02 -0.33117907696E+02  0.82681807900E+02  0.41800000000E+01 0. -1.
         -5    1    3    3    0  502  0.47404391078E+01  0.52966863286E+02 -0.29215763619E+02  0.60819352291E+02  0.41800000000E+01 0. -1.
        -11    1    1    2    0    0 -0.10480479921E+02  0.44420245520E+02  0.46954100438E+02  0.65480426230E+02  0.00000000000E+00 0.  1.
         11    1    1    2    0    0  0.39514344766E+02 -0.29701737123E+02  0.48449986282E+02  0.69216889566E+02  0.00000000000E+00 0. -1.
</event>
<event>
 7    1  0.2679104E-009  0.1401755E+03  0.7561462E-02  0.1213093E+00
         -1   -1    0    0    0  501 -0.00000000000E+00  0.00000000000E+00  0.27884500909E+02  0.27884500909E+02  0.00000000000E+00 0. -1.
          1   -1    0    0  501    0  0.00000000000E+00 -0.00000000000E+00 -0.10300820985E+04  0.10300820985E+04  0.00000000000E+00 0.  1.
         25    2    1    2    0    0  0.80456485901E+02  0.91059028520E+01 -0.80180281067E+03  0.81553157499E+03  0.12509132273E+03 0.  0.
          5    1    3    3  502    0  0.95764430852E+02  0.46166976810E+02 -0.51196071898E+03  0.52289909748E+03  0.41800000000E+01 0.  1.
         -5    1    3    3    0  502 -0.15307944951E+02 -0.37061073958E+02 -0.28984209169E+03  0.29263247752E+03  0.41800000000E+01 0.  1.
        -11    1    1    2    0    0 -0.64870697362E+02 -0.55078347451E+02 -0.15003525104E+03  0.17248886424E+03  0.00000000000E+00 0. -1.
         11    1    1    2    0    0 -0.15585788539E+02  0.45972444599E+02 -0.50359535840E+02  0.69946160129E+02  0.00000000000E+00 0.  1.
</event>
<event>
 7    1  0.2679104E-009  0.1336251E+03  0.7561462E-02  0.1222174E+00
         -4   -1    0    0    0  501 -0.00000000000E+00  0.00000000000E+00  0.32151661922E+02  0.32151661922E+02  0.00000000000E+00 0.  1.
          4   -1    0    0  501    0  0.00000000000E+00 -0.00000000000E+00 -0.59450134464E+03  0.59450134464E+03  0.00000000000E+00 0. -1.
         25    2    1    2    0    0  0.39527029785E+02  0.79333540095E+02 -0.30482867303E+03  0.34121246319E+03  0.12509687633E+03 0.  0.
          5    1    3    3  502    0 -0.55321700928E+01 -0.29207126629E+02 -0.10641491412E+03  0.11056793160E+03  0.41800000000E+01 0. -1.
         -5    1    3    3    0  502  0.45059199877E+02  0.10854066672E+03 -0.19841375891E+03  0.23064453159E+03  0.41800000000E+01 0. -1.
        -11    1    1    2    0    0  0.18758791857E+02 -0.51957667418E+02 -0.85821825686E+02  0.10206310420E+03  0.00000000000E+00 0.  1.
         11    1    1    2    0    0 -0.58285821642E+02 -0.27375872678E+02 -0.17169918400E+03  0.18337743917E+03  0.00000000000E+00 0. -1.
</event>
<event>
 7    1  0.2679104E-009  0.1767863E+03  0.7561462E-02  0.1170950E+00
          1   -1    0    0  501    0  0.00000000000E+00  0.00000000000E+00  0.62471454847E+03  0.62471454847E+03  0.00000000000E+00 0. -1.
         -1   -1    0    0    0  501 -0.00000000000E+00 -0.00000000000E+00 -0.68491048103E+02  0.68491048103E+02  0.00000000000E+00 0.  1.
         25    2    1    2    0    0  0.74133543550E+02  0.12897546906E+03  0.13256748138E+03  0.23526868899E+03  0.12508702970E+03 0.  0.
          5    1    3    3  502    0  0.80195127880E+02  0.35857120955E+02  0.22249479939E+02  0.90716610477E+02  0.41800000000E+01 0. -1.
         -5    1    3    3    0  502 -0.60615843301E+01  0.93118348106E+02  0.11031800145E+03  0.14455207851E+03  0.41800000000E+01 0. -1.
        -11    1    1    2    0    0 -0.51690954679E+02 -0.11942611057E+02  0.16092166832E+03  0.16944132934E+03  0.00000000000E+00 0.  1.
         11    1    1    2    0    0 -0.22442588870E+02 -0.11703285800E+03  0.26273435066E+03  0.28849557824E+03  0.00000000000E+00 0. -1.
</event>
<event>
 7    1  0.2679104E-009  0.3844954E+03  0.7561462E-02  0.1049285E+00
         -2   -1    0    0    0  501 -0.00000000000E+00  0.00000000000E+00  0.83020665662E+02  0.83020665662E+02  0.00000000000E+00 0.  1.
          2   -1    0    0  501    0  0.00000000000E+00 -0.00000000000E+00 -0.19657519418E+04  0.19657519418E+04  0.00000000000E+00 0. -1.
         25    2    1    2    0    0  0.25409869075E+03 -0.28355134708E+03 -0.74954496791E+03  0.84996037726E+03  0.12508985939E+03 0.  0.
          5    1    3    3  502    0  0.13838094485E+03 -0.10630787379E+03 -0.22847765756E+03  0.28752419434E+03  0.41800000000E+01 0. -1.
         -5    1    3    3    0  502  0.11571774590E+03 -0.17724347329E+03 -0.52106731035E+03  0.56243618292E+03  0.41800000000E+01 0. -1.
        -11    1    1    2    0    0 -0.73136824485E+02  0.10925393073E+03 -0.27872233387E+03  0.30817455423E+03  0.00000000000E+00 0.  1.
         11    1    1    2    0    0 -0.18096186626E+03  0.17429741635E+03 -0.85446397434E+03  0.89063767596E+03  0.00000000000E+00 0. -1.
</event>
<event>
 7    1  0.2679104E-009  0.8480340E+02  0.7561462E-02  0.1315947E+00
         -2   -1    0    0    0  501 -0.00000000000E+00  0.00000000000E+00  0.64749268116E+02  0.64749268116E+02  0.00000000000E+00 0. -1.
          2   -1    0    0  501    0  0.00000000000E+00 -0.00000000000E+00 -0.23833840412E+03  0.23833840412E+03  0.00000000000E+00 0.  1.
         25    2    1    2    0    0  0.43104472743E+02 -0.21726738505E+02 -0.15589532747E+03  0.20562324189E+03  0.12509003855E+03 0.  0.
          5    1    3    3  502    0  0.98451582112E+01  0.23657718109E+02 -0.14606140053E+03  0.14835100233E+03  0.41800000000E+01 0.  1.
         -5    1    3    3    0  502  0.33259314532E+02 -0.45384456614E+02 -0.98339269303E+01  0.57272239559E+02  0.41800000000E+01 0.  1.
        -11    1    1    2    0    0 -0.39105739980E+02 -0.20946130493E+02 -0.29171941856E+02  0.53094269688E+02  0.00000000000E+00 0.  1.
         11    1    1    2    0    0 -0.39987327627E+01  0.42672868998E+02  0.11478133319E+02  0.44370160657E+02  0.00000000000E+00 0. -1.
</event>
<event>
 7    1  0.2679104E-009  0.1000807E+03  0.7561462E-02  0.1280126E+00
          2   -1    0    0  501    0  0.00000000000E+00  0.00000000000E+00  0.14579516241E+03  0.14579516241E+03  0.00000000000E+00 0. -1.
         -2   -1    0    0    0  501 -0.00000000000E+00 -0.00000000000E+00 -0.16870296559E+03  0.16870296559E+03  0.00000000000E+00 0.  1.
         25    2    1    2    0    0 -0.10366137801E+02 -0.73421118186E+02 -0.99143093843E+02  0.17599751138E+03  0.12509058136E+03 0.  0.
          5    1    3    3  502    0 -0.21034129344E+02 -0.13975423031E+02 -0.11133720758E+03  0.11424181912E+03  0.41800000000E+01 0.  1.
         -5    1    3    3    0  502  0.10667991543E+02 -0.59445695155E+02  0.12194113733E+02  0.61755692254E+02  0.41800000000E+01 0.  1.
        -11    1    1    2    0    0  0.47224664805E+02  0.56006069362E+02  0.59721423743E+02  0.94517179525E+02  0.00000000000E+00 0.  1.
         11    1    1    2    0    0 -0.36858527004E+02  0.17415048824E+02  0.16513866914E+02  0.43983437097E+02  0.00000000000E+00 0. -1.
</event>
<event>
 7    1  0.2679104E-009  0.1165001E+03  0.7561462E-02  0.1248985E+00
          3   -1    0    0  501    0  0.00000000000E+00  0.00000000000E+00  0.20631024913E+03  0.20631024913E+03  0.00000000000E+00 0. -1.
         -3   -1    0    0    0  501 -0.00000000000E+00 -0.00000000000E+00 -0.93740685449E+02  0.93740685449E+02  0.00000000000E+00 0.  1.
         25    2    1    2    0    0  0.51794802491E+01  0.71837128988E+02  0.10953275314E+03  0.18119916343E+03  0.12509321605E+03 0.  0.
          5    1    3    3  502    0  0.31234068537E+02 -0.24493009101E+02  0.53271850030E+02  0.66564532131E+02  0.41800000000E+01 0. -1.
         -5    1    3    3    0  502 -0.26054588288E+02  0.96330138089E+02  0.56260903112E+02  0.11463463130E+03  0.41800000000E+01 0. -1.
        -11    1    1    2    0    0 -0.20868035318E+02 -0.12560509026E+01 -0.32221580065E+02  0.38409410094E+02  0.00000000000E+00 0.  1.
         11    1    1    2    0    0  0.15688555069E+02 -0.70581078085E+02  0.35258390609E+02  0.80442361055E+02  0.00000000000E+00 0. -1.
</event>
<event>
 7    1  0.2679104E-009  0.7982430E+02  0.7561462E-02  0.1329551E+00
         -2   -1    0    0    0  501 -0.00000000000E+00  0.00000000000E+00  0.33437164658E+02  0.33437164658E+02  0.00000000000E+00 0.  1.
          2   -1    0    0  501    0  0.00000000000E+00 -0.00000000000E+00 -0.35813639510E+03  0.35813639510E+03  0.00000000000E+00 0. -1.
         25    2    1    2    0    0  0.69766309511E+01  0.14961994614E+02 -0.16813230430E+03  0.21020910217E+03  0.12508741033E+03 0.  0.
          5    1    3    3  502    0 -0.38159213554E+02  0.27551554752E+02 -0.15400224335E+03  0.16108810355E+03  0.41800000000E+01 0.  1.
         -5    1    3    3    0  502  0.45135844505E+02 -0.12589560138E+02 -0.14130060958E+02  0.49120998629E+02  0.41800000000E+01 0.  1.
        -11    1    1    2    0    0  0.28144071101E+02 -0.32534859394E+01 -0.97660715990E+01  0.29967483434E+02  0.00000000000E+00 0.  1.
         11    1    1    2    0    0 -0.35120702052E+02 -0.11708508675E+02 -0.14680085454E+03  0.15139697415E+03  0.00000000000E+00 0. -1.
</event>
<event>
 7    1  0.2679104E-009  0.2025886E+03  0.7561462E-02  0.1147573E+00
          1   -1    0    0  501    0  0.00000000000E+00  0.00000000000E+00  0.18793118198E+03  0.18793118198E+03  0.00000000000E+00 0. -1.
         -1   -1    0    0    0  501 -0.00000000000E+00 -0.00000000000E+00 -0.24277849778E+03  0.24277849778E+03  0.00000000000E+00 0.  1.
         25    2    1    2    0    0  0.60695718686E+02 -0.17341687479E+03 -0.16629336163E+02  0.22289561504E+03  0.12509411520E+03 0.  0.
          5    1    3    3  502    0  0.58623119160E+02 -0.15213314840E+02 -0.21892473288E+02  0.64535787244E+02  0.41800000000E+01 0. -1.
         -5    1    3    3    0  502  0.20725995255E+01 -0.15820355994E+03  0.52631371252E+01  0.15835982780E+03  0.41800000000E+01 0. -1.
        -11    1    1    2    0    0 -0.43105169737E+02  0.77514473094E+02 -0.61050434767E+02  0.10767406736E+03  0.00000000000E+00 0. -1.
         11    1    1    2    0    0 -0.17590548949E+02  0.95902401691E+02  0.22832455138E+02  0.10013999735E+03  0.00000000000E+00 0.  1.
</event>
<event>
 7    1  0.2679104E-009  0.1345201E+03  0.7561462E-02  0.1220899E+00
         -1   -1    0    0    0  501 -0.00000000000E+00  0.00000000000E+00  0.75087875641E+02  0.75087875641E+02  0.00000000000E+00 0.  1.
          1   -1    0    0  501    0  0.00000000000E+00 -0.00000000000E+00 -0.29713640022E+03  0.29713640022E+03  0.00000000000E+00 0. -1.
         25    2    1    2    0    0  0.74535856842E+02 -0.68688134881E+02 -0.12481387403E+03  0.20371038889E+03  0.12508303468E+03 0.  0.
          5    1    3    3  502    0  0.92354849451E+02 -0.81926108608E+02 -0.64598727657E+02  0.13939789634E+03  0.41800000000E+01 0. -1.
         -5    1    3    3    0  502 -0.17818992609E+02  0.13237973727E+02 -0.60215146371E+02  0.64312492554E+02  0.41800000000E+01 0. -1.
        -11    1    1    2    0    0 -0.49035741258E+02  0.80939823418E+02 -0.36347238293E+02  0.10137495089E+03  0.00000000000E+00 0.  1.
         11    1    1    2    0    0 -0.25500115584E+02 -0.12251688538E+02 -0.60887412259E+02  0.67138936083E+02  0.00000000000E+00 0. -1.
</event>
<event>
 7    1  0.2908918E-009  0.8633439E+02  0.7561462E-02  0.1311979E+00
          1   -1    0    0  501    0  0.00000000000E+00  0.00000000000E+00  0.25342203003E+03  0.25342203003E+03  0.00000000000E+00 0. -1.
         -1   -1    0    0    0  501 -0.00000000000E+00 -0.00000000000E+00 -0.56088603555E+02  0.56088603555E+02  0.00000000000E+00 0.  1.
         25    2    1    2    0    0  0.31151949702E+02  0.30210432016E+02  0.14012028567E+03  0.19278517008E+03  0.12509721490E+03 0.  0.
          5    1    3    3  502    0 -0.26849122989E+02  0.32771101444E+02  0.12584766274E+03  0.13285302824E+03  0.41800000000E+01 0.  1.
         -5    1    3    3    0  502  0.58001072691E+02 -0.25606694274E+01  0.14272622927E+02  0.59932141847E+02  0.41800000000E+01 0.  1.
        -11    1    1    2    0    0  0.14082379670E+02 -0.21689263207E+02 -0.15879821804E+02  0.30346437949E+02  0.00000000000E+00 0.  1.
         11    1    1    2    0    0 -0.45234329372E+02 -0.85211688090E+01  0.73092962616E+02  0.86379025554E+02  0.00000000000E+00 0. -1.
</event>
<event>
 7    1  0.2679104E-009  0.1372604E+03  0.7561462E-02  0.1217063E+00
         -2   -1    0    0    0  501 -0.00000000000E+00  0.00000000000E+00  0.36738968927E+02  0.36738968927E+02  0.00000000000E+00 0.  1.
          2   -1    0    0  501    0  0.00000000000E+00 -0.00000000000E+00 -0.67237760465E+03  0.67237760465E+03  0.00000000000E+00 0. -1.
         25    2    1    2    0    0  0.29141437601E+02  0.91444636004E+02 -0.29181042518E+03  0.33168071025E+03  0.12508966573E+03 0.  0.
          5    1    3    3  502    0  0.38820104304E+01  0.11909867157E+03 -0.23479695590E+03  0.26333751437E+03  0.41800000000E+01 0. -1.
         -5    1    3    3    0  502  0.25259427171E+02 -0.27654035568E+02 -0.57013469277E+02  0.68343195880E+02  0.41800000000E+01 0. -1.
        -11    1    1    2    0    0 -0.48408085301E+02 -0.40440340402E+02 -0.30253732478E+03  0.30904303380E+03  0.00000000000E+00 0. -1.
         11    1    1    2    0    0  0.19266647700E+02 -0.51004295602E+02 -0.41290885767E+02  0.68392829528E+02  0.00000000000E+00 0.  1.
</event>
<event>
 7    1  0.2679104E-009  0.9691024E+02  0.7561462E-02  0.1286931E+00
          1   -1    0    0  501    0  0.00000000000E+00  0.00000000000E+00  0.30532667192E+02  0.30532667192E+02  0.00000000000E+00 0. -1.
         -1   -1    0    0    0  501 -0.00000000000E+00 -0.00000000000E+00 -0.45186878218E+03  0.45186878218E+03  0.00000000000E+00 0.  1.
         25    2    1    2    0    0  0.25776670386E+02  0.30628553189E+02 -0.20041661570E+03  0.23961873170E+03  0.12509105375E+03 0.  0.
          5    1    3    3  502    0  0.31375324740E+02 -0.45143236746E+02 -0.89133676600E+02  0.10480747841E+03  0.41800000000E+01 0. -1.
         -5    1    3    3    0  502 -0.55986543540E+01  0.75771789935E+02 -0.11128293910E+03  0.13481125329E+03  0.41800000000E+01 0. -1.
        -11    1    1    2    0    0 -0.39577310277E+02 -0.16611097663E+02 -0.21883160259E+03  0.22300126086E+03  0.00000000000E+00 0.  1.
         11    1    1    2    0    0  0.13800639891E+02 -0.14017455526E+02 -0.20878967028E+01  0.19781456808E+02  0.00000000000E+00 0. -1.
</event>
<event>
 7    1  0.2679104E-009  0.1592410E+03  0.7561462E-02  0.1189556E+00
         -2   -1    0    0    0  501 -0.00000000000E+00  0.00000000000E+00  0.25566584502E+02  0.25566584502E+02  0.00000000000E+00 0.  1.
          2   -1    0    0  501    0  0.00000000000E+00 -0.00000000000E+00 -0.12227555617E+04  0.12227555617E+04  0.00000000000E+00 0. -1.
         25    2    1    2    0    0 -0.10454306847E+03  0.82988942099E+02 -0.48658834670E+03  0.51984227523E+03  0.12510537275E+03 0.  0.
          5    1    3    3  502    0 -0.87993013552E+01  0.59761214344E+02 -0.32460881542E+03  0.33020779199E+03  0.41800000000E+01 0.  1.
         -5    1    3    3    0  502 -0.95743767111E+02  0.23227727755E+02 -0.16197953129E+03  0.18963448324E+03  0.41800000000E+01 0.  1.
        -11    1    1    2    0    0  0.97385971784E+02 -0.24531373963E+02 -0.48748196484E+03  0.49771928017E+03  0.00000000000E+00 0. -1.
         11    1    1    2    0    0  0.71570966820E+01 -0.58457568136E+02 -0.22311866568E+03  0.23076059082E+03  0.00000000000E+00 0.  1.
</event>
<event>
 7    1  0.2679104E-009  0.1408039E+03  0.7561462E-02  0.1212251E+00
          1   -1    0    0  501    0  0.00000000000E+00  0.00000000000E+00  0.89208938445E+03  0.89208938445E+03  0.00000000000E+00 0. -1.
         -1   -1    0    0    0  501 -0.00000000000E+00 -0.00000000000E+00 -0.23980335378E+02  0.23980335378E+02  0.00000000000E+00 0.  1.
         25    2    1    2    0    0 -0.13555802599E+02 -0.93845571332E+02  0.54547738850E+03  0.56761213110E+03  0.12508876435E+03 0.  0.
          5    1    3    3  502    0 -0.59384896630E+02 -0.16496195454E+02  0.29647776075E+03  0.30284521696E+03  0.41800000000E+01 0.  1.
         -5    1    3    3    0  502  0.45829094030E+02 -0.77349375878E+02  0.24899962775E+03  0.26476691415E+03  0.41800000000E+01 0.  1.
        -11    1    1    2    0    0 -0.37584582884E+02  0.30411318178E+02  0.14922070378E+03  0.15685747538E+03  0.00000000000E+00 0.  1.
         11    1    1    2    0    0  0.51140385483E+02  0.63434253155E+02  0.17341095679E+03  0.19160011335E+03  0.00000000000E+00 0. -1.
</event>
<event>
 7    1  0.2679104E-009  0.1121000E+03  0.7561462E-02  0.1256730E+00
         -2   -1    0    0    0  501 -0.00000000000E+00  0.00000000000E+00  0.11012777086E+03  0.11012777086E+03  0.00000000000E+00 0.  1.
          2   -1    0    0  501    0  0.00000000000E+00 -0.00000000000E+00 -0.18697502171E+03  0.18697502171E+03  0.00000000000E+00 0. -1.
         25    2    1    2    0    0  0.56570029071E+02 -0.71307630848E+02 -0.20112342236E+02  0.15600668947E+03  0.12509450205E+03 0.  0.
          5    1    3    3  502    0  0.42907846131E+02 -0.44770201712E+01 -0.62150773897E+02  0.75771485832E+02  0.41800000000E+01 0. -1.
         -5    1    3    3    0  502  0.13662182939E+02 -0.66830610677E+02  0.42038431661E+02  0.80235203637E+02  0.41800000000E+01 0. -1.
        -11    1    1    2    0    0 -0.60278810212E+02  0.81672377390E+02 -0.20938459935E+02  0.10364521838E+03  0.00000000000E+00 0.  1.
         11    1    1    2    0    0  0.37087811410E+01 -0.10364746542E+02 -0.35796448679E+02  0.37450884723E+02  0.00000000000E+00 0. -1.
</event>
<event>
 7    1  0.2679104E-009  0.1540121E+03  0.7561462E-02  0.1195628E+00
         -2   -1    0    0    0  501 -0.00000000000E+00  0.00000000000E+00  0.12334344053E+03  0.12334344053E+03  0.00000000000E+00 0.  1.
          2   -1    0    0  501    0  0.00000000000E+00 -0.00000000000E+00 -0.31946079217E+03  0.31946079217E+03  0.00000000000E+00 0. -1.
         25    2    1    2    0    0  0.13016001056E+02 -0.15054111741E+03 -0.17901790342E+03  0.26556767182E+03  0.12508690683E+03 0.  0.
          5    1    3    3  502    0  0.13747986064E+02 -0.15115449252E+03 -0.90120414824E+02  0.17656684088E+03  0.41800000000E+01 0. -1.
         -5    1    3    3    0  502 -0.73198500805E+00  0.61337511026E+00 -0.88897488594E+02  0.89000830948E+02  0.41800000000E+01 0. -1.
        -11    1    1    2    0    0 -0.53648639862E+01  0.11956927922E+02  0.28314599983E+02  0.31200424086E+02  0.00000000000E+00 0.  1.
         11    1    1    2    0    0 -0.76511370698E+01  0.13858418948E+03 -0.45414048212E+02  0.14603613679E+03  0.00000000000E+00 0. -1.
</event>
<event>
 7    1  0.2679104E-009  0.1174956E+03  0.7561462E-02  0.1247287E+00
          2   -1    0    0  501    0  0.00000000000E+00  0.00000000000E+00  0.10111297532E+04  0.10111297532E+04  0.00000000000E+00 0. -1.
         -2   -1    0    0    0  501 -0.00000000000E+00 -0.00000000000E+00 -0.16522113273E+02  0.16522113273E+02  0.00000000000E+00 0.  1.
         25    2    1    2    0    0  0.37249936251E+02  0.47381016973E+02  0.66471134858E+03  0.67905815557E+03  0.12508510381E+03 0.  0.
          5    1    3    3  502    0 -0.19196311098E+01  0.83718079902E+02  0.35689994837E+03  0.36661621273E+03  0.41800000000E+01 0.  1.
         -5    1    3    3    0  502  0.39169567361E+02 -0.36337062929E+02  0.30781140021E+03  0.31244194285E+03  0.41800000000E+01 0.  1.
        -11    1    1    2    0    0 -0.56589179877E+02 -0.52878014899E+02  0.31266512123E+03  0.32211472765E+03  0.00000000000E+00 0. -1.
         11    1    1    2    0    0  0.19339243626E+02  0.54969979264E+01  0.17231170120E+02  0.26478983250E+02  0.00000000000E+00 0.  1.
</event>
<event>
 7    1  0.2679104E-009  0.1062314E+03  0.7561462E-02  0.1267712E+00
         -1   -1    0    0    0  501 -0.00000000000E+00  0.00000000000E+00  0.40529875817E+02  0.40529875817E+02  0.00000000000E+00 0.  1.
          1   -1    0    0  501    0  0.00000000000E+00 -0.00000000000E+00 -0.48863954917E+03  0.48863954917E+03  0.00000000000E+00 0. -1.
         25    2    1    2    0    0 -0.60371552269E+02 -0.39296236946E+02 -0.34093727960E+03  0.37023485980E+03  0.12508678677E+03 0.  0.
          5    1    3    3  502    0 -0.38240896144E+02  0.37746109686E+02 -0.20867223989E+03  0.21551963028E+03  0.41800000000E+01 0. -1.
         -5    1    3    3    0  502 -0.22130656125E+02 -0.77042346632E+02 -0.13226503971E+03  0.15471522951E+03  0.41800000000E+01 0. -1.
        -11    1    1    2    0    0  0.20284850318E+02 -0.24413011401E+01  0.13921392194E+02  0.24723273737E+02  0.00000000000E+00 0.  1.
         11    1    1    2    0    0  0.40086701952E+02  0.41737538086E+02 -0.12109378595E+03  0.13421129146E+03  0.00000000000E+00 0. -1.
</event>
<event>
 7    1  0.2679104E-009  0.7215881E+02  0.7561462E-02  0.1352902E+00
          3   -1    0    0  501    0  0.00000000000E+00  0.00000000000E+00  0.33661467275E+03  0.33661467275E+03  0.00000000000E+00 0. -1.
         -3   -1    0    0    0  501 -0.00000000000E+00 -0.00000000000E+00 -0.40329370763E+02  0.40329370763E+02  0.00000000000E+00 0.  1.
         25    2    1    2    0    0  0.21987305929E+02 -0.16099123323E+02  0.11304860546E+03  0.17078387892E+03  0.12507806646E+03 0.  0.
          5    1    3    3  502    0 -0.12104143217E+02  0.24754140811E+02 -0.15290301111E+02  0.31789046515E+02  0.41800000000E+01 0.  1.
         -5    1    3    3    0  502  0.34091449145E+02 -0.40853264133E+02  0.12833890657E+03  0.13899483240E+03  0.41800000000E+01 0.  1.
        -11    1    1    2    0    0  0.15178147292E+02  0.20653399410E+02  0.78279927694E+01  0.26799562183E+02  0.00000000000E+00 0.  1.
         11    1    1    2    0    0 -0.37165453220E+02 -0.45542760868E+01  0.17540870376E+03  0.17936060242E+03  0.00000000000E+00 0. -1.
</event>
<event>
 7    1  0.2679104E-009  0.6015898E+02  0.7561462E-02  0.1397166E+00
          1   -1    0    0  501    0  0.00000000000E+00  0.00000000000E+00  0.34441517805E+03  0.34441517805E+03  0.00000000000E+00 0. -1.
         -1   -1    0    0    0  501 -0.00000000000E+00 -0.00000000000E+00 -0.48664392287E+02  0.48664392287E+02  0.00000000000E+00 0.  1.
         25    2    1    2    0    0  0.53614470785E+00  0.39357412743E+02  0.25348968401E+03  0.28539968258E+03  0.12508663208E+03 0.  0.
          5    1    3    3  502    0  0.43631665166E+01  0.48209277428E+02  0.21430899177E+02  0.53102989480E+02  0.41800000000E+01 0. -1.
         -5    1    3    3    0  502 -0.38270218087E+01 -0.88518646845E+01  0.23205878483E+03  0.23229669310E+03  0.41800000000E+01 0. -1.
        -11    1    1    2    0    0 -0.23637012566E+02 -0.22393163633E+02  0.63933802077E+02  0.71747426355E+02  0.00000000000E+00 0. -1.
         11    1    1    2    0    0  0.23100867858E+02 -0.16964249110E+02 -0.21672700322E+02  0.35932461409E+02  0.00000000000E+00 0.  1.
</event>
<event>
 7    1  0.3866276E-009  0.1105403E+03  0.7561462E-02  0.1259573E+00
          1   -1    0    0  501    0  0.00000000000E+00  0.00000000000E+00  0.42988217873E+02  0.42988217873E+02  0.00000000000E+00 0. -1.
         -1   -1    0    0    0  501 -0.00000000000E+00 -0.00000000000E+00 -0.32768891515E+03  0.32768891515E+03  0.00000000000E+00 0.  1.
         25    2    1    2    0    0 -0.35574989488E+02  0.20554448944E+02 -0.12239096103E+03  0.17976167399E+03  0.12508655741E+03 0.  0.
          5    1    3    3  502    0  0.42044701264E+02 -0.14712540437E+02 -0.55674258896E+02  0.71423464311E+02  0.41800000000E+01 0.  1.
         -5    1    3    3    0  502 -0.77619690752E+02  0.35266989381E+02 -0.66716702130E+02  0.10833820967E+03  0.41800000000E+01 0.  1.
        -11    1    1    2    0    0 -0.26165225568E+02 -0.11501573480E+02 -0.94661840398E+02  0.98882603369E+02  0.00000000000E+00 0.  1.
         11    1    1    2    0    0  0.61740215056E+02 -0.90528754643E+01 -0.67647895858E+02  0.92032855673E+02  0.00000000000E+00 0. -1.
</event>
<event>
 7    1  0.2679104E-009  0.1190469E+03  0.7561462E-02  0.1244678E+00
         -2   -1    0    0    0  501 -0.00000000000E+00  0.00000000000E+00  0.27329503847E+02  0.27329503847E+02  0.00000000000E+00 0.  1.
          2   -1    0    0  501    0  0.00000000000E+00 -0.00000000000E+00 -0.75237495495E+03  0.75237495495E+03  0.00000000000E+00 0. -1.
         25    2    1    2    0    0  0.52986529971E+02  0.52803869564E+02 -0.54138476515E+03  0.56066119579E+03  0.12509073317E+03 0.  0.
          5    1    3    3  502    0 -0.28843535581E+02  0.99212884439E+01 -0.38266212283E+02  0.49113714090E+02  0.41800000000E+01 0.  1.
         -5    1    3    3    0  502  0.81830065552E+02  0.42882581121E+02 -0.50311855287E+03  0.51154748170E+03  0.41800000000E+01 0.  1.
        -11    1    1    2    0    0 -0.58679182056E+02  0.29782100339E+01 -0.63900951532E+02  0.86806956797E+02  0.00000000000E+00 0.  1.
         11    1    1    2    0    0  0.56926520852E+01 -0.55782079598E+02 -0.11975973441E+03  0.13223630621E+03  0.00000000000E+00 0. -1.
</event>
<event>
 7    1  0.2679104E-009  0.1022173E+03  0.7561462E-02  0.1275701E+00
         -3   -1    0    0    0  501 -0.00000000000E+00  0.00000000000E+00  0.10399544233E+03  0.10399544233E+03  0.00000000000E+00 0.  1.
          3   -1    0    0  501    0  0.00000000000E+00 -0.00000000000E+00 -0.23022321339E+03  0.23022321339E+03  0.00000000000E+00 0. -1.
         25    2    1    2    0    0 -0.85078135825E+02  0.81431524198E+01 -0.14211868011E+03  0.20772602797E+03  0.12509110015E+03 0.  0.
          5    1    3    3  502    0 -0.13297111608E+02 -0.63752022574E+01 -0.13291651733E+03  0.13379734437E+03  0.41800000000E+01 0. -1.
         -5    1    3    3    0  502 -0.71781024217E+02  0.14518354677E+02 -0.92021627763E+01  0.73928683607E+02  0.41800000000E+01 0. -1.
        -11    1    1    2    0    0  0.21268657534E+02  0.33411019191E+02  0.29179676565E+02  0.49194568004E+02  0.00000000000E+00 0.  1.
         11    1    1    2    0    0  0.63809478291E+02 -0.41554171611E+02 -0.13288767516E+02  0.77298059743E+02  0.00000000000E+00 0. -1.
</event>
<event>
 7    1  0.2679104E-009  0.1498824E+03  0.7561462E-02  0.1200618E+00
         -2   -1    0    0    0  501 -0.00000000000E+00  0.00000000000E+00  0.97596792966E+02  0.97596792966E+02  0.00000000000E+00 0.  1.
          2   -1    0    0  501    0  0.00000000000E+00 -0.00000000000E+00 -0.31925596974E+03  0.31925596974E+03  0.00000000000E+00 0. -1.
         25    2    1    2    0    0  0.12507063026E+03  0.55310903508E+02 -0.87769335898E+02  0.20506611591E+03  0.12508675778E+03 0.  0.
          5    1    3    3  502    0  0.45985884737E+02  0.64640497805E+02  0.86899715894E+01  0.79912974903E+02  0.41800000000E+01 0.  1.
         -5    1    3    3    0  502  0.79084745519E+02 -0.93295942974E+01 -0.96459307488E+02  0.12515314101E+03  0.41800000000E+01 0.  1.
        -11    1    1    2    0    0 -0.65448683194E+02 -0.46564299135E+02 -0.19748675729E+02  0.82715018459E+02  0.00000000000E+00 0.  1.
         11    1    1    2    0    0 -0.59621947062E+02 -0.87466043732E+01 -0.11414116515E+03  0.12907162833E+03  0.00000000000E+00 0. -1.
</event>
<event>
 7    1  0.2679104E-009  0.9611557E+02  0.7561462E-02  0.1288683E+00
          1   -1    0    0  501    0  0.00000000000E+00  0.00000000000E+00  0.86945253005E+03  0.86945253005E+03  0.00000000000E+00 0. -1.
         -1   -1    0    0    0  501 -0.00000000000E+00 -0.00000000000E+00 -0.23914765500E+02  0.23914765500E+02  0.00000000000E+00 0.  1.
         25    2    1    2    0    0  0.30415923683E+02  0.69039807855E+02  0.64471670296E+03  0.66105869278E+03  0.12508934702E+03 0.  0.
          5    1    3    3  502    0  0.60048042690E+02  0.46615993661E+02  0.18824439536E+03  0.20305724090E+03  0.41800000000E+01 0.  1.
         -5    1    3    3    0  502 -0.29632119007E+02  0.22423814194E+02  0.45647230760E+03  0.45800145188E+03  0.41800000000E+01 0.  1.
        -11    1    1    2    0    0 -0.19237681306E+02 -0.17637008949E+02  0.14770912079E+01  0.26140663059E+02  0.00000000000E+00 0.  1.
         11    1    1    2    0    0 -0.11178242377E+02 -0.51402798905E+02  0.19934397037E+03  0.20616793971E+03  0.00000000000E+00 0. -1.
</event>
<event>
 7    1  0.2679104E-009  0.1625030E+03  0.7561462E-02  0.1185899E+00
         -2   -1    0    0    0  501 -0.00000000000E+00  0.00000000000E+00  0.16123242584E+03  0.16123242584E+03  0.00000000000E+00 0.  1.
          2   -1    0    0  501    0  0.00000000000E+00 -0.00000000000E+00 -0.22243093660E+03  0.22243093660E+03  0.00000000000E+00 0. -1.
         25    2    1    2    0    0 -0.17369989189E+02  0.15269894410E+03 -0.46209932421E+02  0.20347396133E+03  0.12509041142E+03 0.  0.
          5    1    3    3  502    0 -0.24613494584E+02  0.14839374318E+03 -0.78582743271E+02  0.16976232524E+03  0.41800000000E+01 0.  1.
         -5    1    3    3    0  502  0.72435053945E+01  0.43052009177E+01  0.32372810849E+02  0.33711636087E+02  0.41800000000E+01 0.  1.
        -11    1    1    2    0    0  0.38897490776E+02 -0.74896232216E+02  0.27760206372E+02  0.88843060768E+02  0.00000000000E+00 0.  1.
         11    1    1    2    0    0 -0.21527501586E+02 -0.77802711885E+02 -0.42748784712E+02  0.91346340351E+02  0.00000000000E+00 0. -1.
</event>
<event>
 7    1  0.2679104E-009  0.1304850E+03  0.7561462E-02  0.1226738E+00
         -2   -1    0    0    0  501 -0.00000000000E+00  0.00000000000E+00  0.12427088740E+02  0.12427088740E+02  0.00000000000E+00 0. -1.
          2   -1    0    0  501    0  0.00000000000E+00 -0.00000000000E+00 -0.16365552506E+04  0.16365552506E+04  0.00000000000E+00 0.  1.
         25    2    1    2    0    0  0.72864637654E+02  0.46379327592E+02 -0.98431692587E+03  0.99598545913E+03  0.12508767646E+03 0.  0.
          5    1    3    3  502    0  0.85777514017E+02  0.40232853310E+01 -0.85339570823E+03  0.85771538167E+03  0.41800000000E+01 0. -1.
         -5    1    3    3    0  502 -0.12912876363E+02  0.42356042261E+02 -0.13092121764E+03  0.13827007746E+03  0.41800000000E+01 0. -1.
        -11    1    1    2    0    0  0.14531224571E+02 -0.40382704096E+02 -0.21836114139E+03  0.22253877718E+03  0.00000000000E+00 0.  1.
         11    1    1    2    0    0 -0.87395862225E+02 -0.59966234954E+01 -0.42145009460E+03  0.43045810303E+03  0.00000000000E+00 0. -1.
</event>
<event>
 7    1  0.2679104E-009  0.2177076E+03  0.7561462E-02  0.1135604E+00
          2   -1    0    0  501    0  0.00000000000E+00  0.00000000000E+00  0.13768474049E+04  0.13768474049E+04  0.00000000000E+00 0. -1.
         -2   -1    0    0    0  501 -0.00000000000E+00 -0.00000000000E+00 -0.80065173248E+02  0.80065173248E+02  0.00000000000E+00 0.  1.
         25    2    1    2    0    0  0.20858327261E+03  0.25831482334E+02  0.11748798593E+04  0.12000685645E+04  0.12509048141E+03 0.  0.
          5    1    3    3  502    0  0.22068189893E+02 -0.23002927719E+02  0.40976431202E+03  0.41102360455E+03  0.41800000000E+01 0. -1.
         -5    1    3    3    0  502  0.18651508272E+03  0.48834410053E+02  0.76511554733E+03  0.78904495997E+03  0.41800000000E+01 0. -1.
        -11    1    1    2    0    0 -0.99198691121E+02 -0.17355493310E+02  0.11771715720E+02  0.10139115720E+03  0.00000000000E+00 0.  1.
         11    1    1    2    0    0 -0.10938458149E+03 -0.84759890238E+01  0.11013065663E+03  0.15545285648E+03  0.00000000000E+00 0. -1.
</event>
<event>
 7    1  0.2679104E-009  0.1630816E+03  0.7561462E-02  0.1185261E+00
         -4   -1    0    0    0  501 -0.00000000000E+00  0.00000000000E+00  0.11093256046E+03  0.11093256046E+03  0.00000000000E+00 0. -1.
          4   -1    0    0  501    0  0.00000000000E+00 -0.00000000000E+00 -0.42028051949E+03  0.42028051949E+03  0.00000000000E+00 0.  1.
         25    2    1    2    0    0  0.11538907906E+03 -0.55303116608E+02 -0.32792669472E+03  0.37357215115E+03  0.12508861150E+03 0.  0.
          5    1    3    3  502    0 -0.20694889055E+01  0.31832052530E+02 -0.69960842838E+02  0.77003599158E+02  0.41800000000E+01 0. -1.
         -5    1    3    3    0  502  0.11745856797E+03 -0.87135169138E+02 -0.25796585189E+03  0.29656855199E+03  0.41800000000E+01 0. -1.
        -11    1    1    2    0    0 -0.90806204464E+01  0.39105721033E+02 -0.18079027407E+02  0.44029153037E+02  0.00000000000E+00 0.  1.
         11    1    1    2    0    0 -0.10630845862E+03  0.16197395575E+02  0.36657763098E+02  0.11361177576E+03  0.00000000000E+00 0. -1.
</event>
<event>
 7    1  0.2679104E-009  0.7078518E+02  0.7561462E-02  0.1357443E+00
          2   -1    0    0  501    0  0.00000000000E+00  0.00000000000E+00  0.35511446748E+03  0.35511446748E+03  0.00000000000E+00 0. -1.
         -2   -1    0    0    0  501 -0.00000000000E+00 -0.00000000000E+00 -0.33604397563E+02  0.33604397563E+02  0.00000000000E+00 0.  1.
         25    2    1    2    0    0 -0.95436830223E+01  0.82665482308E+01  0.16997592131E+03  0.21142145976E+03  0.12509117522E+03 0.  0.
          5    1    3    3  502    0 -0.24698637864E+02 -0.14174307638E+02  0.17996933186E+03  0.18225632093E+03  0.41800000000E+01 0.  1.
         -5    1    3    3    0  502  0.15154954842E+02  0.22440855868E+02 -0.99934105552E+01  0.29165138829E+02  0.41800000000E+01 0.  1.
        -11    1    1    2    0    0 -0.37709092492E+02 -0.26245529259E+01  0.35387678044E+02  0.51779838663E+02  0.00000000000E+00 0.  1.
         11    1    1    2    0    0  0.47252775514E+02 -0.56419953049E+01  0.11614647057E+03  0.12551756662E+03  0.00000000000E+00 0. -1.
</event>
<event>
 7    1  0.2679104E-009  0.1240481E+03  0.7561462E-02  0.1236565E+00
         -2   -1    0    0    0  501 -0.00000000000E+00  0.00000000000E+00  0.12599356215E+03  0.12599356215E+03  0.00000000000E+00 0. -1.
          2   -1    0    0  501    0  0.00000000000E+00 -0.00000000000E+00 -0.13854871505E+03  0.13854871505E+03  0.00000000000E+00 0.  1.
         25    2    1    2    0    0  0.66031287331E+02  0.27352483889E+02 -0.30414058144E+02  0.14724458226E+03  0.12509061831E+03 0.  0.
          5    1    3    3  502    0  0.49855141492E+02 -0.44945950852E+02 -0.54976698109E+00  0.67256585364E+02  0.41800000000E+01 0.  1.
         -5    1    3    3    0  502  0.16176145840E+02  0.72298434741E+02 -0.29864291162E+02  0.79987996892E+02  0.41800000000E+01 0.  1.
        -11    1    1    2    0    0 -0.53573728146E+02  0.20370549092E+02 -0.13456074504E+02  0.58874184146E+02  0.00000000000E+00 0.  1.
         11    1    1    2    0    0 -0.12457559185E+02 -0.47723032981E+02  0.31314979744E+02  0.58423510800E+02  0.00000000000E+00 0. -1.
</event>
<event>
 7    1  0.2679104E-009  0.1345413E+03  0.7561462E-02  0.1220869E+00
          2   -1    0    0  501    0  0.00000000000E+00  0.00000000000E+00  0.26858850260E+03  0.26858850260E+03  0.00000000000E+00 0. -1.
         -2   -1    0    0    0  501 -0.00000000000E+00 -0.00000000000E+00 -0.82036927896E+02  0.82036927896E+02  0.00000000000E+00 0.  1.
         25    2    1    2    0    0  0.94100217997E+02 -0.38558734263E+01  0.54782057124E+02  0.16588838546E+03  0.12509262113E+03 0.  0.
          5    1    3    3  502    0  0.67053542474E+02  0.47025573754E+02 -0.57530061958E+01  0.82207977870E+02  0.41800000000E+01 0. -1.
         -5    1    3    3    0  502  0.27046675522E+02 -0.50881447180E+02  0.60535063320E+02  0.83680407594E+02  0.41800000000E+01 0. -1.
        -11    1    1    2    0    0 -0.34312595873E+02 -0.41796806962E+02  0.50381897117E+02  0.73909829285E+02  0.00000000000E+00 0.  1.
         11    1    1    2    0    0 -0.59787622124E+02  0.45652680388E+02  0.81387620467E+02  0.11082721575E+03  0.00000000000E+00 0. -1.
</event>
<event>
 7    1  0.2679104E-009  0.3339843E+03  0.7561462E-02  0.1069387E+00
          2   -1    0    0  501    0  0.00000000000E+00  0.00000000000E+00  0.16159007898E+04  0.16159007898E+04  0.00000000000E+00 0. -1.
         -2   -1    0    0    0  501 -0.00000000000E+00 -0.00000000000E+00 -0.75742586885E+02  0.75742586885E+02  0.00000000000E+00 0.  1.
         25    2    1    2    0    0 -0.69682699112E+01 -0.32100377735E+03  0.57391782001E+03  0.66941858437E+03  0.12509034778E+03 0.  0.
          5    1    3    3  502    0 -0.49215333954E+02 -0.50629559157E+02  0.12646071217E+03  0.14489749991E+03  0.41800000000E+01 0. -1.
         -5    1    3    3    0  502  0.42247064043E+02 -0.27037421820E+03  0.44745710784E+03  0.52452108446E+03  0.41800000000E+01 0. -1.
        -11    1    1    2    0    0 -0.15724193081E+02  0.18490716892E+03  0.42642070544E+03  0.46505110407E+03  0.00000000000E+00 0.  1.
         11    1    1    2    0    0  0.22692462992E+02  0.13609660843E+03  0.53981967741E+03  0.55717368820E+03  0.00000000000E+00 0. -1.
</event>
<event>
 7    1  0.2679104E-009  0.1300772E+03  0.7561462E-02  0.1227341E+00
          2   -1    0    0  501    0  0.00000000000E+00  0.00000000000E+00  0.46873321321E+03  0.46873321321E+03  0.00000000000E+00 0. -1.
         -2   -1    0    0    0  501 -0.00000000000E+00 -0.00000000000E+00 -0.53878505264E+02  0.53878505264E+02  0.00000000000E+00 0.  1.
         25    2    1    2    0    0 -0.66327001510E+02 -0.30020548038E+02  0.74337428518E+02  0.16270738806E+03  0.12508851432E+03 0.  0.
          5    1    3    3  502    0 -0.20420273213E+02 -0.76354614966E+02  0.45227364767E+02  0.91159210772E+02  0.41800000000E+01 0. -1.
         -5    1    3    3    0  502 -0.45906728298E+02  0.46334066928E+02  0.29110063751E+02  0.71548177284E+02  0.41800000000E+01 0. -1.
        -11    1    1    2    0    0  0.88908578615E+02  0.26640771755E+02  0.28940410689E+03  0.30392302176E+03  0.00000000000E+00 0. -1.
         11    1    1    2    0    0 -0.22581577105E+02  0.33797762829E+01  0.51113172539E+02  0.55981308660E+02  0.00000000000E+00 0.  1.
</event>
<event>
 7    1  0.2679104E-009  0.1789400E+03  0.7561462E-02  0.1168833E+00
         -1   -1    0    0    0  501 -0.00000000000E+00  0.00000000000E+00  0.57534492374E+02  0.57534492374E+02  0.00000000000E+00 0.  1.
          1   -1    0    0  501    0  0.00000000000E+00 -0.00000000000E+00 -0.72135052952E+03  0.72135052952E+03  0.00000000000E+00 0. -1.
         25    2    1    2    0    0 -0.15485153293E+03 -0.67798348202E+02 -0.28839247833E+03  0.35692245937E+03  0.12509119545E+03 0.  0.
          5    1    3    3  502    0 -0.62301679811E+02 -0.55522745807E+02 -0.23472778275E+03  0.24915633446E+03  0.41800000000E+01 0. -1.
         -5    1    3    3    0  502 -0.92549853117E+02 -0.12275602395E+02 -0.53664695579E+02  0.10776612491E+03  0.41800000000E+01 0. -1.
        -11    1    1    2    0    0  0.72238045558E+02  0.66589263985E+02 -0.12963151110E+03  0.16265544557E+03  0.00000000000E+00 0.  1.
         11    1    1    2    0    0  0.82613487370E+02  0.12090842166E+01 -0.24579204771E+03  0.25930711695E+03  0.00000000000E+00 0. -1.
</event>
<event>
 7    1  0.2679104E-009  0.9680901E+02  0.7561462E-02  0.1287153E+00
          1   -1    0    0  501    0  0.00000000000E+00  0.00000000000E+00  0.96334640372E+03  0.96334640372E+03  0.00000000000E+00 0. -1.
         -1   -1    0    0    0  501 -0.00000000000E+00 -0.00000000000E+00 -0.17868964019E+02  0.17868964019E+02  0.00000000000E+00 0.  1.
         25    2    1    2    0    0 -0.59825162032E+02 -0.15538988639E+02  0.38840009191E+03  0.41270188599E+03  0.12509078752E+03 0.  0.
          5    1    3    3  502    0 -0.69293446070E+02 -0.98940776925E+01  0.90108634682E+02  0.11417754983E+03  0.41800000000E+01 0. -1.
         -5    1    3    3    0  502  0.94682840375E+01 -0.56449109467E+01  0.29829145723E+03  0.29852433616E+03  0.41800000000E+01 0. -1.
        -11    1    1    2    0    0 -0.19354762906E+02 -0.17327312097E+02  0.91843507575E+02  0.95446699656E+02  0.00000000000E+00 0. -1.
         11    1    1    2    0    0  0.79179924939E+02  0.32866300737E+02  0.46523384021E+03  0.47306678209E+03  0.00000000000E+00 0.  1.
</event>
<event>
 7    1  0.2679104E-009  0.1327586E+03  0.7561462E-02  0.1223419E+00
          1   -1    0    0  501    0  0.00000000000E+00  0.00000000000E+00  0.34907921767E+03  0.34907921767E+03  0.00000000000E+00 0. -1.
         -1   -1    0    0    0  501 -0.00000000000E+00 -0.00000000000E+00 -0.66686384650E+02  0.66686384650E+02  0.00000000000E+00 0.  1.
         25    2    1    2    0    0  0.98913285044E+02 -0.93740910340E+01  0.10023082991E+03  0.18858373975E+03  0.12508355644E+03 0.  0.
          5    1    3    3  502    0  0.31840233665E+02 -0.50570062934E+02  0.91377398974E+02  0.10926313737E+03  0.41800000000E+01 0. -1.
         -5    1    3    3    0  502  0.67073051379E+02  0.41195971900E+02  0.88534309365E+01  0.79320602377E+02  0.41800000000E+01 0. -1.
        -11    1    1    2    0    0 -0.34462320033E+02  0.42179311332E+02  0.12013605690E+03  0.13190685340E+03  0.00000000000E+00 0. -1.
         11    1    1    2    0    0 -0.64450965011E+02 -0.32805220298E+02  0.62025946209E+02  0.95275009172E+02  0.00000000000E+00 0.  1.
</event>
<event>
 7    1  0.2679104E-009  0.1180978E+03  0.7561462E-02  0.1246268E+00
          2   -1    0    0  501    0  0.00000000000E+00  0.00000000000E+00  0.22978467113E+03  0.22978467113E+03  0.00000000000E+00 0. -1.
         -2   -1    0    0    0  501 -0.00000000000E+00 -0.00000000000E+00 -0.66606878556E+02  0.66606878556E+02  0.00000000000E+00 0.  1.
         25    2    1    2    0    0 -0.10218358073E+02  0.57112590289E+02  0.87347131295E+02  0.16322532649E+03  0.12508686203E+03 0.  0.
          5    1    3    3  502    0 -0.13650314795E+02  0.95386147506E+02  0.76427166894E+02  0.12305865459E+03  0.41800000000E+01 0.  1.
         -5    1    3    3    0  502  0.34319567225E+01 -0.38273557218E+02  0.10919964401E+02  0.40166671900E+02  0.41800000000E+01 0.  1.
        -11    1    1    2    0    0  0.43747397539E+02 -0.50684976137E+02  0.72777060817E+02  0.98890354326E+02  0.00000000000E+00 0. -1.
         11    1    1    2    0    0 -0.33529039466E+02 -0.64276141517E+01  0.30536004654E+01  0.34275868873E+02  0.00000000000E+00 0.  1.
</event>
<event>
 7    1  0.2679104E-009  0.4419591E+02  0.7561462E-02  0.1479425E+00
          2   -1    0    0  501    0  0.00000000000E+00  0.00000000000E+00  0.10341372583E+03  0.10341372583E+03  0.00000000000E+00 0. -1.
         -2   -1    0    0    0  501 -0.00000000000E+00 -0.00000000000E+00 -0.12679629870E+03  0.12679629870E+03  0.00000000000E+00 0.  1.
         25    2    1    2    0    0  0.79567385671E+01  0.78385637542E+00 -0.48773925908E+02  0.13450290079E+03  0.12509280695E+03 0.  0.
          5    1    3    3  502    0  0.29692956829E+00 -0.17325256357E+02  0.39835659073E+02  0.43641778250E+02  0.41800000000E+01 0. -1.
         -5    1    3    3    0  502  0.76598089988E+01  0.18109112733E+02 -0.88609584981E+02  0.90861122535E+02  0.41800000000E+01 0. -1.
        -11    1    1    2    0    0  0.19654439970E+02  0.83893205440E+01  0.52037189282E+02  0.56254304530E+02  0.00000000000E+00 0. -1.
         11    1    1    2    0    0 -0.27611178537E+02 -0.91731769194E+01 -0.26645836239E+02  0.39452819214E+02  0.00000000000E+00 0.  1.
</event>
<event>
 7    1  0.2679104E-009  0.1243433E+03  0.7561462E-02  0.1236099E+00
         -1   -1    0    0    0  501 -0.00000000000E+00  0.00000000000E+00  0.26483557884E+02  0.26483557884E+02  0.00000000000E+00 0.  1.
          1   -1    0    0  501    0  0.00000000000E+00 -0.00000000000E+00 -0.75468354798E+03  0.75468354798E+03  0.00000000000E+00 0. -1.
         25    2    1    2    0    0  0.45978815187E+02 -0.75791682730E+02 -0.35170438280E+03  0.38366964232E+03  0.12509192995E+03 0.  0.
          5    1    3    3  502    0 -0.41887859540E+01 -0.70339794907E+02 -0.31039719703E+03  0.31832236019E+03  0.41800000000E+01 0. -1.
         -5    1    3    3    0  502  0.50167601141E+02 -0.54518878235E+01 -0.41307185778E+02  0.65347282132E+02  0.41800000000E+01 0. -1.
        -11    1    1    2    0    0 -0.30807609649E+02 -0.15799968270E+02 -0.98249915767E+02  0.10417194324E+03  0.00000000000E+00 0.  1.
         11    1    1    2    0    0 -0.15171205538E+02  0.91591651000E+02 -0.27824569152E+03  0.29332552030E+03  0.00000000000E+00 0. -1.
</event>
<event>
 7    1  0.2679104E-009  0.9130684E+02  0.7561462E-02  0.1299718E+00
          2   -1    0    0  501    0  0.00000000000E+00  0.00000000000E+00  0.89826675870E+03  0.89826675870E+03  0.00000000000E+00 0. -1.
         -2   -1    0    0    0  501 -0.00000000000E+00 -0.00000000000E+00 -0.19428873639E+02  0.19428873639E+02  0.00000000000E+00 0.  1.
         25    2    1    2    0    0 -0.49363638012E+02 -0.41933464802E+02  0.57761299431E+03  0.59454138612E+03  0.12508998515E+03 0.  0.
          5    1    3    3  502    0 -0.12835174948E+02 -0.18930952531E+02  0.52853678244E+03  0.52904794250E+03  0.41800000000E+01 0.  1.
         -5    1    3    3    0  502 -0.36528463064E+02 -0.23002512271E+02  0.49076211869E+02  0.65493443611E+02  0.41800000000E+01 0.  1.
        -11    1    1    2    0    0 -0.90115205754E+01  0.55364499473E+02  0.16703493135E+03  0.17620188307E+03  0.00000000000E+00 0.  1.
         11    1    1    2    0    0  0.58375158587E+02 -0.13431034671E+02  0.13418995940E+03  0.14695236315E+03  0.00000000000E+00 0. -1.
</event>
<event>
 7    1  0.2679104E-009  0.1043686E+03  0.7561462E-02  0.1271369E+00
         -1   -1    0    0    0  501 -0.00000000000E+00  0.00000000000E+00  0.21964778302E+02  0.21964778302E+02  0.00000000000E+00 0.  1.
          1   -1    0    0  501    0  0.00000000000E+00 -0.00000000000E+00 -0.85764023779E+03  0.85764023779E+03  0.00000000000E+00 0. -1.
         25    2    1    2    0    0 -0.22789015404E+02 -0.52221729920E+02 -0.65111624890E+03  0.66546664642E+03  0.12508812739E+03 0.  0.
          5    1    3    3  502    0  0.22901326511E+02  0.13853190453E+02 -0.35696328848E+02  0.44811627228E+02  0.41800000000E+01 0. -1.
         -5    1    3    3    0  502 -0.45690341914E+02 -0.66074920373E+02 -0.61541992005E+03  0.62065501919E+03  0.41800000000E+01 0. -1.
        -11    1    1    2    0    0 -0.57964612809E+01  0.68207563256E+02 -0.83885764162E+02  0.10827138162E+03  0.00000000000E+00 0.  1.
         11    1    1    2    0    0  0.28585476685E+02 -0.15985833336E+02 -0.10067344643E+03  0.10586698806E+03  0.00000000000E+00 0. -1.
</event>
<event>
 7    1  0.2679104E-009  0.1167159E+03  0.7561462E-02  0.1248615E+00
         -1   -1    0    0    0  501 -0.00000000000E+00  0.00000000000E+00  0.30938636201E+02  0.30938636201E+02  0.00000000000E+00 0.  1.
          1   -1    0    0  501    0  0.00000000000E+00 -0.00000000000E+00 -0.77087894602E+03  0.77087894602E+03  0.00000000000E+00 0. -1.
         25    2    1    2    0    0 -0.82883520634E+01 -0.66803906386E+02 -0.62399628910E+03  0.63996153426E+03  0.12509171766E+03 0.  0.
          5    1    3    3  502    0 -0.19857490935E+02 -0.96690763335E+02 -0.33795261002E+03  0.35209780272E+03  0.41800000000E+01 0. -1.
         -5    1    3    3    0  502  0.11569138871E+02  0.29886856949E+02 -0.28604367908E+03  0.28786373154E+03  0.41800000000E+01 0. -1.
        -11    1    1    2    0    0  0.34712932140E+02  0.67476538066E+02 -0.11177087171E+03  0.13509551661E+03  0.00000000000E+00 0. -1.
         11    1    1    2    0    0 -0.26424580077E+02 -0.67263167994E+00 -0.41731490140E+01  0.26760531353E+02  0.00000000000E+00 0.  1.
</event>
<event>
 7    1  0.2679104E-009  0.1119932E+03  0.7561462E-02  0.1256923E+00
         -1   -1    0    0    0  501 -0.00000000000E+00  0.00000000000E+00  0.42983224810E+02  0.42983224810E+02  0.00000000000E+00 0.  1.
          1   -1    0    0  501    0  0.00000000000E+00 -0.00000000000E+00 -0.40348924633E+03  0.40348924633E+03  0.00000000000E+00 0. -1.
         25    2    1    2    0    0 -0.48171611939E+02 -0.49004366203E+02 -0.24505222502E+03  0.28358350790E+03  0.12508829228E+03 0.  0.
          5    1    3    3  502    0 -0.60079278143E+02 -0.68163656133E+02 -0.24423991378E+03  0.26062695863E+03  0.41800000000E+01 0. -1.
         -5    1    3    3    0  502  0.11907666204E+02  0.19159289930E+02 -0.81231123595E+00  0.22956549274E+02  0.41800000000E+01 0. -1.
        -11    1    1    2    0    0 -0.23792554506E+02  0.24279093701E+02 -0.15748345038E+02  0.37464255128E+02  0.00000000000E+00 0.  1.
         11    1    1    2    0    0  0.71964166445E+02  0.24725272502E+02 -0.99705451462E+02  0.12542470811E+03  0.00000000000E+00 0. -1.
</event>
<event>
 7    1  0.2679104E-009  0.1473456E+03  0.7561462E-02  0.1203773E+00
         -2   -1    0    0    0  501 -0.00000000000E+00  0.00000000000E+00  0.79595052982E+02  0.79595052982E+02  0.00000000000E+00 0.  1.
          2   -1    0    0  501    0  0.00000000000E+00 -0.00000000000E+00 -0.32166398784E+03  0.32166398784E+03  0.00000000000E+00 0. -1.
         25    2    1    2    0    0  0.10184803576E+03  0.63319650181E+01 -0.55074236203E+02  0.17056841256E+03  0.12508915100E+03 0.  0.
          5    1    3    3  502    0 -0.16602696084E+02  0.34329005333E+02 -0.42268188771E+01  0.38593633182E+02  0.41800000000E+01 0. -1.
         -5    1    3    3    0  502  0.11845073185E+03 -0.27997040314E+02 -0.50847417326E+02  0.13197477937E+03  0.41800000000E+01 0. -1.
        -11    1    1    2    0    0 -0.12799648206E+02  0.34338942761E+02 -0.41985738424E+02  0.55729670869E+02  0.00000000000E+00 0. -1.
         11    1    1    2    0    0 -0.89048387559E+02 -0.40670907779E+02 -0.14500896023E+03  0.17496095740E+03  0.00000000000E+00 0.  1.
</event>
<event>
 7    1  0.2679104E-009  0.1562247E+03  0.7561462E-02  0.1193026E+00
         -2   -1    0    0    0  501 -0.00000000000E+00  0.00000000000E+00  0.15161841263E+02  0.15161841263E+02  0.00000000000E+00 0.  1.
          2   -1    0    0  501    0  0.00000000000E+00 -0.00000000000E+00 -0.25243954121E+04  0.25243954121E+04  0.00000000000E+00 0. -1.
         25    2    1    2    0    0  0.12599296068E+02 -0.12595199683E+03 -0.19910635201E+04  0.19990003505E+04  0.12508322272E+03 0.  0.
          5    1    3    3  502    0  0.43854528553E+02 -0.57917647614E+01 -0.28749281511E+03  0.29090609371E+03  0.41800000000E+01 0. -1.
         -5    1    3    3    0  502 -0.31255232485E+02 -0.12016023207E+03 -0.17035707050E+04  0.17080942568E+04  0.41800000000E+01 0. -1.
        -11    1    1    2    0    0 -0.35852186136E+02  0.35724809208E+02 -0.99368280038E+02  0.11151545328E+03  0.00000000000E+00 0.  1.
         11    1    1    2    0    0  0.23252890068E+02  0.90227187626E+02 -0.41880177066E+03  0.42904144950E+03  0.00000000000E+00 0. -1.
</event>
<event>
 7    1  0.2679104E-009  0.1347379E+03  0.7561462E-02  0.1220590E+00
          2   -1    0    0  501    0  0.00000000000E+00  0.00000000000E+00  0.11595794164E+03  0.11595794164E+03  0.00000000000E+00 0. -1.
         -2   -1    0    0    0  501 -0.00000000000E+00 -0.00000000000E+00 -0.21015869872E+03  0.21015869872E+03  0.00000000000E+00 0.  1.
         25    2    1    2    0    0  0.90704391783E+02 -0.40335579216E+02 -0.10820964738E+03  0.19290124957E+03  0.12508924278E+03 0.  0.
          5    1    3    3  502    0 -0.22179410148E+02 -0.36936272462E+02 -0.48776734227E+02  0.65213929952E+02  0.41800000000E+01 0. -1.
         -5    1    3    3    0  502  0.11288380193E+03 -0.33993067537E+01 -0.59432913155E+02  0.12768731962E+03  0.41800000000E+01 0. -1.
        -11    1    1    2    0    0 -0.34755391821E+02  0.45199879440E+02 -0.27575484311E+02  0.63335406346E+02  0.00000000000E+00 0.  1.
         11    1    1    2    0    0 -0.55948999962E+02 -0.48643002245E+01  0.41584374610E+02  0.69879984439E+02  0.00000000000E+00 0. -1.
</event>
<event>
 7    1  0.2679104E-009  0.1229792E+03  0.7561462E-02  0.1238262E+00
          2   -1    0    0  501    0  0.00000000000E+00  0.00000000000E+00  0.61899043612E+03  0.61899043612E+03  0.00000000000E+00 0. -1.
         -2   -1    0    0    0  501 -0.00000000000E+00 -0.00000000000E+00 -0.27507164004E+02  0.27507164004E+02  0.00000000000E+00 0.  1.
         25    2    1    2    0    0  0.10991625674E+02  0.65258238079E+02  0.24293783911E+03  0.28115111285E+03  0.12509077150E+03 0.  0.
          5    1    3    3  502    0 -0.46322124359E+02  0.66421151641E+02  0.16947885699E+03  0.18787778995E+03  0.41800000000E+01 0.  1.
         -5    1    3    3    0  502  0.57313750033E+02 -0.11629135623E+01  0.73458982122E+02  0.93273322902E+02  0.41800000000E+01 0.  1.
        -11    1    1    2    0    0  0.14128177613E+02  0.16582698383E+02  0.45590328004E+02  0.50527906110E+02  0.00000000000E+00 0.  1.
         11    1    1    2    0    0 -0.25119803287E+02 -0.81840936462E+02  0.30295510500E+03  0.31481858116E+03  0.00000000000E+00 0. -1.
</event>
<event>
 7    1  0.2679104E-009  0.1150574E+03  0.7561462E-02  0.1251481E+00
          3   -1    0    0  501    0  0.00000000000E+00  0.00000000000E+00  0.44587811352E+03  0.44587811352E+03  0.00000000000E+00 0. -1.
         -3   -1    0    0    0  501 -0.00000000000E+00 -0.00000000000E+00 -0.69143555507E+02  0.69143555507E+02  0.00000000000E+00 0.  1.
         25    2    1    2    0    0 -0.39872387423E+02 -0.46113094156E+02  0.16329777490E+02  0.14010881254E+03  0.12509033930E+03 0.  0.
          5    1    3    3  502    0 -0.46371909991E+02 -0.86388933493E+02  0.12131110454E+02  0.98883962841E+02  0.41800000000E+01 0. -1.
         -5    1    3    3    0  502  0.64995225671E+01  0.40275839337E+02  0.41986670359E+01  0.41224849700E+02  0.41800000000E+01 0. -1.
        -11    1    1    2    0    0  0.33054859462E+01  0.53549870412E+02  0.29297017797E+03  0.29784230734E+03  0.00000000000E+00 0. -1.
         11    1    1    2    0    0  0.36566901477E+02 -0.74367762564E+01  0.67434602545E+02  0.77070549143E+02  0.00000000000E+00 0.  1.
</event>
<event>
 7    1  0.2679104E-009  0.1037647E+03  0.7561462E-02  0.1272573E+00
          2   -1    0    0  501    0  0.00000000000E+00  0.00000000000E+00  0.75034557114E+03  0.75034557114E+03  0.00000000000E+00 0. -1.
         -2   -1    0    0    0  501 -0.00000000000E+00 -0.00000000000E+00 -0.16358452912E+02  0.16358452912E+02  0.00000000000E+00 0.  1.
         25    2    1    2    0    0  0.91415390424E+01  0.37779746955E+01  0.33075442079E+03  0.35375767625E+03  0.12509262891E+03 0.  0.
          5    1    3    3  502    0  0.55644731818E+02  0.33158398017E+02  0.12645499627E+03  0.14214131707E+03  0.41800000000E+01 0.  1.
         -5    1    3    3    0  502 -0.46503192775E+02 -0.29380423322E+02  0.20429942452E+03  0.21161635918E+03  0.41800000000E+01 0.  1.
        -11    1    1    2    0    0  0.93124287431E+01 -0.43058832334E+02  0.16428001432E+03  0.17008441280E+03  0.00000000000E+00 0.  1.
         11    1    1    2    0    0 -0.18453967786E+02  0.39280857639E+02  0.23895268311E+03  0.24286193500E+03  0.00000000000E+00 0. -1.
</event>
<event>
 7    1  0.2679104E-009  0.8796613E+02  0.7561462E-02  0.1307853E+00
         -2   -1    0    0    0  501 -0.00000000000E+00  0.00000000000E+00  0.16736773879E+03  0.16736773879E+03  0.00000000000E+00 0.  1.
          2   -1    0    0  501    0  0.00000000000E+00 -0.00000000000E+00 -0.83843128159E+02  0.83843128159E+02  0.00000000000E+00 0. -1.
         25    2    1    2    0    0 -0.23658306510E+01  0.33400421508E+02  0.60901540391E+01  0.12964920727E+03  0.12510252459E+03 0.  0.
          5    1    3    3  502    0  0.11584382136E+02  0.76148291958E+02  0.24419710736E+02  0.80910783892E+02  0.41800000000E+01 0.  1.
         -5    1    3    3    0  502 -0.13950212787E+02 -0.42747870450E+02 -0.18329556697E+02  0.48738423379E+02  0.41800000000E+01 0.  1.
        -11    1    1    2    0    0  0.12944343650E+02  0.49446483471E+01 -0.15308452073E+02  0.20648348231E+02  0.00000000000E+00 0. -1.
         11    1    1    2    0    0 -0.10578512999E+02 -0.38345069855E+02  0.92742908661E+02  0.10091331144E+03  0.00000000000E+00 0.  1.
</event>
<event>
 7    1  0.2679104E-009  0.1785799E+03  0.7561462E-02  0.1169185E+00
         -1   -1    0    0    0  501 -0.00000000000E+00  0.00000000000E+00  0.35525964817E+02  0.35525964817E+02  0.00000000000E+00 0.  1.
          1   -1    0    0  501    0  0.00000000000E+00 -0.00000000000E+00 -0.18524337693E+04  0.18524337693E+04  0.00000000000E+00 0. -1.
         25    2    1    2    0    0  0.11887590956E+03 -0.82055007828E+02 -0.16023430294E+04  0.16136962754E+04  0.12509188216E+03 0.  0.
          5    1    3    3  502    0 -0.18919673557E+02 -0.38879131232E+02 -0.50909509468E+03  0.51094503493E+03  0.41800000000E+01 0.  1.
         -5    1    3    3    0  502  0.13779558311E+03 -0.43175876596E+02 -0.10932479348E+04  0.11027512404E+04  0.41800000000E+01 0.  1.
        -11    1    1    2    0    0 -0.11057307682E+03  0.27321575138E+02 -0.12627909007E+03  0.17005670341E+03  0.00000000000E+00 0.  1.
         11    1    1    2    0    0 -0.83028327303E+01  0.54733432691E+02 -0.88285684985E+02  0.10420675534E+03  0.00000000000E+00 0. -1.
</event>
<event>
 7    1  0.2679104E-009  0.1700120E+03  0.7561462E-02  0.1177835E+00
         -1   -1    0    0    0  501 -0.00000000000E+00  0.00000000000E+00  0.51069788599E+02  0.51069788599E+02  0.00000000000E+00 0.  1.
          1   -1    0    0  501    0  0.00000000000E+00 -0.00000000000E+00 -0.71777588103E+03  0.71777588103E+03  0.00000000000E+00 0. -1.
         25    2    1    2    0    0 -0.14949505887E+03 -0.52182118367E+02 -0.36237166330E+03  0.41476914932E+03  0.12509387980E+03 0.  0.
          5    1    3    3  502    0 -0.14918363169E+03 -0.68401323583E+02 -0.23714100007E+03  0.28842299379E+03  0.41800000000E+01 0. -1.
         -5    1    3    3    0  502 -0.31142717473E+00  0.16219205216E+02 -0.12523066323E+03  0.12634615553E+03  0.41800000000E+01 0. -1.
        -11    1    1    2    0    0  0.12259571801E+03  0.36271986982E+02 -0.15223039370E+03  0.19879501975E+03  0.00000000000E+00 0.  1.
         11    1    1    2    0    0  0.26899340859E+02  0.15910131384E+02 -0.15210403544E+03  0.15528150056E+03  0.00000000000E+00 0. -1.
</event>
<event>
 7    1  0.2679104E-009  0.7146383E+02  0.7561462E-02  0.1355185E+00
          2   -1    0    0  501    0  0.00000000000E+00  0.00000000000E+00  0.40486377961E+02  0.40486377961E+02  0.00000000000E+00 0.  1.
         -2   -1    0    0    0  501 -0.00000000000E+00 -0.00000000000E+00 -0.36775911601E+03  0.36775911601E+03  0.00000000000E+00 0. -1.
         25    2    1    2    0    0 -0.60596719546E+01 -0.76157384088E+01 -0.90156394904E+02  0.15450332637E+03  0.12509349792E+03 0.  0.
          5    1    3    3  502    0 -0.31270945165E+02  0.38698735436E+01  0.22158284410E+02  0.38746740518E+02  0.41800000000E+01 0.  1.
         -5    1    3    3    0  502  0.25211273210E+02 -0.11485611952E+02 -0.11231467931E+03  0.11575658585E+03  0.41800000000E+01 0.  1.
        -11    1    1    2    0    0 -0.36255665771E+02  0.16584727011E+02 -0.64824798376E+02  0.76103751255E+02  0.00000000000E+00 0.  1.
         11    1    1    2    0    0  0.42315337725E+02 -0.89689886024E+01 -0.17229154477E+03  0.17763841635E+03  0.00000000000E+00 0. -1.
</event>
<event>
 7    1  0.2679104E-009  0.1145838E+03  0.7561462E-02  0.1252309E+00
         -1   -1    0    0    0  501 -0.00000000000E+00  0.00000000000E+00  0.50742960746E+02  0.50742960746E+02  0.00000000000E+00 0.  1.
          1   -1    0    0  501    0  0.00000000000E+00 -0.00000000000E+00 -0.29215311294E+03  0.29215311294E+03  0.00000000000E+00 0. -1.
         25    2    1    2    0    0  0.53769377537E+02 -0.19585596521E+02 -0.15943771436E+03  0.21057749690E+03  0.12509099044E+03 0.  0.
          5    1    3    3  502    0  0.21337019006E+02 -0.67023283333E+02 -0.12489340130E+03  0.14339882488E+03  0.41800000000E+01 0. -1.
         -5    1    3    3    0  502  0.32432358531E+02  0.47437686811E+02 -0.34544313061E+02  0.67178672023E+02  0.41800000000E+01 0. -1.
        -11    1    1    2    0    0  0.18501985016E+02  0.22039680142E+02 -0.38069422145E+02  0.47721607819E+02  0.00000000000E+00 0. -1.
         11    1    1    2    0    0 -0.72271362554E+02 -0.24540836206E+01 -0.43903015692E+02  0.84596968968E+02  0.00000000000E+00 0.  1.
</event>
<event>
 7    1  0.3505653E-009  0.1447605E+03  0.7561462E-02  0.1207063E+00
         -2   -1    0    0    0  501 -0.00000000000E+00  0.00000000000E+00  0.87916776396E+02  0.87916776396E+02  0.00000000000E+00 0.  1.
          2   -1    0    0  501    0  0.00000000000E+00 -0.00000000000E+00 -0.46032826846E+03  0.46032826846E+03  0.00000000000E+00 0. -1.
         25    2    1    2    0    0  0.78302105397E+02 -0.87163584865E+02 -0.28737401025E+02  0.17379259510E+03  0.12509723282E+03 0.  0.
          5    1    3    3  502    0  0.46558008898E+02 -0.11795976130E+03 -0.18794606558E+02  0.12826871448E+03  0.41800000000E+01 0. -1.
         -5    1    3    3    0  502  0.31744096499E+02  0.30796176432E+02 -0.99427944670E+01  0.45523880625E+02  0.41800000000E+01 0. -1.
        -11    1    1    2    0    0 -0.48292425717E+02  0.64651423951E+02 -0.32016913115E+03  0.33018212783E+03  0.00000000000E+00 0. -1.
         11    1    1    2    0    0 -0.30009679680E+02  0.22512160914E+02 -0.23504959891E+02  0.44270321921E+02  0.00000000000E+00 0.  1.
</event>
<event>
 7    1  0.2679104E-009  0.1375782E+03  0.7561462E-02  0.1216625E+00
         -1   -1    0    0    0  501 -0.00000000000E+00  0.00000000000E+00  0.29622400280E+02  0.29622400280E+02  0.00000000000E+00 0.  1.
          1   -1    0    0  501    0  0.00000000000E+00 -0.00000000000E+00 -0.13152900206E+04  0.13152900206E+04  0.00000000000E+00 0. -1.
         25    2    1    2    0    0  0.11665624127E+03 -0.44471128974E+00 -0.10687443197E+04  0.10823450255E+04  0.12508979510E+03 0.  0.
          5    1    3    3  502    0  0.10381404060E+03  0.32692443603E+02 -0.46683894278E+03  0.47937690995E+03  0.41800000000E+01 0. -1.
         -5    1    3    3    0  502  0.12842200673E+02 -0.33137154892E+02 -0.60190537693E+03  0.60296811551E+03  0.41800000000E+01 0. -1.
        -11    1    1    2    0    0 -0.15627329369E+02 -0.21975787689E+02 -0.60009312282E+01  0.27625347841E+02  0.00000000000E+00 0.  1.
         11    1    1    2    0    0 -0.10102891191E+03  0.22420498978E+02 -0.21092236942E+03  0.23494204762E+03  0.00000000000E+00 0. -1.
</event>
<event>
 7    1  0.2679104E-009  0.8227051E+02  0.7561462E-02  0.1322729E+00
          2   -1    0    0  501    0  0.00000000000E+00  0.00000000000E+00  0.19031214925E+03  0.19031214925E+03  0.00000000000E+00 0.  1.
         -2   -1    0    0    0  501 -0.00000000000E+00 -0.00000000000E+00 -0.63259971121E+02  0.63259971121E+02  0.00000000000E+00 0. -1.
         25    2    1    2    0    0 -0.12082845076E+02 -0.11892654268E+02  0.78120764967E+02  0.14845087131E+03  0.12508947559E+03 0.  0.
          5    1    3    3  502    0  0.13936140555E+02 -0.65032107743E+02  0.36403229687E+02  0.75934567772E+02  0.41800000000E+01 0.  1.
         -5    1    3    3    0  502 -0.26018985631E+02  0.53139453475E+02  0.41717535280E+02  0.72516303538E+02  0.41800000000E+01 0.  1.
        -11    1    1    2    0    0  0.17223474468E+02 -0.73077174968E+01 -0.23484964787E+02  0.30026561222E+02  0.00000000000E+00 0. -1.
         11    1    1    2    0    0 -0.51406293918E+01  0.19200371765E+02  0.72416377951E+02  0.75094687841E+02  0.00000000000E+00 0.  1.
</event>
<event>
 7    1  0.2679104E-009  0.1882678E+03  0.7561462E-02  0.1160033E+00
         -2   -1    0    0    0  501 -0.00000000000E+00  0.00000000000E+00  0.88629234139E+02  0.88629234139E+02  0.00000000000E+00 0.  1.
          2   -1    0    0  501    0  0.00000000000E+00 -0.00000000000E+00 -0.85007162314E+03  0.85007162314E+03  0.00000000000E+00 0. -1.
         25    2    1    2    0    0  0.30729020099E+01  0.17036593794E+03 -0.70624914985E+03  0.73720396311E+03  0.12509127075E+03 0.  0.
          5    1    3    3  502    0 -0.32971228593E+02  0.10171779801E+03 -0.21832106365E+03  0.24313611739E+03  0.41800000000E+01 0.  1.
         -5    1    3    3    0  502  0.36044130603E+02  0.68648139932E+02 -0.48792808620E+03  0.49406784572E+03  0.41800000000E+01 0.  1.
        -11    1    1    2    0    0  0.27417880409E+02 -0.10870571108E+02 -0.19135919724E+02  0.35158112947E+02  0.00000000000E+00 0. -1.
         11    1    1    2    0    0 -0.30490782419E+02 -0.15949536683E+03 -0.36057319420E+02  0.16633878122E+03  0.00000000000E+00 0.  1.
</event>
<event>
 7    1  0.2679104E-009  0.1181420E+03  0.7561462E-02  0.1246194E+00
         -2   -1    0    0    0  501 -0.00000000000E+00  0.00000000000E+00  0.36142013893E+02  0.36142013893E+02  0.00000000000E+00 0. -1.
          2   -1    0    0  501    0  0.00000000000E+00 -0.00000000000E+00 -0.56200168961E+03  0.56200168961E+03  0.00000000000E+00 0.  1.
         25    2    1    2    0    0  0.84220016215E+02 -0.22457500608E+02 -0.21941240619E+03  0.26718192445E+03  0.12508807418E+03 0.  0.
          5    1    3    3  502    0  0.64137211281E+02  0.41530555492E+02 -0.71530800621E+02  0.10474968615E+03  0.41800000000E+01 0.  1.
         -5    1    3    3    0  502  0.20082804934E+02 -0.63988056099E+02 -0.14788160556E+03  0.16243223831E+03  0.41800000000E+01 0.  1.
        -11    1    1    2    0    0 -0.76617302732E+02  0.90474919268E+01 -0.30596197697E+03  0.31553890337E+03  0.00000000000E+00 0.  1.
         11    1    1    2    0    0 -0.76027134835E+01  0.13410008681E+02 -0.48529255477E+00  0.15422875672E+02  0.00000000000E+00 0. -1.
</event>
<event>
 7    1  0.2679104E-009  0.7544094E+02  0.7561462E-02  0.1342511E+00
          2   -1    0    0  501    0  0.00000000000E+00  0.00000000000E+00  0.10018414018E+04  0.10018414018E+04  0.00000000000E+00 0. -1.
         -2   -1    0    0    0  501 -0.00000000000E+00 -0.00000000000E+00 -0.15632155617E+02  0.15632155617E+02  0.00000000000E+00 0.  1.
         25    2    1    2    0    0 -0.19433044574E+02  0.51354250460E+01  0.79228908599E+03  0.80235763104E+03  0.12510698022E+03 0.  0.
          5    1    3    3  502    0 -0.38042387965E+02 -0.15584208786E+01  0.70069564848E+02  0.79855295852E+02  0.41800000000E+01 0. -1.
         -5    1    3    3    0  502  0.18609343391E+02  0.66938459246E+01  0.72221952114E+03  0.72250233519E+03  0.41800000000E+01 0. -1.
        -11    1    1    2    0    0 -0.21368748333E+02  0.31141919359E+02  0.92946487848E+02  0.10032692635E+03  0.00000000000E+00 0. -1.
         11    1    1    2    0    0  0.40801792907E+02 -0.36277344405E+02  0.10097367235E+03  0.11478900004E+03  0.00000000000E+00 0.  1.
</event>
<event>
 7    1  0.2679104E-009  0.9098635E+02  0.7561462E-02  0.1300481E+00
         -1   -1    0    0    0  501 -0.00000000000E+00  0.00000000000E+00  0.12540384236E+03  0.12540384236E+03  0.00000000000E+00 0.  1.
          1   -1    0    0  501    0  0.00000000000E+00 -0.00000000000E+00 -0.12008365213E+03  0.12008365213E+03  0.00000000000E+00 0. -1.
         25    2    1    2    0    0 -0.43751715797E+02  0.18313968553E+02 -0.25671936396E+02  0.13621879884E+03  0.12508756437E+03 0.  0.
          5    1    3    3  502    0  0.23608601956E+02  0.52752313371E+02 -0.90383138199E+01  0.58645853809E+02  0.41800000000E+01 0.  1.
         -5    1    3    3    0  502 -0.67360317753E+02 -0.34438344818E+02 -0.16633622576E+02  0.77572945036E+02  0.41800000000E+01 0.  1.
        -11    1    1    2    0    0  0.15689281525E+02 -0.20461595739E+01  0.62245666713E+02  0.64225099053E+02  0.00000000000E+00 0.  1.
         11    1    1    2    0    0  0.28062434272E+02 -0.16267808979E+02 -0.31253540082E+02  0.45043596592E+02  0.00000000000E+00 0. -1.
</event>
<event>
 7    1  0.2679104E-009  0.8987415E+02  0.7561462E-02  0.1303157E+00
         -2   -1    0    0    0  501 -0.00000000000E+00  0.00000000000E+00  0.14358685210E+03  0.14358685210E+03  0.00000000000E+00 0.  1.
          2   -1    0    0  501    0  0.00000000000E+00 -0.00000000000E+00 -0.85053680910E+02  0.85053680910E+02  0.00000000000E+00 0. -1.
         25    2    1    2    0    0  0.25706020356E+02  0.18343509850E+01  0.36241147741E+02  0.13275678850E+03  0.12508708877E+03 0.  0.
          5    1    3    3  502    0  0.72769809072E+02 -0.57012661050E+01  0.63401475633E+00  0.73115141539E+02  0.41800000000E+01 0. -1.
         -5    1    3    3    0  502 -0.47063788716E+02  0.75356170900E+01  0.35607132985E+02  0.59641646964E+02  0.41800000000E+01 0. -1.
        -11    1    1    2    0    0 -0.57708304218E+01  0.24832981718E+02  0.47643364613E+02  0.54035818273E+02  0.00000000000E+00 0.  1.
         11    1    1    2    0    0 -0.19935189934E+02 -0.26667332703E+02 -0.25351341165E+02  0.41847926233E+02  0.00000000000E+00 0. -1.
</event>
<event>
 7    1  0.2679104E-009  0.1410040E+03  0.7561462E-02  0.1211984E+00
         -3   -1    0    0    0  501 -0.00000000000E+00  0.00000000000E+00  0.57562826054E+02  0.57562826054E+02  0.00000000000E+00 0.  1.
          3   -1    0    0  501    0  0.00000000000E+00 -0.00000000000E+00 -0.38319759968E+03  0.38319759968E+03  0.00000000000E+00 0. -1.
         25    2    1    2    0    0  0.10457371811E+03 -0.11488180952E+02 -0.18120027638E+03  0.24402485845E+03  0.12508777143E+03 0.  0.
          5    1    3    3  502    0  0.87188819267E+02 -0.63050380292E+02 -0.10590615813E+03  0.15103253752E+03  0.41800000000E+01 0. -1.
         -5    1    3    3    0  502  0.17384898842E+02  0.51562199340E+02 -0.75294118253E+02  0.92992320931E+02  0.41800000000E+01 0. -1.
        -11    1    1    2    0    0 -0.80559301020E+02  0.33435306817E+02 -0.13848457922E+03  0.16366337222E+03  0.00000000000E+00 0. -1.
         11    1    1    2    0    0 -0.24014417090E+02 -0.21947125865E+02 -0.59499180185E+01  0.33072195064E+02  0.00000000000E+00 0.  1.
</event>
<event>
 7    1  0.2679104E-009  0.1040123E+03  0.7561462E-02  0.1272078E+00
          1   -1    0    0  501    0  0.00000000000E+00  0.00000000000E+00  0.72976014710E+03  0.72976014710E+03  0.00000000000E+00 0. -1.
         -1   -1    0    0    0  501 -0.00000000000E+00 -0.00000000000E+00 -0.18997483569E+02  0.18997483569E+02  0.00000000000E+00 0.  1.
         25    2    1    2    0    0 -0.22463776879E+02  0.14664847521E+02  0.52341860616E+03  0.53882749805E+03  0.12509339054E+03 0.  0.
          5    1    3    3  502    0 -0.67878252037E+02 -0.98371169282E+01  0.38415360714E+03  0.39025080685E+03  0.41800000000E+01 0.  1.
         -5    1    3    3    0  502  0.45414475158E+02  0.24501964449E+02  0.13926499902E+03  0.14857669120E+03  0.41800000000E+01 0.  1.
        -11    1    1    2    0    0  0.27630945168E+02  0.31031902061E+02  0.49556316117E+02  0.64670522988E+02  0.00000000000E+00 0. -1.
         11    1    1    2    0    0 -0.51671682893E+01 -0.45696749582E+02  0.13778774126E+03  0.14525960964E+03  0.00000000000E+00 0.  1.
</event>
<event>
 7    1  0.2679104E-009  0.1337205E+03  0.7561462E-02  0.1222037E+00
         -2   -1    0    0    0  501 -0.00000000000E+00  0.00000000000E+00  0.25036596545E+02  0.25036596545E+02  0.00000000000E+00 0.  1.
          2   -1    0    0  501    0  0.00000000000E+00 -0.00000000000E+00 -0.85505797111E+03  0.85505797111E+03  0.00000000000E+00 0. -1.
         25    2    1    2    0    0  0.78259616251E+02  0.22717292376E+02 -0.62068416871E+03  0.63838621350E+03  0.12508987725E+03 0.  0.
          5    1    3    3  502    0  0.11251752459E+03  0.13762326345E+02 -0.45756078098E+03  0.47141164141E+03  0.41800000000E+01 0.  1.
         -5    1    3    3    0  502 -0.34257908337E+02  0.89549660318E+01 -0.16312338773E+03  0.16697457209E+03  0.41800000000E+01 0.  1.
        -11    1    1    2    0    0 -0.87871751584E+02 -0.41556879014E+02 -0.18812759516E+03  0.21175554534E+03  0.00000000000E+00 0.  1.
         11    1    1    2    0    0  0.96121353332E+01  0.18839586638E+02 -0.21209610697E+02  0.29952808821E+02  0.00000000000E+00 0. -1.
</event>
<event>
 7    1  0.2679104E-009  0.1061480E+03  0.7561462E-02  0.1267874E+00
          1   -1    0    0  501    0  0.00000000000E+00  0.00000000000E+00  0.23672899262E+03  0.23672899262E+03  0.00000000000E+00 0. -1.
         -1   -1    0    0    0  501 -0.00000000000E+00 -0.00000000000E+00 -0.51992541557E+02  0.51992541557E+02  0.00000000000E+00 0.  1.
         25    2    1    2    0    0 -0.24443527171E+02  0.98857403106E+01  0.79672415274E+02  0.15063245927E+03  0.12508888899E+03 0.  0.
          5    1    3    3  502    0 -0.44919600798E+02  0.57341762913E+02  0.30200247564E+02  0.78964394905E+02  0.41800000000E+01 0.  1.
         -5    1    3    3    0  502  0.20476073628E+02 -0.47456022602E+02  0.49472167710E+02  0.71668064369E+02  0.41800000000E+01 0.  1.
        -11    1    1    2    0    0 -0.27378035069E+02  0.13618887397E+02  0.51770316456E+02  0.60126504673E+02  0.00000000000E+00 0. -1.
         11    1    1    2    0    0  0.51821562240E+02 -0.23504627708E+02  0.53293719333E+02  0.77962570231E+02  0.00000000000E+00 0.  1.
</event>
<event>
 7    1  0.2679104E-009  0.9771513E+02  0.7561462E-02  0.1285175E+00
         -1   -1    0    0    0  501 -0.00000000000E+00  0.00000000000E+00  0.19420628035E+02  0.19420628035E+02  0.00000000000E+00 0.  1.
          1   -1    0    0  501    0  0.00000000000E+00 -0.00000000000E+00 -0.77512721304E+03  0.77512721304E+03  0.00000000000E+00 0. -1.
         25    2    1    2    0    0  0.20233258072E+02  0.68887462468E+01 -0.58333998931E+03  0.59698411119E+03  0.12509055253E+03 0.  0.
          5    1    3    3  502    0 -0.52355362791E+02 -0.31837544087E+00 -0.20264639642E+03  0.20934235061E+03  0.41800000000E+01 0. -1.
         -5    1    3    3    0  502  0.72588620864E+02  0.72071216877E+01 -0.38069359288E+03  0.38764176058E+03  0.41800000000E+01 0. -1.
        -11    1    1    2    0    0  0.26265839512E+01 -0.34157893739E+02 -0.17133016398E+02  0.38304058517E+02  0.00000000000E+00 0.  1.
         11    1    1    2    0    0 -0.22859842024E+02  0.27269147492E+02 -0.15523357930E+03  0.15925967137E+03  0.00000000000E+00 0. -1.
</event>
<event>
 7    1  0.2679104E-009  0.8567416E+02  0.7561462E-02  0.1313679E+00
         -1   -1    0    0    0  501 -0.00000000000E+00  0.00000000000E+00  0.28258616853E+03  0.28258616853E+03  0.00000000000E+00 0.  1.
          1   -1    0    0  501    0  0.00000000000E+00 -0.00000000000E+00 -0.48671905520E+02  0.48671905520E+02  0.00000000000E+00 0. -1.
         25    2    1    2    0    0  0.30278704920E+02  0.27642282079E+02  0.15571370823E+03  0.20389947807E+03  0.12508933806E+03 0.  0.
          5    1    3    3  502    0  0.52822500524E+02  0.11856792886E+02  0.16566596257E+03  0.17433726984E+03  0.41800000000E+01 0. -1.
         -5    1    3    3    0  502 -0.22543795604E+02  0.15785489193E+02 -0.99522543408E+01  0.29562208236E+02  0.41800000000E+01 0. -1.
        -11    1    1    2    0    0  0.20393206083E+02 -0.32437456654E+02  0.63870298464E+02  0.74481450539E+02  0.00000000000E+00 0.  1.
         11    1    1    2    0    0 -0.50671911003E+02  0.47951745747E+01  0.14330256316E+02  0.52877145441E+02  0.00000000000E+00 0. -1.
</event>
<event>
 7    1  0.2679104E-009  0.1175742E+03  0.7561462E-02  0.1247153E+00
         -1   -1    0    0    0  501 -0.00000000000E+00  0.00000000000E+00  0.63785631489E+03  0.63785631489E+03  0.00000000000E+00 0.  1.
          1   -1    0    0  501    0  0.00000000000E+00 -0.00000000000E+00 -0.35768663284E+02  0.35768663284E+02  0.00000000000E+00 0. -1.
         25    2    1    2    0    0  0.40461910395E+02  0.26112230524E+02  0.11690194920E+03  0.17785914207E+03  0.12509513946E+03 0.  0.
          5    1    3    3  502    0  0.74656818333E+02  0.51333235712E+02  0.87452292076E+02  0.12599252915E+03  0.41800000000E+01 0.  1.
         -5    1    3    3    0  502 -0.34194907938E+02 -0.25221005188E+02  0.29449657122E+02  0.51866612924E+02  0.41800000000E+01 0.  1.
        -11    1    1    2    0    0  0.20338514522E+02 -0.34829242220E+02  0.20422558359E+03  0.20817017145E+03  0.00000000000E+00 0. -1.
         11    1    1    2    0    0 -0.60800424917E+02  0.87170116959E+01  0.28096011881E+03  0.28759566465E+03  0.00000000000E+00 0.  1.
</event>
<event>
 7    1  0.2679104E-009  0.7861624E+02  0.7561462E-02  0.1333025E+00
         -1   -1    0    0    0  501 -0.00000000000E+00  0.00000000000E+00  0.83143896900E+02  0.83143896900E+02  0.00000000000E+00 0.  1.
          1   -1    0    0  501    0  0.00000000000E+00 -0.00000000000E+00 -0.16129403333E+03  0.16129403333E+03  0.00000000000E+00 0. -1.
         25    2    1    2    0    0 -0.21467128772E+02 -0.35785752667E+02 -0.44909560756E+02  0.13930841403E+03  0.12509399610E+03 0.  0.
          5    1    3    3  502    0  0.24338758038E+01  0.27356629144E+02  0.28282986634E+02  0.39644780772E+02  0.41800000000E+01 0.  1.
         -5    1    3    3    0  502 -0.23901004576E+02 -0.63142381811E+02 -0.73192547390E+02  0.99663633257E+02  0.41800000000E+01 0.  1.
        -11    1    1    2    0    0  0.63826622982E+01  0.44116389037E+02  0.20229537346E+02  0.48951285386E+02  0.00000000000E+00 0.  1.
         11    1    1    2    0    0  0.15084466474E+02 -0.83306363701E+01 -0.53470113018E+02  0.56178230814E+02  0.00000000000E+00 0. -1.
</event>
<event>
 7    1  0.2679104E-009  0.8360457E+02  0.7561462E-02  0.1319123E+00
          1   -1    0    0  501    0  0.00000000000E+00  0.00000000000E+00  0.29607282432E+03  0.29607282432E+03  0.00000000000E+00 0. -1.
         -1   -1    0    0    0  501 -0.00000000000E+00 -0.00000000000E+00 -0.57749299873E+02  0.57749299873E+02  0.00000000000E+00 0.  1.
         25    2    1    2    0    0 -0.37594471196E+02 -0.19330392526E+01  0.21732248785E+03  0.25356117998E+03  0.12508847815E+03 0.  0.
          5    1    3    3  502    0 -0.10920881749E+02  0.40092312897E+02  0.13777483578E+02  0.43976705940E+02  0.41800000000E+01 0. -1.
         -5    1    3    3    0  502 -0.26673589446E+02 -0.42025352150E+02  0.20354500427E+03  0.20958447404E+03  0.41800000000E+01 0. -1.
        -11    1    1    2    0    0 -0.17565832734E+02 -0.82441228021E+01  0.37131828374E+02  0.41896261394E+02  0.00000000000E+00 0.  1.
         11    1    1    2    0    0  0.55160303929E+02  0.10177162055E+02 -0.16130791774E+02  0.58364682817E+02  0.00000000000E+00 0. -1.
</event>
<event>
 7    1  0.2679104E-009  0.1067646E+03  0.7561462E-02  0.1266681E+00
          1   -1    0    0  501    0  0.00000000000E+00  0.00000000000E+00  0.26358919120E+02  0.26358919120E+02  0.00000000000E+00 0. -1.
         -1   -1    0    0    0  501 -0.00000000000E+00 -0.00000000000E+00 -0.56323466121E+03  0.56323466121E+03  0.00000000000E+00 0.  1.
         25    2    1    2    0    0  0.34012691346E+02  0.30903607048E+02 -0.22736355516E+03  0.26354181738E+03  0.12509279434E+03 0.  0.
          5    1    3    3  502    0  0.68898858867E+02 -0.18974204600E+01 -0.19150264357E+03  0.20357157918E+03  0.41800000000E+01 0.  1.
         -5    1    3    3    0  502 -0.34886167521E+02  0.32801027508E+02 -0.35860911588E+02  0.59970238200E+02  0.41800000000E+01 0.  1.
        -11    1    1    2    0    0  0.42641268749E+01  0.26815848455E+02 -0.14557017226E+03  0.14808088181E+03  0.00000000000E+00 0.  1.
         11    1    1    2    0    0 -0.38276818221E+02 -0.57719455503E+02 -0.16394201468E+03  0.17797088114E+03  0.00000000000E+00 0. -1.
</event>
<event>
 7    1  0.2679104E-009  0.9975359E+02  0.7561462E-02  0.1280815E+00
          4   -1    0    0  501    0  0.00000000000E+00  0.00000000000E+00  0.11317469544E+03  0.11317469544E+03  0.00000000000E+00 0. -1.
         -4   -1    0    0    0  501 -0.00000000000E+00 -0.00000000000E+00 -0.11354852215E+03  0.11354852215E+03  0.00000000000E+00 0.  1.
         25    2    1    2    0    0 -0.26918505566E+01  0.36048865750E+02 -0.61600619898E+01  0.13034974006E+03  0.12508533723E+03 0.  0.
          5    1    3    3  502    0 -0.84636024287E+00  0.69617698533E+02  0.34178270261E+02  0.77672175408E+02  0.41800000000E+01 0. -1.
         -5    1    3    3    0  502 -0.18454903138E+01 -0.33568832783E+02 -0.40338332250E+02  0.52677564652E+02  0.41800000000E+01 0. -1.
        -11    1    1    2    0    0  0.25560696043E+02 -0.58495505928E+02  0.75469311275E+01  0.64280864691E+02  0.00000000000E+00 0.  1.
         11    1    1    2    0    0 -0.22868845487E+02  0.22446640179E+02 -0.17606958494E+01  0.32092612843E+02  0.00000000000E+00 0. -1.
</event>
<event>
 7    1  0.2681053E-009  0.1489941E+03  0.7561462E-02  0.1201714E+00
         -4   -1    0    0    0  501 -0.00000000000E+00  0.00000000000E+00  0.82614237353E+02  0.82614237353E+02  0.00000000000E+00 0.  1.
          4   -1    0    0  501    0  0.00000000000E+00 -0.00000000000E+00 -0.39390985965E+03  0.39390985965E+03  0.00000000000E+00 0. -1.
         25    2    1    2    0    0  0.13000381597E+03  0.54419419776E+02 -0.20199554509E+03  0.27624655735E+03  0.12508994683E+03 0.  0.
          5    1    3    3  502    0  0.61347234923E+02  0.60688866005E+02 -0.30931685937E+02  0.91765261862E+02  0.41800000000E+01 0. -1.
         -5    1    3    3    0  502  0.68656581042E+02 -0.62694462289E+01 -0.17106385916E+03  0.18448129549E+03  0.41800000000E+01 0. -1.
        -11    1    1    2    0    0 -0.64746287222E+02 -0.38591160955E+02 -0.10973284679E+03  0.13312647023E+03  0.00000000000E+00 0. -1.
         11    1    1    2    0    0 -0.65257528743E+02 -0.15828258822E+02  0.43276957763E+00  0.67151069422E+02  0.00000000000E+00 0.  1.
</event>
<event>
 7    1  0.2679104E-009  0.1044363E+03  0.7561462E-02  0.1271234E+00
          4   -1    0    0  501    0  0.00000000000E+00  0.00000000000E+00  0.36899414324E+02  0.36899414324E+02  0.00000000000E+00 0. -1.
         -4   -1    0    0    0  501 -0.00000000000E+00 -0.00000000000E+00 -0.42063626456E+03  0.42063626456E+03  0.00000000000E+00 0.  1.
         25    2    1    2    0    0 -0.47550615588E+02  0.10011890403E+02 -0.13983672583E+03  0.19381057174E+03  0.12508768459E+03 0.  0.
          5    1    3    3  502    0 -0.54063851536E+02  0.49079699464E+02 -0.33857249049E+02  0.80594681311E+02  0.41800000000E+01 0. -1.
         -5    1    3    3    0  502  0.65132359482E+01 -0.39067809061E+02 -0.10597947678E+03  0.11321589043E+03  0.41800000000E+01 0. -1.
        -11    1    1    2    0    0  0.15873485865E+02  0.36403011966E+02 -0.64653082769E+02  0.75876003751E+02  0.00000000000E+00 0. -1.
         11    1    1    2    0    0  0.31677129723E+02 -0.46414902368E+02 -0.17924704164E+03  0.18784910340E+03  0.00000000000E+00 0.  1.
</event>
<event>
 7    1  0.2679104E-009  0.1303721E+03  0.7561462E-02  0.1226905E+00
          3   -1    0    0  501    0  0.00000000000E+00  0.00000000000E+00  0.64739011133E+02  0.64739011133E+02  0.00000000000E+00 0. -1.
         -3   -1    0    0    0  501 -0.00000000000E+00 -0.00000000000E+00 -0.38643786289E+03  0.38643786289E+03  0.00000000000E+00 0.  1.
         25    2    1    2    0    0  0.93959040952E+02  0.65367083841E+02 -0.16409336180E+03  0.23595528070E+03  0.12508839305E+03 0.  0.
          5    1    3    3  502    0 -0.26318823594E+01 -0.37501551401E+01 -0.10139466994E+03  0.10158416196E+03  0.41800000000E+01 0.  1.
         -5    1    3    3    0  502  0.96590923312E+02  0.69117238981E+02 -0.62698691856E+02  0.13437111874E+03  0.41800000000E+01 0.  1.
        -11    1    1    2    0    0 -0.94475696951E+02 -0.78329038487E+02 -0.10648614768E+03  0.16248198433E+03  0.00000000000E+00 0. -1.
         11    1    1    2    0    0  0.51665599924E+00  0.12961954647E+02 -0.51119342284E+02  0.52739608998E+02  0.00000000000E+00 0.  1.
</event>
<event>
 7    1  0.2679104E-009  0.1418834E+03  0.7561462E-02  0.1210817E+00
         -2   -1    0    0    0  501 -0.00000000000E+00  0.00000000000E+00  0.31649509930E+03  0.31649509930E+03  0.00000000000E+00 0.  1.
          2   -1    0    0  501    0  0.00000000000E+00 -0.00000000000E+00 -0.11326011018E+03  0.11326011018E+03  0.00000000000E+00 0. -1.
         25    2    1    2    0    0  0.97319011809E+02  0.82856737679E+02  0.75312310317E+01  0.17899782176E+03  0.12508905514E+03 0.  0.
          5    1    3    3  502    0  0.75849994637E+00  0.63267341873E+01 -0.44528073045E+02  0.45175486458E+02  0.41800000000E+01 0.  1.
         -5    1    3    3    0  502  0.96560511863E+02  0.76530003492E+02  0.52059304077E+02  0.13382233531E+03  0.41800000000E+01 0.  1.
        -11    1    1    2    0    0 -0.85843015050E+02 -0.18915815735E+02  0.13934938337E+03  0.16475764614E+03  0.00000000000E+00 0. -1.
         11    1    1    2    0    0 -0.11475996759E+02 -0.63940921944E+02  0.56354374717E+02  0.85999741572E+02  0.00000000000E+00 0.  1.
</event>
<event>
 7    1  0.2679104E-009  0.1256321E+03  0.7561462E-02  0.1234085E+00
          3   -1    0    0  501    0  0.00000000000E+00  0.00000000000E+00  0.90021905985E+02  0.90021905985E+02  0.00000000000E+00 0. -1.
         -3   -1    0    0    0  501 -0.00000000000E+00 -0.00000000000E+00 -0.27026943165E+03  0.27026943165E+03  0.00000000000E+00 0.  1.
         25    2    1    2    0    0 -0.71582894310E+02  0.42377446561E+02 -0.18221371891E+03  0.23615522105E+03  0.12508992900E+03 0.  0.
          5    1    3    3  502    0 -0.60021966242E+02  0.76742688243E+02 -0.75366609205E+02  0.12324639878E+03  0.41800000000E+01 0.  1.
         -5    1    3    3    0  502 -0.11560928068E+02 -0.34365241682E+02 -0.10684710971E+03  0.11290882227E+03  0.41800000000E+01 0.  1.
        -11    1    1    2    0    0 -0.13093173570E+02 -0.28606866184E+02  0.18887146236E+02  0.36694799086E+02  0.00000000000E+00 0. -1.
         11    1    1    2    0    0  0.84676067880E+02 -0.13770580377E+02 -0.16920952992E+02  0.87441317497E+02  0.00000000000E+00 0.  1.
</event>
<event>
 7    1  0.2679104E-009  0.3300062E+03  0.7561462E-02  0.1071134E+00
          2   -1    0    0  501    0  0.00000000000E+00  0.00000000000E+00  0.32571547189E+04  0.32571547189E+04  0.00000000000E+00 0. -1.
         -2   -1    0    0    0  501 -0.00000000000E+00 -0.00000000000E+00 -0.36552960106E+02  0.36552960106E+02  0.00000000000E+00 0.  1.
         25    2    1    2    0    0 -0.31072999882E+03  0.74928549697E+02  0.19756353183E+04  0.20052301458E+04  0.12508240192E+03 0.  0.
          5    1    3    3  502    0 -0.24551778823E+03  0.27077778571E+02  0.11862536487E+04  0.12117043294E+04  0.41800000000E+01 0. -1.
         -5    1    3    3    0  502 -0.65212210588E+02  0.47850771126E+02  0.78938166957E+03  0.79352581644E+03  0.41800000000E+01 0. -1.
        -11    1    1    2    0    0  0.94463556442E+02 -0.66545023530E+02  0.44233098998E+03  0.45717426475E+03  0.00000000000E+00 0. -1.
         11    1    1    2    0    0  0.21626644238E+03 -0.83835261668E+01  0.80263545057E+03  0.83130326844E+03  0.00000000000E+00 0.  1.
</event>
<event>
 7    1  0.2679104E-009  0.1283724E+03  0.7561462E-02  0.1229891E+00
          2   -1    0    0  501    0  0.00000000000E+00  0.00000000000E+00  0.11577679203E+04  0.11577679203E+04  0.00000000000E+00 0. -1.
         -2   -1    0    0    0  501 -0.00000000000E+00 -0.00000000000E+00 -0.18250079590E+02  0.18250079590E+02  0.00000000000E+00 0.  1.
         25    2    1    2    0    0 -0.19773013851E+02  0.92544196267E+02  0.68218219517E+03  0.69998229074E+03  0.12508900673E+03 0.  0.
          5    1    3    3  502    0 -0.27155885114E+02  0.11221930528E+03  0.38331281549E+03  0.40034585235E+03  0.41800000000E+01 0.  1.
         -5    1    3    3    0  502  0.73828712637E+01 -0.19675109010E+02  0.29886937967E+03  0.29963643839E+03  0.41800000000E+01 0.  1.
        -11    1    1    2    0    0 -0.23434102953E+02 -0.63596230853E+02  0.35309843978E+03  0.35954435878E+03  0.00000000000E+00 0.  1.
         11    1    1    2    0    0  0.43207116804E+02 -0.28947965414E+02  0.10423720574E+03  0.11649135034E+03  0.00000000000E+00 0. -1.
</event>
<event>
 7    1  0.2679104E-009  0.1052155E+03  0.7561462E-02  0.1269696E+00
         -3   -1    0    0    0  501 -0.00000000000E+00  0.00000000000E+00  0.41479516109E+03  0.41479516109E+03  0.00000000000E+00 0.  1.
          3   -1    0    0  501    0  0.00000000000E+00 -0.00000000000E+00 -0.40874165214E+02  0.40874165214E+02  0.00000000000E+00 0. -1.
         25    2    1    2    0    0 -0.98748436930E+01 -0.39838192872E+01  0.33264746336E+03  0.35554923139E+03  0.12509011836E+03 0.  0.
          5    1    3    3  502    0  0.26013950857E+02  0.51680117204E+02  0.13118601912E+03  0.14343920025E+03  0.41800000000E+01 0. -1.
         -5    1    3    3    0  502 -0.35888794549E+02 -0.55663936491E+02  0.20146144424E+03  0.21211003115E+03  0.41800000000E+01 0. -1.
        -11    1    1    2    0    0 -0.37840246740E+01 -0.39910492058E+02  0.28223061718E+01  0.40188700292E+02  0.00000000000E+00 0. -1.
         11    1    1    2    0    0  0.13658868367E+02  0.43894311345E+02  0.38451226340E+02  0.59931394616E+02  0.00000000000E+00 0.  1.
</event>
<event>
 7    1  0.2679104E-009  0.1024995E+03  0.7561462E-02  0.1275126E+00
          2   -1    0    0  501    0  0.00000000000E+00  0.00000000000E+00  0.11694727805E+03  0.11694727805E+03  0.00000000000E+00 0. -1.
         -2   -1    0    0    0  501 -0.00000000000E+00 -0.00000000000E+00 -0.13413467042E+03  0.13413467042E+03  0.00000000000E+00 0.  1.
         25    2    1    2    0    0 -0.80453629607E+01  0.51919677486E+02 -0.42205930026E+02  0.14208919312E+03  0.12509043727E+03 0.  0.
          5    1    3    3  502    0 -0.53398677619E+02 -0.27856396686E+01 -0.46206819189E+02  0.70793510291E+02  0.41800000000E+01 0. -1.
         -5    1    3    3    0  502  0.45353314658E+02  0.54705317154E+02  0.40008891630E+01  0.71295682825E+02  0.41800000000E+01 0. -1.
        -11    1    1    2    0    0  0.12867195066E+02 -0.64989183362E+02  0.48212684886E+02  0.81936692921E+02  0.00000000000E+00 0. -1.
         11    1    1    2    0    0 -0.48218321057E+01  0.13069505876E+02 -0.23194147228E+02  0.27056062432E+02  0.00000000000E+00 0.  1.
</event>
<event>
 7    1  0.2679104E-009  0.1068603E+03  0.7561462E-02  0.1266497E+00
          1   -1    0    0  501    0  0.00000000000E+00  0.00000000000E+00  0.80039402248E+02  0.80039402248E+02  0.00000000000E+00 0. -1.
         -1   -1    0    0    0  501 -0.00000000000E+00 -0.00000000000E+00 -0.22478523450E+03  0.22478523450E+03  0.00000000000E+00 0.  1.
         25    2    1    2    0    0  0.48706760558E+02  0.60434698190E+02 -0.88573588607E+02  0.17180520989E+03  0.12508816201E+03 0.  0.
          5    1    3    3  502    0  0.80593158455E+02  0.62294427918E+02 -0.94549196146E+02  0.13904271226E+03  0.41800000000E+01 0. -1.
         -5    1    3    3    0  502 -0.31886397897E+02 -0.18597297281E+01  0.59756075391E+01  0.32762497631E+02  0.41800000000E+01 0. -1.
        -11    1    1    2    0    0 -0.19781293408E+02 -0.11973934052E+02  0.25065292550E+02  0.34101958246E+02  0.00000000000E+00 0. -1.
         11    1    1    2    0    0 -0.28925467150E+02 -0.48460764138E+02 -0.81237536197E+02  0.98917468620E+02  0.00000000000E+00 0.  1.
</event>
<event>
 7    1  0.2679104E-009  0.1147478E+03  0.7561462E-02  0.1252022E+00
         -1   -1    0    0    0  501 -0.00000000000E+00  0.00000000000E+00  0.36129549016E+03  0.36129549016E+03  0.00000000000E+00 0.  1.
          1   -1    0    0  501    0  0.00000000000E+00 -0.00000000000E+00 -0.49980857141E+02  0.49980857141E+02  0.00000000000E+00 0. -1.
         25    2    1    2    0    0 -0.42203791923E+02  0.61602822298E+02  0.12918879325E+03  0.19471299342E+03  0.12508931903E+03 0.  0.
          5    1    3    3  502    0  0.20021003803E+02 -0.16699856113E+02  0.77863156485E+02  0.82218424488E+02  0.41800000000E+01 0. -1.
         -5    1    3    3    0  502 -0.62224795726E+02  0.78302678410E+02  0.51325636769E+02  0.11249456893E+03  0.41800000000E+01 0. -1.
        -11    1    1    2    0    0  0.28900235130E+02 -0.77232516226E+02  0.17721131696E+03  0.19545827179E+03  0.00000000000E+00 0.  1.
         11    1    1    2    0    0  0.13303556794E+02  0.15629693929E+02  0.49145228081E+01  0.21105082092E+02  0.00000000000E+00 0. -1.
</event>
<event>
 7    1  0.2679104E-009  0.1314116E+03  0.7561462E-02  0.1225376E+00
          2   -1    0    0  501    0  0.00000000000E+00  0.00000000000E+00  0.96783462474E+03  0.96783462474E+03  0.00000000000E+00 0.  1.
         -2   -1    0    0    0  501 -0.00000000000E+00 -0.00000000000E+00 -0.19961636417E+02  0.19961636417E+02  0.00000000000E+00 0. -1.
         25    2    1    2    0    0  0.25599404513E+01 -0.84745553162E+02  0.46669882969E+03  0.49055432125E+03  0.12508949750E+03 0.  0.
          5    1    3    3  502    0  0.24205639948E+01  0.28952469832E+02  0.44613320436E+02  0.53403421236E+02  0.41800000000E+01 0.  1.
         -5    1    3    3    0  502  0.13937645653E+00 -0.11369802299E+03  0.42208550925E+03  0.43715090001E+03  0.41800000000E+01 0.  1.
        -11    1    1    2    0    0  0.40548585079E+02  0.32530870258E+02  0.28522911917E+03  0.28992774220E+03  0.00000000000E+00 0.  1.
         11    1    1    2    0    0 -0.43108525530E+02  0.52214682903E+02  0.19594503946E+03  0.20731419771E+03  0.00000000000E+00 0. -1.
</event>
<event>
 7    1  0.2679104E-009  0.1230421E+03  0.7561462E-02  0.1238161E+00
          4   -1    0    0  501    0  0.00000000000E+00  0.00000000000E+00  0.16502156548E+03  0.16502156548E+03  0.00000000000E+00 0. -1.
         -4   -1    0    0    0  501 -0.00000000000E+00 -0.00000000000E+00 -0.14274462352E+03  0.14274462352E+03  0.00000000000E+00 0.  1.
         25    2    1    2    0    0  0.95977150472E+01  0.65634439710E+02 -0.75458188430E+02  0.16044643549E+03  0.12509646138E+03 0.  0.
          5    1    3    3  502    0  0.53940362066E+02  0.73470641440E+02 -0.69784026588E+02  0.11486853608E+03  0.41800000000E+01 0. -1.
         -5    1    3    3    0  502 -0.44342647019E+02 -0.78362017302E+01 -0.56741618418E+01  0.45577899412E+02  0.41800000000E+01 0. -1.
        -11    1    1    2    0    0  0.25176165350E+02 -0.70171404432E+02  0.59038799392E+02  0.95097030108E+02  0.00000000000E+00 0.  1.
         11    1    1    2    0    0 -0.34773880397E+02  0.45369647214E+01  0.38696331002E+02  0.52222723404E+02  0.00000000000E+00 0. -1.
</event>
<event>
 7    1  0.2679104E-009  0.1033752E+03  0.7561462E-02  0.1273354E+00
          1   -1    0    0  501    0  0.00000000000E+00  0.00000000000E+00  0.65304080124E+03  0.65304080124E+03  0.00000000000E+00 0. -1.
         -1   -1    0    0    0  501 -0.00000000000E+00 -0.00000000000E+00 -0.22180458024E+02  0.22180458024E+02  0.00000000000E+00 0.  1.
         25    2    1    2    0    0 -0.38336071410E+02  0.82445796829E+01  0.44313044696E+03  0.46211416023E+03  0.12508907465E+03 0.  0.
          5    1    3    3  502    0  0.33449401653E+02 -0.14810752859E+02  0.27932421912E+03  0.28174050588E+03  0.41800000000E+01 0.  1.
         -5    1    3    3    0  502 -0.71785473063E+02  0.23055332542E+02  0.16380622785E+03  0.18037365435E+03  0.41800000000E+01 0.  1.
        -11    1    1    2    0    0 -0.91748835856E+01 -0.37510782652E+02  0.11580681645E+03  0.12207561607E+03  0.00000000000E+00 0. -1.
         11    1    1    2    0    0  0.47510954995E+02  0.29266202969E+02  0.71923079807E+02  0.91031482959E+02  0.00000000000E+00 0.  1.
</event>
<event>
 7    1  0.2679104E-009  0.4094559E+03  0.7561462E-02  0.1040554E+00
         -1   -1    0    0    0  501 -0.00000000000E+00  0.00000000000E+00  0.12014874811E+03  0.12014874811E+03  0.00000000000E+00 0. -1.
          1   -1    0    0  501    0  0.00000000000E+00 -0.00000000000E+00 -0.22238029006E+04  0.22238029006E+04  0.00000000000E+00 0.  1.
         25    2    1    2    0    0 -0.24366661755E+03 -0.32270705333E+03 -0.17454873220E+04  0.17960752326E+04  0.12508791786E+03 0.  0.
          5    1    3    3  502    0 -0.40514973723E+02 -0.21964600191E+02 -0.39368791753E+03  0.39639822851E+03  0.41800000000E+01 0. -1.
         -5    1    3    3    0  502 -0.20315164383E+03 -0.30074245314E+03 -0.13517994045E+04  0.13996770041E+04  0.41800000000E+01 0. -1.
        -11    1    1    2    0    0  0.15321004586E+03  0.14836567598E+03 -0.14430042991E+03  0.25750399226E+03  0.00000000000E+00 0.  1.
         11    1    1    2    0    0  0.90456571690E+02  0.17434137735E+03 -0.21386640062E+03  0.29037242385E+03  0.00000000000E+00 0. -1.
</event>
<event>
 7    1  0.2679104E-009  0.8552941E+02  0.7561462E-02  0.1314054E+00
          2   -1    0    0  501    0  0.00000000000E+00  0.00000000000E+00  0.14826360894E+03  0.14826360894E+03  0.00000000000E+00 0. -1.
         -2   -1    0    0    0  501 -0.00000000000E+00 -0.00000000000E+00 -0.10118668576E+03  0.10118668576E+03  0.00000000000E+00 0.  1.
         25    2    1    2    0    0 -0.41261001204E+02 -0.26493440182E+02  0.57348087074E+02  0.14607448840E+03  0.12507829739E+03 0.  0.
          5    1    3    3  502    0 -0.57589639128E+02 -0.55610572782E+02  0.73494592627E+02  0.10875674639E+03  0.41800000000E+01 0.  1.
         -5    1    3    3    0  502  0.16328637924E+02  0.29117132600E+02 -0.16146505552E+02  0.37317742012E+02  0.41800000000E+01 0.  1.
        -11    1    1    2    0    0  0.26569268744E+01  0.17382619852E+02  0.37419995345E+02  0.41345746878E+02  0.00000000000E+00 0. -1.
         11    1    1    2    0    0  0.38604074330E+02  0.91108203305E+01 -0.47691159241E+02  0.62030059420E+02  0.00000000000E+00 0.  1.
</event>
<event>
 7    1  0.2679104E-009  0.1093426E+03  0.7561462E-02  0.1261792E+00
          2   -1    0    0  501    0  0.00000000000E+00  0.00000000000E+00  0.14420972205E+03  0.14420972205E+03  0.00000000000E+00 0. -1.
         -2   -1    0    0    0  501 -0.00000000000E+00 -0.00000000000E+00 -0.93120844433E+02  0.93120844433E+02  0.00000000000E+00 0.  1.
         25    2    1    2    0    0 -0.18749013749E+02  0.16205604401E+02 -0.35508669442E+01  0.12757117377E+03  0.12509056155E+03 0.  0.
          5    1    3    3  502    0 -0.56754840794E+00  0.68163110781E+02  0.13859367659E+02  0.69685624446E+02  0.41800000000E+01 0.  1.
         -5    1    3    3    0  502 -0.18181465341E+02 -0.51957506381E+02 -0.17410234603E+02  0.57885549321E+02  0.41800000000E+01 0.  1.
        -11    1    1    2    0    0 -0.56743903475E+01 -0.51749812383E+02  0.30501688325E+02  0.60337341491E+02  0.00000000000E+00 0.  1.
         11    1    1    2    0    0  0.24423404097E+02  0.35544207982E+02  0.24138056239E+02  0.49422051230E+02  0.00000000000E+00 0. -1.
</event>
<event>
 7    1  0.2679104E-009  0.1712670E+03  0.7561462E-02  0.1176533E+00
          1   -1    0    0  501    0  0.00000000000E+00  0.00000000000E+00  0.21043769724E+03  0.21043769724E+03  0.00000000000E+00 0. -1.
         -1   -1    0    0    0  501 -0.00000000000E+00 -0.00000000000E+00 -0.17203688229E+03  0.17203688229E+03  0.00000000000E+00 0.  1.
         25    2    1    2    0    0  0.14610214222E+03 -0.52872236207E+02  0.45398230389E+01  0.19952348657E+03  0.12509077655E+03 0.  0.
          5    1    3    3  502    0  0.72988993213E+02 -0.54674987619E+02 -0.53721214147E+02  0.10592539191E+03  0.41800000000E+01 0. -1.
         -5    1    3    3    0  502  0.73113149006E+02  0.18027514118E+01  0.58261037186E+02  0.93598094661E+02  0.41800000000E+01 0. -1.
        -11    1    1    2    0    0 -0.12712814843E+03  0.58289981708E+01  0.35758582911E+02  0.13219008887E+03  0.00000000000E+00 0. -1.
         11    1    1    2    0    0 -0.18973993790E+02  0.47043238036E+02 -0.18975909971E+01  0.50761004097E+02  0.00000000000E+00 0.  1.
</event>
<event>
 7    1  0.2679104E-009  0.1075345E+03  0.7561462E-02  0.1265205E+00
         -2   -1    0    0    0  501 -0.00000000000E+00  0.00000000000E+00  0.18238136489E+02  0.18238136489E+02  0.00000000000E+00 0.  1.
          2   -1    0    0  501    0  0.00000000000E+00 -0.00000000000E+00 -0.72201368238E+03  0.72201368238E+03  0.00000000000E+00 0. -1.
         25    2    1    2    0    0 -0.13148335186E+02  0.22777593785E+02 -0.50220781743E+03  0.51821949107E+03  0.12508817508E+03 0.  0.
          5    1    3    3  502    0  0.46570137926E+02  0.39698384036E+02 -0.18298719249E+03  0.19299358657E+03  0.41800000000E+01 0. -1.
         -5    1    3    3    0  502 -0.59718473111E+02 -0.16920790251E+02 -0.31922062494E+03  0.32522590451E+03  0.41800000000E+01 0. -1.
        -11    1    1    2    0    0  0.50877973413E+02 -0.14345709714E+02 -0.13604881851E+03  0.14595769450E+03  0.00000000000E+00 0. -1.
         11    1    1    2    0    0 -0.37729638227E+02 -0.84318840709E+01 -0.65518909943E+02  0.76074633288E+02  0.00000000000E+00 0.  1.
</event>
<event>
 7    1  0.2679104E-009  0.1198970E+03  0.7561462E-02  0.1243267E+00
          1   -1    0    0  501    0  0.00000000000E+00  0.00000000000E+00  0.10471017739E+03  0.10471017739E+03  0.00000000000E+00 0. -1.
         -1   -1    0    0    0  501 -0.00000000000E+00 -0.00000000000E+00 -0.14260268485E+03  0.14260268485E+03  0.00000000000E+00 0.  1.
         25    2    1    2    0    0  0.38733266772E+02  0.43997279334E+02 -0.21211971418E+02  0.13976241497E+03  0.12509020091E+03 0.  0.
          5    1    3    3  502    0  0.75628718394E+02  0.56864641677E+02 -0.30271211461E+02  0.99433943713E+02  0.41800000000E+01 0.  1.
         -5    1    3    3    0  502 -0.36895451622E+02 -0.12867362343E+02  0.90592400428E+01  0.40328471260E+02  0.41800000000E+01 0.  1.
        -11    1    1    2    0    0 -0.18359594360E+01 -0.63854410203E+02 -0.14985236848E+02  0.65614889872E+02  0.00000000000E+00 0.  1.
         11    1    1    2    0    0 -0.36897307336E+02  0.19857130869E+02 -0.16952991903E+01  0.41935557399E+02  0.00000000000E+00 0. -1.
</event>
<event>
 7    1  0.2679104E-009  0.1447766E+03  0.7561462E-02  0.1207042E+00
         -1   -1    0    0    0  501 -0.00000000000E+00  0.00000000000E+00  0.22440977365E+02  0.22440977365E+02  0.00000000000E+00 0.  1.
          1   -1    0    0  501    0  0.00000000000E+00 -0.00000000000E+00 -0.13245290654E+04  0.13245290654E+04  0.00000000000E+00 0. -1.
         25    2    1    2    0    0 -0.44917711967E+02 -0.10741209747E+03 -0.95196578575E+03  0.96718228968E+03  0.12509102560E+03 0.  0.
          5    1    3    3  502    0 -0.58376402620E+01  0.16039311750E+02 -0.39323780227E+03  0.39363025684E+03  0.41800000000E+01 0. -1.
         -5    1    3    3    0  502 -0.39080071705E+02 -0.12345140922E+03 -0.55872798349E+03  0.57355203284E+03  0.41800000000E+01 0. -1.
        -11    1    1    2    0    0  0.68488953809E+02  0.68081260798E+02 -0.27827694612E+03  0.29455704644E+03  0.00000000000E+00 0. -1.
         11    1    1    2    0    0 -0.23571241842E+02  0.39330836670E+02 -0.71845356201E+02  0.85230706689E+02  0.00000000000E+00 0.  1.
</event>
<event>
 7    1  0.2679104E-009  0.5283417E+02  0.7561462E-02  0.1430628E+00
          2   -1    0    0  501    0  0.00000000000E+00  0.00000000000E+00  0.25022791356E+02  0.25022791356E+02  0.00000000000E+00 0. -1.
         -2   -1    0    0    0  501 -0.00000000000E+00 -0.00000000000E+00 -0.50423456696E+03  0.50423456696E+03  0.00000000000E+00 0.  1.
         25    2    1    2    0    0 -0.13238150522E+02 -0.15753257794E+02 -0.35084971341E+03  0.37305359736E+03  0.12510016523E+03 0.  0.
          5    1    3    3  502    0 -0.24364397903E+02  0.36041046544E+01 -0.34940042214E+03  0.35029236482E+03  0.41800000000E+01 0. -1.
         -5    1    3    3    0  502  0.11126247381E+02 -0.19357362449E+02 -0.14492912705E+01  0.22761232544E+02  0.41800000000E+01 0. -1.
        -11    1    1    2    0    0  0.14782120180E+02 -0.18501772705E+02 -0.11804274313E+03  0.12039483326E+03  0.00000000000E+00 0.  1.
         11    1    1    2    0    0 -0.15439696585E+01  0.34255030499E+02 -0.10319319064E+02  0.35808927696E+02  0.00000000000E+00 0. -1.
</event>
<event>
 7    1  0.2679104E-009  0.1567862E+03  0.7561462E-02  0.1192374E+00
         -2   -1    0    0    0  501 -0.00000000000E+00  0.00000000000E+00  0.19848056555E+03  0.19848056555E+03  0.00000000000E+00 0.  1.
          2   -1    0    0  501    0  0.00000000000E+00 -0.00000000000E+00 -0.14682277927E+03  0.14682277927E+03  0.00000000000E+00 0. -1.
         25    2    1    2    0    0  0.11173600946E+03  0.50013139944E+02 -0.18783796125E+02  0.17602888240E+03  0.12508831466E+03 0.  0.
          5    1    3    3  502    0  0.20241300608E+02 -0.35395598667E+02  0.19059149771E+02  0.45202679625E+02  0.41800000000E+01 0.  1.
         -5    1    3    3    0  502  0.91494708849E+02  0.85408738611E+02 -0.37842945896E+02  0.13082620277E+03  0.41800000000E+01 0.  1.
        -11    1    1    2    0    0  0.78196163154E+01  0.10707902535E+02 -0.64032810399E+01  0.14724387393E+02  0.00000000000E+00 0.  1.
         11    1    1    2    0    0 -0.11955562577E+03 -0.60721042479E+02  0.76844863444E+02  0.15455007503E+03  0.00000000000E+00 0. -1.
</event>
<event>
 7    1  0.2679104E-009  0.1771221E+03  0.7561462E-02  0.1170618E+00
         -1   -1    0    0    0  501 -0.00000000000E+00  0.00000000000E+00  0.93254488287E+02  0.93254488287E+02  0.00000000000E+00 0.  1.
          1   -1    0    0  501    0  0.00000000000E+00 -0.00000000000E+00 -0.58835057646E+03  0.58835057646E+03  0.00000000000E+00 0. -1.
         25    2    1    2    0    0 -0.16260425930E+03 -0.70268971409E+00 -0.44446111608E+03  0.48952181586E+03  0.12508111599E+03 0.  0.
          5    1    3    3  502    0 -0.79354077774E+02 -0.32245711906E+02 -0.34706369191E+03  0.35750179613E+03  0.41800000000E+01 0.  1.
         -5    1    3    3    0  502 -0.83250181525E+02  0.31543022192E+02 -0.97397424174E+02  0.13202001973E+03  0.41800000000E+01 0.  1.
        -11    1    1    2    0    0  0.15083177078E+03 -0.23307610657E+02 -0.24286503421E+02  0.15454223384E+03  0.00000000000E+00 0.  1.
         11    1    1    2    0    0  0.11772488517E+02  0.24010300371E+02 -0.26348468671E+02  0.37541015052E+02  0.00000000000E+00 0. -1.
</event>
<event>
 7    1  0.2679104E-009  0.8950512E+02  0.7561462E-02  0.1304055E+00
         -1   -1    0    0    0  501 -0.00000000000E+00  0.00000000000E+00  0.14309089705E+02  0.14309089705E+02  0.00000000000E+00 0.  1.
          1   -1    0    0  501    0  0.00000000000E+00 -0.00000000000E+00 -0.94807776677E+03  0.94807776677E+03  0.00000000000E+00 0. -1.
         25    2    1    2    0    0  0.19106680120E+02 -0.27428624494E+02 -0.62455319945E+03  0.63783329876E+03  0.12508886198E+03 0.  0.
          5    1    3    3  502    0  0.22835750688E+02  0.28257195972E+02 -0.58298548137E+02  0.68819573876E+02  0.41800000000E+01 0. -1.
         -5    1    3    3    0  502 -0.37290705681E+01 -0.55685820465E+02 -0.56625465132E+03  0.56901372488E+03  0.41800000000E+01 0. -1.
        -11    1    1    2    0    0  0.26560469722E+02  0.30812867505E+02 -0.69726520665E+02  0.80725950226E+02  0.00000000000E+00 0.  1.
         11    1    1    2    0    0 -0.45667149841E+02 -0.33842430112E+01 -0.23948895694E+03  0.24382760749E+03  0.00000000000E+00 0. -1.
</event>
<event>
 7    1  0.2679104E-009  0.1398841E+03  0.7561462E-02  0.1213485E+00
         -2   -1    0    0    0  501 -0.00000000000E+00  0.00000000000E+00  0.28131714086E+02  0.28131714086E+02  0.00000000000E+00 0.  1.
          2   -1    0    0  501    0  0.00000000000E+00 -0.00000000000E+00 -0.84961275875E+03  0.84961275875E+03  0.00000000000E+00 0. -1.
         25    2    1    2    0    0 -0.25724962012E+02 -0.96139680807E+02 -0.51124040653E+03  0.53564776948E+03  0.12508863973E+03 0.  0.
          5    1    3    3  502    0 -0.85395238313E+01 -0.12117467891E+03 -0.32667872055E+03  0.34855800828E+03  0.41800000000E+01 0. -1.
         -5    1    3    3    0  502 -0.17185438181E+02  0.25034998104E+02 -0.18456168598E+03  0.18708976120E+03  0.41800000000E+01 0. -1.
        -11    1    1    2    0    0  0.53639566457E+02  0.48302717312E+02 -0.25023174519E+03  0.26043479394E+03  0.00000000000E+00 0. -1.
         11    1    1    2    0    0 -0.27914604445E+02  0.47836963495E+02 -0.60008892943E+02  0.81661909419E+02  0.00000000000E+00 0.  1.
</event>
<event>
 7    1  0.2679104E-009  0.1293476E+03  0.7561462E-02  0.1228427E+00
          1   -1    0    0  501    0  0.00000000000E+00  0.00000000000E+00  0.14057118996E+02  0.14057118996E+02  0.00000000000E+00 0. -1.
         -1   -1    0    0    0  501 -0.00000000000E+00 -0.00000000000E+00 -0.16642241468E+04  0.16642241468E+04  0.00000000000E+00 0.  1.
         25    2    1    2    0    0  0.55682719705E+02  0.86435849116E+02 -0.10595982852E+04  0.10718976558E+04  0.12507732490E+03 0.  0.
          5    1    3    3  502    0 -0.16002932159E+02  0.62671556360E+02 -0.76512134109E+03  0.76786193864E+03  0.41800000000E+01 0. -1.
         -5    1    3    3    0  502  0.71685651863E+02  0.23764292755E+02 -0.29447694413E+03  0.30403571717E+03  0.41800000000E+01 0. -1.
        -11    1    1    2    0    0 -0.67654209917E+02 -0.79554800116E+02 -0.57907883371E+03  0.58842021889E+03  0.00000000000E+00 0.  1.
         11    1    1    2    0    0  0.11971490212E+02 -0.68810489997E+01 -0.11489908819E+02  0.17963391047E+02  0.00000000000E+00 0. -1.
</event>
<event>
 7    1  0.2679104E-009  0.5450194E+02  0.7561462E-02  0.1422469E+00
          4   -1    0    0  501    0  0.00000000000E+00  0.00000000000E+00  0.48797727098E+02  0.48797727098E+02  0.00000000000E+00 0. -1.
         -4   -1    0    0    0  501 -0.00000000000E+00 -0.00000000000E+00 -0.21264132677E+03  0.21264132677E+03  0.00000000000E+00 0.  1.
         25    2    1    2    0    0  0.48727914388E+01 -0.58066040261E+01 -0.12962498967E+03  0.18029908322E+03  0.12509061002E+03 0.  0.
          5    1    3    3  502    0 -0.53862052433E+01  0.12514873444E+02  0.22522399860E+02  0.26652657648E+02  0.41800000000E+01 0.  1.
         -5    1    3    3    0  502  0.10258996682E+02 -0.18321477470E+02 -0.15214738953E+03  0.15364642557E+03  0.41800000000E+01 0.  1.
        -11    1    1    2    0    0  0.30743716856E+02 -0.12629819722E+02 -0.18704470366E+02  0.38138506578E+02  0.00000000000E+00 0. -1.
         11    1    1    2    0    0 -0.35616508295E+02  0.18436423748E+02 -0.15514139637E+02  0.43001464073E+02  0.00000000000E+00 0.  1.
</event>
<event>
 7    1  0.2679104E-009  0.1211208E+03  0.7561462E-02  0.1241259E+00
          1   -1    0    0  501    0  0.00000000000E+00  0.00000000000E+00  0.16115542157E+03  0.16115542157E+03  0.00000000000E+00 0. -1.
         -1   -1    0    0    0  501 -0.00000000000E+00 -0.00000000000E+00 -0.13073138854E+03  0.13073138854E+03  0.00000000000E+00 0.  1.
         25    2    1    2    0    0 -0.57902283110E+02  0.59976003124E+02  0.66282762062E+02  0.16428703887E+03  0.12508809398E+03 0.  0.
          5    1    3    3  502    0  0.18224442099E+02 -0.24556314206E+02  0.34091966829E+02  0.45987796854E+02  0.41800000000E+01 0. -1.
         -5    1    3    3    0  502 -0.76126725209E+02  0.84532317330E+02  0.32190795232E+02  0.11829924202E+03  0.41800000000E+01 0. -1.
        -11    1    1    2    0    0  0.48924965863E+02 -0.14271318072E+02  0.20107168411E+02  0.54787051625E+02  0.00000000000E+00 0. -1.
         11    1    1    2    0    0  0.89773172471E+01 -0.45704685052E+02 -0.55965897447E+02  0.72812719615E+02  0.00000000000E+00 0.  1.
</event>
<event>
 7    1  0.2679104E-009  0.7285396E+02  0.7561462E-02  0.1350648E+00
          3   -1    0    0  501    0  0.00000000000E+00  0.00000000000E+00  0.10772061953E+03  0.10772061953E+03  0.00000000000E+00 0. -1.
         -3   -1    0    0    0  501 -0.00000000000E+00 -0.00000000000E+00 -0.14193550822E+03  0.14193550822E+03  0.00000000000E+00 0.  1.
         25    2    1    2    0    0  0.46207879217E+02 -0.10132831026E+02 -0.56058774197E+02  0.14501869822E+03  0.12509993726E+03 0.  0.
          5    1    3    3  502    0 -0.49235933453E+01  0.31540140370E+02  0.24759959646E+02  0.40614655331E+02  0.41800000000E+01 0.  1.
         -5    1    3    3    0  502  0.51131472563E+02 -0.41672971397E+02 -0.80818733843E+02  0.10440404289E+03  0.41800000000E+01 0.  1.
        -11    1    1    2    0    0 -0.29605457240E+02  0.48811758794E+01 -0.34465766252E+02  0.45696805355E+02  0.00000000000E+00 0.  1.
         11    1    1    2    0    0 -0.16602421977E+02  0.52516551470E+01  0.56309651755E+02  0.58940624174E+02  0.00000000000E+00 0. -1.
</event>
<event>
 7    1  0.2679104E-009  0.1640711E+03  0.7561462E-02  0.1184176E+00
          1   -1    0    0  501    0  0.00000000000E+00  0.00000000000E+00  0.92733173129E+03  0.92733173129E+03  0.00000000000E+00 0. -1.
         -1   -1    0    0    0  501 -0.00000000000E+00 -0.00000000000E+00 -0.33927323628E+02  0.33927323628E+02  0.00000000000E+00 0.  1.
         25    2    1    2    0    0  0.10141413532E+03  0.94316462683E+02  0.53214502927E+03  0.56391930686E+03  0.12508489315E+03 0.  0.
          5    1    3    3  502    0  0.10771719139E+03  0.41228583985E+02  0.23313348650E+03  0.26013743365E+03  0.41800000000E+01 0.  1.
         -5    1    3    3    0  502 -0.63030560698E+01  0.53087878698E+02  0.29901154276E+03  0.30378187320E+03  0.41800000000E+01 0.  1.
        -11    1    1    2    0    0 -0.29429124880E+02 -0.80626686966E+02  0.24810776925E+03  0.26253419054E+03  0.00000000000E+00 0. -1.
         11    1    1    2    0    0 -0.71985010435E+02 -0.13689775717E+02  0.11315160914E+03  0.13480555752E+03  0.00000000000E+00 0.  1.
</event>
<event>
 7    1  0.2679104E-009  0.2034355E+03  0.7561462E-02  0.1146872E+00
          1   -1    0    0  501    0  0.00000000000E+00  0.00000000000E+00  0.63912184052E+03  0.63912184052E+03  0.00000000000E+00 0. -1.
         -1   -1    0    0    0  501 -0.00000000000E+00 -0.00000000000E+00 -0.68177428937E+02  0.68177428937E+02  0.00000000000E+00 0.  1.
         25    2    1    2    0    0 -0.53753285535E+02  0.16934057546E+03  0.32150151381E+03  0.38804181007E+03  0.12509027451E+03 0.  0.
          5    1    3    3  502    0  0.16939879232E+02 -0.71867622291E+01  0.62901493577E+01  0.19890888333E+02  0.41800000000E+01 0. -1.
         -5    1    3    3    0  502 -0.70693164767E+02  0.17652733769E+03  0.31521136445E+03  0.36815092174E+03  0.41800000000E+01 0. -1.
        -11    1    1    2    0    0 -0.24106166029E+02 -0.46134314067E+02  0.49488507476E+02  0.71823356558E+02  0.00000000000E+00 0.  1.
         11    1    1    2    0    0  0.77859451563E+02 -0.12320626139E+03  0.19995439030E+03  0.24743410283E+03  0.00000000000E+00 0. -1.
</event>
<event>
 7    1  0.2679104E-009  0.7996707E+02  0.7561462E-02  0.1329145E+00
          2   -1    0    0  501    0  0.00000000000E+00  0.00000000000E+00  0.10071914777E+04  0.10071914777E+04  0.00000000000E+00 0. -1.
         -2   -1    0    0    0  501 -0.00000000000E+00 -0.00000000000E+00 -0.12692114284E+02  0.12692114284E+02  0.00000000000E+00 0.  1.
         25    2    1    2    0    0 -0.11327490393E+02 -0.23906185504E+02  0.67542857636E+03  0.68742018288E+03  0.12507169277E+03 0.  0.
          5    1    3    3  502    0  0.11598353175E+02  0.16874392270E+02  0.15997360161E+02  0.26318336630E+02  0.41800000000E+01 0.  1.
         -5    1    3    3    0  502 -0.22925843567E+02 -0.40780577775E+02  0.65943121620E+03  0.66110184625E+03  0.41800000000E+01 0.  1.
        -11    1    1    2    0    0 -0.36573052390E+02 -0.37341651557E+01  0.15587831063E+03  0.16015486216E+03  0.00000000000E+00 0. -1.
         11    1    1    2    0    0  0.47900542783E+02  0.27640350660E+02  0.16319247645E+03  0.17230854695E+03  0.00000000000E+00 0.  1.
</event>
<event>
 7    1  0.2717140E-009  0.6067629E+02  0.7561462E-02  0.1395015E+00
          2   -1    0    0  501    0  0.00000000000E+00  0.00000000000E+00  0.80156164409E+03  0.80156164409E+03  0.00000000000E+00 0. -1.
         -2   -1    0    0    0  501 -0.00000000000E+00 -0.00000000000E+00 -0.21156212605E+02  0.21156212605E+02  0.00000000000E+00 0.  1.
         25    2    1    2    0    0 -0.32976465007E+02 -0.44629459478E+01  0.63249631776E+03  0.64560599340E+03  0.12509253216E+03 0.  0.
          5    1    3    3  502    0 -0.27817981047E+02  0.10050098081E+02  0.62842587260E+03  0.62913543398E+03  0.41800000000E+01 0.  1.
         -5    1    3    3    0  502 -0.51584839599E+01 -0.14513044029E+02  0.40704451648E+01  0.16470559420E+02  0.41800000000E+01 0.  1.
        -11    1    1    2    0    0 -0.12793453710E+02 -0.19910282675E+02  0.38156973372E+01  0.23971886872E+02  0.00000000000E+00 0. -1.
         11    1    1    2    0    0  0.45769918717E+02  0.24373228623E+02  0.14409341638E+03  0.15313997642E+03  0.00000000000E+00 0.  1.
</event>
<event>
 7    1  0.2679104E-009  0.1231889E+03  0.7561462E-02  0.1237927E+00
          3   -1    0    0  501    0  0.00000000000E+00  0.00000000000E+00  0.12180749839E+03  0.12180749839E+03  0.00000000000E+00 0. -1.
         -3   -1    0    0    0  501 -0.00000000000E+00 -0.00000000000E+00 -0.20171234334E+03  0.20171234334E+03  0.00000000000E+00 0.  1.
         25    2    1    2    0    0 -0.92924060817E+02  0.63066985777E+02 -0.10568704748E+02  0.16843883260E+03  0.12509043542E+03 0.  0.
          5    1    3    3  502    0 -0.70336002439E+02  0.27508877768E+02  0.52789636404E+02  0.92239415148E+02  0.41800000000E+01 0.  1.
         -5    1    3    3    0  502 -0.22588058378E+02  0.35558108008E+02 -0.63358341152E+02  0.76199417451E+02  0.41800000000E+01 0.  1.
        -11    1    1    2    0    0  0.41405018350E+01 -0.35067705245E+02 -0.47972564172E+02  0.59567227733E+02  0.00000000000E+00 0.  1.
         11    1    1    2    0    0  0.88783558982E+02 -0.27999280532E+02 -0.21363576029E+02  0.95513781396E+02  0.00000000000E+00 0. -1.
</event>
<event>
 7    1  0.2679104E-009  0.9127059E+02  0.7561462E-02  0.1299804E+00
          2   -1    0    0  501    0  0.00000000000E+00  0.00000000000E+00  0.19355542496E+03  0.19355542496E+03  0.00000000000E+00 0. -1.
         -2   -1    0    0    0  501 -0.00000000000E+00 -0.00000000000E+00 -0.62595351069E+02  0.62595351069E+02  0.00000000000E+00 0.  1.
         25    2    1    2    0    0  0.75114903236E+01  0.99212622167E+01  0.98787607069E+02  0.15988119938E+03  0.12509257641E+03 0.  0.
          5    1    3    3  502    0  0.63492045854E+02  0.59400280929E+01  0.75658308527E+02  0.99036235134E+02  0.41800000000E+01 0. -1.
         -5    1    3    3    0  502 -0.55980555530E+02  0.39812341237E+01  0.23129298542E+02  0.60844964242E+02  0.41800000000E+01 0. -1.
        -11    1    1    2    0    0  0.26913953268E+02 -0.69946029126E+01  0.50134142633E+02  0.57329901517E+02  0.00000000000E+00 0. -1.
         11    1    1    2    0    0 -0.34425443592E+02 -0.29266593040E+01 -0.17961675815E+02  0.38939675131E+02  0.00000000000E+00 0.  1.
</event>
<event>
 7    1  0.2679104E-009  0.2410700E+03  0.7561462E-02  0.1119082E+00
         -2   -1    0    0    0  501 -0.00000000000E+00  0.00000000000E+00  0.28507372594E+02  0.28507372594E+02  0.00000000000E+00 0. -1.
          2   -1    0    0  501    0  0.00000000000E+00 -0.00000000000E+00 -0.22405598437E+04  0.22405598437E+04  0.00000000000E+00 0.  1.
         25    2    1    2    0    0  0.22320074935E+03  0.44894939684E+02 -0.11143211290E+04  0.11441994884E+04  0.12508701165E+03 0.  0.
          5    1    3    3  502    0  0.17570232350E+03 -0.10247002863E+02 -0.61921447011E+03  0.64375487566E+03  0.41800000000E+01 0.  1.
         -5    1    3    3    0  502  0.47498425851E+02  0.55141942547E+02 -0.49510665890E+03  0.50044461269E+03  0.41800000000E+01 0.  1.
        -11    1    1    2    0    0 -0.83614657074E+02 -0.42010270795E+02 -0.27785471887E+03  0.29318853751E+03  0.00000000000E+00 0. -1.
         11    1    1    2    0    0 -0.13958609227E+03 -0.28846688891E+01 -0.81987662328E+03  0.83167919048E+03  0.00000000000E+00 0.  1.
</event>
<event>
 7    1  0.2679104E-009  0.6802664E+02  0.7561462E-02  0.1366935E+00
         -2   -1    0    0    0  501 -0.00000000000E+00  0.00000000000E+00  0.81733441482E+02  0.81733441482E+02  0.00000000000E+00 0. -1.
          2   -1    0    0  501    0  0.00000000000E+00 -0.00000000000E+00 -0.17164759108E+03  0.17164759108E+03  0.00000000000E+00 0.  1.
         25    2    1    2    0    0  0.21719529766E+02 -0.98772489821E+01 -0.58157280958E+01  0.12748212531E+03  0.12509425071E+03 0.  0.
          5    1    3    3  502    0  0.71082786910E+01  0.14967805891E+02 -0.61938300905E+02  0.64252535811E+02  0.41800000000E+01 0. -1.
         -5    1    3    3    0  502  0.14611251075E+02 -0.24845054873E+02  0.56122572809E+02  0.63229589500E+02  0.41800000000E+01 0. -1.
        -11    1    1    2    0    0 -0.54031630467E+02 -0.50092409813E+01 -0.67595101754E+02  0.86681066949E+02  0.00000000000E+00 0. -1.
         11    1    1    2    0    0  0.32312100702E+02  0.14886489963E+02 -0.16503319744E+02  0.39217840300E+02  0.00000000000E+00 0.  1.
</event>
<event>
 7    1  0.2679104E-009  0.1025826E+03  0.7561462E-02  0.1274957E+00
         -2   -1    0    0    0  501 -0.00000000000E+00  0.00000000000E+00  0.74382065647E+03  0.74382065647E+03  0.00000000000E+00 0.  1.
          2   -1    0    0  501    0  0.00000000000E+00 -0.00000000000E+00 -0.28646314675E+02  0.28646314675E+02  0.00000000000E+00 0. -1.
         25    2    1    2    0    0  0.55681239275E+01 -0.94464148741E+02  0.44023020914E+03  0.46733733576E+03  0.12508824465E+03 0.  0.
          5    1    3    3  502    0 -0.52516193973E+01 -0.54221676554E+02  0.47548538281E+02  0.72428624226E+02  0.41800000000E+01 0.  1.
         -5    1    3    3    0  502  0.10819743325E+02 -0.40242472186E+02  0.39268167086E+03  0.39490871153E+03  0.41800000000E+01 0.  1.
        -11    1    1    2    0    0  0.18974186710E+02  0.74891283985E+02  0.94909152869E+02  0.12237839465E+03  0.00000000000E+00 0. -1.
         11    1    1    2    0    0 -0.24542310637E+02  0.19572864755E+02  0.18003497979E+03  0.18275124074E+03  0.00000000000E+00 0.  1.
</event>
<event>
 7    1  0.2679104E-009  0.8340123E+02  0.7561462E-02  0.1319667E+00
         -1   -1    0    0    0  501 -0.00000000000E+00  0.00000000000E+00  0.20409724667E+03  0.20409724667E+03  0.00000000000E+00 0.  1.
          1   -1    0    0  501    0  0.00000000000E+00 -0.00000000000E+00 -0.58815057746E+02  0.58815057746E+02  0.00000000000E+00 0. -1.
         25    2    1    2    0    0 -0.55869004708E+00 -0.93700981727E+01  0.10255146714E+03  0.16202809552E+03  0.12509272341E+03 0.  0.
          5    1    3    3  502    0 -0.53939924200E+02  0.21525550038E+02  0.26368694735E+02  0.63919051848E+02  0.41800000000E+01 0.  1.
         -5    1    3    3    0  502  0.53381234153E+02 -0.30895648211E+02  0.76182772409E+02  0.98109043671E+02  0.41800000000E+01 0.  1.
        -11    1    1    2    0    0  0.19539281187E+02  0.17384773063E+02  0.65289296440E+02  0.70332823584E+02  0.00000000000E+00 0.  1.
         11    1    1    2    0    0 -0.18980591140E+02 -0.80146748900E+01 -0.22558574662E+02  0.30551385310E+02  0.00000000000E+00 0. -1.
</event>
<event>
 7    1  0.2679104E-009  0.1241799E+03  0.7561462E-02  0.1236356E+00
          2   -1    0    0  501    0  0.00000000000E+00  0.00000000000E+00  0.62020488630E+03  0.62020488630E+03  0.00000000000E+00 0. -1.
         -2   -1    0    0    0  501 -0.00000000000E+00 -0.00000000000E+00 -0.26202545882E+02  0.26202545882E+02  0.00000000000E+00 0.  1.
         25    2    1    2    0    0 -0.42577195766E+02 -0.40325893616E+02  0.25882768119E+03  0.29339108421E+03  0.12509022521E+03 0.  0.
          5    1    3    3  502    0  0.44235017518E+02 -0.17010699570E+02  0.76954212246E+02  0.90473884945E+02  0.41800000000E+01 0. -1.
         -5    1    3    3    0  502 -0.86812213284E+02 -0.23315194047E+02  0.18187346895E+03  0.20291719926E+03  0.41800000000E+01 0. -1.
        -11    1    1    2    0    0  0.71630129104E+02  0.17206076206E+02  0.22047353239E+03  0.23245537838E+03  0.00000000000E+00 0.  1.
         11    1    1    2    0    0 -0.29052933338E+02  0.23119817410E+02  0.11470112684E+03  0.12056096960E+03  0.00000000000E+00 0. -1.
</event>
<event>
 7    1  0.2679104E-009  0.2038083E+03  0.7561462E-02  0.1146565E+00
         -2   -1    0    0    0  501 -0.00000000000E+00  0.00000000000E+00  0.93889110851E+02  0.93889110851E+02  0.00000000000E+00 0.  1.
          2   -1    0    0  501    0  0.00000000000E+00 -0.00000000000E+00 -0.57747561033E+03  0.57747561033E+03  0.00000000000E+00 0. -1.
         25    2    1    2    0    0 -0.86816245984E+02  0.17918905110E+03 -0.18514150488E+03  0.29927711588E+03  0.12507453241E+03 0.  0.
          5    1    3    3  502    0 -0.32051764700E+02  0.93536387253E+02 -0.13689577255E+02  0.99906197436E+02  0.41800000000E+01 0. -1.
         -5    1    3    3    0  502 -0.54764481285E+02  0.85652663851E+02 -0.17145192763E+03  0.19937091845E+03  0.41800000000E+01 0. -1.
        -11    1    1    2    0    0  0.38970740020E+02 -0.27103562926E+02 -0.20594979595E+02  0.51744322254E+02  0.00000000000E+00 0.  1.
         11    1    1    2    0    0  0.47845505964E+02 -0.15208548818E+03 -0.27785001500E+03  0.32034328304E+03  0.00000000000E+00 0. -1.
</event>
<event>
 7    1  0.2679104E-009  0.1397986E+03  0.7561462E-02  0.1213600E+00
          1   -1    0    0  501    0  0.00000000000E+00  0.00000000000E+00  0.24902793275E+03  0.24902793275E+03  0.00000000000E+00 0. -1.
         -1   -1    0    0    0  501 -0.00000000000E+00 -0.00000000000E+00 -0.18731720276E+03  0.18731720276E+03  0.00000000000E+00 0.  1.
         25    2    1    2    0    0  0.13059167770E+03  0.93928124021E+00 -0.10279676054E+03  0.20800635751E+03  0.12507758493E+03 0.  0.
          5    1    3    3  502    0  0.10923066999E+03 -0.26464927142E+02 -0.14965972089E+02  0.11346005622E+03  0.41800000000E+01 0. -1.
         -5    1    3    3    0  502  0.21361007701E+02  0.27404208382E+02 -0.87830788456E+02  0.94546301291E+02  0.41800000000E+01 0. -1.
        -11    1    1    2    0    0 -0.18542648141E+02 -0.72400123063E+01 -0.88832391622E+01  0.21798153965E+02  0.00000000000E+00 0.  1.
         11    1    1    2    0    0 -0.11204902955E+03  0.63007310660E+01  0.17339072970E+03  0.20654062404E+03  0.00000000000E+00 0. -1.
</event>
<event>
 7    1  0.2679104E-009  0.9714150E+02  0.7561462E-02  0.1286424E+00
         -2   -1    0    0    0  501 -0.00000000000E+00  0.00000000000E+00  0.19476278394E+02  0.19476278394E+02  0.00000000000E+00 0.  1.
          2   -1    0    0  501    0  0.00000000000E+00 -0.00000000000E+00 -0.77680924520E+03  0.77680924520E+03  0.00000000000E+00 0. -1.
         25    2    1    2    0    0  0.46844548283E+02 -0.23335902751E+01 -0.54157799700E+03  0.55781172097E+03  0.12508929559E+03 0.  0.
          5    1    3    3  502    0  0.79689268095E+02  0.15458238587E+02 -0.46988154725E+03  0.47686001870E+03  0.41800000000E+01 0. -1.
         -5    1    3    3    0  502 -0.32844719812E+02 -0.17791828862E+02 -0.71696449752E+02  0.80951702273E+02  0.41800000000E+01 0. -1.
        -11    1    1    2    0    0 -0.39393418240E+02 -0.25283356837E+02 -0.20082372917E+03  0.20620683726E+03  0.00000000000E+00 0. -1.
         11    1    1    2    0    0 -0.74511300429E+01  0.27616947112E+02 -0.14931240628E+02  0.32266965358E+02  0.00000000000E+00 0.  1.
</event>
<event>
 7    1  0.2679104E-009  0.7767079E+02  0.7561462E-02  0.1335794E+00
          2   -1    0    0  501    0  0.00000000000E+00  0.00000000000E+00  0.34252059338E+03  0.34252059338E+03  0.00000000000E+00 0. -1.
         -2   -1    0    0    0  501 -0.00000000000E+00 -0.00000000000E+00 -0.39843439302E+02  0.39843439302E+02  0.00000000000E+00 0.  1.
         25    2    1    2    0    0  0.36009056085E+02  0.16884789708E+02  0.25009645606E+03  0.28244912223E+03  0.12509005184E+03 0.  0.
          5    1    3    3  502    0  0.55998459555E+02 -0.35504269541E+01  0.24707558498E+03  0.25340136167E+03  0.41800000000E+01 0.  1.
         -5    1    3    3    0  502 -0.19989403470E+02  0.20435216662E+02  0.30208710771E+01  0.29047760554E+02  0.41800000000E+01 0.  1.
        -11    1    1    2    0    0 -0.84921178814E+01  0.21407950747E+02 -0.68704550045E+01  0.24033717425E+02  0.00000000000E+00 0.  1.
         11    1    1    2    0    0 -0.27516938203E+02 -0.38292740455E+02  0.59451153019E+02  0.75881193025E+02  0.00000000000E+00 0. -1.
</event>
<event>
 7    1  0.2679104E-009  0.1137814E+03  0.7561462E-02  0.1253723E+00
          2   -1    0    0  501    0  0.00000000000E+00  0.00000000000E+00  0.13626263145E+03  0.13626263145E+03  0.00000000000E+00 0. -1.
         -2   -1    0    0    0  501 -0.00000000000E+00 -0.00000000000E+00 -0.12828122015E+03  0.12828122015E+03  0.00000000000E+00 0.  1.
         25    2    1    2    0    0  0.68830720234E+02  0.94024308490E+01 -0.23985982232E+02  0.14508306983E+03  0.12509075127E+03 0.  0.
          5    1    3    3  502    0  0.99848009248E+01  0.62527536730E+02 -0.14834997965E+02  0.65168540444E+02  0.41800000000E+01 0. -1.
         -5    1    3    3    0  502  0.58845919309E+02 -0.53125105881E+02 -0.91509842669E+01  0.79914529387E+02  0.41800000000E+01 0. -1.
        -11    1    1    2    0    0 -0.50557854349E+02 -0.28703465951E+02  0.58096086914E+02  0.82189664245E+02  0.00000000000E+00 0. -1.
         11    1    1    2    0    0 -0.18272865885E+02  0.19301035102E+02 -0.26128693381E+02  0.37271117524E+02  0.00000000000E+00 0.  1.
</event>
<event>
 7    1  0.2679104E-009  0.1673683E+03  0.7561462E-02  0.1180620E+00
         -1   -1    0    0    0  501 -0.00000000000E+00  0.00000000000E+00  0.10661784283E+04  0.10661784283E+04  0.00000000000E+00 0.  1.
          1   -1    0    0  501    0  0.00000000000E+00 -0.00000000000E+00 -0.26839177947E+02  0.26839177947E+02  0.00000000000E+00 0. -1.
         25    2    1    2    0    0  0.12405866698E+03 -0.27528685653E+02  0.63093366818E+03  0.65564730961E+03  0.12509084526E+03 0.  0.
          5    1    3    3  502    0  0.14336283184E+03  0.11757352987E+01  0.50184341412E+03  0.52193732248E+03  0.41800000000E+01 0. -1.
         -5    1    3    3    0  502 -0.19304164864E+02 -0.28704420951E+02  0.12909025406E+03  0.13370998712E+03  0.41800000000E+01 0. -1.
        -11    1    1    2    0    0 -0.57148530397E+02  0.59333874941E+02  0.20935948516E+03  0.22498412670E+03  0.00000000000E+00 0.  1.
         11    1    1    2    0    0 -0.66910136579E+02 -0.31805189288E+02  0.19904609698E+03  0.21238616990E+03  0.00000000000E+00 0. -1.
</event>
<event>
 7    1  0.2679104E-009  0.9982631E+02  0.7561462E-02  0.1280662E+00
          2   -1    0    0  501    0  0.00000000000E+00  0.00000000000E+00  0.15995160651E+04  0.15995160651E+04  0.00000000000E+00 0. -1.
         -2   -1    0    0    0  501 -0.00000000000E+00 -0.00000000000E+00 -0.11830795541E+02  0.11830795541E+02  0.00000000000E+00 0.  1.
         25    2    1    2    0    0  0.39922316909E+00 -0.52658136004E+02  0.11834730598E+04  0.11912301450E+04  0.12509091250E+03 0.  0.
          5    1    3    3  502    0 -0.17076291806E+02  0.10451482839E+02  0.90114389509E+03  0.90137596224E+03  0.41800000000E+01 0.  1.
         -5    1    3    3    0  502  0.17475514975E+02 -0.63109618843E+02  0.28232916470E+03  0.28985418274E+03  0.41800000000E+01 0.  1.
        -11    1    1    2    0    0  0.47894128071E+02  0.42931498454E+02  0.25479735941E+03  0.26279013571E+03  0.00000000000E+00 0.  1.
         11    1    1    2    0    0 -0.48293351240E+02  0.97266375502E+01  0.14941485034E+03  0.15732657993E+03  0.00000000000E+00 0. -1.
</event>
<event>
 7    1  0.2679104E-009  0.1231154E+03  0.7561462E-02  0.1238044E+00
         -2   -1    0    0    0  501 -0.00000000000E+00  0.00000000000E+00  0.12450789000E+02  0.12450789000E+02  0.00000000000E+00 0.  1.
          2   -1    0    0  501    0  0.00000000000E+00 -0.00000000000E+00 -0.13579641521E+04  0.13579641521E+04  0.00000000000E+00 0. -1.
         25    2    1    2    0    0  0.39875625947E+02 -0.35149162956E+02 -0.89186840434E+03  0.90216579921E+03  0.12509336271E+03 0.  0.
          5    1    3    3  502    0 -0.15573106036E+02 -0.65524930410E+02 -0.58102047199E+03  0.58492589224E+03  0.41800000000E+01 0.  1.
         -5    1    3    3    0  502  0.55448731983E+02  0.30375767455E+02 -0.31084793235E+03  0.31723990697E+03  0.41800000000E+01 0.  1.
        -11    1    1    2    0    0 -0.67905190346E+02 -0.30921050505E+01 -0.29102231928E+03  0.29885559441E+03  0.00000000000E+00 0.  1.
         11    1    1    2    0    0  0.28029564399E+02  0.38241268006E+02 -0.16262263947E+03  0.16939354748E+03  0.00000000000E+00 0. -1.
</event>
<event>
 7    1  0.2679104E-009  0.1531121E+03  0.7561462E-02  0.1196700E+00
         -1   -1    0    0    0  501 -0.00000000000E+00  0.00000000000E+00  0.18727666595E+03  0.18727666595E+03  0.00000000000E+00 0.  1.
          1   -1    0    0  501    0  0.00000000000E+00 -0.00000000000E+00 -0.18292313581E+03  0.18292313581E+03  0.00000000000E+00 0. -1.
         25    2    1    2    0    0  0.61378235755E+02  0.10142501709E+03  0.91939795628E+02  0.19533280986E+03  0.12509060185E+03 0.  0.
          5    1    3    3  502    0 -0.35461444484E+02  0.49467123714E+02  0.44739661416E+02  0.75654610414E+02  0.41800000000E+01 0.  1.
         -5    1    3    3    0  502  0.96839680239E+02  0.51957893377E+02  0.47200134213E+02  0.11967819945E+03  0.41800000000E+01 0.  1.
        -11    1    1    2    0    0 -0.40598988907E+02 -0.10639127430E+03 -0.36642358316E+02  0.11962459434E+03  0.00000000000E+00 0. -1.
         11    1    1    2    0    0 -0.20779246848E+02  0.49662572076E+01 -0.50943907169E+02  0.55242397558E+02  0.00000000000E+00 0.  1.
</event>
<event>
 7    1  0.2679104E-009  0.1681362E+03  0.7561462E-02  0.1179806E+00
         -1   -1    0    0    0  501 -0.00000000000E+00  0.00000000000E+00  0.46823456696E+03  0.46823456696E+03  0.00000000000E+00 0.  1.
          1   -1    0    0  501    0  0.00000000000E+00 -0.00000000000E+00 -0.92087427670E+02  0.92087427670E+02  0.00000000000E+00 0. -1.
         25    2    1    2    0    0 -0.14011681959E+03 -0.48669521486E+02  0.28252330500E+03  0.34273437922E+03  0.12508393734E+03 0.  0.
          5    1    3    3  502    0 -0.56187202974E+02 -0.59000999330E+02  0.22768618601E+03  0.24186068593E+03  0.41800000000E+01 0.  1.
         -5    1    3    3    0  502 -0.83929616611E+02  0.10331477845E+02  0.54837118987E+02  0.10087369329E+03  0.41800000000E+01 0.  1.
        -11    1    1    2    0    0  0.62514103091E+02  0.65578129845E+02 -0.52639240853E+01  0.90753584480E+02  0.00000000000E+00 0. -1.
         11    1    1    2    0    0  0.77602716494E+02 -0.16908608359E+02  0.98887758373E+02  0.12683403092E+03  0.00000000000E+00 0.  1.
</event>
<event>
 7    1  0.2679104E-009  0.1663952E+03  0.7561462E-02  0.1181660E+00
         -1   -1    0    0    0  501 -0.00000000000E+00  0.00000000000E+00  0.61290233032E+02  0.61290233032E+02  0.00000000000E+00 0.  1.
          1   -1    0    0  501    0  0.00000000000E+00 -0.00000000000E+00 -0.73577399209E+03  0.73577399209E+03  0.00000000000E+00 0. -1.
         25    2    1    2    0    0  0.12208006503E+03  0.10211332774E+03 -0.18675819720E+03  0.27542173084E+03  0.12509129313E+03 0.  0.
          5    1    3    3  502    0  0.18750418954E+01 -0.50581578047E+01  0.15447719720E+02  0.16888019038E+02  0.41800000000E+01 0. -1.
         -5    1    3    3    0  502  0.12020502313E+03  0.10717148554E+03 -0.20220591692E+03  0.25853371180E+03  0.41800000000E+01 0. -1.
        -11    1    1    2    0    0 -0.64648750358E+02 -0.26385595834E+02 -0.33153009828E+03  0.33880358123E+03  0.00000000000E+00 0. -1.
         11    1    1    2    0    0 -0.57431314669E+02 -0.75727731904E+02 -0.15619546358E+03  0.18283891306E+03  0.00000000000E+00 0.  1.
</event>
<event>
 7    1  0.2956469E-009  0.8560714E+02  0.7561462E-02  0.1313852E+00
         -1   -1    0    0    0  501 -0.00000000000E+00  0.00000000000E+00  0.17909739908E+02  0.17909739908E+02  0.00000000000E+00 0.  1.
          1   -1    0    0  501    0  0.00000000000E+00 -0.00000000000E+00 -0.95044806762E+03  0.95044806762E+03  0.00000000000E+00 0. -1.
         25    2    1    2    0    0 -0.55826086066E+02  0.23881027024E+02 -0.66597350859E+03  0.68033440412E+03  0.12508929594E+03 0.  0.
          5    1    3    3  502    0 -0.27049430820E+02  0.27030735958E+02 -0.47291438438E+02  0.60961339746E+02  0.41800000000E+01 0.  1.
         -5    1    3    3    0  502 -0.28776655246E+02 -0.31497089338E+01 -0.61868207015E+03  0.61937306438E+03  0.41800000000E+01 0.  1.
        -11    1    1    2    0    0  0.58905073625E+02  0.17929689236E+02 -0.11128332334E+03  0.12718199365E+03  0.00000000000E+00 0.  1.
         11    1    1    2    0    0 -0.30789875587E+01 -0.41810716260E+02 -0.15528149579E+03  0.16084140976E+03  0.00000000000E+00 0. -1.
</event>
<event>
 7    1  0.2679104E-009  0.1697674E+03  0.7561462E-02  0.1178091E+00
          2   -1    0    0  501    0  0.00000000000E+00  0.00000000000E+00  0.84074968744E+03  0.84074968744E+03  0.00000000000E+00 0. -1.
         -2   -1    0    0    0  501 -0.00000000000E+00 -0.00000000000E+00 -0.42379293897E+02  0.42379293897E+02  0.00000000000E+00 0.  1.
         25    2    1    2    0    0 -0.12171636652E+03 -0.88421400107E+02  0.49636793757E+03  0.53353805107E+03  0.12509398315E+03 0.  0.
          5    1    3    3  502    0 -0.11619129232E+03 -0.18105556804E+02  0.23535090082E+03  0.26312686392E+03  0.41800000000E+01 0. -1.
         -5    1    3    3    0  502 -0.55250741921E+01 -0.70315843303E+02  0.26101703674E+03  0.27041118715E+03  0.41800000000E+01 0. -1.
        -11    1    1    2    0    0  0.40996234274E+02  0.38875629142E+02  0.35418542375E+02  0.66681923411E+02  0.00000000000E+00 0.  1.
         11    1    1    2    0    0  0.80720132241E+02  0.49545770965E+02  0.26658391361E+03  0.28290900686E+03  0.00000000000E+00 0. -1.
</event>
<event>
 7    1  0.2679104E-009  0.5171392E+02  0.7561462E-02  0.1436310E+00
          1   -1    0    0  501    0  0.00000000000E+00  0.00000000000E+00  0.77483799104E+02  0.77483799104E+02  0.00000000000E+00 0. -1.
         -1   -1    0    0    0  501 -0.00000000000E+00 -0.00000000000E+00 -0.15834519927E+03  0.15834519927E+03  0.00000000000E+00 0.  1.
         25    2    1    2    0    0  0.12664232961E+02 -0.17379402315E+02 -0.50203537913E+02  0.13649294225E+03  0.12508997419E+03 0.  0.
          5    1    3    3  502    0 -0.25875430026E+02 -0.17527672612E+02  0.32421410997E+02  0.45225849658E+02  0.41800000000E+01 0.  1.
         -5    1    3    3    0  502  0.38539662987E+02  0.14827029663E+00 -0.82624948910E+02  0.91267092589E+02  0.41800000000E+01 0.  1.
        -11    1    1    2    0    0  0.66220295337E+01  0.10957631710E+02  0.31466060220E+02  0.33971074661E+02  0.00000000000E+00 0. -1.
         11    1    1    2    0    0 -0.19286262495E+02  0.64217706054E+01 -0.62123922478E+02  0.65364981471E+02  0.00000000000E+00 0.  1.
</event>
<event>
 7    1  0.2679104E-009  0.1048674E+03  0.7561462E-02  0.1270381E+00
          2   -1    0    0  501    0  0.00000000000E+00  0.00000000000E+00  0.89681215110E+02  0.89681215110E+02  0.00000000000E+00 0. -1.
         -2   -1    0    0    0  501 -0.00000000000E+00 -0.00000000000E+00 -0.26410214555E+03  0.26410214555E+03  0.00000000000E+00 0.  1.
         25    2    1    2    0    0  0.36807756813E+02 -0.81798917645E+01 -0.21417648806E+03  0.25087985945E+03  0.12508962485E+03 0.  0.
          5    1    3    3  502    0 -0.10715225741E+02 -0.50045112571E+02 -0.38767848859E+02  0.64340872391E+02  0.41800000000E+01 0. -1.
         -5    1    3    3    0  502  0.47522982554E+02  0.41865220806E+02 -0.17540863920E+03  0.18653898705E+03  0.41800000000E+01 0. -1.
        -11    1    1    2    0    0  0.21760644615E+02 -0.20325552688E+02  0.12552530900E+02  0.32314389645E+02  0.00000000000E+00 0. -1.
         11    1    1    2    0    0 -0.58568401428E+02  0.28505444452E+02  0.27203026722E+02  0.70589111569E+02  0.00000000000E+00 0.  1.
</event>
<event>
 7    1  0.2679104E-009  0.8397541E+02  0.7561462E-02  0.1318134E+00
          1   -1    0    0  501    0  0.00000000000E+00  0.00000000000E+00  0.27559010855E+03  0.27559010855E+03  0.00000000000E+00 0. -1.
         -1   -1    0    0    0  501 -0.00000000000E+00 -0.00000000000E+00 -0.58944741286E+02  0.58944741286E+02  0.00000000000E+00 0.  1.
         25    2    1    2    0    0  0.13534620824E+02  0.83921520942E+00  0.20706130256E+03  0.24229685667E+03  0.12509793561E+03 0.  0.
          5    1    3    3  502    0  0.22171014665E+02 -0.35403328840E+02  0.19973172141E+03  0.20409601300E+03  0.41800000000E+01 0. -1.
         -5    1    3    3    0  502 -0.86363938409E+01  0.36242544049E+02  0.73295811500E+01  0.38200843676E+02  0.41800000000E+01 0. -1.
        -11    1    1    2    0    0 -0.16511211137E+01  0.43012998521E+02  0.16853150122E+02  0.46226322715E+02  0.00000000000E+00 0. -1.
         11    1    1    2    0    0 -0.11883499710E+02 -0.43852213730E+02 -0.72690854198E+01  0.46011670446E+02  0.00000000000E+00 0.  1.
</event>
<event>
 7    1  0.2679104E-009  0.1096899E+03  0.7561462E-02  0.1261145E+00
         -2   -1    0    0    0  501 -0.00000000000E+00  0.00000000000E+00  0.10241558621E+02  0.10241558621E+02  0.00000000000E+00 0.  1.
          2   -1    0    0  501    0  0.00000000000E+00 -0.00000000000E+00 -0.18332985881E+04  0.18332985881E+04  0.00000000000E+00 0. -1.
         25    2    1    2    0    0 -0.49744467666E+02 -0.47750641111E+02 -0.12812507818E+04  0.12891880899E+04  0.12509088553E+03 0.  0.
          5    1    3    3  502    0  0.19911531932E+02 -0.34800360555E+01 -0.38426627016E+02  0.43619466052E+02  0.41800000000E+01 0.  1.
         -5    1    3    3    0  502 -0.69655999597E+02 -0.44270605055E+02 -0.12428241548E+04  0.12455686239E+04  0.41800000000E+01 0.  1.
        -11    1    1    2    0    0  0.16978534472E+02  0.72864059161E+02 -0.31015877016E+03  0.31905470449E+03  0.00000000000E+00 0.  1.
         11    1    1    2    0    0  0.32765933194E+02 -0.25113418050E+02 -0.23164747750E+03  0.23529735225E+03  0.00000000000E+00 0. -1.
</event>
<event>
 7    1  0.2679104E-009  0.1269541E+03  0.7561462E-02  0.1232047E+00
         -2   -1    0    0    0  501 -0.00000000000E+00  0.00000000000E+00  0.54031074116E+02  0.54031074116E+02  0.00000000000E+00 0.  1.
          2   -1    0    0  501    0  0.00000000000E+00 -0.00000000000E+00 -0.40857568557E+03  0.40857568557E+03  0.00000000000E+00 0. -1.
         25    2    1    2    0    0  0.70089435323E+02 -0.68223216062E+02 -0.20772764742E+03  0.26146668811E+03  0.12508843806E+03 0.  0.
          5    1    3    3  502    0  0.59693923465E+02 -0.96230797468E+02 -0.20071839538E+03  0.23049745665E+03  0.41800000000E+01 0.  1.
         -5    1    3    3    0  502  0.10395511857E+02  0.28007581406E+02 -0.70092520441E+01  0.30969231460E+02  0.41800000000E+01 0.  1.
        -11    1    1    2    0    0 -0.38388344225E+02  0.68723752048E+02 -0.37267059732E+02  0.87094505044E+02  0.00000000000E+00 0.  1.
         11    1    1    2    0    0 -0.31701091098E+02 -0.50053598543E+00 -0.10954990430E+03  0.11404556653E+03  0.00000000000E+00 0. -1.
</event>
<event>
 7    1  0.2679104E-009  0.9605500E+02  0.7561462E-02  0.1288817E+00
         -2   -1    0    0    0  501 -0.00000000000E+00  0.00000000000E+00  0.26257837943E+02  0.26257837943E+02  0.00000000000E+00 0. -1.
          2   -1    0    0  501    0  0.00000000000E+00 -0.00000000000E+00 -0.52429971088E+03  0.52429971088E+03  0.00000000000E+00 0.  1.
         25    2    1    2    0    0 -0.32204545143E+02  0.32330055241E+02 -0.27969311135E+03  0.30976440638E+03  0.12507352125E+03 0.  0.
          5    1    3    3  502    0  0.11389364120E+02  0.51308087589E+02 -0.24538275913E+03  0.25098288456E+03  0.41800000000E+01 0. -1.
         -5    1    3    3    0  502 -0.43593909263E+02 -0.18978032348E+02 -0.34310352227E+02  0.58781521812E+02  0.41800000000E+01 0. -1.
        -11    1    1    2    0    0 -0.20820838017E+02 -0.32541281209E+02 -0.14642561074E+03  0.15143613095E+03  0.00000000000E+00 0.  1.
         11    1    1    2    0    0  0.53025383160E+02  0.21122596799E+00 -0.71923150849E+02  0.89357011497E+02  0.00000000000E+00 0. -1.
</event>
<event>
 7    1  0.2679104E-009  0.1117825E+03  0.7561462E-02  0.1257304E+00
          2   -1    0    0  501    0  0.00000000000E+00  0.00000000000E+00  0.11900793530E+03  0.11900793530E+03  0.00000000000E+00 0. -1.
         -2   -1    0    0    0  501 -0.00000000000E+00 -0.00000000000E+00 -0.12318768950E+03  0.12318768950E+03  0.00000000000E+00 0.  1.
         25    2    1    2    0    0 -0.89212018948E+01  0.46772940100E+02  0.28216464123E+02  0.13678615259E+03  0.12508791678E+03 0.  0.
          5    1    3    3  502    0  0.48235946184E+02  0.54670275608E+02  0.14479388297E+01  0.73041867899E+02  0.41800000000E+01 0.  1.
         -5    1    3    3    0  502 -0.57157148078E+02 -0.78973355083E+01  0.26768525293E+02  0.63744284693E+02  0.41800000000E+01 0.  1.
        -11    1    1    2    0    0 -0.34700933460E+02 -0.11403312299E+02 -0.33030386268E+02  0.49246286473E+02  0.00000000000E+00 0.  1.
         11    1    1    2    0    0  0.43622135354E+02 -0.35369627801E+02  0.63416794240E+00  0.56163185741E+02  0.00000000000E+00 0. -1.
</event>
<event>
 7    1  0.2805355E-009  0.1063610E+03  0.7561462E-02  0.1267461E+00
         -2   -1    0    0    0  501 -0.00000000000E+00  0.00000000000E+00  0.52643552631E+02  0.52643552631E+02  0.00000000000E+00 0.  1.
          2   -1    0    0  501    0  0.00000000000E+00 -0.00000000000E+00 -0.35103915802E+03  0.35103915802E+03  0.00000000000E+00 0. -1.
         25    2    1    2    0    0  0.58827342441E+01  0.77702427968E+02 -0.12836639247E+03  0.19544563233E+03  0.12509512623E+03 0.  0.
          5    1    3    3  502    0  0.27567504832E+02  0.35663352493E+02 -0.13950833535E+03  0.14666932217E+03  0.41800000000E+01 0.  1.
         -5    1    3    3    0  502 -0.21684770587E+02  0.42039075474E+02  0.11141942875E+02  0.48776310164E+02  0.41800000000E+01 0.  1.
        -11    1    1    2    0    0 -0.25085199470E+02  0.12299609943E+02 -0.45507079072E+02  0.53398894022E+02  0.00000000000E+00 0. -1.
         11    1    1    2    0    0  0.19202465226E+02 -0.90002037911E+02 -0.12452213384E+03  0.15483818429E+03  0.00000000000E+00 0.  1.
</event>
<event>
 7    1  0.2679104E-009  0.1102396E+03  0.7561462E-02  0.1260127E+00
         -2   -1    0    0    0  501 -0.00000000000E+00  0.00000000000E+00  0.52591093569E+02  0.52591093569E+02  0.00000000000E+00 0.  1.
          2   -1    0    0  501    0  0.00000000000E+00 -0.00000000000E+00 -0.66151050384E+03  0.66151050384E+03  0.00000000000E+00 0. -1.
         25    2    1    2    0    0 -0.95641719559E+02  0.54414405822E+02 -0.51781070814E+03  0.54395281599E+03  0.12509384666E+03 0.  0.
          5    1    3    3  502    0 -0.35744089174E+02  0.18563159942E+02 -0.28133412517E+02  0.49307120356E+02  0.41800000000E+01 0.  1.
         -5    1    3    3    0  502 -0.59897630385E+02  0.35851245880E+02 -0.48967729562E+03  0.49464569563E+03  0.41800000000E+01 0.  1.
        -11    1    1    2    0    0  0.31426045001E+02 -0.18905844264E+02  0.16246197063E+02  0.40111920557E+02  0.00000000000E+00 0.  1.
         11    1    1    2    0    0  0.64215674558E+02 -0.35508561558E+02 -0.10735489919E+03  0.13003686086E+03  0.00000000000E+00 0. -1.
</event>
<event>
 7    1  0.2679104E-009  0.7949982E+02  0.7561462E-02  0.1330477E+00
          3   -1    0    0  501    0  0.00000000000E+00  0.00000000000E+00  0.28452777890E+03  0.28452777890E+03  0.00000000000E+00 0. -1.
         -3   -1    0    0    0  501 -0.00000000000E+00 -0.00000000000E+00 -0.75125050947E+02  0.75125050947E+02  0.00000000000E+00 0.  1.
         25    2    1    2    0    0 -0.33268846759E+02  0.39628219411E+02  0.11781530184E+02  0.13588129491E+03  0.12509080667E+03 0.  0.
          5    1    3    3  502    0 -0.30305881510E+01  0.15259443545E+02 -0.55660532917E+02  0.57944822085E+02  0.41800000000E+01 0. -1.
         -5    1    3    3    0  502 -0.30238258608E+02  0.24368775866E+02  0.67442063101E+02  0.77936472824E+02  0.41800000000E+01 0. -1.
        -11    1    1    2    0    0 -0.28274573405E+02 -0.30541406110E+02  0.63491115864E+02  0.75916735849E+02  0.00000000000E+00 0.  1.
         11    1    1    2    0    0  0.61543420164E+02 -0.90868133004E+01  0.13413008190E+03  0.14785479909E+03  0.00000000000E+00 0. -1.
</event>
<event>
 7    1  0.2679104E-009  0.1471257E+03  0.7561462E-02  0.1204050E+00
          1   -1    0    0  501    0  0.00000000000E+00  0.00000000000E+00  0.35468553767E+03  0.35468553767E+03  0.00000000000E+00 0. -1.
         -1   -1    0    0    0  501 -0.00000000000E+00 -0.00000000000E+00 -0.76034354917E+02  0.76034354917E+02  0.00000000000E+00 0.  1.
         25    2    1    2    0    0 -0.11321797004E+03 -0.36314065118E+02  0.18195824209E+03  0.25078561509E+03  0.12509037855E+03 0.  0.
          5    1    3    3  502    0  0.17256156600E+02  0.59165326006E+01  0.73635429895E+02  0.75976504489E+02  0.41800000000E+01 0.  1.
         -5    1    3    3    0  502 -0.13047412664E+03 -0.42230597718E+02  0.10832281219E+03  0.17480911060E+03  0.41800000000E+01 0.  1.
        -11    1    1    2    0    0  0.28580667549E+01 -0.15964408020E+02 -0.88969699343E+01  0.18498295679E+02  0.00000000000E+00 0.  1.
         11    1    1    2    0    0  0.11035990329E+03  0.52278473138E+02  0.10558991060E+03  0.16143598182E+03  0.00000000000E+00 0. -1.
</event>
<event>
 7    1  0.2679104E-009  0.1295157E+03  0.7561462E-02  0.1228176E+00
         -1   -1    0    0    0  501 -0.00000000000E+00  0.00000000000E+00  0.43304345507E+02  0.43304345507E+02  0.00000000000E+00 0.  1.
          1   -1    0    0  501    0  0.00000000000E+00 -0.00000000000E+00 -0.49261732118E+03  0.49261732118E+03  0.00000000000E+00 0. -1.
         25    2    1    2    0    0 -0.94796143495E+02 -0.10382579013E+02 -0.19639148389E+03  0.25161697186E+03  0.12508948324E+03 0.  0.
          5    1    3    3  502    0  0.15793602584E+02 -0.11225427147E+02 -0.10848510582E+03  0.11028118009E+03  0.41800000000E+01 0.  1.
         -5    1    3    3    0  502 -0.11058974608E+03  0.84284813419E+00 -0.87906378061E+02  0.14133579177E+03  0.41800000000E+01 0.  1.
        -11    1    1    2    0    0  0.80605468894E+02  0.44153203752E+02 -0.19796687864E+03  0.21826046837E+03  0.00000000000E+00 0. -1.
         11    1    1    2    0    0  0.14190674601E+02 -0.33770624740E+02 -0.54954613148E+02  0.66044226448E+02  0.00000000000E+00 0.  1.
</event>
<event>
 7    1  0.2679104E-009  0.1175344E+03  0.7561462E-02  0.1247221E+00
         -1   -1    0    0    0  501 -0.00000000000E+00  0.00000000000E+00  0.36535171092E+02  0.36535171092E+02  0.00000000000E+00 0.  1.
          1   -1    0    0  501    0  0.00000000000E+00 -0.00000000000E+00 -0.40940035907E+03  0.40940035907E+03  0.00000000000E+00 0. -1.
         25    2    1    2    0    0  0.15890881857E+02 -0.51578449574E+02 -0.17689575560E+03  0.22328031755E+03  0.12509650383E+03 0.  0.
          5    1    3    3  502    0  0.32524672203E+02  0.32654878876E+02 -0.37745285518E+02  0.59719129223E+02  0.41800000000E+01 0.  1.
         -5    1    3    3    0  502 -0.16633790346E+02 -0.84233328450E+02 -0.13915047009E+03  0.16356118833E+03  0.41800000000E+01 0.  1.
        -11    1    1    2    0    0 -0.51774458851E+02  0.21713005978E+02 -0.80870773771E+02  0.98448622480E+02  0.00000000000E+00 0.  1.
         11    1    1    2    0    0  0.35883576993E+02  0.29865443597E+02 -0.11509865860E+03  0.12420659013E+03  0.00000000000E+00 0. -1.
</event>
<event>
 7    1  0.2679104E-009  0.2242204E+03  0.7561462E-02  0.1130775E+00
          2   -1    0    0  501    0  0.00000000000E+00  0.00000000000E+00  0.32198220148E+03  0.32198220148E+03  0.00000000000E+00 0. -1.
         -2   -1    0    0    0  501 -0.00000000000E+00 -0.00000000000E+00 -0.17633786763E+03  0.17633786763E+03  0.00000000000E+00 0.  1.
         25    2    1    2    0    0 -0.14801012245E+03  0.14754698557E+03  0.38346724089E+02  0.24656740194E+03  0.12509157906E+03 0.  0.
          5    1    3    3  502    0 -0.11210285558E+02 -0.11723056114E+02  0.32414869756E+02  0.36486939146E+02  0.41800000000E+01 0.  1.
         -5    1    3    3    0  502 -0.13679983689E+03  0.15927004169E+03  0.59318543330E+01  0.21008046279E+03  0.41800000000E+01 0.  1.
        -11    1    1    2    0    0  0.30172677493E+02  0.32153674486E+01  0.37109390337E+02  0.47935747684E+02  0.00000000000E+00 0. -1.
         11    1    1    2    0    0  0.11783744495E+03 -0.15076235302E+03  0.70188219425E+02  0.20381691948E+03  0.00000000000E+00 0.  1.
</event>
<event>
 7    1  0.2679104E-009  0.1090468E+03  0.7561462E-02  0.1262345E+00
          1   -1    0    0  501    0  0.00000000000E+00  0.00000000000E+00  0.94559329616E+02  0.94559329616E+02  0.00000000000E+00 0. -1.
         -1   -1    0    0    0  501 -0.00000000000E+00 -0.00000000000E+00 -0.13290651648E+03  0.13290651648E+03  0.00000000000E+00 0.  1.
         25    2    1    2    0    0 -0.30720360677E+02  0.39854603359E+01 -0.21567074641E+02  0.13065403314E+03  0.12508282541E+03 0.  0.
          5    1    3    3  502    0 -0.58310700009E+02  0.44882521625E+02 -0.31509233943E+02  0.80155366050E+02  0.41800000000E+01 0.  1.
         -5    1    3    3    0  502  0.27590339332E+02 -0.40897061289E+02  0.99421593021E+01  0.50498667092E+02  0.41800000000E+01 0.  1.
        -11    1    1    2    0    0 -0.31792685456E+02 -0.59137397763E+01 -0.10277486741E+02  0.33931900924E+02  0.00000000000E+00 0. -1.
         11    1    1    2    0    0  0.62513046133E+02  0.19282794404E+01 -0.65026254796E+01  0.62879912027E+02  0.00000000000E+00 0.  1.
</event>
<event>
 7    1  0.2679104E-009  0.2144671E+03  0.7561462E-02  0.1138077E+00
          2   -1    0    0  501    0  0.00000000000E+00  0.00000000000E+00  0.22765038233E+04  0.22765038233E+04  0.00000000000E+00 0. -1.
         -2   -1    0    0    0  501 -0.00000000000E+00 -0.00000000000E+00 -0.24600296906E+02  0.24600296906E+02  0.00000000000E+00 0.  1.
         25    2    1    2    0    0  0.18852501218E+03 -0.81360721455E+02  0.13652512503E+04  0.13862613152E+04  0.12509280630E+03 0.  0.
          5    1    3    3  502    0  0.10063919356E+03 -0.83858362743E+02  0.10749125860E+04  0.10828734978E+04  0.41800000000E+01 0.  1.
         -5    1    3    3    0  502  0.87885818618E+02  0.24976412874E+01  0.29033866437E+03  0.30338781741E+03  0.41800000000E+01 0.  1.
        -11    1    1    2    0    0 -0.85756006404E+02  0.60591976929E+02  0.27686616266E+03  0.29610868330E+03  0.00000000000E+00 0.  1.
         11    1    1    2    0    0 -0.10276900577E+03  0.20768744527E+02  0.60978611336E+03  0.61873412169E+03  0.00000000000E+00 0. -1.
</event>
<event>
 7    1  0.2679104E-009  0.5408057E+02  0.7561462E-02  0.1424498E+00
          1   -1    0    0  501    0  0.00000000000E+00  0.00000000000E+00  0.35553081710E+03  0.35553081710E+03  0.00000000000E+00 0. -1.
         -1   -1    0    0    0  501 -0.00000000000E+00 -0.00000000000E+00 -0.62397257224E+02  0.62397257224E+02  0.00000000000E+00 0.  1.
         25    2    1    2    0    0 -0.13758009510E+01 -0.21287740829E+02  0.29765969196E+03  0.32357929042E+03  0.12508878539E+03 0.  0.
          5    1    3    3  502    0 -0.20108489143E+02 -0.39746631759E+01 -0.35878444827E+01  0.21224851260E+02  0.41800000000E+01 0. -1.
         -5    1    3    3    0  502  0.18732688192E+02 -0.17313077653E+02  0.30124753645E+03  0.30235443916E+03  0.41800000000E+01 0. -1.
        -11    1    1    2    0    0  0.25624419770E+02  0.26205147580E+02  0.33054175776E+02  0.49354829393E+02  0.00000000000E+00 0. -1.
         11    1    1    2    0    0 -0.24248618819E+02 -0.49174067508E+01 -0.37580307861E+02  0.44993954513E+02  0.00000000000E+00 0.  1.
</event>
<event>
 7    1  0.2679104E-009  0.8048284E+02  0.7561462E-02  0.1327687E+00
          1   -1    0    0  501    0  0.00000000000E+00  0.00000000000E+00  0.84342037730E+02  0.84342037730E+02  0.00000000000E+00 0. -1.
         -1   -1    0    0    0  501 -0.00000000000E+00 -0.00000000000E+00 -0.18703261193E+03  0.18703261193E+03  0.00000000000E+00 0.  1.
         25    2    1    2    0    0  0.43382573208E+02  0.23565313610E+02 -0.97004312761E+01  0.13483249584E+03  0.12509329280E+03 0.  0.
          5    1    3    3  502    0  0.61875656495E+02  0.37019091672E+02 -0.50323144110E+02  0.88027843595E+02  0.41800000000E+01 0. -1.
         -5    1    3    3    0  502 -0.18493083287E+02 -0.13453778062E+02  0.40622712834E+02  0.46804652243E+02  0.41800000000E+01 0. -1.
        -11    1    1    2    0    0 -0.13625029374E+02 -0.31817326329E+02 -0.99181225468E+02  0.10504712831E+03  0.00000000000E+00 0.  1.
         11    1    1    2    0    0 -0.29757543834E+02  0.82520127195E+01  0.61910825464E+01  0.31495025513E+02  0.00000000000E+00 0. -1.
</event>
<event>
 7    1  0.2679104E-009  0.9006339E+02  0.7561462E-02  0.1302698E+00
         -2   -1    0    0    0  501 -0.00000000000E+00  0.00000000000E+00  0.15635449040E+02  0.15635449040E+02  0.00000000000E+00 0.  1.
          2   -1    0    0  501    0  0.00000000000E+00 -0.00000000000E+00 -0.10212007538E+04  0.10212007538E+04  0.00000000000E+00 0. -1.
         25    2    1    2    0    0 -0.46770609728E+02  0.35530962884E+02 -0.66947439448E+03  0.68358846808E+03  0.12508912653E+03 0.  0.
          5    1    3    3  502    0 -0.70419798794E+02  0.35981656602E+02 -0.64293362729E+03  0.64779221142E+03  0.41800000000E+01 0.  1.
         -5    1    3    3    0  502  0.23649189066E+02 -0.45069371858E+00 -0.26540767188E+02  0.35796256665E+02  0.41800000000E+01 0.  1.
        -11    1    1    2    0    0  0.36840638143E+02 -0.48296507057E+02 -0.33065124099E+03  0.33618451538E+03  0.00000000000E+00 0. -1.
         11    1    1    2    0    0  0.99299715849E+01  0.12765544173E+02 -0.54396693024E+01  0.17063219387E+02  0.00000000000E+00 0.  1.
</event>
<event>
 7    1  0.2679104E-009  0.1314582E+03  0.7561462E-02  0.1225308E+00
          1   -1    0    0  501    0  0.00000000000E+00  0.00000000000E+00  0.49952421662E+03  0.49952421662E+03  0.00000000000E+00 0. -1.
         -1   -1    0    0    0  501 -0.00000000000E+00 -0.00000000000E+00 -0.40514746802E+02  0.40514746802E+02  0.00000000000E+00 0.  1.
         25    2    1    2    0    0 -0.86836396150E+02 -0.31906787070E+02  0.24601436746E+03  0.29108226651E+03  0.12508882494E+03 0.  0.
          5    1    3    3  502    0 -0.10083615760E+02 -0.66255099644E+02  0.76348379627E+02  0.10167578378E+03  0.41800000000E+01 0. -1.
         -5    1    3    3    0  502 -0.76752780390E+02  0.34348312574E+02  0.16966598783E+03  0.18940648273E+03  0.41800000000E+01 0. -1.
        -11    1    1    2    0    0  0.42010636372E+01 -0.15670067723E+02  0.70895677077E+00  0.16238921696E+02  0.00000000000E+00 0.  1.
         11    1    1    2    0    0  0.82635332512E+02  0.47576854793E+02  0.21228614558E+03  0.23271777521E+03  0.00000000000E+00 0. -1.
</event>
<event>
 7    1  0.2679104E-009  0.1510956E+03  0.7561462E-02  0.1199133E+00
         -1   -1    0    0    0  501 -0.00000000000E+00  0.00000000000E+00  0.19926253669E+02  0.19926253669E+02  0.00000000000E+00 0.  1.
          1   -1    0    0  501    0  0.00000000000E+00 -0.00000000000E+00 -0.15043961962E+04  0.15043961962E+04  0.00000000000E+00 0. -1.
         25    2    1    2    0    0 -0.54184148462E+01 -0.12288198466E+03 -0.10291918938E+04  0.10440371819E+04  0.12509333146E+03 0.  0.
          5    1    3    3  502    0 -0.39075079012E+02 -0.11742796951E+03 -0.94543449488E+03  0.95350933206E+03  0.41800000000E+01 0.  1.
         -5    1    3    3    0  502  0.33656664166E+02 -0.54540151494E+01 -0.83757398908E+02  0.90527849836E+02  0.41800000000E+01 0.  1.
        -11    1    1    2    0    0 -0.31922623578E+02  0.29604808095E+02 -0.72752328318E+02  0.84784431555E+02  0.00000000000E+00 0.  1.
         11    1    1    2    0    0  0.37341038424E+02  0.93277176565E+02 -0.38252572042E+03  0.39550083641E+03  0.00000000000E+00 0. -1.
</event>
<event>
 7    1  0.2679104E-009  0.9314931E+02  0.7561462E-02  0.1295400E+00
         -2   -1    0    0    0  501 -0.00000000000E+00  0.00000000000E+00  0.23467235994E+02  0.23467235994E+02  0.00000000000E+00 0.  1.
          2   -1    0    0  501    0  0.00000000000E+00 -0.00000000000E+00 -0.66763975454E+03  0.66763975454E+03  0.00000000000E+00 0. -1.
         25    2    1    2    0    0  0.34146143965E+02 -0.59660123336E+01 -0.48534459163E+03  0.50240187404E+03  0.12508684169E+03 0.  0.
          5    1    3    3  502    0 -0.56471540690E+01 -0.61196500627E+02 -0.22919494276E+03  0.23732824574E+03  0.41800000000E+01 0. -1.
         -5    1    3    3    0  502  0.39793298034E+02  0.55230488293E+02 -0.25614964887E+03  0.26507362831E+03  0.41800000000E+01 0. -1.
        -11    1    1    2    0    0  0.96135651350E+01  0.82664745345E+01  0.88069448492E+01  0.15437535859E+02  0.00000000000E+00 0. -1.
         11    1    1    2    0    0 -0.43759709100E+02 -0.23004622008E+01 -0.16763487177E+03  0.17326758063E+03  0.00000000000E+00 0.  1.
</event>
<event>
 7    1  0.2679104E-009  0.4166223E+02  0.7561462E-02  0.1496324E+00
          2   -1    0    0  501    0  0.00000000000E+00  0.00000000000E+00  0.80231493780E+03  0.80231493780E+03  0.00000000000E+00 0.  1.
         -2   -1    0    0    0  501 -0.00000000000E+00 -0.00000000000E+00 -0.28468571019E+02  0.28468571019E+02  0.00000000000E+00 0. -1.
         25    2    1    2    0    0  0.40247752626E+01 -0.23594675978E+02  0.69324612778E+03  0.70484855793E+03  0.12509351856E+03 0.  0.
          5    1    3    3  502    0 -0.60045000970E+01 -0.74399635701E+01  0.68256018096E+03  0.68263993445E+03  0.41800000000E+01 0. -1.
         -5    1    3    3    0  502  0.10029275360E+02 -0.16154712408E+02  0.10685946817E+02  0.22208623474E+02  0.41800000000E+01 0. -1.
        -11    1    1    2    0    0  0.20285784891E+02  0.20626001575E+02  0.93767261689E+02  0.98128713302E+02  0.00000000000E+00 0.  1.
         11    1    1    2    0    0 -0.24310560154E+02  0.29686744030E+01 -0.13167022682E+02  0.27806237592E+02  0.00000000000E+00 0. -1.
</event>
<event>
 7    1  0.2679104E-009  0.9662960E+02  0.7561462E-02  0.1287547E+00
          2   -1    0    0  501    0  0.00000000000E+00  0.00000000000E+00  0.30828622491E+03  0.30828622491E+03  0.00000000000E+00 0. -1.
         -2   -1    0    0    0  501 -0.00000000000E+00 -0.00000000000E+00 -0.53564048719E+02  0.53564048719E+02  0.00000000000E+00 0.  1.
         25    2    1    2    0    0  0.88308436249E+01 -0.28730040966E+02  0.23021387625E+03  0.26372190125E+03  0.12508962118E+03 0.  0.
          5    1    3    3  502    0  0.42667729302E+02 -0.45619667563E+02  0.21291120798E+03  0.22192418542E+03  0.41800000000E+01 0.  1.
         -5    1    3    3    0  502 -0.33836885677E+02  0.16889626597E+02  0.17302668273E+02  0.41797715826E+02  0.41800000000E+01 0.  1.
        -11    1    1    2    0    0 -0.46933120918E+02  0.27687113409E+02  0.25129992466E+02  0.60006754698E+02  0.00000000000E+00 0.  1.
         11    1    1    2    0    0  0.38102277293E+02  0.10429275569E+01 -0.62169253160E+00  0.38121617678E+02  0.00000000000E+00 0. -1.
</event>
<event>
 7    1  0.2679104E-009  0.1160047E+03  0.7561462E-02  0.1249837E+00
         -4   -1    0    0    0  501 -0.00000000000E+00  0.00000000000E+00  0.33406809155E+03  0.33406809155E+03  0.00000000000E+00 0. -1.
          4   -1    0    0  501    0  0.00000000000E+00 -0.00000000000E+00 -0.53364309653E+02  0.53364309653E+02  0.00000000000E+00 0.  1.
         25    2    1    2    0    0 -0.50025651516E+02  0.54693514226E+02  0.12833415696E+03  0.19393598850E+03  0.12509022937E+03 0.  0.
          5    1    3    3  502    0 -0.15396705727E+02 -0.37319407436E+02  0.65908476053E+02  0.77402818646E+02  0.41800000000E+01 0.  1.
         -5    1    3    3    0  502 -0.34628945789E+02  0.92012921662E+02  0.62425680903E+02  0.11653316985E+03  0.41800000000E+01 0.  1.
        -11    1    1    2    0    0 -0.35261964972E+01 -0.36191024261E+02  0.64063803324E+01  0.36922432311E+02  0.00000000000E+00 0.  1.
         11    1    1    2    0    0  0.53551848014E+02 -0.18502489965E+02  0.14596324461E+03  0.15657398040E+03  0.00000000000E+00 0. -1.
</event>
<event>
 7    1  0.2679104E-009  0.2317454E+03  0.7561462E-02  0.1125417E+00
          2   -1    0    0  501    0  0.00000000000E+00  0.00000000000E+00  0.73982585927E+03  0.73982585927E+03  0.00000000000E+00 0. -1.
         -2   -1    0    0    0  501 -0.00000000000E+00 -0.00000000000E+00 -0.83635229086E+02  0.83635229086E+02  0.00000000000E+00 0.  1.
         25    2    1    2    0    0  0.22576150854E+03  0.35711822123E+01  0.34091912124E+03  0.42761511663E+03  0.12509128132E+03 0.  0.
          5    1    3    3  502    0  0.91199572727E+02  0.53032411837E+01  0.43764968147E+02  0.10138210527E+03  0.41800000000E+01 0. -1.
         -5    1    3    3    0  502  0.13456193581E+03 -0.17320589713E+01  0.29715415310E+03  0.32623301136E+03  0.41800000000E+01 0. -1.
        -11    1    1    2    0    0 -0.73509749419E+02 -0.35822256542E+02  0.13347794271E+03  0.15653523090E+03  0.00000000000E+00 0.  1.
         11    1    1    2    0    0 -0.15225175912E+03  0.32251074330E+02  0.18179356623E+03  0.23931074082E+03  0.00000000000E+00 0. -1.
</event>
<event>
 7    1  0.2679104E-009  0.6655402E+02  0.7561462E-02  0.1372219E+00
         -1   -1    0    0    0  501 -0.00000000000E+00  0.00000000000E+00  0.82780855279E+02  0.82780855279E+02  0.00000000000E+00 0.  1.
          1   -1    0    0  501    0  0.00000000000E+00 -0.00000000000E+00 -0.34839547498E+03  0.34839547498E+03  0.00000000000E+00 0. -1.
         25    2    1    2    0    0  0.21455917733E+02 -0.50193444301E+01  0.18872521927E+02  0.12841623162E+03  0.12509598809E+03 0.  0.
          5    1    3    3  502    0  0.12930654016E+02  0.95530121851E+01  0.71284187676E+02  0.73194054866E+02  0.41800000000E+01 0.  1.
         -5    1    3    3    0  502  0.85252637174E+01 -0.14572356615E+02 -0.52411665750E+02  0.55222176754E+02  0.41800000000E+01 0.  1.
        -11    1    1    2    0    0 -0.57872952150E+02 -0.11681509364E+02 -0.12385586338E+03  0.13720791210E+03  0.00000000000E+00 0. -1.
         11    1    1    2    0    0  0.36417034417E+02  0.16700853794E+02 -0.16063127825E+03  0.16555218653E+03  0.00000000000E+00 0.  1.
</event>
<event>
 7    1  0.2679104E-009  0.9848490E+02  0.7561462E-02  0.1283515E+00
         -2   -1    0    0    0  501 -0.00000000000E+00  0.00000000000E+00  0.28552651881E+03  0.28552651881E+03  0.00000000000E+00 0.  1.
          2   -1    0    0  501    0  0.00000000000E+00 -0.00000000000E+00 -0.67558398962E+02  0.67558398962E+02  0.00000000000E+00 0. -1.
         25    2    1    2    0    0 -0.58056981946E+02 -0.16511264672E+02  0.19757098623E+03  0.24150626678E+03  0.12509095602E+03 0.  0.
          5    1    3    3  502    0 -0.61100850157E+02 -0.39331578138E+02  0.41691759814E+02  0.83880642374E+02  0.41800000000E+01 0. -1.
         -5    1    3    3    0  502  0.30438682113E+01  0.22820313465E+02  0.15587922641E+03  0.15762562440E+03  0.41800000000E+01 0. -1.
        -11    1    1    2    0    0  0.21155892334E+02  0.47884694604E+02  0.32546961326E+02  0.61642683665E+02  0.00000000000E+00 0.  1.
         11    1    1    2    0    0  0.36901089611E+02 -0.31373429932E+02 -0.12149827706E+02  0.49935967333E+02  0.00000000000E+00 0. -1.
</event>
<event>
 7    1  0.2679104E-009  0.1183994E+03  0.7561462E-02  0.1245761E+00
          1   -1    0    0  501    0  0.00000000000E+00  0.00000000000E+00  0.33459626507E+02  0.33459626507E+02  0.00000000000E+00 0. -1.
         -1   -1    0    0    0  501 -0.00000000000E+00 -0.00000000000E+00 -0.56186876204E+03  0.56186876204E+03  0.00000000000E+00 0.  1.
         25    2    1    2    0    0 -0.68090476654E+02 -0.96401058703E+01 -0.18488624598E+03  0.23357650923E+03  0.12508324052E+03 0.  0.
          5    1    3    3  502    0 -0.75545737021E+02 -0.48043357949E+02 -0.16870800542E+03  0.19103713282E+03  0.41800000000E+01 0. -1.
         -5    1    3    3    0  502  0.74552603672E+01  0.38403252079E+02 -0.16178240562E+02  0.42539376407E+02  0.41800000000E+01 0. -1.
        -11    1    1    2    0    0  0.21287562418E+02  0.44594561143E+02 -0.21454588413E+03  0.22016305683E+03  0.00000000000E+00 0.  1.
         11    1    1    2    0    0  0.46802914236E+02 -0.34954455273E+02 -0.12897700542E+03  0.14158882248E+03  0.00000000000E+00 0. -1.
</event>
<event>
 7    1  0.2679104E-009  0.1700135E+03  0.7561462E-02  0.1177834E+00
         -1   -1    0    0    0  501 -0.00000000000E+00  0.00000000000E+00  0.99284137156E+03  0.99284137156E+03  0.00000000000E+00 0.  1.
          1   -1    0    0  501    0  0.00000000000E+00 -0.00000000000E+00 -0.34237354092E+02  0.34237354092E+02  0.00000000000E+00 0. -1.
         25    2    1    2    0    0  0.13260684436E+03  0.49602813771E+01  0.68770791959E+03  0.71147593762E+03  0.12508656036E+03 0.  0.
          5    1    3    3  502    0 -0.24108331337E+02  0.26110890778E+01  0.70741979836E+02  0.74899462863E+02  0.41800000000E+01 0.  1.
         -5    1    3    3    0  502  0.15671517570E+03  0.23491922993E+01  0.61696593976E+03  0.63657647476E+03  0.41800000000E+01 0.  1.
        -11    1    1    2    0    0 -0.70602578425E+02 -0.46009001007E+02  0.17518462465E+03  0.19439960125E+03  0.00000000000E+00 0. -1.
         11    1    1    2    0    0 -0.62004265938E+02  0.41048719630E+02  0.95711473230E+02  0.12120318678E+03  0.00000000000E+00 0.  1.
</event>
<event>
 7    1  0.2679104E-009  0.9523347E+02  0.7561462E-02  0.1290651E+00
         -4   -1    0    0    0  501 -0.00000000000E+00  0.00000000000E+00  0.37709021583E+03  0.37709021583E+03  0.00000000000E+00 0.  1.
          4   -1    0    0  501    0  0.00000000000E+00 -0.00000000000E+00 -0.34783877254E+02  0.34783877254E+02  0.00000000000E+00 0. -1.
         25    2    1    2    0    0  0.35325233628E+02 -0.19458282542E+02  0.19256849742E+03  0.23314288327E+03  0.12508589420E+03 0.  0.
          5    1    3    3  502    0 -0.23682145308E+02  0.10883438494E+02 -0.30157674363E+01  0.26568035175E+02  0.41800000000E+01 0. -1.
         -5    1    3    3    0  502  0.59007378936E+02 -0.30341721036E+02  0.19558426486E+03  0.20657484809E+03  0.41800000000E+01 0. -1.
        -11    1    1    2    0    0  0.27184313207E+02  0.22082524568E+02  0.53556179821E+02  0.63991321074E+02  0.00000000000E+00 0. -1.
         11    1    1    2    0    0 -0.62509546835E+02 -0.26242420260E+01  0.96181661336E+02  0.11473988874E+03  0.00000000000E+00 0.  1.
</event>
<event>
 7    1  0.2778303E-009  0.1118233E+03  0.7561462E-02  0.1257230E+00
          1   -1    0    0  501    0  0.00000000000E+00  0.00000000000E+00  0.40379077899E+03  0.40379077899E+03  0.00000000000E+00 0. -1.
         -1   -1    0    0    0  501 -0.00000000000E+00 -0.00000000000E+00 -0.55306758027E+02  0.55306758027E+02  0.00000000000E+00 0.  1.
         25    2    1    2    0    0 -0.80309249096E+02 -0.41885896036E+02  0.11579251467E+03  0.19302744288E+03  0.12509070098E+03 0.  0.
          5    1    3    3  502    0 -0.41782621264E+02  0.80330066145E+01  0.12224315300E+03  0.12950358099E+03  0.41800000000E+01 0.  1.
         -5    1    3    3    0  502 -0.38526627832E+02 -0.49918902650E+02 -0.64506383284E+01  0.63523861885E+02  0.41800000000E+01 0.  1.
        -11    1    1    2    0    0  0.13419485844E+02  0.48650588153E+02  0.15660545321E+03  0.16453641026E+03  0.00000000000E+00 0. -1.
         11    1    1    2    0    0  0.66889763252E+02 -0.67646921172E+01  0.76086053087E+02  0.10153368388E+03  0.00000000000E+00 0.  1.
</event>
<event>
 7    1  0.2679104E-009  0.1202882E+03  0.7561462E-02  0.1242622E+00
          3   -1    0    0  501    0  0.00000000000E+00  0.00000000000E+00  0.84641053986E+02  0.84641053986E+02  0.00000000000E+00 0. -1.
         -3   -1    0    0    0  501 -0.00000000000E+00 -0.00000000000E+00 -0.25415330522E+03  0.25415330522E+03  0.00000000000E+00 0.  1.
         25    2    1    2    0    0  0.53762853227E+02  0.81160101928E+02 -0.81625371263E+02  0.17828824365E+03  0.12508633042E+03 0.  0.
          5    1    3    3  502    0  0.24779963536E+02  0.79141448041E+02  0.85324531669E+01  0.83472693427E+02  0.41800000000E+01 0.  1.
         -5    1    3    3    0  502  0.28982889691E+02  0.20186538871E+01 -0.90157824430E+02  0.94815550224E+02  0.41800000000E+01 0.  1.
        -11    1    1    2    0    0  0.20473888657E+02 -0.35654615104E+02 -0.52090238847E+02  0.66361319140E+02  0.00000000000E+00 0.  1.
         11    1    1    2    0    0 -0.74236741884E+02 -0.45505486824E+02 -0.35796641127E+02  0.94144796418E+02  0.00000000000E+00 0. -1.
</event>
<event>
 7    1  0.2679104E-009  0.2359290E+03  0.7561462E-02  0.1122535E+00
         -2   -1    0    0    0  501 -0.00000000000E+00  0.00000000000E+00  0.86816629137E+02  0.86816629137E+02  0.00000000000E+00 0. -1.
          2   -1    0    0  501    0  0.00000000000E+00 -0.00000000000E+00 -0.78272000637E+03  0.78272000637E+03  0.00000000000E+00 0.  1.
         25    2    1    2    0    0 -0.83524104555E+02 -0.21834533077E+03 -0.41869570251E+03  0.49558417991E+03  0.12508648433E+03 0.  0.
          5    1    3    3  502    0 -0.86307772570E+01 -0.17422006056E+02  0.51705782981E+01  0.20548087284E+02  0.41800000000E+01 0.  1.
         -5    1    3    3    0  502 -0.74893327298E+02 -0.20092332471E+03 -0.42386628081E+03  0.47503609262E+03  0.41800000000E+01 0.  1.
        -11    1    1    2    0    0  0.78508237185E+02  0.15301360852E+03 -0.13947156848E+03  0.22142498981E+03  0.00000000000E+00 0.  1.
         11    1    1    2    0    0  0.50158673698E+01  0.65331722252E+02 -0.13773610624E+03  0.15252746579E+03  0.00000000000E+00 0. -1.
</event>
<event>
 7    1  0.2679104E-009  0.1357204E+03  0.7561462E-02  0.1219206E+00
         -2   -1    0    0    0  501 -0.00000000000E+00  0.00000000000E+00  0.19931914519E+02  0.19931914519E+02  0.00000000000E+00 0.  1.
          2   -1    0    0  501    0  0.00000000000E+00 -0.00000000000E+00 -0.97844398692E+03  0.97844398692E+03  0.00000000000E+00 0. -1.
         25    2    1    2    0    0 -0.65317962318E+02  0.59322520472E+02 -0.55993447407E+03  0.58048240174E+03  0.12509039070E+03 0.  0.
          5    1    3    3  502    0 -0.60119217147E+02 -0.26750977496E+02 -0.27246119382E+03  0.28032572056E+03  0.41800000000E+01 0. -1.
         -5    1    3    3    0  502 -0.51987451709E+01  0.86073497967E+02 -0.28747328025E+03  0.30015668118E+03  0.41800000000E+01 0. -1.
        -11    1    1    2    0    0  0.61992917606E+00 -0.54276330943E+02 -0.11764824509E+03  0.12956625327E+03  0.00000000000E+00 0.  1.
         11    1    1    2    0    0  0.64698033142E+02 -0.50461895288E+01 -0.28092935324E+03  0.28832724643E+03  0.00000000000E+00 0. -1.
</event>
<event>
 7    1  0.2679104E-009  0.2097479E+03  0.7561462E-02  0.1141766E+00
         -2   -1    0    0    0  501 -0.00000000000E+00  0.00000000000E+00  0.99694581448E+02  0.99694581448E+02  0.00000000000E+00 0.  1.
          2   -1    0    0  501    0  0.00000000000E+00 -0.00000000000E+00 -0.49384904447E+03  0.49384904447E+03  0.00000000000E+00 0. -1.
         25    2    1    2    0    0  0.10542355805E+03 -0.15938635777E+03 -0.24261857000E+03  0.33321160359E+03  0.12509222448E+03 0.  0.
          5    1    3    3  502    0  0.66452876255E+02 -0.30097440276E+01 -0.81560867751E+02  0.10533133850E+03  0.41800000000E+01 0.  1.
         -5    1    3    3    0  502  0.38970681796E+02 -0.15637661374E+03 -0.16105770225E+03  0.22788026509E+03  0.41800000000E+01 0.  1.
        -11    1    1    2    0    0 -0.57084173437E+02  0.73368272963E+02 -0.18638107506E+02  0.94809732548E+02  0.00000000000E+00 0. -1.
         11    1    1    2    0    0 -0.48339384614E+02  0.86018084807E+02 -0.13289778552E+03  0.16552228978E+03  0.00000000000E+00 0.  1.
</event>
<event>
 7    1  0.2679104E-009  0.1424264E+03  0.7561462E-02  0.1210101E+00
          4   -1    0    0  501    0  0.00000000000E+00  0.00000000000E+00  0.21088754053E+03  0.21088754053E+03  0.00000000000E+00 0. -1.
         -4   -1    0    0    0  501 -0.00000000000E+00 -0.00000000000E+00 -0.13493437672E+03  0.13493437672E+03  0.00000000000E+00 0.  1.
         25    2    1    2    0    0 -0.11181221850E+03  0.47970795235E+01 -0.25232846281E+02  0.16973694436E+03  0.12509576160E+03 0.  0.
          5    1    3    3  502    0 -0.27226643530E+02  0.59616434379E+02  0.29959669807E+00  0.65673217709E+02  0.41800000000E+01 0. -1.
         -5    1    3    3    0  502 -0.84585574969E+02 -0.54819354856E+02 -0.25532442979E+02  0.10406372665E+03  0.41800000000E+01 0. -1.
        -11    1    1    2    0    0  0.99127535597E+01 -0.12678272537E+02  0.66093046000E+02  0.68024201629E+02  0.00000000000E+00 0. -1.
         11    1    1    2    0    0  0.10189946494E+03  0.78811930132E+01  0.35092964089E+02  0.10806077127E+03  0.00000000000E+00 0.  1.
</event>
<event>
 7    1  0.2679104E-009  0.1143352E+03  0.7561462E-02  0.1252746E+00
          1   -1    0    0  501    0  0.00000000000E+00  0.00000000000E+00  0.14008851604E+04  0.14008851604E+04  0.00000000000E+00 0. -1.
         -1   -1    0    0    0  501 -0.00000000000E+00 -0.00000000000E+00 -0.10157725087E+02  0.10157725087E+02  0.00000000000E+00 0.  1.
         25    2    1    2    0    0 -0.36116541254E+02 -0.12210227640E+01  0.96093505304E+03  0.96971623512E+03  0.12508998781E+03 0.  0.
          5    1    3    3  502    0  0.45497856080E+02  0.11960278767E+02  0.37524728995E+03  0.37820775268E+03  0.41800000000E+01 0. -1.
         -5    1    3    3    0  502 -0.81614397334E+02 -0.13181301531E+02  0.58568776309E+03  0.59150848243E+03  0.41800000000E+01 0. -1.
        -11    1    1    2    0    0  0.12856072310E+02 -0.45064382475E+02  0.24338447329E+03  0.24785495557E+03  0.00000000000E+00 0.  1.
         11    1    1    2    0    0  0.23260468945E+02  0.46285405239E+02  0.18640790895E+03  0.19347169476E+03  0.00000000000E+00 0. -1.
</event>
<event>
 7    1  0.2679104E-009  0.9176633E+02  0.7561462E-02  0.1298630E+00
          2   -1    0    0  501    0  0.00000000000E+00  0.00000000000E+00  0.11645656937E+03  0.11645656937E+03  0.00000000000E+00 0. -1.
         -2   -1    0    0    0  501 -0.00000000000E+00 -0.00000000000E+00 -0.14370109692E+03  0.14370109692E+03  0.00000000000E+00 0.  1.
         25    2    1    2    0    0  0.82433302748E+00 -0.61660689003E+02 -0.47019612765E+02  0.14717886258E+03  0.12509218006E+03 0.  0.
          5    1    3    3  502    0 -0.19141108344E+02  0.23629940457E+02  0.20146649608E+02  0.36716699267E+02  0.41800000000E+01 0.  1.
         -5    1    3    3    0  502  0.19965441372E+02 -0.85290629460E+02 -0.67166262373E+02  0.11046216331E+03  0.41800000000E+01 0.  1.
        -11    1    1    2    0    0  0.95112224311E+01  0.19020111822E+02  0.53544335524E+02  0.57612705825E+02  0.00000000000E+00 0. -1.
         11    1    1    2    0    0 -0.10335555459E+02  0.42640577181E+02 -0.33769250301E+02  0.55366097884E+02  0.00000000000E+00 0.  1.
</event>
<event>
 7    1  0.2679104E-009  0.2620882E+03  0.7561462E-02  0.1105895E+00
          1   -1    0    0  501    0  0.00000000000E+00  0.00000000000E+00  0.23090909858E+03  0.23090909858E+03  0.00000000000E+00 0. -1.
         -1   -1    0    0    0  501 -0.00000000000E+00 -0.00000000000E+00 -0.32243468041E+03  0.32243468041E+03  0.00000000000E+00 0.  1.
         25    2    1    2    0    0  0.17195322635E+03  0.17719735062E+03 -0.86540194926E+02  0.29000674593E+03  0.12509154340E+03 0.  0.
          5    1    3    3  502    0  0.12658103710E+02 -0.19506278011E+02 -0.64712555875E+01  0.24496367491E+02  0.41800000000E+01 0.  1.
         -5    1    3    3    0  502  0.15929512264E+03  0.19670362863E+03 -0.80068939338E+02  0.26551037844E+03  0.41800000000E+01 0.  1.
        -11    1    1    2    0    0 -0.55910486849E+02 -0.47454337804E+02  0.40024210835E+02  0.83545401843E+02  0.00000000000E+00 0.  1.
         11    1    1    2    0    0 -0.11604273950E+03 -0.12974301282E+03 -0.45009597738E+02  0.17979163121E+03  0.00000000000E+00 0. -1.
</event>
<event>
 7    1  0.2679104E-009  0.1111063E+03  0.7561462E-02  0.1258535E+00
         -1   -1    0    0    0  501 -0.00000000000E+00  0.00000000000E+00  0.19201836510E+02  0.19201836510E+02  0.00000000000E+00 0.  1.
          1   -1    0    0  501    0  0.00000000000E+00 -0.00000000000E+00 -0.66469405253E+03  0.66469405253E+03  0.00000000000E+00 0. -1.
         25    2    1    2    0    0  0.16617513561E+02  0.28360403764E+02 -0.32877385447E+03  0.35329912191E+03  0.12509023904E+03 0.  0.
          5    1    3    3  502    0  0.37773895293E+02  0.71517502275E+02 -0.19913709376E+03  0.21497598659E+03  0.41800000000E+01 0. -1.
         -5    1    3    3    0  502 -0.21156381732E+02 -0.43157098511E+02 -0.12963676070E+03  0.13832313532E+03  0.41800000000E+01 0. -1.
        -11    1    1    2    0    0 -0.51348005836E+02 -0.60571096885E+01 -0.20734620667E+03  0.21369547422E+03  0.00000000000E+00 0. -1.
         11    1    1    2    0    0  0.34730492274E+02 -0.22303294076E+02 -0.10937215489E+03  0.11690129291E+03  0.00000000000E+00 0.  1.
</event>
<event>
 7    1  0.2679104E-009  0.1500578E+03  0.7561462E-02  0.1200402E+00
         -4   -1    0    0    0  501 -0.00000000000E+00  0.00000000000E+00  0.48223446187E+02  0.48223446187E+02  0.00000000000E+00 0.  1.
          4   -1    0    0  501    0  0.00000000000E+00 -0.00000000000E+00 -0.65658678066E+03  0.65658678066E+03  0.00000000000E+00 0. -1.
         25    2    1    2    0    0 -0.90175948391E+02 -0.10520017773E+03 -0.27572949034E+03  0.33297542462E+03  0.12508837874E+03 0.  0.
          5    1    3    3  502    0  0.68568407413E+01  0.57342777406E+01 -0.11282143620E+03  0.11325213937E+03  0.41800000000E+01 0. -1.
         -5    1    3    3    0  502 -0.97032789132E+02 -0.11093445547E+03 -0.16290805414E+03  0.21972328525E+03  0.41800000000E+01 0. -1.
        -11    1    1    2    0    0  0.69261016954E+02  0.55066425873E+02 -0.10265020821E+03  0.13552293154E+03  0.00000000000E+00 0.  1.
         11    1    1    2    0    0  0.20914931437E+02  0.50133751859E+02 -0.22998363593E+03  0.23631187068E+03  0.00000000000E+00 0. -1.
</event>
<event>
 7    1  0.2782811E-009  0.9656237E+02  0.7561462E-02  0.1287696E+00
         -2   -1    0    0    0  501 -0.00000000000E+00  0.00000000000E+00  0.70030187555E+02  0.70030187555E+02  0.00000000000E+00 0.  1.
          2   -1    0    0  501    0  0.00000000000E+00 -0.00000000000E+00 -0.36840130894E+03  0.36840130894E+03  0.00000000000E+00 0. -1.
         25    2    1    2    0    0  0.10692494221E+02  0.74371320180E+02 -0.28385560487E+03  0.31916479723E+03  0.12508693247E+03 0.  0.
          5    1    3    3  502    0 -0.27089437538E+02  0.55895589368E+02 -0.26616260191E+03  0.27334622294E+03  0.41800000000E+01 0. -1.
         -5    1    3    3    0  502  0.37781931759E+02  0.18475730813E+02 -0.17693002960E+02  0.45818574293E+02  0.41800000000E+01 0. -1.
        -11    1    1    2    0    0 -0.14256753896E+02 -0.10840731923E+00 -0.38572544299E+02  0.41123083025E+02  0.00000000000E+00 0. -1.
         11    1    1    2    0    0  0.35642596750E+01 -0.74262912861E+02  0.24057027785E+02  0.78143616243E+02  0.00000000000E+00 0.  1.
</event>
<event>
 7    1  0.2679104E-009  0.2238186E+03  0.7561462E-02  0.1131068E+00
         -2   -1    0    0    0  501 -0.00000000000E+00  0.00000000000E+00  0.22881942276E+03  0.22881942276E+03  0.00000000000E+00 0.  1.
          2   -1    0    0  501    0  0.00000000000E+00 -0.00000000000E+00 -0.24616091657E+03  0.24616091657E+03  0.00000000000E+00 0. -1.
         25    2    1    2    0    0 -0.95249002784E+02  0.17912877966E+03 -0.86305643529E+02  0.25348606009E+03  0.12508807426E+03 0.  0.
          5    1    3    3  502    0 -0.39141033834E+01  0.13614614233E+03 -0.37780775424E+02  0.14140704250E+03  0.41800000000E+01 0.  1.
         -5    1    3    3    0  502 -0.91334899401E+02  0.42982637333E+02 -0.48524868106E+02  0.11207901760E+03  0.41800000000E+01 0.  1.
        -11    1    1    2    0    0  0.40037192410E+02 -0.13138189964E+03  0.48910619415E+02  0.14579584706E+03  0.00000000000E+00 0.  1.
         11    1    1    2    0    0  0.55211810374E+02 -0.47746880023E+02  0.20053530297E+02  0.75698432177E+02  0.00000000000E+00 0. -1.
</event>
<event>
 7    1  0.2679104E-009  0.1243695E+03  0.7561462E-02  0.1236058E+00
         -1   -1    0    0    0  501 -0.00000000000E+00  0.00000000000E+00  0.40677018229E+02  0.40677018229E+02  0.00000000000E+00 0.  1.
          1   -1    0    0  501    0  0.00000000000E+00 -0.00000000000E+00 -0.38769213816E+03  0.38769213816E+03  0.00000000000E+00 0. -1.
         25    2    1    2    0    0 -0.60532396963E+02  0.14589065326E+01 -0.21561624653E+03  0.25652523422E+03  0.12509408673E+03 0.  0.
          5    1    3    3  502    0 -0.94574674077E+01  0.59602218967E+02 -0.79599647516E+02  0.99977219806E+02  0.41800000000E+01 0.  1.
         -5    1    3    3    0  502 -0.51074929555E+02 -0.58143312434E+02 -0.13601659902E+03  0.15654801442E+03  0.41800000000E+01 0.  1.
        -11    1    1    2    0    0 -0.22411727910E+02  0.13923675672E+02 -0.30790683504E+02  0.40548988678E+02  0.00000000000E+00 0.  1.
         11    1    1    2    0    0  0.82944124873E+02 -0.15382582204E+02 -0.10060818990E+03  0.13129493349E+03  0.00000000000E+00 0. -1.
</event>
<event>
 7    1  0.2679104E-009  0.1599033E+03  0.7561462E-02  0.1188806E+00
         -1   -1    0    0    0  501 -0.00000000000E+00  0.00000000000E+00  0.17728439185E+03  0.17728439185E+03  0.00000000000E+00 0. -1.
          1   -1    0    0  501    0  0.00000000000E+00 -0.00000000000E+00 -0.18734481658E+03  0.18734481658E+03  0.00000000000E+00 0.  1.
         25    2    1    2    0    0 -0.60540006772E+02  0.11179655491E+03  0.67476076130E+02  0.19069512908E+03  0.12509216320E+03 0.  0.
          5    1    3    3  502    0 -0.84859179372E+02  0.41611928701E+02  0.67641123118E+02  0.11629886874E+03  0.41800000000E+01 0. -1.
         -5    1    3    3    0  502  0.24319172600E+02  0.70184626206E+02 -0.16504698800E+00  0.74396260337E+02  0.41800000000E+01 0. -1.
        -11    1    1    2    0    0  0.13889526166E+02 -0.10224891453E+03 -0.72371551880E+02  0.12603729996E+03  0.00000000000E+00 0.  1.
         11    1    1    2    0    0  0.46650480606E+02 -0.95476403728E+01 -0.51649489832E+01  0.47896779385E+02  0.00000000000E+00 0. -1.
</event>
<event>
 7    1  0.2679104E-009  0.2353458E+03  0.7561462E-02  0.1122933E+00
         -1   -1    0    0    0  501 -0.00000000000E+00  0.00000000000E+00  0.28016028968E+02  0.28016028968E+02  0.00000000000E+00 0.  1.
          1   -1    0    0  501    0  0.00000000000E+00 -0.00000000000E+00 -0.23620517896E+04  0.23620517896E+04  0.00000000000E+00 0. -1.
         25    2    1    2    0    0 -0.20019295690E+03  0.11700760847E+03 -0.12502200158E+04  0.12776799888E+04  0.12509222799E+03 0.  0.
          5    1    3    3  502    0 -0.17340004237E+03  0.11733411328E+03 -0.12165747556E+04  0.12344660696E+04  0.41800000000E+01 0.  1.
         -5    1    3    3    0  502 -0.26792914526E+02 -0.32650481093E+00 -0.33645260231E+02  0.43213919172E+02  0.41800000000E+01 0.  1.
        -11    1    1    2    0    0  0.74922921004E+02 -0.62413401643E+02 -0.26762211997E+03  0.28483411996E+03  0.00000000000E+00 0.  1.
         11    1    1    2    0    0  0.12527003590E+03 -0.54594206823E+02 -0.81619362488E+03  0.82755370980E+03  0.00000000000E+00 0. -1.
</event>
<event>
 7    1  0.2679104E-009  0.1017975E+03  0.7561462E-02  0.1276561E+00
          3   -1    0    0  501    0  0.00000000000E+00  0.00000000000E+00  0.68502764711E+03  0.68502764711E+03  0.00000000000E+00 0. -1.
         -3   -1    0    0    0  501 -0.00000000000E+00 -0.00000000000E+00 -0.19906396283E+02  0.19906396283E+02  0.00000000000E+00 0.  1.
         25    2    1    2    0    0 -0.36015125194E+02 -0.20113730340E+02  0.46370416767E+03  0.48205163470E+03  0.12510224625E+03 0.  0.
          5    1    3    3  502    0  0.44748555253E+02 -0.63016304352E+01  0.22811606479E+03  0.23258666161E+03  0.41800000000E+01 0. -1.
         -5    1    3    3    0  502 -0.80763680447E+02 -0.13812099905E+02  0.23558810288E+03  0.24946497309E+03  0.41800000000E+01 0. -1.
        -11    1    1    2    0    0 -0.16537318497E+02  0.16705423105E+02  0.12220697917E+02  0.26493386378E+02  0.00000000000E+00 0.  1.
         11    1    1    2    0    0  0.52552443691E+02  0.34083072350E+01  0.18919638524E+03  0.19638902231E+03  0.00000000000E+00 0. -1.
</event>
<event>
 7    1  0.2679104E-009  0.1015307E+03  0.7561462E-02  0.1277110E+00
         -1   -1    0    0    0  501 -0.00000000000E+00  0.00000000000E+00  0.19734392343E+03  0.19734392343E+03  0.00000000000E+00 0.  1.
          1   -1    0    0  501    0  0.00000000000E+00 -0.00000000000E+00 -0.77315117692E+02  0.77315117692E+02  0.00000000000E+00 0. -1.
         25    2    1    2    0    0 -0.19325802773E+02  0.41041156404E+02  0.10757618920E+03  0.17110535384E+03  0.12508614015E+03 0.  0.
          5    1    3    3  502    0 -0.44303535766E+02 -0.13340910525E+02 -0.16534054381E+01  0.46486442373E+02  0.41800000000E+01 0.  1.
         -5    1    3    3    0  502  0.24977732993E+02  0.54382066929E+02  0.10922959464E+03  0.12461891146E+03  0.41800000000E+01 0.  1.
        -11    1    1    2    0    0  0.41477994263E+02 -0.56144099282E+02 -0.73968839501E+01  0.70194713365E+02  0.00000000000E+00 0. -1.
         11    1    1    2    0    0 -0.22152191491E+02  0.15102942878E+02  0.19849500481E+02  0.33358973916E+02  0.00000000000E+00 0.  1.
</event>
<event>
 7    1  0.2679104E-009  0.2148022E+03  0.7561462E-02  0.1137819E+00
         -2   -1    0    0    0  501 -0.00000000000E+00  0.00000000000E+00  0.57764005511E+02  0.57764005511E+02  0.00000000000E+00 0. -1.
          2   -1    0    0  501    0  0.00000000000E+00 -0.00000000000E+00 -0.88288911159E+03  0.88288911159E+03  0.00000000000E+00 0.  1.
         25    2    1    2    0    0 -0.66899266641E+02  0.18024569559E+03 -0.33519230041E+03  0.40616299378E+03  0.12510186492E+03 0.  0.
          5    1    3    3  502    0  0.56920596799E+01  0.15018779072E+03 -0.20930430160E+03  0.25771017654E+03  0.41800000000E+01 0.  1.
         -5    1    3    3    0  502 -0.72591326321E+02  0.30057904872E+02 -0.12588799881E+03  0.14845281724E+03  0.41800000000E+01 0.  1.
        -11    1    1    2    0    0  0.41103897267E+02 -0.37909667321E+02 -0.65703132146E+02  0.86276154415E+02  0.00000000000E+00 0. -1.
         11    1    1    2    0    0  0.25795369374E+02 -0.14233602827E+03 -0.42422967352E+03  0.44821396890E+03  0.00000000000E+00 0.  1.
</event>
<event>
 7    1  0.2679104E-009  0.9806729E+02  0.7561462E-02  0.1284413E+00
          1   -1    0    0  501    0  0.00000000000E+00  0.00000000000E+00  0.53139947053E+03  0.53139947053E+03  0.00000000000E+00 0. -1.
         -1   -1    0    0    0  501 -0.00000000000E+00 -0.00000000000E+00 -0.34870875264E+02  0.34870875264E+02  0.00000000000E+00 0.  1.
         25    2    1    2    0    0  0.83419937847E+01 -0.65142614095E+02  0.37624225794E+03  0.40189487761E+03  0.12509239368E+03 0.  0.
          5    1    3    3  502    0 -0.58162310757E+01 -0.75224281801E+02  0.10133590608E+03  0.12640790868E+03  0.41800000000E+01 0. -1.
         -5    1    3    3    0  502  0.14158224860E+02  0.10081667707E+02  0.27490635186E+03  0.27548696893E+03  0.41800000000E+01 0. -1.
        -11    1    1    2    0    0  0.10151443816E+01  0.82748986693E+02  0.63859853315E+02  0.10452992960E+03  0.00000000000E+00 0.  1.
         11    1    1    2    0    0 -0.93571381663E+01 -0.17606372598E+02  0.56426484013E+02  0.59845538588E+02  0.00000000000E+00 0. -1.
</event>
<event>
 7    1  0.2679104E-009  0.1464186E+03  0.7561462E-02  0.1204944E+00
         -1   -1    0    0    0  501 -0.00000000000E+00  0.00000000000E+00  0.26717897183E+02  0.26717897183E+02  0.00000000000E+00 0.  1.
          1   -1    0    0  501    0  0.00000000000E+00 -0.00000000000E+00 -0.89782064860E+03  0.89782064860E+03  0.00000000000E+00 0. -1.
         25    2    1    2    0    0 -0.95837950642E+02  0.45981514489E+02 -0.37478777853E+03  0.40916180828E+03  0.12509314116E+03 0.  0.
          5    1    3    3  502    0 -0.12004919909E+03  0.15667485007E+02 -0.31770718136E+03  0.34001853740E+03  0.41800000000E+01 0.  1.
         -5    1    3    3    0  502  0.24211248453E+02  0.30314029482E+02 -0.57080597163E+02  0.69143270877E+02  0.41800000000E+01 0.  1.
        -11    1    1    2    0    0  0.63888054843E+02  0.13370579711E+02 -0.32059467062E+03  0.32717181844E+03  0.00000000000E+00 0. -1.
         11    1    1    2    0    0  0.31949895799E+02 -0.59352094200E+02 -0.17572030228E+03  0.18820491906E+03  0.00000000000E+00 0.  1.
</event>
<event>
 7    1  0.2679104E-009  0.1870382E+03  0.7561462E-02  0.1161160E+00
          2   -1    0    0  501    0  0.00000000000E+00  0.00000000000E+00  0.13258345071E+04  0.13258345071E+04  0.00000000000E+00 0. -1.
         -2   -1    0    0    0  501 -0.00000000000E+00 -0.00000000000E+00 -0.41603809710E+02  0.41603809710E+02  0.00000000000E+00 0.  1.
         25    2    1    2    0    0 -0.13910452712E+03  0.10553929904E+03  0.99157869812E+03  0.10145760761E+04  0.12509071348E+03 0.  0.
          5    1    3    3  502    0 -0.56218834427E+02  0.26013596841E+02  0.67369075319E+03  0.67654561405E+03  0.41800000000E+01 0. -1.
         -5    1    3    3    0  502 -0.82885692695E+02  0.79525702201E+02  0.31788794493E+03  0.33803046209E+03  0.41800000000E+01 0. -1.
        -11    1    1    2    0    0  0.13430416229E+03 -0.53150686108E+02  0.20950224259E+03  0.25446766610E+03  0.00000000000E+00 0.  1.
         11    1    1    2    0    0  0.48003648344E+01 -0.52388612935E+02  0.83149756660E+02  0.98394574547E+02  0.00000000000E+00 0. -1.
</event>
<event>
 7    1  0.2679104E-009  0.1076675E+03  0.7561462E-02  0.1264951E+00
          1   -1    0    0  501    0  0.00000000000E+00  0.00000000000E+00  0.23511996461E+03  0.23511996461E+03  0.00000000000E+00 0. -1.
         -1   -1    0    0    0  501 -0.00000000000E+00 -0.00000000000E+00 -0.73217685482E+02  0.73217685482E+02  0.00000000000E+00 0.  1.
         25    2    1    2    0    0  0.72261033149E+02  0.18489566438E+02  0.37524861058E+02  0.15039280583E+03  0.12508541029E+03 0.  0.
          5    1    3    3  502    0 -0.10614816182E+02 -0.35739056831E+02  0.34884294542E+02  0.51228321380E+02  0.41800000000E+01 0. -1.
         -5    1    3    3    0  502  0.82875849331E+02  0.54228623268E+02  0.26405665161E+01  0.99164484446E+02  0.41800000000E+01 0. -1.
        -11    1    1    2    0    0 -0.30797953974E+02  0.47438758150E+01  0.79050616028E+01  0.32148224301E+02  0.00000000000E+00 0.  1.
         11    1    1    2    0    0 -0.41463079175E+02 -0.23233442253E+02  0.11647235647E+03  0.12579661997E+03  0.00000000000E+00 0. -1.
</event>
<event>
 7    1  0.2679104E-009  0.1763672E+03  0.7561462E-02  0.1171366E+00
          1   -1    0    0  501    0  0.00000000000E+00  0.00000000000E+00  0.81699153850E+02  0.81699153850E+02  0.00000000000E+00 0.  1.
         -1   -1    0    0    0  501 -0.00000000000E+00 -0.00000000000E+00 -0.43427434424E+03  0.43427434424E+03  0.00000000000E+00 0. -1.
         25    2    1    2    0    0 -0.10589459014E+03  0.91680556687E+02 -0.27002098137E+03  0.32890418436E+03  0.12509054087E+03 0.  0.
          5    1    3    3  502    0 -0.79495753741E+02 -0.98139307747E+01 -0.14466158482E+03  0.16540959652E+03  0.41800000000E+01 0.  1.
         -5    1    3    3    0  502 -0.26398836398E+02  0.10149448746E+03 -0.12535939655E+03  0.16349458784E+03  0.41800000000E+01 0.  1.
        -11    1    1    2    0    0  0.11158934368E+03 -0.44639438662E+02 -0.64156782923E+02  0.13623859182E+03  0.00000000000E+00 0.  1.
         11    1    1    2    0    0 -0.56947535387E+01 -0.47041118025E+02 -0.18397426105E+02  0.50830721913E+02  0.00000000000E+00 0. -1.
</event>
<event>
 7    1  0.2679104E-009  0.7518644E+02  0.7561462E-02  0.1343295E+00
          1   -1    0    0  501    0  0.00000000000E+00  0.00000000000E+00  0.17875337276E+03  0.17875337276E+03  0.00000000000E+00 0. -1.
         -1   -1    0    0    0  501 -0.00000000000E+00 -0.00000000000E+00 -0.83604402824E+02  0.83604402824E+02  0.00000000000E+00 0.  1.
         25    2    1    2    0    0  0.40948654142E+02 -0.36265800915E+02  0.54631346910E+02  0.14705089833E+03  0.12508949613E+03 0.  0.
          5    1    3    3  502    0  0.58289016675E+01  0.92068161445E+01 -0.37010149246E+02  0.38806766232E+02  0.41800000000E+01 0. -1.
         -5    1    3    3    0  502  0.35119752474E+02 -0.45472617059E+02  0.91641496156E+02  0.10824413210E+03  0.41800000000E+01 0. -1.
        -11    1    1    2    0    0  0.14139388585E+02  0.18351117311E+02 -0.20670524946E+02  0.31047647538E+02  0.00000000000E+00 0.  1.
         11    1    1    2    0    0 -0.55088042727E+02  0.17914683603E+02  0.61188147977E+02  0.84259229719E+02  0.00000000000E+00 0. -1.
</event>
<event>
 7    1  0.2679104E-009  0.1592087E+03  0.7561462E-02  0.1189593E+00
         -2   -1    0    0    0  501 -0.00000000000E+00  0.00000000000E+00  0.14820440048E+03  0.14820440048E+03  0.00000000000E+00 0.  1.
          2   -1    0    0  501    0  0.00000000000E+00 -0.00000000000E+00 -0.21743707063E+03  0.21743707063E+03  0.00000000000E+00 0. -1.
         25    2    1    2    0    0 -0.59162122155E+01  0.13842063928E+03 -0.50593614566E+01  0.18672884366E+03  0.12508712552E+03 0.  0.
          5    1    3    3  502    0  0.11259669415E+02 -0.12376136379E+01 -0.39918414911E+02  0.41704485273E+02  0.41800000000E+01 0. -1.
         -5    1    3    3    0  502 -0.17175881630E+02  0.13965825292E+03  0.34859053454E+02  0.14502435838E+03  0.41800000000E+01 0. -1.
        -11    1    1    2    0    0  0.48340703151E+02 -0.70185857606E+02 -0.21310788681E+02  0.87846615775E+02  0.00000000000E+00 0.  1.
         11    1    1    2    0    0 -0.42424490935E+02 -0.68234781672E+02 -0.42862520013E+02  0.91066011677E+02  0.00000000000E+00 0. -1.
</event>
<event>
 7    1  0.2679104E-009  0.1033465E+03  0.7561462E-02  0.1273412E+00
          2   -1    0    0  501    0  0.00000000000E+00  0.00000000000E+00  0.55547708741E+03  0.55547708741E+03  0.00000000000E+00 0. -1.
         -2   -1    0    0    0  501 -0.00000000000E+00 -0.00000000000E+00 -0.22438299177E+02  0.22438299177E+02  0.00000000000E+00 0.  1.
         25    2    1    2    0    0  0.14180709924E+01 -0.17630714886E+02  0.37244493845E+03  0.39328669744E+03  0.12508533557E+03 0.  0.
          5    1    3    3  502    0 -0.47609738614E+02 -0.41523557813E+02  0.26809405256E+03  0.27546830395E+03  0.41800000000E+01 0.  1.
         -5    1    3    3    0  502  0.49027809606E+02  0.23892842927E+02  0.10435088589E+03  0.11781839348E+03  0.41800000000E+01 0.  1.
        -11    1    1    2    0    0 -0.29893347166E+02  0.41760748743E+02  0.11317559419E+03  0.12428309403E+03  0.00000000000E+00 0.  1.
         11    1    1    2    0    0  0.28475276173E+02 -0.24130033857E+02  0.47418255595E+02  0.60345595123E+02  0.00000000000E+00 0. -1.
</event>
<event>
 7    1  0.2679104E-009  0.9770863E+02  0.7561462E-02  0.1285190E+00
         -2   -1    0    0    0  501 -0.00000000000E+00  0.00000000000E+00  0.44318953337E+02  0.44318953337E+02  0.00000000000E+00 0.  1.
          2   -1    0    0  501    0  0.00000000000E+00 -0.00000000000E+00 -0.26625132228E+03  0.26625132228E+03  0.00000000000E+00 0. -1.
         25    2    1    2    0    0 -0.18898734763E+00 -0.28155469300E+01 -0.87822343135E+02  0.15287261363E+03  0.12509719830E+03 0.  0.
          5    1    3    3  502    0 -0.53290799025E+02  0.18164216452E+02 -0.11751347704E+02  0.57666407837E+02  0.41800000000E+01 0.  1.
         -5    1    3    3    0  502  0.53101811677E+02 -0.20979763382E+02 -0.76070995431E+02  0.95206205789E+02  0.41800000000E+01 0.  1.
        -11    1    1    2    0    0  0.40325995965E+02 -0.55688927594E+01 -0.80467275413E+02  0.90178605719E+02  0.00000000000E+00 0.  1.
         11    1    1    2    0    0 -0.40137008617E+02  0.83844396894E+01 -0.53642750394E+02  0.67519056269E+02  0.00000000000E+00 0. -1.
</event>
<event>
 7    1  0.2679104E-009  0.1860270E+03  0.7561462E-02  0.1162094E+00
          1   -1    0    0  501    0  0.00000000000E+00  0.00000000000E+00  0.86814401105E+03  0.86814401105E+03  0.00000000000E+00 0. -1.
         -1   -1    0    0    0  501 -0.00000000000E+00 -0.00000000000E+00 -0.51118407784E+02  0.51118407784E+02  0.00000000000E+00 0.  1.
         25    2    1    2    0    0 -0.15612170230E+03 -0.76484604781E+02  0.32781767741E+03  0.39157638114E+03  0.12507498531E+03 0.  0.
          5    1    3    3  502    0 -0.10016546244E+03 -0.88930550263E+02  0.13438643126E+03  0.18978658525E+03  0.41800000000E+01 0.  1.
         -5    1    3    3    0  502 -0.55956239857E+02  0.12445945482E+02  0.19343124615E+03  0.20178979589E+03  0.41800000000E+01 0.  1.
        -11    1    1    2    0    0  0.75117280051E+02  0.63839970945E+02  0.37069237234E+03  0.38357656675E+03  0.00000000000E+00 0. -1.
         11    1    1    2    0    0  0.81004422245E+02  0.12644633836E+02  0.11851555352E+03  0.14410947094E+03  0.00000000000E+00 0.  1.
</event>
<event>
 7    1  0.2679104E-009  0.2188775E+03  0.7561462E-02  0.1134723E+00
          2   -1    0    0  501    0  0.00000000000E+00  0.00000000000E+00  0.84700729176E+03  0.84700729176E+03  0.00000000000E+00 0. -1.
         -2   -1    0    0    0  501 -0.00000000000E+00 -0.00000000000E+00 -0.84719696314E+02  0.84719696314E+02  0.00000000000E+00 0.  1.
         25    2    1    2    0    0  0.15835006766E+03 -0.13449301062E+03  0.16648021582E+03  0.29415457041E+03  0.12509250656E+03 0.  0.
          5    1    3    3  502    0  0.12065998837E+03 -0.13089370895E+03  0.71624484667E+02  0.19193627859E+03  0.41800000000E+01 0.  1.
         -5    1    3    3    0  502  0.37690079291E+02 -0.35993016746E+01  0.94855731149E+02  0.10221829181E+03  0.41800000000E+01 0.  1.
        -11    1    1    2    0    0 -0.15200370005E+02  0.56633948157E+02  0.22545121967E+03  0.23295215771E+03  0.00000000000E+00 0. -1.
         11    1    1    2    0    0 -0.14314969766E+03  0.77859062463E+02  0.37035615996E+03  0.40462025996E+03  0.00000000000E+00 0.  1.
</event>
<event>
 7    1  0.2679104E-009  0.7743557E+02  0.7561462E-02  0.1336491E+00
         -1   -1    0    0    0  501 -0.00000000000E+00  0.00000000000E+00  0.37146974064E+02  0.37146974064E+02  0.00000000000E+00 0. -1.
          1   -1    0    0  501    0  0.00000000000E+00 -0.00000000000E+00 -0.24693971024E+03  0.24693971024E+03  0.00000000000E+00 0.  1.
         25    2    1    2    0    0  0.13214129404E+02  0.17206518943E+01 -0.12517135015E+03  0.17746454231E+03  0.12509285759E+03 0.  0.
          5    1    3    3  502    0 -0.27869159559E+02 -0.37415411713E+02 -0.84246312309E+01  0.47592540377E+02  0.41800000000E+01 0. -1.
         -5    1    3    3    0  502  0.41083288963E+02  0.39136063608E+02 -0.11674671892E+03  0.12987200193E+03  0.41800000000E+01 0. -1.
        -11    1    1    2    0    0 -0.30708742375E+02  0.71365672744E+01 -0.80679803053E+02  0.86620944762E+02  0.00000000000E+00 0.  1.
         11    1    1    2    0    0  0.17494612971E+02 -0.88572191687E+01 -0.39415829680E+01  0.20001197231E+02  0.00000000000E+00 0. -1.
</event>
<event>
 7    1  0.2679104E-009  0.9767520E+02  0.7561462E-02  0.1285262E+00
          1   -1    0    0  501    0  0.00000000000E+00  0.00000000000E+00  0.72573073948E+02  0.72573073948E+02  0.00000000000E+00 0. -1.
         -1   -1    0    0    0  501 -0.00000000000E+00 -0.00000000000E+00 -0.30290099980E+03  0.30290099980E+03  0.00000000000E+00 0.  1.
         25    2    1    2    0    0 -0.56709381965E+02  0.52779339248E+02 -0.20524904894E+03  0.25253999142E+03  0.12509061724E+03 0.  0.
          5    1    3    3  502    0  0.14493223668E+02 -0.13127705140E+02  0.52886597699E+01  0.20684112180E+02  0.41800000000E+01 0. -1.
         -5    1    3    3    0  502 -0.71202605633E+02  0.65907044388E+02 -0.21053770871E+03  0.23185587924E+03  0.41800000000E+01 0. -1.
        -11    1    1    2    0    0  0.29182909489E+02 -0.34547676949E+02  0.33097764332E+02  0.56041468509E+02  0.00000000000E+00 0. -1.
         11    1    1    2    0    0  0.27526472476E+02 -0.18231662298E+02 -0.58176641249E+02  0.66892613824E+02  0.00000000000E+00 0.  1.
</event>
<event>
 7    1  0.2679104E-009  0.6098531E+02  0.7561462E-02  0.1393743E+00
          1   -1    0    0  501    0  0.00000000000E+00  0.00000000000E+00  0.17904417296E+03  0.17904417296E+03  0.00000000000E+00 0. -1.
         -1   -1    0    0    0  501 -0.00000000000E+00 -0.00000000000E+00 -0.74589914652E+02  0.74589914652E+02  0.00000000000E+00 0.  1.
         25    2    1    2    0    0 -0.28984480359E+02  0.80887286352E+01  0.33330435776E+02  0.13290739723E+03  0.12509168900E+03 0.  0.
          5    1    3    3  502    0 -0.33454597092E+02  0.89019296888E+01 -0.43544049637E+02  0.55785402011E+02  0.41800000000E+01 0.  1.
         -5    1    3    3    0  502  0.44701167326E+01 -0.81320105361E+00  0.76874485413E+02  0.77121995222E+02  0.41800000000E+01 0.  1.
        -11    1    1    2    0    0  0.49162452954E+02  0.13893215759E+02  0.90909383767E+01  0.51890397813E+02  0.00000000000E+00 0.  1.
         11    1    1    2    0    0 -0.20177972595E+02 -0.21981944394E+02  0.62032884153E+02  0.68836292563E+02  0.00000000000E+00 0. -1.
</event>
<event>
 7    1  0.2679104E-009  0.8732165E+02  0.7561462E-02  0.1309470E+00
         -1   -1    0    0    0  501 -0.00000000000E+00  0.00000000000E+00  0.80415426883E+02  0.80415426883E+02  0.00000000000E+00 0.  1.
          1   -1    0    0  501    0  0.00000000000E+00 -0.00000000000E+00 -0.18611067920E+03  0.18611067920E+03  0.00000000000E+00 0. -1.
         25    2    1    2    0    0 -0.57361210881E+02  0.29577910202E+02 -0.47523360843E+02  0.14857158152E+03  0.12509949529E+03 0.  0.
          5    1    3    3  502    0 -0.27894936464E+02  0.60419361063E+02 -0.72874046242E+02  0.98776139261E+02  0.41800000000E+01 0.  1.
         -5    1    3    3    0  502 -0.29466274417E+02 -0.30841450861E+02  0.25350685399E+02  0.49795442255E+02  0.41800000000E+01 0.  1.
        -11    1    1    2    0    0  0.19129505463E+02 -0.54289771638E+01  0.19645269079E+02  0.27952609350E+02  0.00000000000E+00 0.  1.
         11    1    1    2    0    0  0.38231705418E+02 -0.24148933039E+02 -0.77817160556E+02  0.90001915219E+02  0.00000000000E+00 0. -1.
</event>
<event>
 7    1  0.2679104E-009  0.1689943E+03  0.7561462E-02  0.1178901E+00
          2   -1    0    0  501    0  0.00000000000E+00  0.00000000000E+00  0.35232629747E+03  0.35232629747E+03  0.00000000000E+00 0. -1.
         -2   -1    0    0    0  501 -0.00000000000E+00 -0.00000000000E+00 -0.11728791157E+03  0.11728791157E+03  0.00000000000E+00 0.  1.
         25    2    1    2    0    0 -0.55089659561E+02  0.15385937111E+03  0.18367413069E+03  0.27585135057E+03  0.12510077800E+03 0.  0.
          5    1    3    3  502    0  0.53841083672E+00  0.78258071699E+02  0.10822786605E+02  0.79115237358E+02  0.41800000000E+01 0. -1.
         -5    1    3    3    0  502 -0.55628070398E+02  0.75601299414E+02  0.17285134409E+03  0.19673611321E+03  0.41800000000E+01 0. -1.
        -11    1    1    2    0    0  0.16924260478E+02 -0.18716803829E+02 -0.23624358863E+02  0.34566742253E+02  0.00000000000E+00 0.  1.
         11    1    1    2    0    0  0.38165399083E+02 -0.13514256728E+03  0.74988614065E+02  0.15919611622E+03  0.00000000000E+00 0. -1.
</event>
<event>
 7    1  0.2679104E-009  0.1361789E+03  0.7561462E-02  0.1218565E+00
          2   -1    0    0  501    0  0.00000000000E+00  0.00000000000E+00  0.51695774959E+03  0.51695774959E+03  0.00000000000E+00 0. -1.
         -2   -1    0    0    0  501 -0.00000000000E+00 -0.00000000000E+00 -0.73154505967E+02  0.73154505967E+02  0.00000000000E+00 0.  1.
         25    2    1    2    0    0 -0.36058776594E+02 -0.97229445103E+02  0.42041559088E+03  0.45072437177E+03  0.12509752151E+03 0.  0.
          5    1    3    3  502    0  0.33258150038E+01 -0.10738677725E+03  0.20523347533E+03  0.23169210770E+03  0.41800000000E+01 0. -1.
         -5    1    3    3    0  502 -0.39384591598E+02  0.10157332149E+02  0.21518211555E+03  0.21903226407E+03  0.41800000000E+01 0. -1.
        -11    1    1    2    0    0  0.90726338264E+01  0.96530030106E+02 -0.88286349075E+01  0.97356582680E+02  0.00000000000E+00 0.  1.
         11    1    1    2    0    0  0.26986142768E+02  0.69941499694E+00  0.32216287655E+02  0.42031301111E+02  0.00000000000E+00 0. -1.
</event>
<event>
 7    1  0.2679104E-009  0.1019976E+03  0.7561462E-02  0.1276150E+00
         -1   -1    0    0    0  501 -0.00000000000E+00  0.00000000000E+00  0.35951673526E+03  0.35951673526E+03  0.00000000000E+00 0.  1.
          1   -1    0    0  501    0  0.00000000000E+00 -0.00000000000E+00 -0.54321897891E+02  0.54321897891E+02  0.00000000000E+00 0. -1.
         25    2    1    2    0    0  0.81083767590E+02 -0.31626753395E+02  0.15353932722E+03  0.21632660255E+03  0.12509214631E+03 0.  0.
          5    1    3    3  502    0 -0.14250681638E+02 -0.12934210126E+02  0.10650255794E+03  0.10830809280E+03  0.41800000000E+01 0. -1.
         -5    1    3    3    0  502  0.95334449229E+02 -0.18692543269E+02  0.47036769284E+02  0.10801850975E+03  0.41800000000E+01 0. -1.
        -11    1    1    2    0    0 -0.19899186592E+02  0.67421635897E+01 -0.97143294399E+01  0.23147410079E+02  0.00000000000E+00 0. -1.
         11    1    1    2    0    0 -0.61184580998E+02  0.24884589805E+02  0.16136983959E+03  0.17436462053E+03  0.00000000000E+00 0.  1.
</event>
<event>
 7    1  0.2679104E-009  0.1050372E+03  0.7561462E-02  0.1270046E+00
         -2   -1    0    0    0  501 -0.00000000000E+00  0.00000000000E+00  0.38171990740E+02  0.38171990740E+02  0.00000000000E+00 0.  1.
          2   -1    0    0  501    0  0.00000000000E+00 -0.00000000000E+00 -0.37005657407E+03  0.37005657407E+03  0.00000000000E+00 0. -1.
         25    2    1    2    0    0 -0.56436455649E+00  0.41474967092E+02 -0.23502035558E+03  0.26944830006E+03  0.12508927798E+03 0.  0.
          5    1    3    3  502    0 -0.36829034449E+02  0.73962151659E+02 -0.15464454209E+03  0.17538296512E+03  0.41800000000E+01 0.  1.
         -5    1    3    3    0  502  0.36264669892E+02 -0.32487184566E+02 -0.80375813491E+02  0.94065334942E+02  0.41800000000E+01 0.  1.
        -11    1    1    2    0    0  0.17466215064E+01 -0.59944383544E+02 -0.25692701038E+02  0.65241817048E+02  0.00000000000E+00 0.  1.
         11    1    1    2    0    0 -0.11822569500E+01  0.18469416452E+02 -0.71171526717E+02  0.73538447704E+02  0.00000000000E+00 0. -1.
</event>
<event>
 7    1  0.2679104E-009  0.1486760E+03  0.7561462E-02  0.1202109E+00
          1   -1    0    0  501    0  0.00000000000E+00  0.00000000000E+00  0.27425588113E+03  0.27425588113E+03  0.00000000000E+00 0. -1.
         -1   -1    0    0    0  501 -0.00000000000E+00 -0.00000000000E+00 -0.95463540236E+02  0.95463540236E+02  0.00000000000E+00 0.  1.
         25    2    1    2    0    0  0.94831382074E+02 -0.73088231130E+02  0.98383816283E+02  0.19915193164E+03  0.12508891244E+03 0.  0.
          5    1    3    3  502    0  0.97355172294E+02 -0.10184839672E+03  0.94548331683E+02  0.16972915162E+03  0.41800000000E+01 0.  1.
         -5    1    3    3    0  502 -0.25237902198E+01  0.28760165592E+02  0.38354846002E+01  0.29422780020E+02  0.41800000000E+01 0.  1.
        -11    1    1    2    0    0 -0.24707758790E+02  0.45681365729E+02 -0.10026775543E+02  0.52894203341E+02  0.00000000000E+00 0.  1.
         11    1    1    2    0    0 -0.70123623284E+02  0.27406865401E+02  0.90435300150E+02  0.11767328638E+03  0.00000000000E+00 0. -1.
</event>
<event>
 7    1  0.2679104E-009  0.2531554E+03  0.7561462E-02  0.1111327E+00
         -2   -1    0    0    0  501 -0.00000000000E+00  0.00000000000E+00  0.46913016416E+02  0.46913016416E+02  0.00000000000E+00 0.  1.
          2   -1    0    0  501    0  0.00000000000E+00 -0.00000000000E+00 -0.14322203993E+04  0.14322203993E+04  0.00000000000E+00 0. -1.
         25    2    1    2    0    0 -0.22732744584E+03 -0.27349791940E+02 -0.85420590049E+03  0.89316347043E+03  0.12508991057E+03 0.  0.
          5    1    3    3  502    0 -0.23795335322E+03 -0.41874273237E+02 -0.80928450405E+03  0.84459110459E+03  0.41800000000E+01 0. -1.
         -5    1    3    3    0  502  0.10625907380E+02  0.14524481296E+02 -0.44921396439E+02  0.48572365833E+02  0.41800000000E+01 0. -1.
        -11    1    1    2    0    0  0.15839292791E+03 -0.24041043591E+02 -0.37422020381E+03  0.40707131111E+03  0.00000000000E+00 0. -1.
         11    1    1    2    0    0  0.68934517928E+02  0.51390835532E+02 -0.15688127858E+03  0.17889863417E+03  0.00000000000E+00 0.  1.
</event>
<event>
 7    1  0.2679104E-009  0.7646792E+02  0.7561462E-02  0.1339385E+00
          3   -1    0    0  501    0  0.00000000000E+00  0.00000000000E+00  0.50291176278E+02  0.50291176278E+02  0.00000000000E+00 0. -1.
         -3   -1    0    0    0  501 -0.00000000000E+00 -0.00000000000E+00 -0.18117625304E+03  0.18117625304E+03  0.00000000000E+00 0.  1.
         25    2    1    2    0    0  0.35048686532E+02 -0.90017795159E+00 -0.10024034444E+03  0.16409024014E+03  0.12509300344E+03 0.  0.
          5    1    3    3  502    0 -0.99796270869E+01  0.49205146090E+02 -0.99383849236E+01  0.51351565248E+02  0.41800000000E+01 0.  1.
         -5    1    3    3    0  502  0.45028313618E+02 -0.50105324042E+02 -0.90301959516E+02  0.11273867490E+03  0.41800000000E+01 0.  1.
        -11    1    1    2    0    0 -0.21726800934E+02  0.56829302863E+00  0.10493200044E+02  0.24134707020E+02  0.00000000000E+00 0. -1.
         11    1    1    2    0    0 -0.13321885598E+02  0.33188492295E+00 -0.41137932367E+02  0.43242482155E+02  0.00000000000E+00 0.  1.
</event>
<event>
 7    1  0.2679104E-009  0.2711297E+03  0.7561462E-02  0.1100635E+00
          2   -1    0    0  501    0  0.00000000000E+00  0.00000000000E+00  0.77004742435E+03  0.77004742435E+03  0.00000000000E+00 0. -1.
         -2   -1    0    0    0  501 -0.00000000000E+00 -0.00000000000E+00 -0.15345576334E+03  0.15345576334E+03  0.00000000000E+00 0.  1.
         25    2    1    2    0    0 -0.24444871271E+03  0.73506081775E+02  0.40395954280E+02  0.28712063835E+03  0.12509240840E+03 0.  0.
          5    1    3    3  502    0 -0.25105800427E+03  0.61684850304E+02  0.57532234425E+02  0.26488218639E+03  0.41800000000E+01 0. -1.
         -5    1    3    3    0  502  0.66092915638E+01  0.11821231472E+02 -0.17136280145E+02  0.22238451963E+02  0.41800000000E+01 0. -1.
        -11    1    1    2    0    0  0.95041105899E+02 -0.73456279734E+02  0.27841514023E+03  0.30322207563E+03  0.00000000000E+00 0.  1.
         11    1    1    2    0    0  0.14940760681E+03 -0.49802041718E-01  0.29778056650E+03  0.33316047371E+03  0.00000000000E+00 0. -1.
</event>
<event>
 7    1  0.2679104E-009  0.1168323E+03  0.7561462E-02  0.1248416E+00
         -2   -1    0    0    0  501 -0.00000000000E+00  0.00000000000E+00  0.32535823604E+02  0.32535823604E+02  0.00000000000E+00 0.  1.
          2   -1    0    0  501    0  0.00000000000E+00 -0.00000000000E+00 -0.50301092750E+03  0.50301092750E+03  0.00000000000E+00 0. -1.
         25    2    1    2    0    0  0.50221576602E+02  0.42383916114E+02 -0.29909999671E+03  0.33080471418E+03  0.12510934334E+03 0.  0.
          5    1    3    3  502    0  0.13527530571E+02  0.83734686826E+02 -0.19929621104E+03  0.21663550955E+03  0.41800000000E+01 0.  1.
         -5    1    3    3    0  502  0.36694046031E+02 -0.41350770712E+02 -0.99803785662E+02  0.11416920463E+03  0.41800000000E+01 0.  1.
        -11    1    1    2    0    0 -0.41266349453E+01 -0.46810722358E+02 -0.14278765248E+03  0.15032161037E+03  0.00000000000E+00 0. -1.
         11    1    1    2    0    0 -0.46094941657E+02  0.44268062433E+01 -0.28587454709E+02  0.54420426557E+02  0.00000000000E+00 0.  1.
</event>
<event>
 7    1  0.2679104E-009  0.1834715E+03  0.7561462E-02  0.1164485E+00
         -2   -1    0    0    0  501 -0.00000000000E+00  0.00000000000E+00  0.29343318249E+03  0.29343318249E+03  0.00000000000E+00 0.  1.
          2   -1    0    0  501    0  0.00000000000E+00 -0.00000000000E+00 -0.18426325070E+03  0.18426325070E+03  0.00000000000E+00 0. -1.
         25    2    1    2    0    0  0.19656037114E+02  0.17172942631E+03  0.16946304695E+03  0.27247453702E+03  0.12508914178E+03 0.  0.
          5    1    3    3  502    0  0.72414107641E+01  0.10311880350E+03  0.17404728832E+03  0.20247433575E+03  0.41800000000E+01 0. -1.
         -5    1    3    3    0  502  0.12414626350E+02  0.68610622810E+02 -0.45842413753E+01  0.70000201276E+02  0.41800000000E+01 0. -1.
        -11    1    1    2    0    0 -0.32442921887E+02 -0.13909813984E+02  0.13101662971E+01  0.35323400762E+02  0.00000000000E+00 0.  1.
         11    1    1    2    0    0  0.12786884773E+02 -0.15781961232E+03 -0.61603281445E+02  0.16989849540E+03  0.00000000000E+00 0. -1.
</event>
<event>
 7    1  0.2679104E-009  0.1140419E+03  0.7561462E-02  0.1253263E+00
          1   -1    0    0  501    0  0.00000000000E+00  0.00000000000E+00  0.79885188299E+03  0.79885188299E+03  0.00000000000E+00 0. -1.
         -1   -1    0    0    0  501 -0.00000000000E+00 -0.00000000000E+00 -0.19771356842E+02  0.19771356842E+02  0.00000000000E+00 0.  1.
         25    2    1    2    0    0 -0.35921994843E+02 -0.36179203511E+02  0.31204491399E+03  0.34002740049E+03  0.12508908928E+03 0.  0.
          5    1    3    3  502    0  0.42491837808E+02 -0.14240427992E+02  0.17377493157E+03  0.17950917891E+03  0.41800000000E+01 0.  1.
         -5    1    3    3    0  502 -0.78413832651E+02 -0.21938775519E+02  0.13826998242E+03  0.16051822159E+03  0.41800000000E+01 0.  1.
        -11    1    1    2    0    0 -0.56103263833E+01 -0.26093822002E+02  0.78431961540E+02  0.82848873860E+02  0.00000000000E+00 0.  1.
         11    1    1    2    0    0  0.41532321226E+02  0.62273025514E+02  0.38860365062E+03  0.39574696548E+03  0.00000000000E+00 0. -1.
</event>
<event>
 7    1  0.2679104E-009  0.1241490E+03  0.7561462E-02  0.1236405E+00
          2   -1    0    0  501    0  0.00000000000E+00  0.00000000000E+00  0.29119520164E+03  0.29119520164E+03  0.00000000000E+00 0. -1.
         -2   -1    0    0    0  501 -0.00000000000E+00 -0.00000000000E+00 -0.95877587766E+02  0.95877587766E+02  0.00000000000E+00 0.  1.
         25    2    1    2    0    0  0.10606934745E+03 -0.17431244491E+02  0.27206148285E+02  0.16716101236E+03  0.12509226513E+03 0.  0.
          5    1    3    3  502    0  0.71240996252E+02 -0.45619455834E+02 -0.33935493576E+02  0.91244202127E+02  0.41800000000E+01 0.  1.
         -5    1    3    3    0  502  0.34828351200E+02  0.28188211343E+02  0.61141641860E+02  0.75916810230E+02  0.41800000000E+01 0.  1.
        -11    1    1    2    0    0 -0.32881866335E+02 -0.17780213697E+02  0.50201941284E+01  0.37716779844E+02  0.00000000000E+00 0.  1.
         11    1    1    2    0    0 -0.73187481117E+02  0.35211458187E+02  0.16309127146E+03  0.18219499721E+03  0.00000000000E+00 0. -1.
</event>
<event>
 7    1  0.2895009E-009  0.1117882E+03  0.7561462E-02  0.1257294E+00
         -1   -1    0    0    0  501 -0.00000000000E+00  0.00000000000E+00  0.96116398864E+02  0.96116398864E+02  0.00000000000E+00 0.  1.
          1   -1    0    0  501    0  0.00000000000E+00 -0.00000000000E+00 -0.17438606945E+03  0.17438606945E+03  0.00000000000E+00 0. -1.
         25    2    1    2    0    0  0.53883693616E+02 -0.41288187730E+02 -0.22709324483E+02  0.14411461319E+03  0.12508053978E+03 0.  0.
          5    1    3    3  502    0  0.33666077585E+02 -0.69849663893E+02  0.27840972011E+02  0.82492256900E+02  0.41800000000E+01 0.  1.
         -5    1    3    3    0  502  0.20217616031E+02  0.28561476162E+02 -0.50550296494E+02  0.61622356286E+02  0.41800000000E+01 0.  1.
        -11    1    1    2    0    0 -0.51150973493E+02 -0.15794891459E+02 -0.12882746332E+02  0.55062381337E+02  0.00000000000E+00 0.  1.
         11    1    1    2    0    0 -0.27327201229E+01  0.57083079189E+02 -0.42677599767E+02  0.71325473787E+02  0.00000000000E+00 0. -1.
</event>
<event>
 7    1  0.2679104E-009  0.5752945E+02  0.7561462E-02  0.1408502E+00
          1   -1    0    0  501    0  0.00000000000E+00  0.00000000000E+00  0.55529429577E+02  0.55529429577E+02  0.00000000000E+00 0. -1.
         -1   -1    0    0    0  501 -0.00000000000E+00 -0.00000000000E+00 -0.23722048042E+03  0.23722048042E+03  0.00000000000E+00 0.  1.
         25    2    1    2    0    0 -0.31379709518E+02  0.68954909576E+01 -0.11051778595E+03  0.16998334319E+03  0.12509165434E+03 0.  0.
          5    1    3    3  502    0 -0.70253683807E+01  0.29049303508E+01 -0.13481830300E+03  0.13509715632E+03  0.41800000000E+01 0.  1.
         -5    1    3    3    0  502 -0.24354341137E+02  0.39905606068E+01  0.24300517044E+02  0.34886186876E+02  0.41800000000E+01 0.  1.
        -11    1    1    2    0    0 -0.29997900610E+01  0.30446929501E+02  0.52312846519E+01  0.31038372953E+02  0.00000000000E+00 0. -1.
         11    1    1    2    0    0  0.34379499579E+02 -0.37342420459E+02 -0.76404549546E+02  0.91728193857E+02  0.00000000000E+00 0.  1.
</event>
<event>
 7    1  0.2679104E-009  0.1189647E+03  0.7561462E-02  0.1244815E+00
          2   -1    0    0  501    0  0.00000000000E+00  0.00000000000E+00  0.94500224084E+03  0.94500224084E+03  0.00000000000E+00 0.  1.
         -2   -1    0    0    0  501 -0.00000000000E+00 -0.00000000000E+00 -0.17008751190E+02  0.17008751190E+02  0.00000000000E+00 0. -1.
         25    2    1    2    0    0 -0.60361954893E+02 -0.16431816608E+02  0.46006584016E+03  0.48085476353E+03  0.12508859314E+03 0.  0.
          5    1    3    3  502    0 -0.55405174165E+02 -0.61210671331E+02  0.38000719872E+03  0.38889513123E+03  0.41800000000E+01 0.  1.
         -5    1    3    3    0  502 -0.49567807286E+01  0.44778854724E+02  0.80058641438E+02  0.91959632309E+02  0.41800000000E+01 0.  1.
        -11    1    1    2    0    0  0.26239103668E+02 -0.37756568063E+02  0.15191394848E+03  0.15871955373E+03  0.00000000000E+00 0. -1.
         11    1    1    2    0    0  0.34122851225E+02  0.54188384671E+02  0.31601370101E+03  0.32243667477E+03  0.00000000000E+00 0.  1.
</event>
<event>
 7    1  0.2679104E-009  0.1208991E+03  0.7561462E-02  0.1241621E+00
          4   -1    0    0  501    0  0.00000000000E+00  0.00000000000E+00  0.26999730933E+02  0.26999730933E+02  0.00000000000E+00 0. -1.
         -4   -1    0    0    0  501 -0.00000000000E+00 -0.00000000000E+00 -0.81614867406E+03  0.81614867406E+03  0.00000000000E+00 0.  1.
         25    2    1    2    0    0 -0.73175965945E+02  0.30796588018E+02 -0.60500069247E+03  0.62287860153E+03  0.12509501399E+03 0.  0.
          5    1    3    3  502    0  0.24121400681E+02  0.41233358527E+02 -0.25304726677E+03  0.25755081721E+03  0.41800000000E+01 0. -1.
         -5    1    3    3    0  502 -0.97297366626E+02 -0.10436770509E+02 -0.35195342570E+03  0.36532778432E+03  0.41800000000E+01 0. -1.
        -11    1    1    2    0    0  0.31681376469E+02 -0.42292414942E+02 -0.16480019387E+03  0.17306490654E+03  0.00000000000E+00 0.  1.
         11    1    1    2    0    0  0.41494589476E+02  0.11495826924E+02 -0.19348056788E+02  0.47204896927E+02  0.00000000000E+00 0. -1.
</event>
<event>
 7    1  0.2679104E-009  0.8585309E+02  0.7561462E-02  0.1313217E+00
         -2   -1    0    0    0  501 -0.00000000000E+00  0.00000000000E+00  0.41444928775E+02  0.41444928775E+02  0.00000000000E+00 0.  1.
          2   -1    0    0  501    0  0.00000000000E+00 -0.00000000000E+00 -0.36227886078E+03  0.36227886078E+03  0.00000000000E+00 0. -1.
         25    2    1    2    0    0  0.26294833103E+02 -0.34306237994E+02 -0.24003692078E+03  0.27410160833E+03  0.12508250133E+03 0.  0.
          5    1    3    3  502    0  0.17441717757E+02  0.13537995389E+02 -0.22027626533E+03  0.22141950299E+03  0.41800000000E+01 0.  1.
         -5    1    3    3    0  502  0.88531153460E+01 -0.47844233382E+02 -0.19760655453E+02  0.52682105342E+02  0.41800000000E+01 0.  1.
        -11    1    1    2    0    0 -0.44694799694E+02  0.56196463257E+02 -0.65507612360E+02  0.97195241033E+02  0.00000000000E+00 0. -1.
         11    1    1    2    0    0  0.18399966591E+02 -0.21890225263E+02 -0.15289398868E+02  0.32426940194E+02  0.00000000000E+00 0.  1.
</event>
<event>
 7    1  0.2679104E-009  0.1006249E+03  0.7561462E-02  0.1278987E+00
          2   -1    0    0  501    0  0.00000000000E+00  0.00000000000E+00  0.58955377468E+02  0.58955377468E+02  0.00000000000E+00 0. -1.
         -2   -1    0    0    0  501 -0.00000000000E+00 -0.00000000000E+00 -0.39047375297E+03  0.39047375297E+03  0.00000000000E+00 0.  1.
         25    2    1    2    0    0 -0.65079615520E+02 -0.13707783701E+02 -0.30050049009E+03  0.33222060363E+03  0.12508687079E+03 0.  0.
          5    1    3    3  502    0 -0.57128694312E+02  0.14214072296E+02 -0.29685353242E+03  0.30266354203E+03  0.41800000000E+01 0.  1.
         -5    1    3    3    0  502 -0.79509212080E+01 -0.27921855996E+02 -0.36469576716E+01  0.29557061603E+02  0.41800000000E+01 0.  1.
        -11    1    1    2    0    0 -0.54123550848E+01  0.37966743325E+02 -0.78881231327E+01  0.39153412020E+02  0.00000000000E+00 0.  1.
         11    1    1    2    0    0  0.70491970605E+02 -0.24258959624E+02 -0.23129762287E+02  0.78055114792E+02  0.00000000000E+00 0. -1.
</event>
<event>
 7    1  0.2679104E-009  0.1433744E+03  0.7561462E-02  0.1208859E+00
         -1   -1    0    0    0  501 -0.00000000000E+00  0.00000000000E+00  0.15006897107E+03  0.15006897107E+03  0.00000000000E+00 0.  1.
          1   -1    0    0  501    0  0.00000000000E+00 -0.00000000000E+00 -0.15497150065E+03  0.15497150065E+03  0.00000000000E+00 0. -1.
         25    2    1    2    0    0  0.10399985389E+03  0.19694863841E+02  0.17671793661E+02  0.16481163187E+03  0.12508686756E+03 0.  0.
          5    1    3    3  502    0  0.32360488918E+02  0.67678799772E+02 -0.57836895004E+01  0.75356118835E+02  0.41800000000E+01 0.  1.
         -5    1    3    3    0  502  0.71639364974E+02 -0.47983935931E+02  0.23455483161E+02  0.89455513031E+02  0.41800000000E+01 0.  1.
        -11    1    1    2    0    0 -0.56186587964E+02 -0.44268720818E+02 -0.42139752747E+02  0.83020546080E+02  0.00000000000E+00 0. -1.
         11    1    1    2    0    0 -0.47813265929E+02  0.24573856977E+02  0.19565429501E+02  0.57208293779E+02  0.00000000000E+00 0.  1.
</event>
<event>
 7    1  0.2679104E-009  0.6618538E+02  0.7561462E-02  0.1373567E+00
         -4   -1    0    0    0  501 -0.00000000000E+00  0.00000000000E+00  0.86740937243E+02  0.86740937243E+02  0.00000000000E+00 0.  1.
          4   -1    0    0  501    0  0.00000000000E+00 -0.00000000000E+00 -0.16018175031E+03  0.16018175031E+03  0.00000000000E+00 0. -1.
         25    2    1    2    0    0  0.11371876487E+02 -0.11254722132E+02 -0.82864356406E+02  0.15091416718E+03  0.12511033510E+03 0.  0.
          5    1    3    3  502    0  0.13689302175E+02 -0.40233040872E+02 -0.10551229416E+03  0.11382623244E+03  0.41800000000E+01 0.  1.
         -5    1    3    3    0  502 -0.23174256884E+01  0.28978318740E+02  0.22647937758E+02  0.37087934743E+02  0.41800000000E+01 0.  1.
        -11    1    1    2    0    0  0.12802353171E+02  0.28069105485E+02  0.41988710460E+02  0.52103999228E+02  0.00000000000E+00 0.  1.
         11    1    1    2    0    0 -0.24174229658E+02 -0.16814383353E+02 -0.32565167119E+02  0.43904521141E+02  0.00000000000E+00 0. -1.
</event>
<event>
 7    1  0.2679104E-009  0.1273885E+03  0.7561462E-02  0.1231383E+00
         -2   -1    0    0    0  501 -0.00000000000E+00  0.00000000000E+00  0.97729737877E+02  0.97729737877E+02  0.00000000000E+00 0.  1.
          2   -1    0    0  501    0  0.00000000000E+00 -0.00000000000E+00 -0.19187130044E+03  0.19187130044E+03  0.00000000000E+00 0. -1.
         25    2    1    2    0    0  0.72600483626E+02  0.20037944253E+02 -0.24434896452E+02  0.14804182293E+03  0.12508784009E+03 0.  0.
          5    1    3    3  502    0  0.46079527558E+02 -0.43138392450E+02  0.19911250509E+02  0.66318730838E+02  0.41800000000E+01 0.  1.
         -5    1    3    3    0  502  0.26520956068E+02  0.63176336704E+02 -0.44346146961E+02  0.81723092088E+02  0.41800000000E+01 0.  1.
        -11    1    1    2    0    0  0.23650742959E+02 -0.11342853946E+02 -0.10715773529E+02  0.28334533356E+02  0.00000000000E+00 0. -1.
         11    1    1    2    0    0 -0.96251226585E+02 -0.86950903071E+01 -0.58990892587E+02  0.11322468204E+03  0.00000000000E+00 0.  1.
</event>
<event>
 7    1  0.2679104E-009  0.1588017E+03  0.7561462E-02  0.1190056E+00
         -2   -1    0    0    0  501 -0.00000000000E+00  0.00000000000E+00  0.68468099613E+02  0.68468099613E+02  0.00000000000E+00 0.  1.
          2   -1    0    0  501    0  0.00000000000E+00 -0.00000000000E+00 -0.37730342803E+03  0.37730342803E+03  0.00000000000E+00 0. -1.
         25    2    1    2    0    0 -0.48270408601E+02  0.11919760262E+03 -0.15972430621E+03  0.24020296258E+03  0.12509000127E+03 0.  0.
          5    1    3    3  502    0  0.42644883131E+02  0.33544250756E+02 -0.49472601331E+02  0.73544636097E+02  0.41800000000E+01 0. -1.
         -5    1    3    3    0  502 -0.90915291732E+02  0.85653351868E+02 -0.11025170488E+03  0.16665832648E+03  0.41800000000E+01 0. -1.
        -11    1    1    2    0    0 -0.78348039335E+01 -0.42291727712E+02 -0.27190001243E+02  0.50884875485E+02  0.00000000000E+00 0. -1.
         11    1    1    2    0    0  0.56105212534E+02 -0.76905874912E+02 -0.12192102096E+03  0.15468368958E+03  0.00000000000E+00 0.  1.
</event>
<event>
 7    1  0.2679104E-009  0.6564448E+02  0.7561462E-02  0.1375563E+00
         -2   -1    0    0    0  501 -0.00000000000E+00  0.00000000000E+00  0.83567636406E+01  0.83567636406E+01  0.00000000000E+00 0.  1.
          2   -1    0    0  501    0  0.00000000000E+00 -0.00000000000E+00 -0.16866462233E+04  0.16866462233E+04  0.00000000000E+00 0. -1.
         25    2    1    2    0    0 -0.29524294938E+02  0.17111983035E+02 -0.12680695038E+04  0.12746807449E+04  0.12508489491E+03 0.  0.
          5    1    3    3  502    0 -0.29084840674E+02  0.20349797920E+02 -0.93492656174E+02  0.10009191471E+03  0.41800000000E+01 0.  1.
         -5    1    3    3    0  502 -0.43945426376E+00 -0.32378148850E+01 -0.11745768476E+04  0.11745888302E+04  0.41800000000E+01 0.  1.
        -11    1    1    2    0    0  0.24616746337E+02  0.32285878960E+02 -0.22104249601E+03  0.22474017714E+03  0.00000000000E+00 0. -1.
         11    1    1    2    0    0  0.49075486006E+01 -0.49397861995E+02 -0.18917745981E+03  0.19558206488E+03  0.00000000000E+00 0.  1.
</event>
<event>
 7    1  0.2679104E-009  0.8786081E+02  0.7561462E-02  0.1308116E+00
          1   -1    0    0  501    0  0.00000000000E+00  0.00000000000E+00  0.23832814633E+03  0.23832814633E+03  0.00000000000E+00 0. -1.
         -1   -1    0    0    0  501 -0.00000000000E+00 -0.00000000000E+00 -0.44360494983E+02  0.44360494983E+02  0.00000000000E+00 0.  1.
         25    2    1    2    0    0  0.28451323986E+02  0.44999641673E+01  0.86776617289E+02  0.15494411708E+03  0.12509104922E+03 0.  0.
          5    1    3    3  502    0 -0.41740432049E+02  0.27830309336E+01  0.71535449887E+02  0.82974706503E+02  0.41800000000E+01 0. -1.
         -5    1    3    3    0  502  0.70191756034E+02  0.17169332338E+01  0.15241167402E+02  0.71969410576E+02  0.41800000000E+01 0. -1.
        -11    1    1    2    0    0  0.15806298116E+02  0.74885945398E+01  0.96793044245E+01  0.19990173647E+02  0.00000000000E+00 0.  1.
         11    1    1    2    0    0 -0.44257622101E+02 -0.11988558707E+02  0.97511729632E+02  0.10775435058E+03  0.00000000000E+00 0. -1.
</event>
<event>
 7    1  0.2679104E-009  0.9140049E+02  0.7561462E-02  0.1299495E+00
         -1   -1    0    0    0  501 -0.00000000000E+00  0.00000000000E+00  0.22111141492E+03  0.22111141492E+03  0.00000000000E+00 0.  1.
          1   -1    0    0  501    0  0.00000000000E+00 -0.00000000000E+00 -0.59465561693E+02  0.59465561693E+02  0.00000000000E+00 0. -1.
         25    2    1    2    0    0  0.20764229189E+02  0.54400233692E+01  0.53894770154E+02  0.13788618226E+03  0.12508879222E+03 0.  0.
          5    1    3    3  502    0  0.51693803975E+02  0.43001361984E+02  0.31285906402E+01  0.67443509557E+02  0.41800000000E+01 0.  1.
         -5    1    3    3    0  502 -0.30929574787E+02 -0.37561338615E+02  0.50766179513E+02  0.70442672702E+02  0.41800000000E+01 0.  1.
        -11    1    1    2    0    0  0.18569884570E+02 -0.17434616677E+02 -0.19393884908E+01  0.25545404662E+02  0.00000000000E+00 0. -1.
         11    1    1    2    0    0 -0.39334113759E+02  0.11994593308E+02  0.10969047156E+03  0.11714538969E+03  0.00000000000E+00 0.  1.
</event>
<event>
 7    1  0.2679104E-009  0.2910861E+03  0.7561462E-02  0.1089783E+00
          1   -1    0    0  501    0  0.00000000000E+00  0.00000000000E+00  0.18326087563E+04  0.18326087563E+04  0.00000000000E+00 0. -1.
         -1   -1    0    0    0  501 -0.00000000000E+00 -0.00000000000E+00 -0.63066079794E+02  0.63066079794E+02  0.00000000000E+00 0.  1.
         25    2    1    2    0    0 -0.88553211854E+02 -0.27519440501E+03  0.50425311710E+03  0.59455304116E+03  0.12509388781E+03 0.  0.
          5    1    3    3  502    0 -0.67031271332E+02 -0.24918090110E+03  0.34020384628E+03  0.42701339819E+03  0.41800000000E+01 0. -1.
         -5    1    3    3    0  502 -0.21521940522E+02 -0.26013503909E+02  0.16404927082E+03  0.16753964297E+03  0.41800000000E+01 0. -1.
        -11    1    1    2    0    0  0.19422000417E+02  0.97393742789E+02  0.26932006332E+03  0.28704712460E+03  0.00000000000E+00 0.  1.
         11    1    1    2    0    0  0.69131211437E+02  0.17780066222E+03  0.99596949613E+03  0.10140746704E+04  0.00000000000E+00 0. -1.
</event>
<event>
 7    1  0.2679104E-009  0.2547575E+03  0.7561462E-02  0.1110335E+00
          1   -1    0    0  501    0  0.00000000000E+00  0.00000000000E+00  0.10718068544E+04  0.10718068544E+04  0.00000000000E+00 0. -1.
         -1   -1    0    0    0  501 -0.00000000000E+00 -0.00000000000E+00 -0.77426289180E+02  0.77426289180E+02  0.00000000000E+00 0.  1.
         25    2    1    2    0    0 -0.59377103516E+02 -0.24002012461E+03  0.70303378780E+03  0.75567172790E+03  0.12509177798E+03 0.  0.
          5    1    3    3  502    0 -0.77545151545E+02 -0.14191060006E+03  0.30435546604E+03  0.34467606683E+03  0.41800000000E+01 0.  1.
         -5    1    3    3    0  502  0.18168048029E+02 -0.98109524552E+02  0.39867832176E+03  0.41099566107E+03  0.41800000000E+01 0.  1.
        -11    1    1    2    0    0  0.17185780245E+02  0.10575978857E+03  0.19661352297E+03  0.22391373637E+03  0.00000000000E+00 0. -1.
         11    1    1    2    0    0  0.42191323272E+02  0.13426033604E+03  0.94733254431E+02  0.16964767929E+03  0.00000000000E+00 0.  1.
</event>
<event>
 7    1  0.2679104E-009  0.1269555E+03  0.7561462E-02  0.1232044E+00
         -1   -1    0    0    0  501 -0.00000000000E+00  0.00000000000E+00  0.19064029417E+03  0.19064029417E+03  0.00000000000E+00 0.  1.
          1   -1    0    0  501    0  0.00000000000E+00 -0.00000000000E+00 -0.11908611696E+03  0.11908611696E+03  0.00000000000E+00 0. -1.
         25    2    1    2    0    0 -0.62483697000E+02  0.48122635741E+02  0.10471086031E+03  0.18119450673E+03  0.12508830697E+03 0.  0.
          5    1    3    3  502    0  0.26842428307E+02 -0.24570934818E+01  0.65985568252E+02  0.71401126625E+02  0.41800000000E+01 0.  1.
         -5    1    3    3    0  502 -0.89326125307E+02  0.50579729222E+02  0.38725292062E+02  0.10979338011E+03  0.41800000000E+01 0.  1.
        -11    1    1    2    0    0 -0.12854623200E+02 -0.46814427887E+02 -0.87611695279E+01  0.49331431030E+02  0.00000000000E+00 0. -1.
         11    1    1    2    0    0  0.75338320200E+02 -0.13082078532E+01 -0.24395513580E+02  0.79200473364E+02  0.00000000000E+00 0.  1.
</event>
<event>
 7    1  0.2679104E-009  0.1133559E+03  0.7561462E-02  0.1254479E+00
         -1   -1    0    0    0  501 -0.00000000000E+00  0.00000000000E+00  0.24455947922E+02  0.24455947922E+02  0.00000000000E+00 0.  1.
          1   -1    0    0  501    0  0.00000000000E+00 -0.00000000000E+00 -0.71661833178E+03  0.71661833178E+03  0.00000000000E+00 0. -1.
         25    2    1    2    0    0  0.59810822438E+02  0.29844800512E+01 -0.25260581078E+03  0.28817267993E+03  0.12509019231E+03 0.  0.
          5    1    3    3  502    0  0.75818818234E+02  0.35433049417E+02 -0.96178239994E+02  0.12756065396E+03  0.41800000000E+01 0.  1.
         -5    1    3    3    0  502 -0.16007995796E+02 -0.32448569365E+02 -0.15642757079E+03  0.16061202597E+03  0.41800000000E+01 0.  1.
        -11    1    1    2    0    0 -0.76740793541E+02 -0.23157494398E+02 -0.36860116737E+03  0.37721643592E+03  0.00000000000E+00 0. -1.
         11    1    1    2    0    0  0.16929971103E+02  0.20173014347E+02 -0.70955405702E+02  0.75685163855E+02  0.00000000000E+00 0.  1.
</event>
<event>
 7    1  0.2679104E-009  0.9346512E+02  0.7561462E-02  0.1294671E+00
         -2   -1    0    0    0  501 -0.00000000000E+00  0.00000000000E+00  0.41384160167E+02  0.41384160167E+02  0.00000000000E+00 0. -1.
          2   -1    0    0  501    0  0.00000000000E+00 -0.00000000000E+00 -0.29434634697E+03  0.29434634697E+03  0.00000000000E+00 0.  1.
         25    2    1    2    0    0  0.99028771467E+01 -0.42095523350E+01 -0.11999615846E+03  0.17367287661E+03  0.12508957878E+03 0.  0.
          5    1    3    3  502    0  0.14072462497E+02  0.55939425147E+02 -0.87958730974E+02  0.10526853396E+03  0.41800000000E+01 0.  1.
         -5    1    3    3    0  502 -0.41695853501E+01 -0.60148977482E+02 -0.32037427489E+02  0.68404342657E+02  0.41800000000E+01 0.  1.
        -11    1    1    2    0    0  0.26648373457E+02 -0.11309864113E+02 -0.11479338962E+03  0.11838737743E+03  0.00000000000E+00 0.  1.
         11    1    1    2    0    0 -0.36551250604E+02  0.15519416448E+02 -0.18172638724E+02  0.43670253100E+02  0.00000000000E+00 0. -1.
</event>
<event>
 7    1  0.2679104E-009  0.1390815E+03  0.7561462E-02  0.1214570E+00
         -1   -1    0    0    0  501 -0.00000000000E+00  0.00000000000E+00  0.34739954899E+03  0.34739954899E+03  0.00000000000E+00 0.  1.
          1   -1    0    0  501    0  0.00000000000E+00 -0.00000000000E+00 -0.69545947912E+02  0.69545947912E+02  0.00000000000E+00 0. -1.
         25    2    1    2    0    0  0.69101108771E+02  0.79635313658E+02  0.10186134934E+03  0.19271542834E+03  0.12508699140E+03 0.  0.
          5    1    3    3  502    0 -0.18770944104E+02  0.72822472664E+02  0.49082984275E+02  0.89900348235E+02  0.41800000000E+01 0. -1.
         -5    1    3    3    0  502  0.87872052875E+02  0.68128409939E+01  0.52778365065E+02  0.10281508011E+03  0.41800000000E+01 0. -1.
        -11    1    1    2    0    0 -0.68585838613E+02 -0.49773893371E+02  0.17489467945E+03  0.19434404190E+03  0.00000000000E+00 0.  1.
         11    1    1    2    0    0 -0.51527015778E+00 -0.29861420287E+02  0.10975722864E+01  0.29886026664E+02  0.00000000000E+00 0. -1.
</event>
<event>
 7    1  0.2679104E-009  0.1185957E+03  0.7561462E-02  0.1245432E+00
          2   -1    0    0  501    0  0.00000000000E+00  0.00000000000E+00  0.10398419690E+04  0.10398419690E+04  0.00000000000E+00 0. -1.
         -2   -1    0    0    0  501 -0.00000000000E+00 -0.00000000000E+00 -0.17071956552E+02  0.17071956552E+02  0.00000000000E+00 0.  1.
         25    2    1    2    0    0 -0.59781512028E+02  0.32930111677E+02  0.69026159102E+03  0.70481676877E+03  0.12508953619E+03 0.  0.
          5    1    3    3  502    0 -0.48639221981E+02 -0.32829870490E+02  0.49397229330E+03  0.49746323810E+03  0.41800000000E+01 0. -1.
         -5    1    3    3    0  502 -0.11142290047E+02  0.65759982167E+02  0.19628929772E+03  0.20735353067E+03  0.41800000000E+01 0. -1.
        -11    1    1    2    0    0  0.32435198629E+02 -0.63017389569E+02  0.25376612620E+03  0.26347766567E+03  0.00000000000E+00 0. -1.
         11    1    1    2    0    0  0.27346313399E+02  0.30087277892E+02  0.78742295192E+02  0.88619491082E+02  0.00000000000E+00 0.  1.
</event>
<event>
 7    1  0.2679104E-009  0.1365686E+03  0.7561462E-02  0.1218022E+00
         -2   -1    0    0    0  501 -0.00000000000E+00  0.00000000000E+00  0.96758112920E+03  0.96758112920E+03  0.00000000000E+00 0.  1.
          2   -1    0    0  501    0  0.00000000000E+00 -0.00000000000E+00 -0.23529510226E+02  0.23529510226E+02  0.00000000000E+00 0. -1.
         25    2    1    2    0    0 -0.10190772983E+03 -0.96877916636E+01  0.57886758714E+03  0.60101114535E+03  0.12509066584E+03 0.  0.
          5    1    3    3  502    0 -0.12391019584E+02 -0.51708158344E+02  0.11592571168E+03  0.12760687299E+03  0.41800000000E+01 0. -1.
         -5    1    3    3    0  502 -0.89516710251E+02  0.42020366680E+02  0.46294187546E+03  0.47340427236E+03  0.41800000000E+01 0. -1.
        -11    1    1    2    0    0  0.37589116305E+02  0.35326297055E+02  0.70297183693E+02  0.87192791923E+02  0.00000000000E+00 0. -1.
         11    1    1    2    0    0  0.64318613530E+02 -0.25638505391E+02  0.29488684814E+03  0.30290670215E+03  0.00000000000E+00 0.  1.
</event>
<event>
 7    1  0.2679104E-009  0.2544547E+03  0.7561462E-02  0.1110521E+00
          1   -1    0    0  501    0  0.00000000000E+00  0.00000000000E+00  0.30034688855E+03  0.30034688855E+03  0.00000000000E+00 0.  1.
         -1   -1    0    0    0  501 -0.00000000000E+00 -0.00000000000E+00 -0.21983720184E+03  0.21983720184E+03  0.00000000000E+00 0. -1.
         25    2    1    2    0    0 -0.22203805152E+03 -0.67486139275E+02  0.58346603851E+02  0.27001177947E+03  0.12508700793E+03 0.  0.
          5    1    3    3  502    0 -0.16742986754E+03 -0.10202267297E+03  0.26617428407E+02  0.19790741835E+03  0.41800000000E+01 0. -1.
         -5    1    3    3    0  502 -0.54608183985E+02  0.34536533696E+02  0.31729175445E+02  0.72104361118E+02  0.41800000000E+01 0. -1.
        -11    1    1    2    0    0  0.42856752640E+02 -0.21548739364E+02  0.13799716970E+02  0.49914743348E+02  0.00000000000E+00 0.  1.
         11    1    1    2    0    0  0.17918129888E+03  0.89034878639E+02  0.83633658928E+01  0.20025756758E+03  0.00000000000E+00 0. -1.
</event>
<event>
 7    1  0.2679104E-009  0.1493834E+03  0.7561462E-02  0.1201233E+00
          1   -1    0    0  501    0  0.00000000000E+00  0.00000000000E+00  0.10370774141E+04  0.10370774141E+04  0.00000000000E+00 0. -1.
         -1   -1    0    0    0  501 -0.00000000000E+00 -0.00000000000E+00 -0.33367733027E+02  0.33367733027E+02  0.00000000000E+00 0.  1.
         25    2    1    2    0    0  0.37215624223E+02  0.13565475040E+03  0.68147512833E+03  0.70699552383E+03  0.12508839354E+03 0.  0.
          5    1    3    3  502    0  0.45964921718E+02  0.38046506509E+02  0.94205325995E+02  0.11159044104E+03  0.41800000000E+01 0.  1.
         -5    1    3    3    0  502 -0.87492974949E+01  0.97608243895E+02  0.58726980233E+03  0.59540508279E+03  0.41800000000E+01 0.  1.
        -11    1    1    2    0    0 -0.22541095828E+02 -0.95119452430E+02  0.11120608422E+03  0.14806283936E+03  0.00000000000E+00 0.  1.
         11    1    1    2    0    0 -0.14674528395E+02 -0.40535297974E+02  0.21102846851E+03  0.21538678392E+03  0.00000000000E+00 0. -1.
</event>
<event>
 7    1  0.2679104E-009  0.2500122E+03  0.7561462E-02  0.1113297E+00
         -1   -1    0    0    0  501 -0.00000000000E+00  0.00000000000E+00  0.10263979600E+03  0.10263979600E+03  0.00000000000E+00 0.  1.
          1   -1    0    0  501    0  0.00000000000E+00 -0.00000000000E+00 -0.82174973018E+03  0.82174973018E+03  0.00000000000E+00 0. -1.
         25    2    1    2    0    0  0.16746401337E+03 -0.15455027062E+03 -0.59546393213E+03  0.64973454296E+03  0.12509076670E+03 0.  0.
          5    1    3    3  502    0  0.82361860114E+02 -0.14879613054E+03 -0.44961223351E+03  0.48072070622E+03  0.41800000000E+01 0. -1.
         -5    1    3    3    0  502  0.85102153254E+02 -0.57541400804E+01 -0.14585169862E+03  0.16901383673E+03  0.41800000000E+01 0. -1.
        -11    1    1    2    0    0 -0.13334476568E+03  0.64336649991E+02 -0.64337910165E+02  0.16142923450E+03  0.00000000000E+00 0.  1.
         11    1    1    2    0    0 -0.34119247686E+02  0.90213620632E+02 -0.59308091884E+02  0.11322574872E+03  0.00000000000E+00 0. -1.
</event>
<event>
 7    1  0.2679104E-009  0.6939683E+02  0.7561462E-02  0.1362156E+00
         -3   -1    0    0    0  501 -0.00000000000E+00  0.00000000000E+00  0.28121928030E+02  0.28121928030E+02  0.00000000000E+00 0.  1.
          3   -1    0    0  501    0  0.00000000000E+00 -0.00000000000E+00 -0.49277804477E+03  0.49277804477E+03  0.00000000000E+00 0. -1.
         25    2    1    2    0    0 -0.40627167920E+02 -0.14612858671E+02 -0.31449590311E+03  0.34120261257E+03  0.12508975714E+03 0.  0.
          5    1    3    3  502    0 -0.15104645151E+01 -0.76361223631E+01 -0.29775127626E+03  0.29788233714E+03  0.41800000000E+01 0.  1.
         -5    1    3    3    0  502 -0.39116703405E+02 -0.69767363075E+01 -0.16744626851E+02  0.43320275428E+02  0.41800000000E+01 0.  1.
        -11    1    1    2    0    0  0.15132082645E+02 -0.32827853589E+02 -0.99085159019E+02  0.10547282415E+03  0.00000000000E+00 0. -1.
         11    1    1    2    0    0  0.25495085275E+02  0.47440712259E+02 -0.51075054616E+02  0.74224536084E+02  0.00000000000E+00 0.  1.
</event>
<event>
 7    1  0.2679104E-009  0.1234020E+03  0.7561462E-02  0.1237588E+00
          4   -1    0    0  501    0  0.00000000000E+00  0.00000000000E+00  0.10774685559E+03  0.10774685559E+03  0.00000000000E+00 0. -1.
         -4   -1    0    0    0  501 -0.00000000000E+00 -0.00000000000E+00 -0.16717084096E+03  0.16717084096E+03  0.00000000000E+00 0.  1.
         25    2    1    2    0    0  0.76327309730E+02  0.88625380223E+00 -0.20483024129E+02  0.14795088308E+03  0.12507304214E+03 0.  0.
          5    1    3    3  502    0  0.11082642340E+03 -0.26511505536E+01 -0.21518173813E+02  0.11300455268E+03  0.41800000000E+01 0. -1.
         -5    1    3    3    0  502 -0.34499113668E+02  0.35374043558E+01  0.10351496836E+01  0.34946330398E+02  0.41800000000E+01 0. -1.
        -11    1    1    2    0    0 -0.67179928876E+02  0.26381929751E+02 -0.57891489585E+02  0.92523368008E+02  0.00000000000E+00 0.  1.
         11    1    1    2    0    0 -0.91473808532E+01 -0.27268183553E+02  0.18950528339E+02  0.34443445459E+02  0.00000000000E+00 0. -1.
</event>
<event>
 7    1  0.2679104E-009  0.8588796E+02  0.7561462E-02  0.1313127E+00
          2   -1    0    0  501    0  0.00000000000E+00  0.00000000000E+00  0.55298208415E+03  0.55298208415E+03  0.00000000000E+00 0. -1.
         -2   -1    0    0    0  501 -0.00000000000E+00 -0.00000000000E+00 -0.27545306633E+02  0.27545306633E+02  0.00000000000E+00 0.  1.
         25    2    1    2    0    0 -0.30298341180E+02 -0.18948108413E+02  0.41028878476E+03  0.43042049155E+03  0.12509153589E+03 0.  0.
          5    1    3    3  502    0  0.16421625873E+02  0.11370350255E+02  0.34014576193E+03  0.34075734243E+03  0.41800000000E+01 0. -1.
         -5    1    3    3    0  502 -0.46719967053E+02 -0.30318458668E+02  0.70143022833E+02  0.89663149117E+02  0.41800000000E+01 0. -1.
        -11    1    1    2    0    0  0.61769454467E+02  0.84677956608E+01  0.83957074430E+02  0.10457513765E+03  0.00000000000E+00 0.  1.
         11    1    1    2    0    0 -0.31471113287E+02  0.10480312752E+02  0.31190918323E+02  0.45531761581E+02  0.00000000000E+00 0. -1.
</event>
<event>
 7    1  0.2679104E-009  0.1586835E+03  0.7561462E-02  0.1190191E+00
         -1   -1    0    0    0  501 -0.00000000000E+00  0.00000000000E+00  0.37533757332E+02  0.37533757332E+02  0.00000000000E+00 0.  1.
          1   -1    0    0  501    0  0.00000000000E+00 -0.00000000000E+00 -0.81281301937E+03  0.81281301937E+03  0.00000000000E+00 0. -1.
         25    2    1    2    0    0 -0.10528213903E+03 -0.70153466276E+02 -0.53591911471E+03  0.56467853625E+03  0.12508682647E+03 0.  0.
          5    1    3    3  502    0  0.16327952715E+02 -0.33399043576E+02 -0.50226459610E+02  0.62628011278E+02  0.41800000000E+01 0.  1.
         -5    1    3    3    0  502 -0.12161009174E+03 -0.36754422700E+02 -0.48569265510E+03  0.50205052497E+03  0.41800000000E+01 0.  1.
        -11    1    1    2    0    0  0.53874349823E+02 -0.12688302631E+02 -0.60763327467E+02  0.82192582131E+02  0.00000000000E+00 0. -1.
         11    1    1    2    0    0  0.51407789202E+02  0.82841768907E+02 -0.17859681986E+03  0.20347565832E+03  0.00000000000E+00 0.  1.
</event>
<event>
 7    1  0.2679104E-009  0.1134378E+03  0.7561462E-02  0.1254333E+00
         -1   -1    0    0    0  501 -0.00000000000E+00  0.00000000000E+00  0.89188003104E+02  0.89188003104E+02  0.00000000000E+00 0.  1.
          1   -1    0    0  501    0  0.00000000000E+00 -0.00000000000E+00 -0.25669959390E+03  0.25669959390E+03  0.00000000000E+00 0. -1.
         25    2    1    2    0    0 -0.78372716964E+02 -0.64409019724E+02 -0.10674414138E+03  0.19321508687E+03  0.12508778313E+03 0.  0.
          5    1    3    3  502    0 -0.81436820811E+02 -0.37615917206E+02 -0.12956321714E+03  0.15764203959E+03  0.41800000000E+01 0.  1.
         -5    1    3    3    0  502  0.30641038470E+01 -0.26793102518E+02  0.22819075751E+02  0.35573047284E+02  0.41800000000E+01 0.  1.
        -11    1    1    2    0    0  0.74646627118E+02  0.39223887713E+02  0.26179954149E+01  0.84365195474E+02  0.00000000000E+00 0.  1.
         11    1    1    2    0    0  0.37260898466E+01  0.25185132011E+02 -0.63385444828E+02  0.68307314660E+02  0.00000000000E+00 0. -1.
</event>
<event>
 7    1  0.2679104E-009  0.1111597E+03  0.7561462E-02  0.1258437E+00
         -1   -1    0    0    0  501 -0.00000000000E+00  0.00000000000E+00  0.46655427520E+02  0.46655427520E+02  0.00000000000E+00 0.  1.
          1   -1    0    0  501    0  0.00000000000E+00 -0.00000000000E+00 -0.35262116421E+03  0.35262116421E+03  0.00000000000E+00 0. -1.
         25    2    1    2    0    0  0.32437199859E+02  0.49935080579E+02 -0.11398335425E+03  0.17940222168E+03  0.12508903986E+03 0.  0.
          5    1    3    3  502    0  0.62829135620E+02  0.57981518945E+01 -0.12348361891E+02  0.64428823438E+02  0.41800000000E+01 0. -1.
         -5    1    3    3    0  502 -0.30391935761E+02  0.44136928684E+02 -0.10163499236E+03  0.11497339825E+03  0.41800000000E+01 0. -1.
        -11    1    1    2    0    0 -0.44905211175E+02 -0.69136181246E+02 -0.16529537142E+03  0.18471288358E+03  0.00000000000E+00 0.  1.
         11    1    1    2    0    0  0.12468011316E+02  0.19201100668E+02 -0.26687011019E+02  0.35161486461E+02  0.00000000000E+00 0. -1.
</event>
<event>
 7    1  0.2679104E-009  0.6419608E+02  0.7561462E-02  0.1381021E+00
          4   -1    0    0  501    0  0.00000000000E+00  0.00000000000E+00  0.12626777068E+02  0.12626777068E+02  0.00000000000E+00 0. -1.
         -4   -1    0    0    0  501 -0.00000000000E+00 -0.00000000000E+00 -0.13118134348E+04  0.13118134348E+04  0.00000000000E+00 0.  1.
         25    2    1    2    0    0  0.13817629241E+02 -0.27268374093E+02 -0.10388570986E+04  0.10468077716E+04  0.12509175989E+03 0.  0.
          5    1    3    3  502    0 -0.92570419141E+01 -0.10568407321E+02 -0.10459165572E+02  0.18006959842E+02  0.41800000000E+01 0.  1.
         -5    1    3    3    0  502  0.23074671156E+02 -0.16699966772E+02 -0.10283979330E+04  0.10288008118E+04  0.41800000000E+01 0.  1.
        -11    1    1    2    0    0 -0.40904251390E+02 -0.67530927322E+01 -0.19355814304E+03  0.19794826794E+03  0.00000000000E+00 0.  1.
         11    1    1    2    0    0  0.27086622149E+02  0.34021466825E+02 -0.66771416137E+02  0.79684172314E+02  0.00000000000E+00 0. -1.
</event>
<event>
 7    1  0.2679104E-009  0.6298124E+02  0.7561462E-02  0.1385730E+00
          2   -1    0    0  501    0  0.00000000000E+00  0.00000000000E+00  0.19828643527E+03  0.19828643527E+03  0.00000000000E+00 0. -1.
         -2   -1    0    0    0  501 -0.00000000000E+00 -0.00000000000E+00 -0.78247351149E+02  0.78247351149E+02  0.00000000000E+00 0.  1.
         25    2    1    2    0    0  0.35933192541E+02  0.33222532204E+00  0.10651700105E+02  0.13057835098E+03  0.12508374127E+03 0.  0.
          5    1    3    3  502    0  0.37095496665E+02 -0.35261272979E+02 -0.42367395803E+02  0.66572530912E+02  0.41800000000E+01 0. -1.
         -5    1    3    3    0  502 -0.11623041233E+01  0.35593498301E+02  0.53019095909E+02  0.64005820073E+02  0.41800000000E+01 0. -1.
        -11    1    1    2    0    0 -0.22289548259E+02  0.68733449067E+01  0.12311381407E+03  0.12530394266E+03  0.00000000000E+00 0. -1.
         11    1    1    2    0    0 -0.13643644282E+02 -0.72055702288E+01 -0.13726430055E+02  0.20651492771E+02  0.00000000000E+00 0.  1.
</event>
<event>
 7    1  0.2679104E-009  0.2813284E+03  0.7561462E-02  0.1094966E+00
          2   -1    0    0  501    0  0.00000000000E+00  0.00000000000E+00  0.70243662294E+03  0.70243662294E+03  0.00000000000E+00 0. -1.
         -2   -1    0    0    0  501 -0.00000000000E+00 -0.00000000000E+00 -0.12340694188E+03  0.12340694188E+03  0.00000000000E+00 0.  1.
         25    2    1    2    0    0  0.19431732114E+03  0.19623522615E+03  0.29513429908E+03  0.42310674534E+03  0.12509028014E+03 0.  0.
          5    1    3    3  502    0  0.18893517968E+03  0.17008285578E+03  0.19791075120E+03  0.32219686186E+03  0.41800000000E+01 0.  1.
         -5    1    3    3    0  502  0.53821414556E+01  0.26152370368E+02  0.97223547875E+02  0.10090988348E+03  0.41800000000E+01 0.  1.
        -11    1    1    2    0    0 -0.28998805469E+02 -0.61936806902E+02  0.41235701893E+02  0.79859137727E+02  0.00000000000E+00 0.  1.
         11    1    1    2    0    0 -0.16531851567E+03 -0.13429841925E+03  0.24265968009E+03  0.32287768176E+03  0.00000000000E+00 0. -1.
</event>
<event>
 7    1  0.2679104E-009  0.1348643E+03  0.7561462E-02  0.1220411E+00
         -2   -1    0    0    0  501 -0.00000000000E+00  0.00000000000E+00  0.28986600180E+02  0.28986600180E+02  0.00000000000E+00 0.  1.
          2   -1    0    0  501    0  0.00000000000E+00 -0.00000000000E+00 -0.72464365957E+03  0.72464365957E+03  0.00000000000E+00 0. -1.
         25    2    1    2    0    0 -0.65969601335E+02  0.50000595098E+02 -0.50027731761E+03  0.52228001374E+03  0.12508785083E+03 0.  0.
          5    1    3    3  502    0 -0.73276594302E+02  0.85959819328E+02 -0.37220804684E+03  0.38899209805E+03  0.41800000000E+01 0. -1.
         -5    1    3    3    0  502  0.73069929669E+01 -0.35959224230E+02 -0.12806927077E+03  0.13328791569E+03  0.41800000000E+01 0. -1.
        -11    1    1    2    0    0  0.30831766728E+02 -0.71990356477E+02 -0.15405691828E+03  0.17281997377E+03  0.00000000000E+00 0. -1.
         11    1    1    2    0    0  0.35137834607E+02  0.21989761379E+02 -0.41322823501E+02  0.58530272240E+02  0.00000000000E+00 0.  1.
</event>
<event>
 7    1  0.2679104E-009  0.1232503E+03  0.7561462E-02  0.1237829E+00
         -2   -1    0    0    0  501 -0.00000000000E+00  0.00000000000E+00  0.12311769074E+03  0.12311769074E+03  0.00000000000E+00 0.  1.
          2   -1    0    0  501    0  0.00000000000E+00 -0.00000000000E+00 -0.15881991468E+03  0.15881991468E+03  0.00000000000E+00 0. -1.
         25    2    1    2    0    0 -0.18772713570E+02  0.53844475862E+02  0.46776880246E+02  0.14521432552E+03  0.12508989350E+03 0.  0.
          5    1    3    3  502    0 -0.60605777463E+02  0.69774025113E+02  0.31790327019E+02  0.97824189925E+02  0.41800000000E+01 0.  1.
         -5    1    3    3    0  502  0.41833063893E+02 -0.15929549252E+02  0.14986553227E+02  0.47390135595E+02  0.41800000000E+01 0.  1.
        -11    1    1    2    0    0  0.35400437099E+02  0.14821157293E+02 -0.27941234319E+02  0.47471783467E+02  0.00000000000E+00 0.  1.
         11    1    1    2    0    0 -0.16627723528E+02 -0.68665633154E+02 -0.54537869862E+02  0.89251496432E+02  0.00000000000E+00 0. -1.
</event>
<event>
 7    1  0.2679104E-009  0.9527965E+02  0.7561462E-02  0.1290547E+00
          2   -1    0    0  501    0  0.00000000000E+00  0.00000000000E+00  0.97683309651E+02  0.97683309651E+02  0.00000000000E+00 0. -1.
         -2   -1    0    0    0  501 -0.00000000000E+00 -0.00000000000E+00 -0.12502302574E+03  0.12502302574E+03  0.00000000000E+00 0.  1.
         25    2    1    2    0    0  0.16030372062E+02 -0.10636557315E+02 -0.24604953044E+02  0.12892964256E+03  0.12508932743E+03 0.  0.
          5    1    3    3  502    0  0.30034747238E+02 -0.60867423620E+02 -0.33595467090E+02  0.75848909740E+02  0.41800000000E+01 0. -1.
         -5    1    3    3    0  502 -0.14004375175E+02  0.50230866305E+02  0.89905140462E+01  0.53080732819E+02  0.41800000000E+01 0. -1.
        -11    1    1    2    0    0 -0.40534190043E+02  0.18432579142E+02 -0.31988986849E+02  0.54827692053E+02  0.00000000000E+00 0.  1.
         11    1    1    2    0    0  0.24503817980E+02 -0.77960218276E+01  0.29254223800E+02  0.38949000784E+02  0.00000000000E+00 0. -1.
</event>
<event>
 7    1  0.2679104E-009  0.1299903E+03  0.7561462E-02  0.1227470E+00
         -1   -1    0    0    0  501 -0.00000000000E+00  0.00000000000E+00  0.45190639046E+02  0.45190639046E+02  0.00000000000E+00 0.  1.
          1   -1    0    0  501    0  0.00000000000E+00 -0.00000000000E+00 -0.55712122282E+03  0.55712122282E+03  0.00000000000E+00 0. -1.
         25    2    1    2    0    0  0.42648463876E+02  0.10484852037E+03 -0.22824809144E+03  0.28382708839E+03  0.12509404928E+03 0.  0.
          5    1    3    3  502    0 -0.14174418581E+02  0.67335331869E+02 -0.31889601757E+02  0.75956435937E+02  0.41800000000E+01 0. -1.
         -5    1    3    3    0  502  0.56822882457E+02  0.37513188505E+02 -0.19635848968E+03  0.20787065246E+03  0.41800000000E+01 0. -1.
        -11    1    1    2    0    0 -0.52757458653E+02 -0.95254381971E+02 -0.28439668862E+03  0.30452951126E+03  0.00000000000E+00 0. -1.
         11    1    1    2    0    0  0.10108994776E+02 -0.95941384039E+01  0.71419628803E+00  0.13955262213E+02  0.00000000000E+00 0.  1.
</event>
<event>
 7    1  0.2679104E-009  0.1010928E+03  0.7561462E-02  0.1278015E+00
         -2   -1    0    0    0  501 -0.00000000000E+00  0.00000000000E+00  0.16904691394E+03  0.16904691394E+03  0.00000000000E+00 0. -1.
          2   -1    0    0  501    0  0.00000000000E+00 -0.00000000000E+00 -0.26578734581E+03  0.26578734581E+03  0.00000000000E+00 0.  1.
         25    2    1    2    0    0 -0.11084460814E+02 -0.41512175905E+02  0.13083537115E+03  0.18604136542E+03  0.12508944513E+03 0.  0.
          5    1    3    3  502    0 -0.60880585157E+02 -0.51815605303E+02  0.67523784263E+02  0.10472934853E+03  0.41800000000E+01 0.  1.
         -5    1    3    3    0  502  0.49796124344E+02  0.10303429398E+02  0.63311586887E+02  0.81312016893E+02  0.41800000000E+01 0.  1.
        -11    1    1    2    0    0  0.34361581370E+02  0.26732082223E+02 -0.21338793424E+03  0.21778368390E+03  0.00000000000E+00 0.  1.
         11    1    1    2    0    0 -0.23277120557E+02  0.14780093682E+02 -0.14187868783E+02  0.31009210426E+02  0.00000000000E+00 0. -1.
</event>
<event>
 7    1  0.2679104E-009  0.1241152E+03  0.7561462E-02  0.1236459E+00
         -1   -1    0    0    0  501 -0.00000000000E+00  0.00000000000E+00  0.39135891745E+03  0.39135891745E+03  0.00000000000E+00 0.  1.
          1   -1    0    0  501    0  0.00000000000E+00 -0.00000000000E+00 -0.45452266432E+02  0.45452266432E+02  0.00000000000E+00 0. -1.
         25    2    1    2    0    0 -0.13258720692E+02  0.68476247261E+02  0.16457668094E+03  0.21816924908E+03  0.12509015637E+03 0.  0.
          5    1    3    3  502    0 -0.62902919292E+02  0.67996698798E+02  0.96730860262E+02  0.13399500002E+03  0.41800000000E+01 0. -1.
         -5    1    3    3    0  502  0.49644198600E+02  0.47954846258E+00  0.67845820683E+02  0.84174249064E+02  0.41800000000E+01 0. -1.
        -11    1    1    2    0    0  0.37608966541E+02 -0.71853097634E+02  0.78339139695E+02  0.11275780599E+03  0.00000000000E+00 0. -1.
         11    1    1    2    0    0 -0.24350245848E+02  0.33768503728E+01  0.10299083038E+03  0.10588412881E+03  0.00000000000E+00 0.  1.
</event>
<event>
 7    1  0.2679104E-009  0.1117006E+03  0.7561462E-02  0.1257453E+00
          1   -1    0    0  501    0  0.00000000000E+00  0.00000000000E+00  0.54755200917E+03  0.54755200917E+03  0.00000000000E+00 0. -1.
         -1   -1    0    0    0  501 -0.00000000000E+00 -0.00000000000E+00 -0.27242312745E+02  0.27242312745E+02  0.00000000000E+00 0.  1.
         25    2    1    2    0    0 -0.56144560684E+01 -0.22345682257E+02  0.40205350246E+03  0.42169256234E+03  0.12508695640E+03 0.  0.
          5    1    3    3  502    0 -0.21929113547E+02  0.48519058094E+02  0.14520204445E+03  0.15471293136E+03  0.41800000000E+01 0. -1.
         -5    1    3    3    0  502  0.16314657479E+02 -0.70864740351E+02  0.25685145801E+03  0.26697963097E+03  0.41800000000E+01 0. -1.
        -11    1    1    2    0    0  0.41338735502E+02 -0.16381554813E+02  0.50929563884E+02  0.67609665495E+02  0.00000000000E+00 0.  1.
         11    1    1    2    0    0 -0.35724279433E+02  0.38727237070E+02  0.67326630089E+02  0.85492094086E+02  0.00000000000E+00 0. -1.
</event>
<event>
 7    1  0.2679104E-009  0.1762481E+03  0.7561462E-02  0.1171484E+00
          2   -1    0    0  501    0  0.00000000000E+00  0.00000000000E+00  0.40625770985E+03  0.40625770985E+03  0.00000000000E+00 0. -1.
         -2   -1    0    0    0  501 -0.00000000000E+00 -0.00000000000E+00 -0.11924885385E+03  0.11924885385E+03  0.00000000000E+00 0.  1.
         25    2    1    2    0    0 -0.65666663706E+02 -0.16234654770E+03  0.24038586486E+03  0.32264803528E+03  0.12509148001E+03 0.  0.
          5    1    3    3  502    0 -0.16871825959E+02 -0.72347036137E+02  0.19844431751E+03  0.21193482890E+03  0.41800000000E+01 0.  1.
         -5    1    3    3    0  502 -0.48794837747E+02 -0.89999511562E+02  0.41941547353E+02  0.11071320638E+03  0.41800000000E+01 0.  1.
        -11    1    1    2    0    0  0.47544109446E+02  0.13177532306E+03 -0.50069774478E+01  0.14017934204E+03  0.00000000000E+00 0.  1.
         11    1    1    2    0    0  0.18122554260E+02  0.30571224638E+02  0.51629968586E+02  0.62679186378E+02  0.00000000000E+00 0. -1.
</event>
<event>
 7    1  0.2679104E-009  0.1083530E+03  0.7561462E-02  0.1263651E+00
         -3   -1    0    0    0  501 -0.00000000000E+00  0.00000000000E+00  0.36775456302E+03  0.36775456302E+03  0.00000000000E+00 0.  1.
          3   -1    0    0  501    0  0.00000000000E+00 -0.00000000000E+00 -0.35191339155E+02  0.35191339155E+02  0.00000000000E+00 0. -1.
         25    2    1    2    0    0 -0.24226962727E+02 -0.66828341067E+01  0.23099330125E+03  0.26388772551E+03  0.12508885027E+03 0.  0.
          5    1    3    3  502    0 -0.21439966273E+02 -0.64226195522E+02  0.14759992777E+03  0.16244348994E+03  0.41800000000E+01 0. -1.
         -5    1    3    3    0  502 -0.27869964536E+01  0.57543361415E+02  0.83393373471E+02  0.10144423557E+03  0.41800000000E+01 0. -1.
        -11    1    1    2    0    0  0.57452115946E+02  0.14539102281E+01  0.82034154172E+02  0.10016217815E+03  0.00000000000E+00 0.  1.
         11    1    1    2    0    0 -0.33225153219E+02  0.52289238786E+01  0.19535768452E+02  0.38895998513E+02  0.00000000000E+00 0. -1.
</event>
<event>
 7    1  0.2679104E-009  0.9296299E+02  0.7561462E-02  0.1295831E+00
          4   -1    0    0  501    0  0.00000000000E+00  0.00000000000E+00  0.40127901774E+03  0.40127901774E+03  0.00000000000E+00 0. -1.
         -4   -1    0    0    0  501 -0.00000000000E+00 -0.00000000000E+00 -0.49963744218E+02  0.49963744218E+02  0.00000000000E+00 0.  1.
         25    2    1    2    0    0  0.51946473978E+02 -0.24515884650E+02  0.80009997741E+02  0.15921500437E+03  0.12509337760E+03 0.  0.
          5    1    3    3  502    0 -0.66325441255E+01  0.80828407395E+01  0.90529776320E+02  0.91227384904E+02  0.41800000000E+01 0. -1.
         -5    1    3    3    0  502  0.58579018104E+02 -0.32598725389E+02 -0.10519778579E+02  0.67987619463E+02  0.41800000000E+01 0. -1.
        -11    1    1    2    0    0 -0.16284415050E+02 -0.34722954182E+02  0.83110239580E+02  0.91532385765E+02  0.00000000000E+00 0.  1.
         11    1    1    2    0    0 -0.35662058928E+02  0.59238838832E+02  0.18819503620E+03  0.20049537183E+03  0.00000000000E+00 0. -1.
</event>
<event>
 7    1  0.2679104E-009  0.1125496E+03  0.7561462E-02  0.1255920E+00
         -4   -1    0    0    0  501 -0.00000000000E+00  0.00000000000E+00  0.42702331531E+03  0.42702331531E+03  0.00000000000E+00 0.  1.
          4   -1    0    0  501    0  0.00000000000E+00 -0.00000000000E+00 -0.56185000965E+02  0.56185000965E+02  0.00000000000E+00 0. -1.
         25    2    1    2    0    0 -0.89473043514E+02 -0.31939755499E+02  0.28660354447E+03  0.32682568071E+03  0.12509140807E+03 0.  0.
          5    1    3    3  502    0 -0.37959819381E+02 -0.37950922617E+02  0.23703671571E+02  0.58826497948E+02  0.41800000000E+01 0. -1.
         -5    1    3    3    0  502 -0.51513224134E+02  0.60111671182E+01  0.26289987290E+03  0.26799918277E+03  0.41800000000E+01 0. -1.
        -11    1    1    2    0    0  0.10021119302E+03  0.18298441057E+02  0.92093899100E+02  0.13732589851E+03  0.00000000000E+00 0.  1.
         11    1    1    2    0    0 -0.10738149504E+02  0.13641314442E+02 -0.78591292315E+01  0.19056737044E+02  0.00000000000E+00 0. -1.
</event>
<event>
 7    1  0.2679104E-009  0.2436262E+03  0.7561462E-02  0.1117400E+00
          2   -1    0    0  501    0  0.00000000000E+00  0.00000000000E+00  0.60267062870E+03  0.60267062870E+03  0.00000000000E+00 0. -1.
         -2   -1    0    0    0  501 -0.00000000000E+00 -0.00000000000E+00 -0.13993786739E+03  0.13993786739E+03  0.00000000000E+00 0.  1.
         25    2    1    2    0    0 -0.19844434285E+03  0.13833417235E+03  0.39098349156E+03  0.47647981681E+03  0.12509366373E+03 0.  0.
          5    1    3    3  502    0 -0.14991470817E+03  0.86415404975E+02  0.35876782425E+03  0.39833888344E+03  0.41800000000E+01 0. -1.
         -5    1    3    3    0  502 -0.48529634675E+02  0.51918767378E+02  0.32215667311E+02  0.78140933370E+02  0.41800000000E+01 0. -1.
        -11    1    1    2    0    0  0.58201292076E+02 -0.53582934593E+02 -0.15304336610E+02  0.80577565103E+02  0.00000000000E+00 0.  1.
         11    1    1    2    0    0  0.14024305077E+03 -0.84751237760E+02  0.87053606364E+02  0.18555111418E+03  0.00000000000E+00 0. -1.
</event>
<event>
 7    1  0.2679104E-009  0.7025420E+02  0.7561462E-02  0.1359231E+00
         -1   -1    0    0    0  501 -0.00000000000E+00  0.00000000000E+00  0.31456601279E+02  0.31456601279E+02  0.00000000000E+00 0.  1.
          1   -1    0    0  501    0  0.00000000000E+00 -0.00000000000E+00 -0.41744651018E+03  0.41744651018E+03  0.00000000000E+00 0. -1.
         25    2    1    2    0    0 -0.10589418535E+02  0.31731111972E+02 -0.18142513983E+03  0.22289359316E+03  0.12508986073E+03 0.  0.
          5    1    3    3  502    0  0.11640103259E+01  0.34164384546E+02 -0.19857964277E+03  0.20154380917E+03  0.41800000000E+01 0. -1.
         -5    1    3    3    0  502 -0.11753428861E+02 -0.24332725740E+01  0.17154502938E+02  0.21349783991E+02  0.41800000000E+01 0. -1.
        -11    1    1    2    0    0  0.24709513281E+02  0.24849702043E+02 -0.10417086579E+03  0.10990740201E+03  0.00000000000E+00 0.  1.
         11    1    1    2    0    0 -0.14120094747E+02 -0.56580814015E+02 -0.10039390328E+03  0.11610211629E+03  0.00000000000E+00 0. -1.
</event>
<event>
 7    1  0.2945362E-009  0.1009766E+03  0.7561462E-02  0.1278256E+00
          2   -1    0    0  501    0  0.00000000000E+00  0.00000000000E+00  0.55971712673E+03  0.55971712673E+03  0.00000000000E+00 0. -1.
         -2   -1    0    0    0  501 -0.00000000000E+00 -0.00000000000E+00 -0.34679031371E+02  0.34679031371E+02  0.00000000000E+00 0.  1.
         25    2    1    2    0    0  0.56103443248E+02 -0.38135092262E+01  0.42806089854E+03  0.44949374557E+03  0.12508539183E+03 0.  0.
          5    1    3    3  502    0  0.90845079828E+02  0.19050877203E+02  0.25331263846E+03  0.26981573278E+03  0.41800000000E+01 0.  1.
         -5    1    3    3    0  502 -0.34741636580E+02 -0.22864386429E+02  0.17474826008E+03  0.17967801279E+03  0.41800000000E+01 0.  1.
        -11    1    1    2    0    0 -0.83386348241E+01 -0.13970540154E+02  0.92296804845E+02  0.93719843190E+02  0.00000000000E+00 0. -1.
         11    1    1    2    0    0 -0.47764808424E+02  0.17784049381E+02  0.46803919813E+01  0.51182569350E+02  0.00000000000E+00 0.  1.
</event>
<event>
 7    1  0.2679104E-009  0.1904752E+03  0.7561462E-02  0.1158033E+00
         -2   -1    0    0    0  501 -0.00000000000E+00  0.00000000000E+00  0.37127497619E+02  0.37127497619E+02  0.00000000000E+00 0.  1.
          2   -1    0    0  501    0  0.00000000000E+00 -0.00000000000E+00 -0.10472886878E+04  0.10472886878E+04  0.00000000000E+00 0. -1.
         25    2    1    2    0    0  0.59428516694E+02 -0.14983274885E+03 -0.44425333864E+03  0.48886561775E+03  0.12508781756E+03 0.  0.
          5    1    3    3  502    0  0.60450311831E+02 -0.12783517261E+02 -0.92344523439E+02  0.11118741801E+03  0.41800000000E+01 0. -1.
         -5    1    3    3    0  502 -0.10217951372E+01 -0.13704923159E+03 -0.35190881520E+03  0.37767819974E+03  0.41800000000E+01 0. -1.
        -11    1    1    2    0    0  0.13470938408E+02  0.79415122847E+02 -0.31020889560E+03  0.32049615728E+03  0.00000000000E+00 0. -1.
         11    1    1    2    0    0 -0.72899455102E+02  0.70417626006E+02 -0.25569895592E+03  0.27505441037E+03  0.00000000000E+00 0.  1.
</event>
<event>
 7    1  0.2679104E-009  0.1764724E+03  0.7561462E-02  0.1171261E+00
          1   -1    0    0  501    0  0.00000000000E+00  0.00000000000E+00  0.81750076146E+03  0.81750076146E+03  0.00000000000E+00 0. -1.
         -1   -1    0    0    0  501 -0.00000000000E+00 -0.00000000000E+00 -0.40661926113E+02  0.40661926113E+02  0.00000000000E+00 0.  1.
         25    2    1    2    0    0 -0.13223000940E+03 -0.57769898507E+02  0.35517083747E+03  0.40325673832E+03  0.12509011414E+03 0.  0.
          5    1    3    3  502    0 -0.40797993322E+02  0.39024576585E+02  0.12695365412E+03  0.13900394430E+03  0.41800000000E+01 0.  1.
         -5    1    3    3    0  502 -0.91432016082E+02 -0.96794475092E+02  0.22821718334E+03  0.26425279402E+03  0.41800000000E+01 0.  1.
        -11    1    1    2    0    0  0.94446178889E+02  0.42880236526E+00  0.17502688167E+03  0.19888356866E+03  0.00000000000E+00 0.  1.
         11    1    1    2    0    0  0.37783830515E+02  0.57341096142E+02  0.24664111621E+03  0.25602238059E+03  0.00000000000E+00 0. -1.
</event>
<event>
 7    1  0.2679104E-009  0.1288141E+03  0.7561462E-02  0.1229226E+00
          1   -1    0    0  501    0  0.00000000000E+00  0.00000000000E+00  0.13092242901E+04  0.13092242901E+04  0.00000000000E+00 0. -1.
         -1   -1    0    0    0  501 -0.00000000000E+00 -0.00000000000E+00 -0.21389471579E+02  0.21389471579E+02  0.00000000000E+00 0.  1.
         25    2    1    2    0    0 -0.71497903309E+02 -0.11516756346E+01  0.11051826281E+04  0.11145354181E+04  0.12508908949E+03 0.  0.
          5    1    3    3  502    0 -0.10741447664E+03  0.89927240339E+00  0.79065355187E+03  0.79792806064E+03  0.41800000000E+01 0. -1.
         -5    1    3    3    0  502  0.35916573329E+02 -0.20509480380E+01  0.31452907622E+03  0.31660735749E+03  0.41800000000E+01 0. -1.
        -11    1    1    2    0    0 -0.21190712431E+02  0.11690433127E+01  0.49336962572E+02  0.53707995973E+02  0.00000000000E+00 0. -1.
         11    1    1    2    0    0  0.92688615740E+02 -0.17367678107E-01  0.13331522782E+03  0.16237034753E+03  0.00000000000E+00 0.  1.
</event>
<event>
 7    1  0.2679104E-009  0.1464840E+03  0.7561462E-02  0.1204861E+00
          1   -1    0    0  501    0  0.00000000000E+00  0.00000000000E+00  0.21872868263E+03  0.21872868263E+03  0.00000000000E+00 0. -1.
         -1   -1    0    0    0  501 -0.00000000000E+00 -0.00000000000E+00 -0.15542043801E+03  0.15542043801E+03  0.00000000000E+00 0.  1.
         25    2    1    2    0    0  0.30135734684E+01 -0.13186524821E+03  0.10409624060E+03  0.20947959660E+03  0.12509256083E+03 0.  0.
          5    1    3    3  502    0 -0.35184731851E+02 -0.88085811818E+02  0.56781106910E+01  0.95114609498E+02  0.41800000000E+01 0.  1.
         -5    1    3    3    0  502  0.38198305320E+02 -0.43779436393E+02  0.98418129911E+02  0.11436498710E+03  0.41800000000E+01 0.  1.
        -11    1    1    2    0    0  0.15553919880E+02  0.15585849474E+02 -0.41427064173E+02  0.46915293599E+02  0.00000000000E+00 0.  1.
         11    1    1    2    0    0 -0.18567493348E+02  0.11627939874E+03  0.63906819197E+00  0.11775423045E+03  0.00000000000E+00 0. -1.
</event>
<event>
 7    1  0.2679104E-009  0.1067693E+03  0.7561462E-02  0.1266672E+00
         -2   -1    0    0    0  501 -0.00000000000E+00  0.00000000000E+00  0.47109095043E+02  0.47109095043E+02  0.00000000000E+00 0.  1.
          2   -1    0    0  501    0  0.00000000000E+00 -0.00000000000E+00 -0.26300379343E+03  0.26300379343E+03  0.00000000000E+00 0. -1.
         25    2    1    2    0    0  0.21008555525E+02 -0.12466042008E+02 -0.13744812339E+03  0.18744214354E+03  0.12508320807E+03 0.  0.
          5    1    3    3  502    0 -0.31157422811E+02 -0.49182554347E+02 -0.39508596938E+02  0.70484823049E+02  0.41800000000E+01 0. -1.
         -5    1    3    3    0  502  0.52165978336E+02  0.36716512339E+02 -0.97939526450E+02  0.11695732049E+03  0.41800000000E+01 0. -1.
        -11    1    1    2    0    0 -0.23262323635E+02  0.49207178978E+02 -0.31062247836E+02  0.62668536000E+02  0.00000000000E+00 0.  1.
         11    1    1    2    0    0  0.22537681092E+01 -0.36741136969E+02 -0.47384327161E+02  0.60002208934E+02  0.00000000000E+00 0. -1.
</event>
<event>
 7    1  0.2679104E-009  0.1035407E+03  0.7561462E-02  0.1273022E+00
         -1   -1    0    0    0  501 -0.00000000000E+00  0.00000000000E+00  0.16458155666E+02  0.16458155666E+02  0.00000000000E+00 0.  1.
          1   -1    0    0  501    0  0.00000000000E+00 -0.00000000000E+00 -0.86002308936E+03  0.86002308936E+03  0.00000000000E+00 0. -1.
         25    2    1    2    0    0  0.48522715019E+02  0.69505292599E+01 -0.49961421692E+03  0.51735926968E+03  0.12507391593E+03 0.  0.
          5    1    3    3  502    0 -0.26007691180E+02  0.15719687811E+02 -0.34308694419E+02  0.46022467319E+02  0.41800000000E+01 0.  1.
         -5    1    3    3    0  502  0.74530406199E+02 -0.87691585514E+01 -0.46530552250E+03  0.47133680236E+03  0.41800000000E+01 0.  1.
        -11    1    1    2    0    0  0.26065048548E+02  0.18992323908E+01 -0.12324440999E+03  0.12598483414E+03  0.00000000000E+00 0.  1.
         11    1    1    2    0    0 -0.74587763567E+02 -0.88497616506E+01 -0.22070630678E+03  0.23313714121E+03  0.00000000000E+00 0. -1.
</event>
<event>
 7    1  0.2679104E-009  0.1078095E+03  0.7561462E-02  0.1264681E+00
          1   -1    0    0  501    0  0.00000000000E+00  0.00000000000E+00  0.16044974117E+03  0.16044974117E+03  0.00000000000E+00 0. -1.
         -1   -1    0    0    0  501 -0.00000000000E+00 -0.00000000000E+00 -0.12424644747E+03  0.12424644747E+03  0.00000000000E+00 0.  1.
         25    2    1    2    0    0  0.20009251858E+02  0.68497980123E+02  0.78084379961E+02  0.16381738791E+03  0.12508646109E+03 0.  0.
          5    1    3    3  502    0 -0.17203441620E+02  0.95955303271E+02  0.53186755787E+02  0.11112912319E+03  0.41800000000E+01 0.  1.
         -5    1    3    3    0  502  0.37212693478E+02 -0.27457323148E+02  0.24897624174E+02  0.52688264726E+02  0.41800000000E+01 0.  1.
        -11    1    1    2    0    0 -0.14798303915E+02 -0.40229425514E+02  0.23909936410E+02  0.49082395368E+02  0.00000000000E+00 0. -1.
         11    1    1    2    0    0 -0.52109479431E+01 -0.28268554609E+02 -0.65791022671E+02  0.71796405358E+02  0.00000000000E+00 0.  1.
</event>
<event>
 7    1  0.2749136E-009  0.1796695E+03  0.7561462E-02  0.1168123E+00
         -1   -1    0    0    0  501 -0.00000000000E+00  0.00000000000E+00  0.23538562073E+02  0.23538562073E+02  0.00000000000E+00 0.  1.
          1   -1    0    0  501    0  0.00000000000E+00 -0.00000000000E+00 -0.15127434277E+04  0.15127434277E+04  0.00000000000E+00 0. -1.
         25    2    1    2    0    0 -0.55047880859E+02 -0.14273305155E+03 -0.86551284726E+03  0.88778545557E+03  0.12509010011E+03 0.  0.
          5    1    3    3  502    0  0.21013828203E+02  0.12420827565E+02 -0.10941256622E+03  0.11218039035E+03  0.41800000000E+01 0. -1.
         -5    1    3    3    0  502 -0.76061709062E+02 -0.15515387911E+03 -0.75610028104E+03  0.77560506521E+03  0.41800000000E+01 0. -1.
        -11    1    1    2    0    0 -0.58810843201E+00  0.70739632108E+02 -0.14623169612E+03  0.16244429929E+03  0.00000000000E+00 0.  1.
         11    1    1    2    0    0  0.55635989291E+02  0.71993419442E+02 -0.47746032227E+03  0.48605223494E+03  0.00000000000E+00 0. -1.
</event>
<event>
 7    1  0.2679104E-009  0.1641619E+03  0.7561462E-02  0.1184076E+00
          3   -1    0    0  501    0  0.00000000000E+00  0.00000000000E+00  0.77029094464E+03  0.77029094464E+03  0.00000000000E+00 0. -1.
         -3   -1    0    0    0  501 -0.00000000000E+00 -0.00000000000E+00 -0.40802058671E+02  0.40802058671E+02  0.00000000000E+00 0.  1.
         25    2    1    2    0    0  0.10236259070E+03 -0.71775695836E+02  0.53411842216E+03  0.56263621834E+03  0.12508866779E+03 0.  0.
          5    1    3    3  502    0  0.12751801818E+03 -0.35362293331E+02  0.40107125428E+03  0.42235880500E+03  0.41800000000E+01 0. -1.
         -5    1    3    3    0  502 -0.25155427473E+02 -0.36413402504E+02  0.13304716788E+03  0.14027741334E+03  0.41800000000E+01 0. -1.
        -11    1    1    2    0    0 -0.20233741609E+02 -0.19906571682E+02  0.54032056986E+02  0.61033917437E+02  0.00000000000E+00 0.  1.
         11    1    1    2    0    0 -0.82128849096E+02  0.91682267518E+02  0.14133840682E+03  0.18742286753E+03  0.00000000000E+00 0. -1.
</event>
<event>
 7    1  0.2679104E-009  0.7215533E+02  0.7561462E-02  0.1352913E+00
         -2   -1    0    0    0  501 -0.00000000000E+00  0.00000000000E+00  0.14828426682E+03  0.14828426682E+03  0.00000000000E+00 0.  1.
          2   -1    0    0  501    0  0.00000000000E+00 -0.00000000000E+00 -0.88473967361E+02  0.88473967361E+02  0.00000000000E+00 0. -1.
         25    2    1    2    0    0 -0.16421343839E+02  0.56705616742E+00 -0.28681847312E+01  0.12619676994E+03  0.12508963256E+03 0.  0.
          5    1    3    3  502    0 -0.72164765223E+00 -0.39721842616E+02 -0.48740251912E+02  0.63019283657E+02  0.41800000000E+01 0.  1.
         -5    1    3    3    0  502 -0.15699696187E+02  0.40288898784E+02  0.45872067181E+02  0.63177486283E+02  0.41800000000E+01 0.  1.
        -11    1    1    2    0    0  0.37969862609E+02 -0.66120962428E+01  0.75500141598E+02  0.84768518122E+02  0.00000000000E+00 0.  1.
         11    1    1    2    0    0 -0.21548518770E+02  0.60450400754E+01 -0.12821657409E+02  0.25792946117E+02  0.00000000000E+00 0. -1.
</event>
<event>
 7    1  0.2679104E-009  0.1086324E+03  0.7561462E-02  0.1263124E+00
          2   -1    0    0  501    0  0.00000000000E+00  0.00000000000E+00  0.76455707956E+03  0.76455707956E+03  0.00000000000E+00 0. -1.
         -2   -1    0    0    0  501 -0.00000000000E+00 -0.00000000000E+00 -0.23790806011E+02  0.23790806011E+02  0.00000000000E+00 0.  1.
         25    2    1    2    0    0  0.42004094735E+02 -0.30546149308E+02  0.58869308496E+03  0.60407210090E+03  0.12508454580E+03 0.  0.
          5    1    3    3  502    0 -0.25042916658E+02 -0.54581583049E+02  0.19915934123E+03  0.20805819494E+03  0.41800000000E+01 0.  1.
         -5    1    3    3    0  502  0.67047011394E+02  0.24035433741E+02  0.38953374373E+03  0.39601390596E+03  0.41800000000E+01 0.  1.
        -11    1    1    2    0    0 -0.59288428986E+02  0.33629847147E+02  0.60829197431E+02  0.91357953626E+02  0.00000000000E+00 0.  1.
         11    1    1    2    0    0  0.17284334250E+02 -0.30836978386E+01  0.91243991162E+02  0.92917831044E+02  0.00000000000E+00 0. -1.
</event>
<event>
 7    1  0.2679104E-009  0.1128887E+03  0.7561462E-02  0.1255312E+00
         -1   -1    0    0    0  501 -0.00000000000E+00  0.00000000000E+00  0.38524592262E+02  0.38524592262E+02  0.00000000000E+00 0.  1.
          1   -1    0    0  501    0  0.00000000000E+00 -0.00000000000E+00 -0.42166143161E+03  0.42166143161E+03  0.00000000000E+00 0. -1.
         25    2    1    2    0    0 -0.60110591482E+02 -0.20676726574E+02 -0.24098609607E+03  0.27885936120E+03  0.12508970621E+03 0.  0.
          5    1    3    3  502    0  0.25186246590E+02  0.10993500006E+02 -0.14055598580E+03  0.14327826633E+03  0.41800000000E+01 0. -1.
         -5    1    3    3    0  502 -0.85296838072E+02 -0.31670226580E+02 -0.10043011027E+03  0.13558109487E+03  0.41800000000E+01 0. -1.
        -11    1    1    2    0    0  0.25471248186E+02 -0.33810942441E+02 -0.29882666619E+02  0.51816388114E+02  0.00000000000E+00 0.  1.
         11    1    1    2    0    0  0.34639343296E+02  0.54487669016E+02 -0.11226807666E+03  0.12951027456E+03  0.00000000000E+00 0. -1.
</event>
<event>
 7    1  0.2679104E-009  0.1206009E+03  0.7561462E-02  0.1242109E+00
         -2   -1    0    0    0  501 -0.00000000000E+00  0.00000000000E+00  0.14369964943E+04  0.14369964943E+04  0.00000000000E+00 0.  1.
          2   -1    0    0  501    0  0.00000000000E+00 -0.00000000000E+00 -0.12922045098E+02  0.12922045098E+02  0.00000000000E+00 0. -1.
         25    2    1    2    0    0  0.80183912880E+02  0.17690183019E+02  0.79648815820E+03  0.81042178115E+03  0.12509066612E+03 0.  0.
          5    1    3    3  502    0 -0.11498218544E+02 -0.22486607041E+02  0.41111442164E+02  0.48430151793E+02  0.41800000000E+01 0. -1.
         -5    1    3    3    0  502  0.91682131424E+02  0.40176790059E+02  0.75537671603E+03  0.76199162935E+03  0.41800000000E+01 0. -1.
        -11    1    1    2    0    0  0.16808215222E+02  0.86608651966E-01  0.35777422004E+02  0.39529071900E+02  0.00000000000E+00 0. -1.
         11    1    1    2    0    0 -0.96992128102E+02 -0.17776791671E+02  0.59180886898E+03  0.59996768633E+03  0.00000000000E+00 0.  1.
</event>
<event>
 7    1  0.2679104E-009  0.1381445E+03  0.7561462E-02  0.1215848E+00
          1   -1    0    0  501    0  0.00000000000E+00  0.00000000000E+00  0.31022696041E+03  0.31022696041E+03  0.00000000000E+00 0. -1.
         -1   -1    0    0    0  501 -0.00000000000E+00 -0.00000000000E+00 -0.72013291418E+02  0.72013291418E+02  0.00000000000E+00 0.  1.
         25    2    1    2    0    0  0.76021237403E+02 -0.64191417238E+02  0.94647357510E+02  0.18575360615E+03  0.12508602372E+03 0.  0.
          5    1    3    3  502    0  0.21603800845E+02 -0.94726572202E+02  0.55463661725E+02  0.11195328429E+03  0.41800000000E+01 0. -1.
         -5    1    3    3    0  502  0.54417436559E+02  0.30535154964E+02  0.39183695785E+02  0.73800321853E+02  0.41800000000E+01 0. -1.
        -11    1    1    2    0    0 -0.84378715787E+02  0.45133018233E+02  0.66168945337E+02  0.11634038998E+03  0.00000000000E+00 0.  1.
         11    1    1    2    0    0  0.83574783837E+01  0.19058399005E+02  0.77397366147E+02  0.80146255708E+02  0.00000000000E+00 0. -1.
</event>
<event>
 7    1  0.2679104E-009  0.1037663E+03  0.7561462E-02  0.1272570E+00
          1   -1    0    0  501    0  0.00000000000E+00  0.00000000000E+00  0.42081860022E+03  0.42081860022E+03  0.00000000000E+00 0. -1.
         -1   -1    0    0    0  501 -0.00000000000E+00 -0.00000000000E+00 -0.37282839898E+02  0.37282839898E+02  0.00000000000E+00 0.  1.
         25    2    1    2    0    0  0.43120723823E+02 -0.35338439864E+02  0.25890406410E+03  0.29289393795E+03  0.12508933738E+03 0.  0.
          5    1    3    3  502    0  0.46613555168E+02  0.15694266727E+02  0.28828628090E+02  0.57163762394E+02  0.41800000000E+01 0. -1.
         -5    1    3    3    0  502 -0.34928313445E+01 -0.51032706591E+02  0.23007543601E+03  0.23573017556E+03  0.41800000000E+01 0. -1.
        -11    1    1    2    0    0 -0.11057562011E+01  0.58743432068E+02  0.54292663086E+02  0.79998167310E+02  0.00000000000E+00 0.  1.
         11    1    1    2    0    0 -0.42014967622E+02 -0.23404992204E+02  0.70339033135E+02  0.85209334857E+02  0.00000000000E+00 0. -1.
</event>
<event>
 7    1  0.2679104E-009  0.1484218E+03  0.7561462E-02  0.1202426E+00
          2   -1    0    0  501    0  0.00000000000E+00  0.00000000000E+00  0.71146119116E+03  0.71146119116E+03  0.00000000000E+00 0. -1.
         -2   -1    0    0    0  501 -0.00000000000E+00 -0.00000000000E+00 -0.36894706778E+02  0.36894706778E+02  0.00000000000E+00 0.  1.
         25    2    1    2    0    0 -0.45467738021E+02  0.10678925253E+03  0.29545102736E+03  0.34118808247E+03  0.12508692335E+03 0.  0.
          5    1    3    3  502    0  0.33790207260E+02 -0.39891319288E+01  0.63743138552E+02  0.72376456066E+02  0.41800000000E+01 0.  1.
         -5    1    3    3    0  502 -0.79257945281E+02  0.11077838446E+03  0.23170788881E+03  0.26881162640E+03  0.41800000000E+01 0.  1.
        -11    1    1    2    0    0  0.35593174639E+02 -0.24041021847E+02  0.42627928913E+02  0.60514338266E+02  0.00000000000E+00 0.  1.
         11    1    1    2    0    0  0.98745633822E+01 -0.82748230686E+02  0.33648752811E+03  0.34665347720E+03  0.00000000000E+00 0. -1.
</event>
<event>
 7    1  0.2679104E-009  0.1335444E+03  0.7561462E-02  0.1222289E+00
          1   -1    0    0  501    0  0.00000000000E+00  0.00000000000E+00  0.11253607212E+03  0.11253607212E+03  0.00000000000E+00 0. -1.
         -1   -1    0    0    0  501 -0.00000000000E+00 -0.00000000000E+00 -0.22415636703E+03  0.22415636703E+03  0.00000000000E+00 0.  1.
         25    2    1    2    0    0 -0.25105177701E+02  0.10616621239E+03 -0.17325420491E+02  0.16688385906E+03  0.12509403510E+03 0.  0.
          5    1    3    3  502    0  0.15955779313E+02  0.72397031475E+02 -0.62452944699E+02  0.97024531751E+02  0.41800000000E+01 0.  1.
         -5    1    3    3    0  502 -0.41060957014E+02  0.33769180917E+02  0.45127524207E+02  0.69859327307E+02  0.41800000000E+01 0.  1.
        -11    1    1    2    0    0 -0.32029697446E+02 -0.50076028512E+02 -0.53386089288E+02  0.79897338375E+02  0.00000000000E+00 0. -1.
         11    1    1    2    0    0  0.57134875147E+02 -0.56090183880E+02 -0.40908785134E+02  0.89911241716E+02  0.00000000000E+00 0.  1.
</event>
<event>
 7    1  0.2679104E-009  0.1197516E+03  0.7561462E-02  0.1243507E+00
          1   -1    0    0  501    0  0.00000000000E+00  0.00000000000E+00  0.26685592872E+03  0.26685592872E+03  0.00000000000E+00 0. -1.
         -1   -1    0    0    0  501 -0.00000000000E+00 -0.00000000000E+00 -0.12636921658E+03  0.12636921658E+03  0.00000000000E+00 0.  1.
         25    2    1    2    0    0 -0.29730418543E+02 -0.82365490288E+02  0.19981292587E+03  0.25147453722E+03  0.12508503408E+03 0.  0.
          5    1    3    3  502    0  0.25538535300E+02 -0.46254479044E+02  0.17152607989E+03  0.17952816520E+03  0.41800000000E+01 0.  1.
         -5    1    3    3    0  502 -0.55268953843E+02 -0.36111011244E+02  0.28286845978E+02  0.71946372023E+02  0.41800000000E+01 0.  1.
        -11    1    1    2    0    0 -0.28993007368E+02  0.25695726157E+02 -0.44160217282E+02  0.58745124133E+02  0.00000000000E+00 0.  1.
         11    1    1    2    0    0  0.58723425911E+02  0.56669764131E+02 -0.15165996437E+02  0.83005483947E+02  0.00000000000E+00 0. -1.
</event>
<event>
 7    1  0.2679104E-009  0.1452729E+03  0.7561462E-02  0.1206405E+00
          1   -1    0    0  501    0  0.00000000000E+00  0.00000000000E+00  0.51942703554E+03  0.51942703554E+03  0.00000000000E+00 0. -1.
         -1   -1    0    0    0  501 -0.00000000000E+00 -0.00000000000E+00 -0.53440582547E+02  0.53440582547E+02  0.00000000000E+00 0.  1.
         25    2    1    2    0    0 -0.86128239497E+02 -0.85474794035E+02  0.30842712980E+03  0.35425820168E+03  0.12509022745E+03 0.  0.
          5    1    3    3  502    0 -0.73934003678E+02 -0.39529383924E+01  0.70105450583E+02  0.10204954298E+03  0.41800000000E+01 0. -1.
         -5    1    3    3    0  502 -0.12194235819E+02 -0.81521855642E+02  0.23832167922E+03  0.25220865869E+03  0.41800000000E+01 0. -1.
        -11    1    1    2    0    0  0.86358228603E+02  0.52889079248E+02  0.64632705920E+02  0.12013486183E+03  0.00000000000E+00 0.  1.
         11    1    1    2    0    0 -0.22998910659E+00  0.32585714787E+02  0.92926617270E+02  0.98474554583E+02  0.00000000000E+00 0. -1.
</event>
<event>
 7    1  0.2679104E-009  0.1359076E+03  0.7561462E-02  0.1218944E+00
          1   -1    0    0  501    0  0.00000000000E+00  0.00000000000E+00  0.50063621161E+03  0.50063621161E+03  0.00000000000E+00 0.  1.
         -1   -1    0    0    0  501 -0.00000000000E+00 -0.00000000000E+00 -0.45161813853E+02  0.45161813853E+02  0.00000000000E+00 0. -1.
         25    2    1    2    0    0 -0.59946271623E+02 -0.85755697768E+02  0.25111496325E+03  0.29942237390E+03  0.12508971997E+03 0.  0.
          5    1    3    3  502    0 -0.89638884529E+02 -0.78644891939E+02  0.13919948156E+03  0.18334153025E+03  0.41800000000E+01 0.  1.
         -5    1    3    3    0  502  0.29692612906E+02 -0.71108058290E+01  0.11191548169E+03  0.11608084365E+03  0.41800000000E+01 0.  1.
        -11    1    1    2    0    0  0.29961833433E+02 -0.90478427418E+00  0.10222556688E+02  0.31670660910E+02  0.00000000000E+00 0. -1.
         11    1    1    2    0    0  0.29984438190E+02  0.86660482042E+02  0.19413687781E+03  0.21470499064E+03  0.00000000000E+00 0.  1.
</event>
<event>
 7    1  0.2679104E-009  0.9967815E+02  0.7561462E-02  0.1280974E+00
         -1   -1    0    0    0  501 -0.00000000000E+00  0.00000000000E+00  0.16378680624E+03  0.16378680624E+03  0.00000000000E+00 0.  1.
          1   -1    0    0  501    0  0.00000000000E+00 -0.00000000000E+00 -0.81105632546E+02  0.81105632546E+02  0.00000000000E+00 0. -1.
         25    2    1    2    0    0  0.83099051339E+01 -0.10453272116E+02  0.28055219090E+01  0.12583551082E+03  0.12509348268E+03 0.  0.
          5    1    3    3  502    0  0.13623559441E+02  0.55747177193E+02  0.11644777946E+02  0.58706238087E+02  0.41800000000E+01 0. -1.
         -5    1    3    3    0  502 -0.53136543067E+01 -0.66200449309E+02 -0.88392560374E+01  0.67129272736E+02  0.41800000000E+01 0. -1.
        -11    1    1    2    0    0 -0.23869246712E+01 -0.32160204403E+02  0.49063616784E+01  0.32619756920E+02  0.00000000000E+00 0.  1.
         11    1    1    2    0    0 -0.59229804627E+01  0.42613476519E+02  0.74969290105E+02  0.86437171040E+02  0.00000000000E+00 0. -1.
</event>
<event>
 7    1  0.2679104E-009  0.1277033E+03  0.7561462E-02  0.1230904E+00
          1   -1    0    0  501    0  0.00000000000E+00  0.00000000000E+00  0.11700694084E+04  0.11700694084E+04  0.00000000000E+00 0. -1.
         -1   -1    0    0    0  501 -0.00000000000E+00 -0.00000000000E+00 -0.22306857441E+02  0.22306857441E+02  0.00000000000E+00 0.  1.
         25    2    1    2    0    0 -0.86500838810E+02  0.83007574106E+02  0.61681672802E+03  0.64068922875E+03  0.12508860621E+03 0.  0.
          5    1    3    3  502    0 -0.53726652503E+02  0.77633020845E+02  0.18654208898E+03  0.20911447218E+03  0.41800000000E+01 0.  1.
         -5    1    3    3    0  502 -0.32774186306E+02  0.53745532611E+01  0.43027463904E+03  0.43157475657E+03  0.41800000000E+01 0.  1.
        -11    1    1    2    0    0  0.35742190390E+02 -0.76187717794E+01  0.48347551843E+02  0.60605574219E+02  0.00000000000E+00 0.  1.
         11    1    1    2    0    0  0.50758648420E+02 -0.75388802327E+02  0.48259827108E+03  0.49108146285E+03  0.00000000000E+00 0. -1.
</event>
<event>
 7    1  0.2679104E-009  0.1936138E+03  0.7561462E-02  0.1155242E+00
         -2   -1    0    0    0  501 -0.00000000000E+00  0.00000000000E+00  0.41737938388E+02  0.41737938388E+02  0.00000000000E+00 0.  1.
          2   -1    0    0  501    0  0.00000000000E+00 -0.00000000000E+00 -0.10074248286E+04  0.10074248286E+04  0.00000000000E+00 0. -1.
         25    2    1    2    0    0 -0.16079394876E+03  0.32332741250E+02 -0.64455114604E+03  0.67675069388E+03  0.12508086060E+03 0.  0.
          5    1    3    3  502    0 -0.16525975961E+03 -0.61714499719E+01 -0.48232910914E+03  0.50990951831E+03  0.41800000000E+01 0.  1.
         -5    1    3    3    0  502  0.44658108509E+01  0.38504191221E+02 -0.16222203691E+03  0.16684117557E+03  0.41800000000E+01 0.  1.
        -11    1    1    2    0    0  0.10646372424E+03 -0.59613884971E+02 -0.16787767243E+03  0.20753614809E+03  0.00000000000E+00 0. -1.
         11    1    1    2    0    0  0.54330224523E+02  0.27281143722E+02 -0.15325807173E+03  0.16487592502E+03  0.00000000000E+00 0.  1.
</event>
<event>
 7    1  0.2679104E-009  0.8639275E+02  0.7561462E-02  0.1311830E+00
         -2   -1    0    0    0  501 -0.00000000000E+00  0.00000000000E+00  0.10459867670E+03  0.10459867670E+03  0.00000000000E+00 0.  1.
          2   -1    0    0  501    0  0.00000000000E+00 -0.00000000000E+00 -0.15555533841E+03  0.15555533841E+03  0.00000000000E+00 0. -1.
         25    2    1    2    0    0 -0.20061509092E+00 -0.61300691570E+02 -0.11286139654E+02  0.13975950681E+03  0.12509007859E+03 0.  0.
          5    1    3    3  502    0 -0.19213554984E+01 -0.36315145455E+02  0.56529443923E+02  0.67346357189E+02  0.41800000000E+01 0.  1.
         -5    1    3    3    0  502  0.17207404075E+01 -0.24985546115E+02 -0.67815583577E+02  0.72413149621E+02  0.41800000000E+01 0.  1.
        -11    1    1    2    0    0  0.88053823338E+00 -0.24734955688E+02 -0.20755667600E+02  0.32301565256E+02  0.00000000000E+00 0. -1.
         11    1    1    2    0    0 -0.67992314246E+00  0.86035647258E+02 -0.18914854452E+02  0.88092943040E+02  0.00000000000E+00 0.  1.
</event>
<event>
 7    1  0.2679104E-009  0.3119583E+03  0.7561462E-02  0.1079411E+00
          1   -1    0    0  501    0  0.00000000000E+00  0.00000000000E+00  0.20501242764E+04  0.20501242764E+04  0.00000000000E+00 0. -1.
         -1   -1    0    0    0  501 -0.00000000000E+00 -0.00000000000E+00 -0.74506917990E+02  0.74506917990E+02  0.00000000000E+00 0.  1.
         25    2    1    2    0    0  0.18735774981E+03  0.24602977183E+03  0.42292555406E+03  0.53865360202E+03  0.12509238049E+03 0.  0.
          5    1    3    3  502    0  0.11575811231E+03  0.15199054201E+03  0.15595253544E+03  0.24665711248E+03  0.41800000000E+01 0. -1.
         -5    1    3    3    0  502  0.71599637501E+02  0.94039229816E+02  0.26697301862E+03  0.29199648954E+03  0.41800000000E+01 0. -1.
        -11    1    1    2    0    0 -0.51990340267E+01 -0.36672882977E+02  0.92335673182E+02  0.99487722070E+02  0.00000000000E+00 0. -1.
         11    1    1    2    0    0 -0.18215871578E+03 -0.20935688885E+03  0.14603561312E+04  0.14864898703E+04  0.00000000000E+00 0.  1.
</event>
<event>
 7    1  0.2679104E-009  0.1808900E+03  0.7561462E-02  0.1166944E+00
         -1   -1    0    0    0  501 -0.00000000000E+00  0.00000000000E+00  0.23342760998E+03  0.23342760998E+03  0.00000000000E+00 0.  1.
          1   -1    0    0  501    0  0.00000000000E+00 -0.00000000000E+00 -0.19761188754E+03  0.19761188754E+03  0.00000000000E+00 0. -1.
         25    2    1    2    0    0 -0.40961544888E+02 -0.15760306129E+03 -0.69427849525E+02  0.21675752501E+03  0.12508807006E+03 0.  0.
          5    1    3    3  502    0 -0.71559470962E+02 -0.12537005744E+03 -0.87211677660E+02  0.16870613002E+03  0.41800000000E+01 0. -1.
         -5    1    3    3    0  502  0.30597926074E+02 -0.32233003853E+02  0.17783828135E+02  0.48051394991E+02  0.41800000000E+01 0. -1.
        -11    1    1    2    0    0  0.55742471469E+02  0.12900645055E+03  0.11395886444E+03  0.18093233595E+03  0.00000000000E+00 0.  1.
         11    1    1    2    0    0 -0.14780926581E+02  0.28596610736E+02 -0.87152924728E+01  0.33349636565E+02  0.00000000000E+00 0. -1.
</event>
<event>
 7    1  0.2679104E-009  0.7523208E+02  0.7561462E-02  0.1343154E+00
          4   -1    0    0  501    0  0.00000000000E+00  0.00000000000E+00  0.58430584409E+02  0.58430584409E+02  0.00000000000E+00 0.  1.
         -4   -1    0    0    0  501 -0.00000000000E+00 -0.00000000000E+00 -0.20412634971E+03  0.20412634971E+03  0.00000000000E+00 0. -1.
         25    2    1    2    0    0 -0.41215544597E+02 -0.27423140462E+02 -0.78560051546E+02  0.15578992996E+03  0.12509224927E+03 0.  0.
          5    1    3    3  502    0 -0.42162308124E+02  0.73257212539E-01 -0.10755615114E+03  0.11560044827E+03  0.41800000000E+01 0. -1.
         -5    1    3    3    0  502  0.94676352750E+00 -0.27496397675E+02  0.28996099593E+02  0.40189481682E+02  0.41800000000E+01 0. -1.
        -11    1    1    2    0    0  0.57793039000E+02  0.15465526016E+02 -0.60963665792E+02  0.85415375657E+02  0.00000000000E+00 0.  1.
         11    1    1    2    0    0 -0.16577494404E+02  0.11957614446E+02 -0.61720479669E+01  0.21351628510E+02  0.00000000000E+00 0. -1.
</event>
<event>
 7    1  0.2679104E-009  0.1324508E+03  0.7561462E-02  0.1223864E+00
          2   -1    0    0  501    0  0.00000000000E+00  0.00000000000E+00  0.48035271541E+02  0.48035271541E+02  0.00000000000E+00 0.  1.
         -2   -1    0    0    0  501 -0.00000000000E+00 -0.00000000000E+00 -0.49548622896E+03  0.49548622896E+03  0.00000000000E+00 0. -1.
         25    2    1    2    0    0 -0.10287894821E+03 -0.53215914902E+01 -0.30671776368E+03  0.34689418848E+03  0.12508954443E+03 0.  0.
          5    1    3    3  502    0 -0.77251360021E+02 -0.41580213000E+02 -0.28313599968E+03  0.29644586935E+03  0.41800000000E+01 0. -1.
         -5    1    3    3    0  502 -0.25627588186E+02  0.36258621510E+02 -0.23581763997E+02  0.50448319132E+02  0.41800000000E+01 0. -1.
        -11    1    1    2    0    0  0.73183478011E+02 -0.36023905842E+02 -0.11075713386E+03  0.13755248434E+03  0.00000000000E+00 0. -1.
         11    1    1    2    0    0  0.29695470196E+02  0.41345497332E+02 -0.29976059875E+02  0.59074827680E+02  0.00000000000E+00 0.  1.
</event>
<event>
 7    1  0.2679104E-009  0.8123780E+02  0.7561462E-02  0.1325575E+00
         -1   -1    0    0    0  501 -0.00000000000E+00  0.00000000000E+00  0.11052642218E+03  0.11052642218E+03  0.00000000000E+00 0.  1.
          1   -1    0    0  501    0  0.00000000000E+00 -0.00000000000E+00 -0.14508764320E+03  0.14508764320E+03  0.00000000000E+00 0. -1.
         25    2    1    2    0    0 -0.56864943258E+02 -0.13871045970E+02  0.10724714479E+02  0.13852179680E+03  0.12508893236E+03 0.  0.
          5    1    3    3  502    0 -0.21846195742E+02  0.18097612346E+01 -0.56643328355E+02  0.60880789673E+02  0.41800000000E+01 0.  1.
         -5    1    3    3    0  502 -0.35018747516E+02 -0.15680807204E+02  0.67368042834E+02  0.77641007125E+02  0.41800000000E+01 0.  1.
        -11    1    1    2    0    0 -0.12282259927E+02  0.28368042532E+02 -0.33292171349E+02  0.45430919198E+02  0.00000000000E+00 0. -1.
         11    1    1    2    0    0  0.69147203184E+02 -0.14496996563E+02 -0.11993764152E+02  0.71661349388E+02  0.00000000000E+00 0.  1.
</event>
<event>
 7    1  0.2679104E-009  0.1710086E+03  0.7561462E-02  0.1176800E+00
          1   -1    0    0  501    0  0.00000000000E+00  0.00000000000E+00  0.70866088924E+03  0.70866088924E+03  0.00000000000E+00 0. -1.
         -1   -1    0    0    0  501 -0.00000000000E+00 -0.00000000000E+00 -0.42164185939E+02  0.42164185939E+02  0.00000000000E+00 0.  1.
         25    2    1    2    0    0 -0.13366060349E+03 -0.14556759104E+02  0.34873607880E+03  0.39413040556E+03  0.12507944583E+03 0.  0.
          5    1    3    3  502    0  0.22601107473E+02  0.10511463653E+02  0.51127282259E+02  0.57033080912E+02  0.41800000000E+01 0.  1.
         -5    1    3    3    0  502 -0.15626171097E+03 -0.25068222758E+02  0.29760879654E+03  0.33709732465E+03  0.41800000000E+01 0.  1.
        -11    1    1    2    0    0  0.82732703349E+02  0.49735744425E+02  0.22869415172E+03  0.24823247070E+03  0.00000000000E+00 0.  1.
         11    1    1    2    0    0  0.50927900145E+02 -0.35178985321E+02  0.89066472785E+02  0.10846219893E+03  0.00000000000E+00 0. -1.
</event>
<event>
 7    1  0.2679104E-009  0.1192451E+03  0.7561462E-02  0.1244348E+00
         -2   -1    0    0    0  501 -0.00000000000E+00  0.00000000000E+00  0.31938510177E+02  0.31938510177E+02  0.00000000000E+00 0.  1.
          2   -1    0    0  501    0  0.00000000000E+00 -0.00000000000E+00 -0.49294702412E+03  0.49294702412E+03  0.00000000000E+00 0. -1.
         25    2    1    2    0    0 -0.54297881934E+02  0.30116907217E+02 -0.27450755038E+03  0.30799128441E+03  0.12509575523E+03 0.  0.
          5    1    3    3  502    0  0.43748254150E+01  0.66450823948E+02 -0.17059020101E+03  0.18317570849E+03  0.41800000000E+01 0. -1.
         -5    1    3    3    0  502 -0.58672707349E+02 -0.36333916731E+02 -0.10391734937E+03  0.12481557592E+03  0.41800000000E+01 0. -1.
        -11    1    1    2    0    0  0.33380988114E+02  0.26274049371E+02 -0.39266018390E+02  0.57848390108E+02  0.00000000000E+00 0.  1.
         11    1    1    2    0    0  0.20916893820E+02 -0.56390956589E+02 -0.14723494518E+03  0.15904585978E+03  0.00000000000E+00 0. -1.
</event>
<event>
 7    1  0.2679104E-009  0.1517335E+03  0.7561462E-02  0.1198359E+00
          1   -1    0    0  501    0  0.00000000000E+00  0.00000000000E+00  0.12895101416E+04  0.12895101416E+04  0.00000000000E+00 0. -1.
         -1   -1    0    0    0  501 -0.00000000000E+00 -0.00000000000E+00 -0.24959771420E+02  0.24959771420E+02  0.00000000000E+00 0.  1.
         25    2    1    2    0    0  0.36764735942E+02 -0.13459123603E+03  0.82105287277E+03  0.84216403167E+03  0.12508393075E+03 0.  0.
          5    1    3    3  502    0  0.24971720072E+02 -0.14966500776E+02  0.47302535368E+03  0.47393885742E+03  0.41800000000E+01 0.  1.
         -5    1    3    3    0  502  0.11793015870E+02 -0.11962473525E+03  0.34802751909E+03  0.36822517425E+03  0.41800000000E+01 0.  1.
        -11    1    1    2    0    0 -0.47161624341E+02  0.50696223479E+02  0.12627956514E+03  0.14401685477E+03  0.00000000000E+00 0.  1.
         11    1    1    2    0    0  0.10396888399E+02  0.83895012551E+02  0.31721793228E+03  0.32828902659E+03  0.00000000000E+00 0. -1.
</event>
<event>
 7    1  0.2679104E-009  0.9301014E+02  0.7561462E-02  0.1295722E+00
          1   -1    0    0  501    0  0.00000000000E+00  0.00000000000E+00  0.12656340316E+02  0.12656340316E+02  0.00000000000E+00 0. -1.
         -1   -1    0    0    0  501 -0.00000000000E+00 -0.00000000000E+00 -0.10401075584E+04  0.10401075584E+04  0.00000000000E+00 0.  1.
         25    2    1    2    0    0  0.17164863088E+02  0.46087421427E+01 -0.75339455824E+03  0.76391533022E+03  0.12508956119E+03 0.  0.
          5    1    3    3  502    0  0.15820727539E+02  0.54711425004E+02 -0.59484288664E+03  0.59757775028E+03  0.41800000000E+01 0. -1.
         -5    1    3    3    0  502  0.13441355497E+01 -0.50102682861E+02 -0.15855167161E+03  0.16633757994E+03  0.41800000000E+01 0. -1.
        -11    1    1    2    0    0 -0.28783467112E+02  0.30321455535E+02 -0.70291455693E+02  0.81784884839E+02  0.00000000000E+00 0. -1.
         11    1    1    2    0    0  0.11618604023E+02 -0.34930197678E+02 -0.20376520410E+03  0.20706368361E+03  0.00000000000E+00 0.  1.
</event>
<event>
 7    1  0.2679104E-009  0.1568447E+03  0.7561462E-02  0.1192306E+00
          1   -1    0    0  501    0  0.00000000000E+00  0.00000000000E+00  0.33314303458E+02  0.33314303458E+02  0.00000000000E+00 0. -1.
         -1   -1    0    0    0  501 -0.00000000000E+00 -0.00000000000E+00 -0.86004907416E+03  0.86004907416E+03  0.00000000000E+00 0.  1.
         25    2    1    2    0    0  0.11123877260E+03  0.54997953357E+02 -0.33713839748E+03  0.38040497824E+03  0.12508720563E+03 0.  0.
          5    1    3    3  502    0 -0.47661023101E+01  0.47616400183E+02 -0.17084687278E+03  0.17747158544E+03  0.41800000000E+01 0. -1.
         -5    1    3    3    0  502  0.11600487491E+03  0.73815531736E+01 -0.16629152469E+03  0.20293339280E+03  0.41800000000E+01 0. -1.
        -11    1    1    2    0    0  0.73117801310E+01 -0.26390916955E+02 -0.14128370746E+03  0.14391326770E+03  0.00000000000E+00 0.  1.
         11    1    1    2    0    0 -0.11855055273E+03 -0.28607036401E+02 -0.34831266576E+03  0.36904513167E+03  0.00000000000E+00 0. -1.
</event>
<event>
 7    1  0.2679104E-009  0.1263801E+03  0.7561462E-02  0.1232928E+00
          1   -1    0    0  501    0  0.00000000000E+00  0.00000000000E+00  0.34411870393E+03  0.34411870393E+03  0.00000000000E+00 0. -1.
         -1   -1    0    0    0  501 -0.00000000000E+00 -0.00000000000E+00 -0.57985454454E+02  0.57985454454E+02  0.00000000000E+00 0.  1.
         25    2    1    2    0    0 -0.54983711640E+00  0.49961071407E+02  0.21510120603E+03  0.25379697735E+03  0.12509182987E+03 0.  0.
          5    1    3    3  502    0 -0.61909681682E+02  0.23381726896E+02  0.12519846891E+03  0.14167442555E+03  0.41800000000E+01 0.  1.
         -5    1    3    3    0  502  0.61359844565E+02  0.26579344511E+02  0.89902737118E+02  0.11212255180E+03  0.41800000000E+01 0.  1.
        -11    1    1    2    0    0 -0.38851188627E+02 -0.66261168367E+02  0.15611314911E+02  0.78381569546E+02  0.00000000000E+00 0.  1.
         11    1    1    2    0    0  0.39401025744E+02  0.16300096961E+02  0.55420728538E+02  0.69925611490E+02  0.00000000000E+00 0. -1.
</event>
<event>
 7    1  0.2679104E-009  0.1038506E+03  0.7561462E-02  0.1272401E+00
          2   -1    0    0  501    0  0.00000000000E+00  0.00000000000E+00  0.15711691055E+03  0.15711691055E+03  0.00000000000E+00 0.  1.
         -2   -1    0    0    0  501 -0.00000000000E+00 -0.00000000000E+00 -0.81179148725E+02  0.81179148725E+02  0.00000000000E+00 0. -1.
         25    2    1    2    0    0  0.51047409722E+01 -0.76821200335E+01  0.83086589886E+02  0.15045175328E+03  0.12508906946E+03 0.  0.
          5    1    3    3  502    0 -0.27476451496E+02 -0.57180679175E+02  0.28124812971E+02  0.69520234194E+02  0.41800000000E+01 0.  1.
         -5    1    3    3    0  502  0.32581192469E+02  0.49498559142E+02  0.54961776915E+02  0.80931519085E+02  0.41800000000E+01 0.  1.
        -11    1    1    2    0    0 -0.34527489576E+02 -0.23561555348E+02 -0.14616561430E+02  0.44282482934E+02  0.00000000000E+00 0. -1.
         11    1    1    2    0    0  0.29422748603E+02  0.31243675381E+02  0.74677333683E+01  0.43561823061E+02  0.00000000000E+00 0.  1.
</event>
<event>
 7    1  0.2679104E-009  0.1059588E+03  0.7561462E-02  0.1268242E+00
          1   -1    0    0  501    0  0.00000000000E+00  0.00000000000E+00  0.15929467669E+03  0.15929467669E+03  0.00000000000E+00 0.  1.
         -1   -1    0    0    0  501 -0.00000000000E+00 -0.00000000000E+00 -0.11195119809E+03  0.11195119809E+03  0.00000000000E+00 0. -1.
         25    2    1    2    0    0 -0.39647439882E+02  0.18452732701E+02 -0.37813439182E+02  0.13780578446E+03  0.12509258657E+03 0.  0.
          5    1    3    3  502    0  0.42072556470E+02 -0.36313478535E+01  0.52145000570E+01  0.42754533163E+02  0.41800000000E+01 0. -1.
         -5    1    3    3    0  502 -0.81719996352E+02  0.22084080555E+02 -0.43027939239E+02  0.95051251296E+02  0.41800000000E+01 0. -1.
        -11    1    1    2    0    0  0.58836016446E+02 -0.25715961732E+02  0.23362454239E+02  0.68328557626E+02  0.00000000000E+00 0. -1.
         11    1    1    2    0    0 -0.19188576564E+02  0.72632290309E+01  0.61794463541E+02  0.65111532702E+02  0.00000000000E+00 0.  1.
</event>
<event>
 7    1  0.2679104E-009  0.1815169E+03  0.7561462E-02  0.1166343E+00
          2   -1    0    0  501    0  0.00000000000E+00  0.00000000000E+00  0.35574790381E+03  0.35574790381E+03  0.00000000000E+00 0. -1.
         -2   -1    0    0    0  501 -0.00000000000E+00 -0.00000000000E+00 -0.13921857622E+03  0.13921857622E+03  0.00000000000E+00 0.  1.
         25    2    1    2    0    0 -0.14364419499E+03  0.10939805489E+03  0.19025748727E+03  0.29059607870E+03  0.12508629153E+03 0.  0.
          5    1    3    3  502    0 -0.77223797045E+02  0.50995531794E+02  0.17872279079E+03  0.20130416648E+03  0.41800000000E+01 0. -1.
         -5    1    3    3    0  502 -0.66420397944E+02  0.58402523093E+02  0.11534696482E+02  0.89291912229E+02  0.41800000000E+01 0. -1.
        -11    1    1    2    0    0  0.58321074753E+02 -0.57965429317E+02 -0.32822871584E+02  0.88536318284E+02  0.00000000000E+00 0.  1.
         11    1    1    2    0    0  0.85323120236E+02 -0.51432625570E+02  0.59094711896E+02  0.11583408304E+03  0.00000000000E+00 0. -1.
</event>
<event>
 7    1  0.2679104E-009  0.9756202E+02  0.7561462E-02  0.1285508E+00
         -3   -1    0    0    0  501 -0.00000000000E+00  0.00000000000E+00  0.47358921820E+02  0.47358921820E+02  0.00000000000E+00 0.  1.
          3   -1    0    0  501    0  0.00000000000E+00 -0.00000000000E+00 -0.33881270257E+03  0.33881270257E+03  0.00000000000E+00 0. -1.
         25    2    1    2    0    0  0.10288645875E+02  0.50705982650E+02 -0.22213232961E+03  0.26013011230E+03  0.12509176855E+03 0.  0.
          5    1    3    3  502    0  0.53350607366E+02  0.69191732289E+02 -0.13013600592E+03  0.15680126135E+03  0.41800000000E+01 0. -1.
         -5    1    3    3    0  502 -0.43061961491E+02 -0.18485749639E+02 -0.91996323689E+02  0.10332885095E+03  0.41800000000E+01 0. -1.
        -11    1    1    2    0    0  0.11326135416E+02 -0.21101069683E+02 -0.83403547588E+02  0.86773776197E+02  0.00000000000E+00 0. -1.
         11    1    1    2    0    0 -0.21614781291E+02 -0.29604912967E+02  0.14082096443E+02  0.39267735895E+02  0.00000000000E+00 0.  1.
</event>
<event>
 7    1  0.2679104E-009  0.1029452E+03  0.7561462E-02  0.1274222E+00
          2   -1    0    0  501    0  0.00000000000E+00  0.00000000000E+00  0.60145747281E+03  0.60145747281E+03  0.00000000000E+00 0. -1.
         -2   -1    0    0    0  501 -0.00000000000E+00 -0.00000000000E+00 -0.31014598023E+02  0.31014598023E+02  0.00000000000E+00 0.  1.
         25    2    1    2    0    0  0.17008940841E+02 -0.17316842858E+02  0.13034050026E+03  0.18227562248E+03  0.12508628793E+03 0.  0.
          5    1    3    3  502    0 -0.46341009695E+02 -0.18637661170E+02  0.18051377936E+02  0.53274536496E+02  0.41800000000E+01 0. -1.
         -5    1    3    3    0  502  0.63349950536E+02  0.13208183126E+01  0.11228912232E+03  0.12900108599E+03  0.41800000000E+01 0. -1.
        -11    1    1    2    0    0  0.10471983844E+02 -0.33170350518E+02  0.11859256038E+03  0.12358855115E+03  0.00000000000E+00 0.  1.
         11    1    1    2    0    0 -0.27480924685E+02  0.50487193375E+02  0.32150981415E+03  0.32660789720E+03  0.00000000000E+00 0. -1.
</event>
<event>
 7    1  0.2679104E-009  0.9461586E+02  0.7561462E-02  0.1292044E+00
         -1   -1    0    0    0  501 -0.00000000000E+00  0.00000000000E+00  0.15963350517E+03  0.15963350517E+03  0.00000000000E+00 0.  1.
          1   -1    0    0  501    0  0.00000000000E+00 -0.00000000000E+00 -0.11425933257E+03  0.11425933257E+03  0.00000000000E+00 0. -1.
         25    2    1    2    0    0  0.58212582038E+01  0.54570603912E+00  0.10739470329E+03  0.16497384624E+03  0.12509421572E+03 0.  0.
          5    1    3    3  502    0 -0.16870934399E+01 -0.61677058586E+02  0.45381526409E+02  0.76706330764E+02  0.41800000000E+01 0. -1.
         -5    1    3    3    0  502  0.75083516437E+01  0.62222764625E+02  0.62013176876E+02  0.88267515476E+02  0.41800000000E+01 0. -1.
        -11    1    1    2    0    0  0.85588424346E+01  0.29795469139E+02 -0.68074843566E+02  0.74801123598E+02  0.00000000000E+00 0. -1.
         11    1    1    2    0    0 -0.14380100638E+02 -0.30341175178E+02  0.60543128881E+01  0.34117867901E+02  0.00000000000E+00 0.  1.
</event>
<event>
 7    1  0.2679104E-009  0.8729663E+02  0.7561462E-02  0.1309534E+00
         -2   -1    0    0    0  501 -0.00000000000E+00  0.00000000000E+00  0.88449032766E+03  0.88449032766E+03  0.00000000000E+00 0.  1.
          2   -1    0    0  501    0  0.00000000000E+00 -0.00000000000E+00 -0.23704192414E+02  0.23704192414E+02  0.00000000000E+00 0. -1.
         25    2    1    2    0    0 -0.28485087057E+02 -0.52685099884E+02  0.70458809728E+03  0.71810714383E+03  0.12508542384E+03 0.  0.
          5    1    3    3  502    0 -0.63689675442E+02 -0.41875231281E+02  0.63210440142E+03  0.63669722509E+03  0.41800000000E+01 0.  1.
         -5    1    3    3    0  502  0.35204588385E+02 -0.10809868603E+02  0.72483695868E+02  0.81409918740E+02  0.41800000000E+01 0.  1.
        -11    1    1    2    0    0  0.19392511873E+02  0.45958502528E+02  0.16709502081E+03  0.17438176353E+03  0.00000000000E+00 0.  1.
         11    1    1    2    0    0  0.90925751839E+01  0.67265973565E+01 -0.10896982849E+02  0.15705612713E+02  0.00000000000E+00 0. -1.
</event>
<event>
 7    1  0.2679104E-009  0.3836272E+03  0.7561462E-02  0.1049601E+00
          2   -1    0    0  501    0  0.00000000000E+00  0.00000000000E+00  0.18853819530E+04  0.18853819530E+04  0.00000000000E+00 0. -1.
         -2   -1    0    0    0  501 -0.00000000000E+00 -0.00000000000E+00 -0.83353751066E+02  0.83353751066E+02  0.00000000000E+00 0.  1.
         25    2    1    2    0    0 -0.19659030937E+02 -0.37278864775E+03  0.72143063213E+03  0.82186777576E+03  0.12508649197E+03 0.  0.
          5    1    3    3  502    0  0.47878176996E+02 -0.12293430916E+03  0.19855484514E+03  0.23842538273E+03  0.41800000000E+01 0. -1.
         -5    1    3    3    0  502 -0.67537207933E+02 -0.24985433859E+03  0.52287578699E+03  0.58344239303E+03  0.41800000000E+01 0. -1.
        -11    1    1    2    0    0  0.34919120373E+02  0.20798816709E+03  0.71700992303E+03  0.74738320315E+03  0.00000000000E+00 0.  1.
         11    1    1    2    0    0 -0.15260089436E+02  0.16480048066E+03  0.36358764682E+03  0.39948472521E+03  0.00000000000E+00 0. -1.
</event>
<event>
 7    1  0.2679104E-009  0.1130862E+03  0.7561462E-02  0.1254959E+00
         -2   -1    0    0    0  501 -0.00000000000E+00  0.00000000000E+00  0.87325161627E+02  0.87325161627E+02  0.00000000000E+00 0.  1.
          2   -1    0    0  501    0  0.00000000000E+00 -0.00000000000E+00 -0.20614662720E+03  0.20614662720E+03  0.00000000000E+00 0. -1.
         25    2    1    2    0    0  0.28169161120E+02 -0.44296416746E+01 -0.14184189160E+03  0.19125683582E+03  0.12508769592E+03 0.  0.
          5    1    3    3  502    0 -0.34846019680E+02 -0.40981876441E+02 -0.46728961167E+02  0.71378060326E+02  0.41800000000E+01 0.  1.
         -5    1    3    3    0  502  0.63015180800E+02  0.36552234766E+02 -0.95112930433E+02  0.11987877549E+03  0.41800000000E+01 0.  1.
        -11    1    1    2    0    0 -0.52562755628E+02 -0.27296487884E+02  0.95754555779E+01  0.59996923917E+02  0.00000000000E+00 0. -1.
         11    1    1    2    0    0  0.24393594508E+02  0.31726129559E+02  0.13444970452E+02  0.42218029090E+02  0.00000000000E+00 0.  1.
</event>
<event>
 7    1  0.2679104E-009  0.1064232E+03  0.7561462E-02  0.1267341E+00
          2   -1    0    0  501    0  0.00000000000E+00  0.00000000000E+00  0.15535652130E+03  0.15535652130E+03  0.00000000000E+00 0. -1.
         -2   -1    0    0    0  501 -0.00000000000E+00 -0.00000000000E+00 -0.13080100573E+03  0.13080100573E+03  0.00000000000E+00 0.  1.
         25    2    1    2    0    0  0.37200199082E+01  0.65462157994E+02 -0.45921301608E+02  0.14851113297E+03  0.12509059915E+03 0.  0.
          5    1    3    3  502    0  0.41101873085E+02  0.41082668808E+02 -0.75081716097E+02  0.95036235930E+02  0.41800000000E+01 0. -1.
         -5    1    3    3    0  502 -0.37381853177E+02  0.24379489186E+02  0.29160414489E+02  0.53474897037E+02  0.41800000000E+01 0. -1.
        -11    1    1    2    0    0 -0.45607109973E+02 -0.40523970309E+02  0.13179307018E+02  0.62417103290E+02  0.00000000000E+00 0.  1.
         11    1    1    2    0    0  0.41887090065E+02 -0.24938187685E+02  0.57297510165E+02  0.75229290773E+02  0.00000000000E+00 0. -1.
</event>
<event>
 7    1  0.2679104E-009  0.1079733E+03  0.7561462E-02  0.1264370E+00
         -2   -1    0    0    0  501 -0.00000000000E+00  0.00000000000E+00  0.17899877932E+03  0.17899877932E+03  0.00000000000E+00 0.  1.
          2   -1    0    0  501    0  0.00000000000E+00 -0.00000000000E+00 -0.83250511049E+02  0.83250511049E+02  0.00000000000E+00 0. -1.
         25    2    1    2    0    0 -0.30931480319E+02  0.48052949673E+02  0.49513300447E+02  0.14616735196E+03  0.12508990931E+03 0.  0.
          5    1    3    3  502    0  0.33698333664E+02  0.18955983452E+02 -0.22590119951E+02  0.44974358470E+02  0.41800000000E+01 0.  1.
         -5    1    3    3    0  502 -0.64629813983E+02  0.29096966222E+02  0.72103420398E+02  0.10119299349E+03  0.41800000000E+01 0.  1.
        -11    1    1    2    0    0  0.60143975090E+02 -0.15082493698E+02  0.21921362814E+02  0.65767206900E+02  0.00000000000E+00 0. -1.
         11    1    1    2    0    0 -0.29212494772E+02 -0.32970455975E+02  0.24313605010E+02  0.50314731507E+02  0.00000000000E+00 0.  1.
</event>
<event>
 7    1  0.2679104E-009  0.1462300E+03  0.7561462E-02  0.1205184E+00
          1   -1    0    0  501    0  0.00000000000E+00  0.00000000000E+00  0.44147487119E+03  0.44147487119E+03  0.00000000000E+00 0. -1.
         -1   -1    0    0    0  501 -0.00000000000E+00 -0.00000000000E+00 -0.59204030410E+02  0.59204030410E+02  0.00000000000E+00 0.  1.
         25    2    1    2    0    0 -0.21550065245E+02 -0.11768009682E+03  0.21207172536E+03  0.27374108148E+03  0.12508697970E+03 0.  0.
          5    1    3    3  502    0 -0.16883764632E+02  0.13915313402E+02  0.94738878853E+02  0.97322274025E+02  0.41800000000E+01 0. -1.
         -5    1    3    3    0  502 -0.46663006136E+01 -0.13159541022E+03  0.11733284651E+03  0.17641880745E+03  0.41800000000E+01 0. -1.
        -11    1    1    2    0    0  0.36768047340E+02  0.24865166847E+02  0.10052374908E+03  0.10988716921E+03  0.00000000000E+00 0. -1.
         11    1    1    2    0    0 -0.15217982094E+02  0.92814929971E+02  0.69675366335E+02  0.11705065091E+03  0.00000000000E+00 0.  1.
</event>
<event>
 7    1  0.2679104E-009  0.1119054E+03  0.7561462E-02  0.1257081E+00
          1   -1    0    0  501    0  0.00000000000E+00  0.00000000000E+00  0.10367617681E+04  0.10367617681E+04  0.00000000000E+00 0. -1.
         -1   -1    0    0    0  501 -0.00000000000E+00 -0.00000000000E+00 -0.14954806514E+02  0.14954806514E+02  0.00000000000E+00 0.  1.
         25    2    1    2    0    0  0.34177910195E+02  0.53127662335E+02  0.56708012305E+03  0.58413935532E+03  0.12509293515E+03 0.  0.
          5    1    3    3  502    0  0.69080776749E+02  0.30544570451E+02  0.49562989350E+03  0.50136971212E+03  0.41800000000E+01 0.  1.
         -5    1    3    3    0  502 -0.34902866554E+02  0.22583091884E+02  0.71450229553E+02  0.82769643202E+02  0.41800000000E+01 0.  1.
        -11    1    1    2    0    0 -0.96221157104E+01  0.23777880114E+02  0.72116839227E+02  0.76542871605E+02  0.00000000000E+00 0.  1.
         11    1    1    2    0    0 -0.24555794484E+02 -0.76905542449E+02  0.38260999936E+03  0.39103434774E+03  0.00000000000E+00 0. -1.
</event>
<event>
 7    1  0.2679104E-009  0.8449933E+02  0.7561462E-02  0.1316747E+00
         -1   -1    0    0    0  501 -0.00000000000E+00  0.00000000000E+00  0.98220612557E+03  0.98220612557E+03  0.00000000000E+00 0.  1.
          1   -1    0    0  501    0  0.00000000000E+00 -0.00000000000E+00 -0.17548409834E+02  0.17548409834E+02  0.00000000000E+00 0. -1.
         25    2    1    2    0    0 -0.30214667236E+02 -0.26089388133E+01  0.78510060073E+03  0.79558120244E+03  0.12508702468E+03 0.  0.
          5    1    3    3  502    0 -0.51610939828E+02 -0.34484138855E+01  0.12801628774E+03  0.13813480008E+03  0.41800000000E+01 0.  1.
         -5    1    3    3    0  502  0.21396272591E+02  0.83947507217E+00  0.65708431299E+03  0.65744640236E+03  0.41800000000E+01 0.  1.
        -11    1    1    2    0    0  0.17557648360E+02  0.46448940298E+02  0.11351223023E+03  0.12389835141E+03  0.00000000000E+00 0.  1.
         11    1    1    2    0    0  0.12657018876E+02 -0.43840001485E+02  0.66044884779E+02  0.80274981548E+02  0.00000000000E+00 0. -1.
</event>
<event>
 7    1  0.2679104E-009  0.1027262E+03  0.7561462E-02  0.1274665E+00
         -1   -1    0    0    0  501 -0.00000000000E+00  0.00000000000E+00  0.10046608210E+03  0.10046608210E+03  0.00000000000E+00 0.  1.
          1   -1    0    0  501    0  0.00000000000E+00 -0.00000000000E+00 -0.19333709437E+03  0.19333709437E+03  0.00000000000E+00 0. -1.
         25    2    1    2    0    0 -0.32260784386E+02  0.68509749872E+02 -0.86790242295E+01  0.14647926445E+03  0.12508599209E+03 0.  0.
          5    1    3    3  502    0 -0.52314476914E+02  0.31570795003E+02 -0.56043071801E+02  0.83016973498E+02  0.41800000000E+01 0.  1.
         -5    1    3    3    0  502  0.20053692529E+02  0.36938954869E+02  0.47364047571E+02  0.63462290955E+02  0.41800000000E+01 0.  1.
        -11    1    1    2    0    0 -0.74966667404E+00 -0.68950859738E+02 -0.14866823780E+02  0.70539389762E+02  0.00000000000E+00 0.  1.
         11    1    1    2    0    0  0.33010451060E+02  0.44110986621E+00 -0.69325164266E+02  0.76784522253E+02  0.00000000000E+00 0. -1.
</event>
<event>
 7    1  0.2679104E-009  0.1156251E+03  0.7561462E-02  0.1250494E+00
         -1   -1    0    0    0  501 -0.00000000000E+00  0.00000000000E+00  0.17964470656E+03  0.17964470656E+03  0.00000000000E+00 0.  1.
          1   -1    0    0  501    0  0.00000000000E+00 -0.00000000000E+00 -0.10480599174E+03  0.10480599174E+03  0.00000000000E+00 0. -1.
         25    2    1    2    0    0 -0.48854000821E+02  0.12922037350E+02 -0.22698349385E+02  0.13680697430E+03  0.12508893119E+03 0.  0.
          5    1    3    3  502    0  0.21869596820E+01 -0.44779058118E+02 -0.37078392351E+02  0.58328607200E+02  0.41800000000E+01 0.  1.
         -5    1    3    3    0  502 -0.51040960503E+02  0.57701095468E+02  0.14380042966E+02  0.78478367102E+02  0.41800000000E+01 0.  1.
        -11    1    1    2    0    0  0.63072619094E+02 -0.42637070747E+02  0.55385067919E+02  0.94146592236E+02  0.00000000000E+00 0.  1.
         11    1    1    2    0    0 -0.14218618273E+02  0.29715033397E+02  0.42151996290E+02  0.53497131760E+02  0.00000000000E+00 0. -1.
</event>
<event>
 7    1  0.2679104E-009  0.1428854E+03  0.7561462E-02  0.1209498E+00
          1   -1    0    0  501    0  0.00000000000E+00  0.00000000000E+00  0.31069065228E+03  0.31069065228E+03  0.00000000000E+00 0. -1.
         -1   -1    0    0    0  501 -0.00000000000E+00 -0.00000000000E+00 -0.89958235963E+02  0.89958235963E+02  0.00000000000E+00 0.  1.
         25    2    1    2    0    0 -0.69053993276E+02 -0.71632698096E+02  0.23134329485E+02  0.16150489197E+03  0.12509570539E+03 0.  0.
          5    1    3    3  502    0  0.17726336957E+02 -0.69049676775E+02  0.21472874723E+02  0.74569683073E+02  0.41800000000E+01 0.  1.
         -5    1    3    3    0  502 -0.86780330233E+02 -0.25830213204E+01  0.16614547623E+01  0.86935208899E+02  0.41800000000E+01 0.  1.
        -11    1    1    2    0    0  0.74327915094E+01 -0.17538746557E+02  0.78163061945E+01  0.20590013670E+02  0.00000000000E+00 0.  1.
         11    1    1    2    0    0  0.61621201766E+02  0.89171444653E+02  0.18978178064E+03  0.21855398260E+03  0.00000000000E+00 0. -1.
</event>
<event>
 7    1  0.2679104E-009  0.1285284E+03  0.7561462E-02  0.1229656E+00
          1   -1    0    0  501    0  0.00000000000E+00  0.00000000000E+00  0.16763144120E+03  0.16763144120E+03  0.00000000000E+00 0. -1.
         -1   -1    0    0    0  501 -0.00000000000E+00 -0.00000000000E+00 -0.12755915306E+03  0.12755915306E+03  0.00000000000E+00 0.  1.
         25    2    1    2    0    0 -0.11238179507E+02 -0.72077607309E+02  0.86853527192E+02  0.16885489659E+03  0.12508782020E+03 0.  0.
          5    1    3    3  502    0 -0.68120517374E+01 -0.10571543423E+03  0.45947398630E+02  0.11554563135E+03  0.41800000000E+01 0.  1.
         -5    1    3    3    0  502 -0.44261277693E+01  0.33637826917E+02  0.40906128562E+02  0.53309265242E+02  0.41800000000E+01 0.  1.
        -11    1    1    2    0    0 -0.24249957329E+02  0.77273212939E+02 -0.37721456464E+02  0.89342700576E+02  0.00000000000E+00 0.  1.
         11    1    1    2    0    0  0.35488136836E+02 -0.51956056296E+01 -0.90597825858E+01  0.36992997100E+02  0.00000000000E+00 0. -1.
</event>
<event>
 7    1  0.2679104E-009  0.3154426E+03  0.7561462E-02  0.1077766E+00
          2   -1    0    0  501    0  0.00000000000E+00  0.00000000000E+00  0.17444639939E+04  0.17444639939E+04  0.00000000000E+00 0.  1.
         -2   -1    0    0    0  501 -0.00000000000E+00 -0.00000000000E+00 -0.62281247984E+02  0.62281247984E+02  0.00000000000E+00 0. -1.
         25    2    1    2    0    0 -0.16135525351E+03  0.26408644910E+03  0.76572471681E+03  0.83531978964E+03  0.12509052163E+03 0.  0.
          5    1    3    3  502    0 -0.16560102000E+02  0.46558828802E+02  0.39185816340E+02  0.63205712715E+02  0.41800000000E+01 0. -1.
         -5    1    3    3    0  502 -0.14479515151E+03  0.21752762029E+03  0.72653890047E+03  0.77211407692E+03  0.41800000000E+01 0. -1.
        -11    1    1    2    0    0  0.48819756669E+02 -0.15770437791E+03  0.41617436088E+03  0.44772216620E+03  0.00000000000E+00 0.  1.
         11    1    1    2    0    0  0.11253549684E+03 -0.10638207118E+03  0.50028366827E+03  0.52370328608E+03  0.00000000000E+00 0. -1.
</event>
<event>
 7    1  0.2679104E-009  0.2369658E+03  0.7561462E-02  0.1121831E+00
         -2   -1    0    0    0  501 -0.00000000000E+00  0.00000000000E+00  0.80661632748E+02  0.80661632748E+02  0.00000000000E+00 0.  1.
          2   -1    0    0  501    0  0.00000000000E+00 -0.00000000000E+00 -0.85115905313E+03  0.85115905313E+03  0.00000000000E+00 0. -1.
         25    2    1    2    0    0  0.17627071997E+03 -0.12702582337E+03 -0.56793010918E+03  0.62080528789E+03  0.12509064728E+03 0.  0.
          5    1    3    3  502    0  0.12986433415E+02 -0.60498959838E+02 -0.75272740189E+02  0.97530658820E+02  0.41800000000E+01 0. -1.
         -5    1    3    3    0  502  0.16328428656E+03 -0.66526863530E+02 -0.49265736899E+03  0.52327462907E+03  0.41800000000E+01 0. -1.
        -11    1    1    2    0    0 -0.14445673338E+03  0.51104820068E+02 -0.12245299554E+03  0.19614837897E+03  0.00000000000E+00 0.  1.
         11    1    1    2    0    0 -0.31813986590E+02  0.75921003300E+02 -0.80114315659E+02  0.11486701902E+03  0.00000000000E+00 0. -1.
</event>
<event>
 7    1  0.2679104E-009  0.1504410E+03  0.7561462E-02  0.1199932E+00
          1   -1    0    0  501    0  0.00000000000E+00  0.00000000000E+00  0.68033559070E+02  0.68033559070E+02  0.00000000000E+00 0. -1.
         -1   -1    0    0    0  501 -0.00000000000E+00 -0.00000000000E+00 -0.44658793951E+03  0.44658793951E+03  0.00000000000E+00 0.  1.
         25    2    1    2    0    0  0.12926776994E+03 -0.17820208650E+02 -0.14269750683E+03  0.23030065024E+03  0.12509234534E+03 0.  0.
          5    1    3    3  502    0  0.14136045867E+03 -0.19542577591E+01 -0.15223537511E+03  0.20779720940E+03  0.41800000000E+01 0. -1.
         -5    1    3    3    0  502 -0.12092688730E+02 -0.15865950891E+02  0.95378682797E+01  0.22503440841E+02  0.41800000000E+01 0. -1.
        -11    1    1    2    0    0 -0.12062277294E+03  0.15420077636E+01 -0.13191011008E+03  0.17875264552E+03  0.00000000000E+00 0. -1.
         11    1    1    2    0    0 -0.86449970031E+01  0.16278200886E+02 -0.10394676353E+03  0.10556820282E+03  0.00000000000E+00 0.  1.
</event>
<event>
 7    1  0.2679104E-009  0.9795918E+02  0.7561462E-02  0.1284647E+00
          3   -1    0    0  501    0  0.00000000000E+00  0.00000000000E+00  0.49493331583E+03  0.49493331583E+03  0.00000000000E+00 0. -1.
         -3   -1    0    0    0  501 -0.00000000000E+00 -0.00000000000E+00 -0.30849755793E+02  0.30849755793E+02  0.00000000000E+00 0.  1.
         25    2    1    2    0    0 -0.43380978161E+02  0.27111455061E+02  0.19768397667E+03  0.23946471181E+03  0.12508978099E+03 0.  0.
          5    1    3    3  502    0  0.26465688243E+02  0.86455337977E+00 -0.13717012346E+01  0.26842765711E+02  0.41800000000E+01 0. -1.
         -5    1    3    3    0  502 -0.69846666404E+02  0.26246901681E+02  0.19905567790E+03  0.21262194610E+03  0.41800000000E+01 0. -1.
        -11    1    1    2    0    0  0.63708925066E+02 -0.43445838550E+01  0.11194838959E+03  0.12888034945E+03  0.00000000000E+00 0.  1.
         11    1    1    2    0    0 -0.20327946905E+02 -0.22766871206E+02  0.15445119378E+03  0.15743801038E+03  0.00000000000E+00 0. -1.
</event>
<event>
 7    1  0.2679104E-009  0.2110696E+03  0.7561462E-02  0.1140722E+00
         -1   -1    0    0    0  501 -0.00000000000E+00  0.00000000000E+00  0.17907907739E+03  0.17907907739E+03  0.00000000000E+00 0.  1.
          1   -1    0    0  501    0  0.00000000000E+00 -0.00000000000E+00 -0.27712003620E+03  0.27712003620E+03  0.00000000000E+00 0. -1.
         25    2    1    2    0    0  0.40049519600E+02 -0.18985389218E+03 -0.41871274088E+02  0.23462559343E+03  0.12508997203E+03 0.  0.
          5    1    3    3  502    0 -0.41613770077E+02 -0.45474799868E+02 -0.28855101108E+02  0.68189094018E+02  0.41800000000E+01 0.  1.
         -5    1    3    3    0  502  0.81663289677E+02 -0.14437909231E+03 -0.13016172980E+02  0.16643649942E+03  0.41800000000E+01 0.  1.
        -11    1    1    2    0    0 -0.39538598292E+02  0.16877564637E+03 -0.78998684395E+02  0.19049753725E+03  0.00000000000E+00 0. -1.
         11    1    1    2    0    0 -0.51092130777E+00  0.21078245816E+02  0.22828999675E+02  0.31075982904E+02  0.00000000000E+00 0.  1.
</event>
<event>
 7    1  0.3520510E-009  0.1725451E+03  0.7561462E-02  0.1175219E+00
         -2   -1    0    0    0  501 -0.00000000000E+00  0.00000000000E+00  0.71155330361E+02  0.71155330361E+02  0.00000000000E+00 0.  1.
          2   -1    0    0  501    0  0.00000000000E+00 -0.00000000000E+00 -0.53148630135E+03  0.53148630135E+03  0.00000000000E+00 0. -1.
         25    2    1    2    0    0 -0.15010567193E+03 -0.58561537351E+02 -0.23082462768E+03  0.30804056111E+03  0.12509121529E+03 0.  0.
          5    1    3    3  502    0 -0.44286395652E+02 -0.19376952136E+02 -0.17590613788E+03  0.18247518422E+03  0.41800000000E+01 0. -1.
         -5    1    3    3    0  502 -0.10581927628E+03 -0.39184585215E+02 -0.54918489802E+02  0.12556537689E+03  0.41800000000E+01 0. -1.
        -11    1    1    2    0    0  0.48364568825E+02  0.65789064438E+02 -0.86556206090E+02  0.11899289613E+03  0.00000000000E+00 0.  1.
         11    1    1    2    0    0  0.10174110311E+03 -0.72275270864E+01 -0.14295013723E+03  0.17560817447E+03  0.00000000000E+00 0. -1.
</event>
<event>
 7    1  0.3195965E-009  0.1622424E+03  0.7561462E-02  0.1186188E+00
         -1   -1    0    0    0  501 -0.00000000000E+00  0.00000000000E+00  0.56174698030E+02  0.56174698030E+02  0.00000000000E+00 0.  1.
          1   -1    0    0  501    0  0.00000000000E+00 -0.00000000000E+00 -0.54218884991E+03  0.54218884991E+03  0.00000000000E+00 0. -1.
         25    2    1    2    0    0  0.80294444944E+02 -0.10573959437E+03 -0.20630941322E+03  0.27538992503E+03  0.12509187471E+03 0.  0.
          5    1    3    3  502    0 -0.14136772959E+02  0.18375762887E+02 -0.12758382009E+02  0.26791150084E+02  0.41800000000E+01 0. -1.
         -5    1    3    3    0  502  0.94431217903E+02 -0.12411535726E+03 -0.19355103121E+03  0.24859877495E+03  0.41800000000E+01 0. -1.
        -11    1    1    2    0    0 -0.10111831652E+01  0.45073857806E+02 -0.16433691521E+03  0.17040920412E+03  0.00000000000E+00 0. -1.
         11    1    1    2    0    0 -0.79283261779E+02  0.60665736567E+02 -0.11536782344E+03  0.15256441878E+03  0.00000000000E+00 0.  1.
</event>
<event>
 7    1  0.2679104E-009  0.1104381E+03  0.7561462E-02  0.1259761E+00
          1   -1    0    0  501    0  0.00000000000E+00  0.00000000000E+00  0.39505029251E+03  0.39505029251E+03  0.00000000000E+00 0. -1.
         -1   -1    0    0    0  501 -0.00000000000E+00 -0.00000000000E+00 -0.31526132702E+02  0.31526132702E+02  0.00000000000E+00 0.  1.
         25    2    1    2    0    0 -0.80041924171E+01  0.27564378904E+02  0.21032920466E+03  0.24639404009E+03  0.12509111311E+03 0.  0.
          5    1    3    3  502    0  0.79790089171E+01  0.75215112837E+02  0.10351835460E+03  0.12827509470E+03  0.41800000000E+01 0. -1.
         -5    1    3    3    0  502 -0.15983201334E+02 -0.47650733933E+02  0.10681085006E+03  0.11811894539E+03  0.41800000000E+01 0. -1.
        -11    1    1    2    0    0 -0.41290392403E+02 -0.13035075493E+02  0.64826408796E+02  0.77956866120E+02  0.00000000000E+00 0. -1.
         11    1    1    2    0    0  0.49294584820E+02 -0.14529303411E+02  0.88368546356E+02  0.10222551900E+03  0.00000000000E+00 0.  1.
</event>
<event>
 7    1  0.2679104E-009  0.1314828E+03  0.7561462E-02  0.1225272E+00
          2   -1    0    0  501    0  0.00000000000E+00  0.00000000000E+00  0.53620150149E+03  0.53620150149E+03  0.00000000000E+00 0. -1.
         -2   -1    0    0    0  501 -0.00000000000E+00 -0.00000000000E+00 -0.42737781507E+02  0.42737781507E+02  0.00000000000E+00 0.  1.
         25    2    1    2    0    0  0.42125903981E+02  0.93821457413E+02  0.21122747946E+03  0.26616088998E+03  0.12509002206E+03 0.  0.
          5    1    3    3  502    0  0.74003352328E+02  0.15926187611E+02  0.80089632703E+02  0.11028128252E+03  0.41800000000E+01 0. -1.
         -5    1    3    3    0  502 -0.31877448347E+02  0.77895269802E+02  0.13113784676E+03  0.15587960746E+03  0.41800000000E+01 0. -1.
        -11    1    1    2    0    0 -0.19398853338E+02 -0.46634228553E+02  0.38580967052E+02  0.63557515702E+02  0.00000000000E+00 0.  1.
         11    1    1    2    0    0 -0.22727050643E+02 -0.47187228860E+02  0.24365527347E+03  0.24922087732E+03  0.00000000000E+00 0. -1.
</event>
<event>
 7    1  0.2679104E-009  0.1384578E+03  0.7561462E-02  0.1215419E+00
          4   -1    0    0  501    0  0.00000000000E+00  0.00000000000E+00  0.24065802238E+03  0.24065802238E+03  0.00000000000E+00 0. -1.
         -4   -1    0    0    0  501 -0.00000000000E+00 -0.00000000000E+00 -0.85702664273E+02  0.85702664273E+02  0.00000000000E+00 0.  1.
         25    2    1    2    0    0  0.37525052812E+02 -0.83342073049E+02  0.10707010705E+03  0.18832291496E+03  0.12508989466E+03 0.  0.
          5    1    3    3  502    0  0.65808374341E+02 -0.10040933619E+03  0.72419725899E+02  0.14026712382E+03  0.41800000000E+01 0.  1.
         -5    1    3    3    0  502 -0.28283321529E+02  0.17067263137E+02  0.34650381154E+02  0.48055791137E+02  0.41800000000E+01 0.  1.
        -11    1    1    2    0    0 -0.57665368489E+02  0.85614951743E+02  0.54486293694E+02  0.11672176697E+03  0.00000000000E+00 0. -1.
         11    1    1    2    0    0  0.20140315676E+02 -0.22728786943E+01 -0.66010426423E+01  0.21316004716E+02  0.00000000000E+00 0.  1.
</event>
<event>
 7    1  0.2679104E-009  0.1045153E+03  0.7561462E-02  0.1271077E+00
          2   -1    0    0  501    0  0.00000000000E+00  0.00000000000E+00  0.29792101830E+02  0.29792101830E+02  0.00000000000E+00 0. -1.
         -2   -1    0    0    0  501 -0.00000000000E+00 -0.00000000000E+00 -0.49762942998E+03  0.49762942998E+03  0.00000000000E+00 0.  1.
         25    2    1    2    0    0 -0.28796718124E+02  0.23508685095E+02 -0.35399003860E+03  0.37727836675E+03  0.12509240319E+03 0.  0.
          5    1    3    3  502    0 -0.53595777609E+02 -0.22901081483E+02 -0.28211178723E+03  0.28809980875E+03  0.41800000000E+01 0. -1.
         -5    1    3    3    0  502  0.24799059485E+02  0.46409766578E+02 -0.71878251376E+02  0.89178557995E+02  0.41800000000E+01 0. -1.
        -11    1    1    2    0    0  0.32119756179E+02  0.30148155120E+02 -0.54200972089E+02  0.69845081212E+02  0.00000000000E+00 0. -1.
         11    1    1    2    0    0 -0.33230380548E+01 -0.53656840215E+02 -0.59646317455E+02  0.80298083848E+02  0.00000000000E+00 0.  1.
</event>
<event>
 7    1  0.2679104E-009  0.1098971E+03  0.7561462E-02  0.1260761E+00
          1   -1    0    0  501    0  0.00000000000E+00  0.00000000000E+00  0.20891956107E+03  0.20891956107E+03  0.00000000000E+00 0. -1.
         -1   -1    0    0    0  501 -0.00000000000E+00 -0.00000000000E+00 -0.80951195101E+02  0.80951195101E+02  0.00000000000E+00 0.  1.
         25    2    1    2    0    0 -0.35164245622E+02  0.46498267642E+02  0.23880865307E+02  0.14005567460E+03  0.12508670272E+03 0.  0.
          5    1    3    3  502    0  0.40649368188E+02 -0.11254845233E+02  0.11029645454E+02  0.43796896627E+02  0.41800000000E+01 0.  1.
         -5    1    3    3    0  502 -0.75813613810E+02  0.57753112874E+02  0.12851219853E+02  0.96258777975E+02  0.41800000000E+01 0.  1.
        -11    1    1    2    0    0  0.16465541583E+02 -0.57842886258E+02  0.20694380841E+02  0.63601658380E+02  0.00000000000E+00 0.  1.
         11    1    1    2    0    0  0.18698704039E+02  0.11344618617E+02  0.83393119825E+02  0.86213423192E+02  0.00000000000E+00 0. -1.
</event>
<event>
 7    1  0.2679104E-009  0.8855781E+02  0.7561462E-02  0.1306382E+00
         -2   -1    0    0    0  501 -0.00000000000E+00  0.00000000000E+00  0.83848819802E+02  0.83848819802E+02  0.00000000000E+00 0. -1.
          2   -1    0    0  501    0  0.00000000000E+00 -0.00000000000E+00 -0.21796036737E+03  0.21796036737E+03  0.00000000000E+00 0.  1.
         25    2    1    2    0    0 -0.81019673599E+02  0.26615984598E+02 -0.73296915945E+02  0.16820394324E+03  0.12509008949E+03 0.  0.
          5    1    3    3  502    0 -0.45986078245E+01 -0.76725279233E+00  0.33449945765E+02  0.34030973281E+02  0.41800000000E+01 0.  1.
         -5    1    3    3    0  502 -0.76421065775E+02  0.27383237390E+02 -0.10674686171E+03  0.13417296996E+03  0.41800000000E+01 0.  1.
        -11    1    1    2    0    0  0.99204624601E+01  0.57298955605E+01  0.18835447713E+02  0.22045892341E+02  0.00000000000E+00 0. -1.
         11    1    1    2    0    0  0.71099211139E+02 -0.32345880159E+02 -0.79650079332E+02  0.11155935158E+03  0.00000000000E+00 0.  1.
</event>
<event>
 7    1  0.2679104E-009  0.1014194E+03  0.7561462E-02  0.1277339E+00
          2   -1    0    0  501    0  0.00000000000E+00  0.00000000000E+00  0.10311914274E+04  0.10311914274E+04  0.00000000000E+00 0. -1.
         -2   -1    0    0    0  501 -0.00000000000E+00 -0.00000000000E+00 -0.20420615609E+02  0.20420615609E+02  0.00000000000E+00 0.  1.
         25    2    1    2    0    0  0.62805638686E+02 -0.59784256246E+02  0.73177285306E+03  0.74743369128E+03  0.12508760466E+03 0.  0.
          5    1    3    3  502    0  0.50646786763E+02 -0.29591818117E+02  0.69753225382E+03  0.70000677871E+03  0.41800000000E+01 0. -1.
         -5    1    3    3    0  502  0.12158851923E+02 -0.30192438129E+02  0.34240599236E+02  0.47426912574E+02  0.41800000000E+01 0. -1.
        -11    1    1    2    0    0 -0.67008565532E+02  0.18222553152E+02  0.22753114787E+03  0.23789206071E+03  0.00000000000E+00 0. -1.
         11    1    1    2    0    0  0.42029268454E+01  0.41561703094E+02  0.51466810908E+02  0.66286291065E+02  0.00000000000E+00 0.  1.
</event>
<event>
 7    1  0.2679104E-009  0.1008056E+03  0.7561462E-02  0.1278611E+00
          3   -1    0    0  501    0  0.00000000000E+00  0.00000000000E+00  0.47096551985E+02  0.47096551985E+02  0.00000000000E+00 0. -1.
         -3   -1    0    0    0  501 -0.00000000000E+00 -0.00000000000E+00 -0.27468733322E+03  0.27468733322E+03  0.00000000000E+00 0.  1.
         25    2    1    2    0    0 -0.98593921217E+00 -0.92138956020E+01 -0.81847586437E+02  0.14977462641E+03  0.12509014095E+03 0.  0.
          5    1    3    3  502    0  0.42539043667E+02  0.30014443015E+02 -0.41835224932E+01  0.52396672472E+02  0.41800000000E+01 0. -1.
         -5    1    3    3    0  502 -0.43524982880E+02 -0.39228338617E+02 -0.77664063943E+02  0.97377953940E+02  0.41800000000E+01 0. -1.
        -11    1    1    2    0    0  0.22981404481E+02 -0.34644502651E+02 -0.56215786692E+02  0.69918532516E+02  0.00000000000E+00 0. -1.
         11    1    1    2    0    0 -0.21995465269E+02  0.43858398252E+02 -0.89527408107E+02  0.10209072628E+03  0.00000000000E+00 0.  1.
</event>
<event>
 7    1  0.2679104E-009  0.1050329E+03  0.7561462E-02  0.1270055E+00
         -2   -1    0    0    0  501 -0.00000000000E+00  0.00000000000E+00  0.34496610145E+02  0.34496610145E+02  0.00000000000E+00 0. -1.
          2   -1    0    0  501    0  0.00000000000E+00 -0.00000000000E+00 -0.41394851040E+03  0.41394851040E+03  0.00000000000E+00 0.  1.
         25    2    1    2    0    0  0.38618940952E+02  0.97736025413E+01 -0.17545270194E+03  0.21912685501E+03  0.12508390009E+03 0.  0.
          5    1    3    3  502    0  0.65301547070E+02 -0.33573774411E+02 -0.68047117029E+02  0.10019667117E+03  0.41800000000E+01 0. -1.
         -5    1    3    3    0  502 -0.26682606118E+02  0.43347376952E+02 -0.10740558492E+03  0.11893018384E+03  0.41800000000E+01 0. -1.
        -11    1    1    2    0    0 -0.44051956892E+02  0.24729875895E+02 -0.17996079987E+03  0.18691717726E+03  0.00000000000E+00 0. -1.
         11    1    1    2    0    0  0.54330159394E+01 -0.34503478436E+02 -0.24038398442E+02  0.42401088265E+02  0.00000000000E+00 0.  1.
</event>
<event>
 7    1  0.2679104E-009  0.1618589E+03  0.7561462E-02  0.1186614E+00
         -3   -1    0    0    0  501 -0.00000000000E+00  0.00000000000E+00  0.30614114658E+03  0.30614114658E+03  0.00000000000E+00 0.  1.
          3   -1    0    0  501    0  0.00000000000E+00 -0.00000000000E+00 -0.13242656055E+03  0.13242656055E+03  0.00000000000E+00 0. -1.
         25    2    1    2    0    0 -0.32731298411E+02  0.12826305050E+03 -0.26002596462E+02  0.18398014812E+03  0.12509920807E+03 0.  0.
          5    1    3    3  502    0 -0.67463802869E+02  0.11972136731E+03  0.33447350102E+01  0.13752537999E+03  0.41800000000E+01 0.  1.
         -5    1    3    3    0  502  0.34732504458E+02  0.85416831935E+01 -0.29347331472E+02  0.46454768133E+02  0.41800000000E+01 0.  1.
        -11    1    1    2    0    0  0.50671586338E+02 -0.54954271968E+02  0.13860046146E+03  0.15747275823E+03  0.00000000000E+00 0. -1.
         11    1    1    2    0    0 -0.17940287927E+02 -0.73308778536E+02  0.61116721033E+02  0.97114800783E+02  0.00000000000E+00 0.  1.
</event>
<event>
 7    1  0.2679104E-009  0.1056584E+03  0.7561462E-02  0.1268828E+00
          3   -1    0    0  501    0  0.00000000000E+00  0.00000000000E+00  0.13128295782E+03  0.13128295782E+03  0.00000000000E+00 0. -1.
         -3   -1    0    0    0  501 -0.00000000000E+00 -0.00000000000E+00 -0.10058665764E+03  0.10058665764E+03  0.00000000000E+00 0.  1.
         25    2    1    2    0    0  0.25290222543E+02 -0.10566487341E+01  0.46576692442E+02  0.13586579070E+03  0.12509761364E+03 0.  0.
          5    1    3    3  502    0 -0.16869896604E+02  0.54795248231E+02  0.22773856096E+02  0.61832301927E+02  0.41800000000E+01 0.  1.
         -5    1    3    3    0  502  0.42160119148E+02 -0.55851896965E+02  0.23802836346E+02  0.74033488768E+02  0.41800000000E+01 0.  1.
        -11    1    1    2    0    0  0.62237362738E-01  0.38505284312E+02  0.14912650636E+02  0.41292226174E+02  0.00000000000E+00 0. -1.
         11    1    1    2    0    0 -0.25352459906E+02 -0.37448635577E+02 -0.30793042896E+02  0.54711598594E+02  0.00000000000E+00 0.  1.
</event>
<event>
 7    1  0.2679104E-009  0.1126289E+03  0.7561462E-02  0.1255778E+00
          2   -1    0    0  501    0  0.00000000000E+00  0.00000000000E+00  0.20719305162E+03  0.20719305162E+03  0.00000000000E+00 0. -1.
         -2   -1    0    0    0  501 -0.00000000000E+00 -0.00000000000E+00 -0.80182282766E+02  0.80182282766E+02  0.00000000000E+00 0.  1.
         25    2    1    2    0    0 -0.68725039010E+02 -0.55522187160E+01  0.47185026945E+02  0.15042773279E+03  0.12509243744E+03 0.  0.
          5    1    3    3  502    0  0.30762993280E+02 -0.27644293036E+01  0.39782368019E+02  0.50538233350E+02  0.41800000000E+01 0. -1.
         -5    1    3    3    0  502 -0.99488032290E+02 -0.27877894124E+01  0.74026589263E+01  0.99889499438E+02  0.41800000000E+01 0. -1.
        -11    1    1    2    0    0  0.65996712169E+02 -0.19856956087E+02  0.19798017508E+02  0.71706528429E+02  0.00000000000E+00 0.  1.
         11    1    1    2    0    0  0.27283268409E+01  0.25409174803E+02  0.60027724400E+02  0.65241073168E+02  0.00000000000E+00 0. -1.
</event>
<event>
 7    1  0.2679104E-009  0.1077605E+03  0.7561462E-02  0.1264774E+00
         -1   -1    0    0    0  501 -0.00000000000E+00  0.00000000000E+00  0.86973198155E+03  0.86973198155E+03  0.00000000000E+00 0.  1.
          1   -1    0    0  501    0  0.00000000000E+00 -0.00000000000E+00 -0.19679513757E+02  0.19679513757E+02  0.00000000000E+00 0. -1.
         25    2    1    2    0    0 -0.29985609642E+02 -0.60992564351E+02  0.55897447603E+03  0.57681889037E+03  0.12509331617E+03 0.  0.
          5    1    3    3  502    0 -0.53471436833E+02  0.19145399088E+02  0.18287161329E+03  0.19153391400E+03  0.41800000000E+01 0. -1.
         -5    1    3    3    0  502  0.23485827191E+02 -0.80137963440E+02  0.37610286273E+03  0.38528497637E+03  0.41800000000E+01 0. -1.
        -11    1    1    2    0    0 -0.44382680827E+01  0.24079664375E+02  0.90822297330E+01  0.26115423736E+02  0.00000000000E+00 0. -1.
         11    1    1    2    0    0  0.34423877725E+02  0.36912899977E+02  0.28199576203E+03  0.28647718119E+03  0.00000000000E+00 0.  1.
</event>
<event>
 7    1  0.2679104E-009  0.1717995E+03  0.7561462E-02  0.1175984E+00
         -2   -1    0    0    0  501 -0.00000000000E+00  0.00000000000E+00  0.57150277293E+02  0.57150277293E+02  0.00000000000E+00 0.  1.
          2   -1    0    0  501    0  0.00000000000E+00 -0.00000000000E+00 -0.59015070927E+03  0.59015070927E+03  0.00000000000E+00 0. -1.
         25    2    1    2    0    0 -0.39469087539E+02 -0.14182730013E+03 -0.29636687894E+03  0.35377060594E+03  0.12509005862E+03 0.  0.
          5    1    3    3  502    0 -0.26403880592E+02  0.11821915757E+02 -0.99269731298E+02  0.10348369222E+03  0.41800000000E+01 0. -1.
         -5    1    3    3    0  502 -0.13065206946E+02 -0.15364921589E+03 -0.19709714764E+03  0.25028691373E+03  0.41800000000E+01 0. -1.
        -11    1    1    2    0    0  0.51047718191E+02  0.13915900926E+03 -0.23917274195E+03  0.28137999198E+03  0.00000000000E+00 0. -1.
         11    1    1    2    0    0 -0.11578630652E+02  0.26682908724E+01  0.25391889123E+01  0.12150388648E+02  0.00000000000E+00 0.  1.
</event>
<event>
 7    1  0.2679104E-009  0.9321981E+02  0.7561462E-02  0.1295237E+00
         -2   -1    0    0    0  501 -0.00000000000E+00  0.00000000000E+00  0.19497938050E+02  0.19497938050E+02  0.00000000000E+00 0.  1.
          2   -1    0    0  501    0  0.00000000000E+00 -0.00000000000E+00 -0.11384026366E+04  0.11384026366E+04  0.00000000000E+00 0. -1.
         25    2    1    2    0    0  0.24495957328E+02 -0.21007818086E+02 -0.98719054935E+03  0.99560749341E+03  0.12509084648E+03 0.  0.
          5    1    3    3  502    0  0.48942694665E+02  0.26076722534E+02 -0.23313617464E+03  0.23967755661E+03  0.41800000000E+01 0. -1.
         -5    1    3    3    0  502 -0.24446737336E+02 -0.47084540620E+02 -0.75405437471E+03  0.75592993680E+03  0.41800000000E+01 0. -1.
        -11    1    1    2    0    0 -0.13073409457E+02 -0.26070481982E+02 -0.10054130386E+03  0.10468590090E+03  0.00000000000E+00 0. -1.
         11    1    1    2    0    0 -0.11422547871E+02  0.47078300068E+02 -0.31172845299E+02  0.57607180292E+02  0.00000000000E+00 0.  1.
</event>
<event>
 7    1  0.2679104E-009  0.1541270E+03  0.7561462E-02  0.1195491E+00
          2   -1    0    0  501    0  0.00000000000E+00  0.00000000000E+00  0.27862270877E+03  0.27862270877E+03  0.00000000000E+00 0. -1.
         -2   -1    0    0    0  501 -0.00000000000E+00 -0.00000000000E+00 -0.86650838220E+02  0.86650838220E+02  0.00000000000E+00 0.  1.
         25    2    1    2    0    0  0.93963745341E+02  0.60479822433E+02  0.95705707557E+02  0.19311929367E+03  0.12509390381E+03 0.  0.
          5    1    3    3  502    0 -0.26295069885E+02  0.34523682649E+02  0.15862720413E+02  0.46394112372E+02  0.41800000000E+01 0. -1.
         -5    1    3    3    0  502  0.12025881523E+03  0.25956139784E+02  0.79842987143E+02  0.14672518130E+03  0.41800000000E+01 0. -1.
        -11    1    1    2    0    0 -0.64172448048E+02 -0.82493746112E+02  0.61025473773E+02  0.12102656603E+03  0.00000000000E+00 0.  1.
         11    1    1    2    0    0 -0.29791297293E+02  0.22013923679E+02  0.35240689216E+02  0.51127687280E+02  0.00000000000E+00 0. -1.
</event>
<event>
 7    1  0.2679104E-009  0.9516497E+02  0.7561462E-02  0.1290805E+00
         -1   -1    0    0    0  501 -0.00000000000E+00  0.00000000000E+00  0.84603624131E+02  0.84603624131E+02  0.00000000000E+00 0.  1.
          1   -1    0    0  501    0  0.00000000000E+00 -0.00000000000E+00 -0.36191404516E+03  0.36191404516E+03  0.00000000000E+00 0. -1.
         25    2    1    2    0    0 -0.17959235281E+02 -0.76956583573E+01  0.26335562848E+02  0.12931789135E+03  0.12509115822E+03 0.  0.
          5    1    3    3  502    0  0.25009197914E+02 -0.42267834285E+02 -0.23739454594E+02  0.54708901469E+02  0.41800000000E+01 0.  1.
         -5    1    3    3    0  502 -0.42968433195E+02  0.34572175928E+02  0.50075017441E+02  0.74608989883E+02  0.41800000000E+01 0.  1.
        -11    1    1    2    0    0  0.51554772836E+02  0.77644588809E+01 -0.12524639852E+03  0.13566444548E+03  0.00000000000E+00 0. -1.
         11    1    1    2    0    0 -0.33595537555E+02 -0.68800523665E-01 -0.17839958536E+03  0.18153533246E+03  0.00000000000E+00 0.  1.
</event>
<event>
 7    1  0.2679104E-009  0.2033538E+03  0.7561462E-02  0.1146940E+00
          1   -1    0    0  501    0  0.00000000000E+00  0.00000000000E+00  0.27799283800E+03  0.27799283800E+03  0.00000000000E+00 0. -1.
         -1   -1    0    0    0  501 -0.00000000000E+00 -0.00000000000E+00 -0.16597974857E+03  0.16597974857E+03  0.00000000000E+00 0.  1.
         25    2    1    2    0    0  0.55060091519E+02 -0.17513096166E+03  0.29485927056E+02  0.22409618330E+03  0.12508881671E+03 0.  0.
          5    1    3    3  502    0  0.85178304649E+02 -0.16762279750E+03  0.37488872757E+02  0.19176974163E+03  0.41800000000E+01 0. -1.
         -5    1    3    3    0  502 -0.30118213130E+02 -0.75081641561E+01 -0.80029457004E+01  0.32326441670E+02  0.41800000000E+01 0. -1.
        -11    1    1    2    0    0 -0.16488426239E+02  0.11293439106E+03  0.91313390996E+02  0.14616490776E+03  0.00000000000E+00 0.  1.
         11    1    1    2    0    0 -0.38571665279E+02  0.62196570598E+02 -0.87862286254E+01  0.73711495508E+02  0.00000000000E+00 0. -1.
</event>
<event>
 7    1  0.2679104E-009  0.1013439E+03  0.7561462E-02  0.1277495E+00
          2   -1    0    0  501    0  0.00000000000E+00  0.00000000000E+00  0.12404678421E+03  0.12404678421E+03  0.00000000000E+00 0. -1.
         -2   -1    0    0    0  501 -0.00000000000E+00 -0.00000000000E+00 -0.12328799850E+03  0.12328799850E+03  0.00000000000E+00 0.  1.
         25    2    1    2    0    0  0.26391324730E+02 -0.49004334742E+02 -0.14051777288E+02  0.13763491904E+03  0.12509193279E+03 0.  0.
          5    1    3    3  502    0  0.61936952509E+02 -0.64695715962E+02  0.12299679131E+02  0.90501250028E+02  0.41800000000E+01 0. -1.
         -5    1    3    3    0  502 -0.35545627779E+02  0.15691381219E+02 -0.26351456420E+02  0.47133669009E+02  0.41800000000E+01 0. -1.
        -11    1    1    2    0    0 -0.27884594901E+02  0.31428108040E+01 -0.33077346246E+02  0.43376707196E+02  0.00000000000E+00 0.  1.
         11    1    1    2    0    0  0.14932701715E+01  0.45861523938E+02  0.47887909241E+02  0.66323156478E+02  0.00000000000E+00 0. -1.
</event>
<event>
 7    1  0.2679104E-009  0.1224042E+03  0.7561462E-02  0.1239183E+00
         -1   -1    0    0    0  501 -0.00000000000E+00  0.00000000000E+00  0.80008913612E+02  0.80008913612E+02  0.00000000000E+00 0.  1.
          1   -1    0    0  501    0  0.00000000000E+00 -0.00000000000E+00 -0.29567939965E+03  0.29567939965E+03  0.00000000000E+00 0. -1.
         25    2    1    2    0    0  0.81939340225E+02  0.58112373197E+02 -0.16685680861E+03  0.23147284189E+03  0.12508948220E+03 0.  0.
          5    1    3    3  502    0  0.79393497297E+01 -0.68198768543E+01  0.18436260287E+02  0.21608148643E+02  0.41800000000E+01 0.  1.
         -5    1    3    3    0  502  0.73999990495E+02  0.64932250052E+02 -0.18529306889E+03  0.20986469324E+03  0.41800000000E+01 0.  1.
        -11    1    1    2    0    0 -0.89909228657E+02 -0.14992810883E+02 -0.26002294441E+02  0.94786987990E+02  0.00000000000E+00 0. -1.
         11    1    1    2    0    0  0.79698884324E+01 -0.43119562315E+02 -0.22811382991E+02  0.49428483386E+02  0.00000000000E+00 0.  1.
</event>
<event>
 7    1  0.2679104E-009  0.1081058E+03  0.7561462E-02  0.1264118E+00
          2   -1    0    0  501    0  0.00000000000E+00  0.00000000000E+00  0.14495843041E+04  0.14495843041E+04  0.00000000000E+00 0. -1.
         -2   -1    0    0    0  501 -0.00000000000E+00 -0.00000000000E+00 -0.11328339766E+02  0.11328339766E+02  0.00000000000E+00 0.  1.
         25    2    1    2    0    0 -0.12010289598E+01 -0.29001966432E+02  0.11295644961E+04  0.11368393485E+04  0.12508076135E+03 0.  0.
          5    1    3    3  502    0  0.88538057194E+01  0.48718818353E+02  0.47166640682E+03  0.47427690736E+03  0.41800000000E+01 0. -1.
         -5    1    3    3    0  502 -0.10054834679E+02 -0.77720784785E+02  0.65789808929E+03  0.66256244111E+03  0.41800000000E+01 0. -1.
        -11    1    1    2    0    0  0.37454881862E+02 -0.56612603550E+01  0.64647528268E+02  0.74928105242E+02  0.00000000000E+00 0.  1.
         11    1    1    2    0    0 -0.36253852902E+02  0.34663226787E+02  0.24404393998E+03  0.24914519016E+03  0.00000000000E+00 0. -1.
</event>
<event>
 7    1  0.2679104E-009  0.8196010E+02  0.7561462E-02  0.1323579E+00
          2   -1    0    0  501    0  0.00000000000E+00  0.00000000000E+00  0.41444122831E+03  0.41444122831E+03  0.00000000000E+00 0. -1.
         -2   -1    0    0    0  501 -0.00000000000E+00 -0.00000000000E+00 -0.30269138876E+02  0.30269138876E+02  0.00000000000E+00 0.  1.
         25    2    1    2    0    0  0.11225923727E+02  0.22889268401E+02  0.24418251041E+03  0.27553989614E+03  0.12508875252E+03 0.  0.
          5    1    3    3  502    0 -0.12997582143E+02 -0.28957090318E+02  0.87110515699E+01  0.33178382129E+02  0.41800000000E+01 0.  1.
         -5    1    3    3    0  502  0.24223505870E+02  0.51846358719E+02  0.23547145884E+03  0.24236151401E+03  0.41800000000E+01 0.  1.
        -11    1    1    2    0    0 -0.34377214511E+02 -0.34434217046E+02  0.32264144500E+02  0.58382216483E+02  0.00000000000E+00 0.  1.
         11    1    1    2    0    0  0.23151290784E+02  0.11544948646E+02  0.10772543453E+03  0.11078825456E+03  0.00000000000E+00 0. -1.
</event>
<event>
 7    1  0.2679104E-009  0.6489436E+02  0.7561462E-02  0.1378369E+00
         -2   -1    0    0    0  501 -0.00000000000E+00  0.00000000000E+00  0.49842266513E+02  0.49842266513E+02  0.00000000000E+00 0.  1.
          2   -1    0    0  501    0  0.00000000000E+00 -0.00000000000E+00 -0.26539122442E+03  0.26539122442E+03  0.00000000000E+00 0. -1.
         25    2    1    2    0    0 -0.36687746824E+02  0.10255450186E+02 -0.13918543793E+03  0.19097384759E+03  0.12508900554E+03 0.  0.
          5    1    3    3  502    0 -0.32635602606E+01  0.87171253956E+01 -0.15386105110E+03  0.15419900955E+03  0.41800000000E+01 0. -1.
         -5    1    3    3    0  502 -0.33424186564E+02  0.15383247909E+01  0.14675613177E+02  0.36774838038E+02  0.41800000000E+01 0. -1.
        -11    1    1    2    0    0  0.52510740193E+02  0.16274901593E+02 -0.17346010647E+02  0.57646633405E+02  0.00000000000E+00 0.  1.
         11    1    1    2    0    0 -0.15822993369E+02 -0.26530351780E+02 -0.59017509328E+02  0.66613009930E+02  0.00000000000E+00 0. -1.
</event>
<event>
 7    1  0.2679104E-009  0.1086333E+03  0.7561462E-02  0.1263122E+00
         -1   -1    0    0    0  501 -0.00000000000E+00  0.00000000000E+00  0.32238861090E+02  0.32238861090E+02  0.00000000000E+00 0.  1.
          1   -1    0    0  501    0  0.00000000000E+00 -0.00000000000E+00 -0.42685543634E+03  0.42685543634E+03  0.00000000000E+00 0. -1.
         25    2    1    2    0    0  0.42417365716E+02  0.99684165601E+01 -0.23886171633E+03  0.27313269986E+03  0.12509176616E+03 0.  0.
          5    1    3    3  502    0 -0.37987535910E+02 -0.62863790751E+00 -0.28611741396E+02  0.47744656411E+02  0.41800000000E+01 0. -1.
         -5    1    3    3    0  502  0.80404901627E+02  0.10597054468E+02 -0.21024997493E+03  0.22538804344E+03  0.41800000000E+01 0. -1.
        -11    1    1    2    0    0  0.25331961394E+02  0.99564051969E+01 -0.23178713760E+02  0.35750399216E+02  0.00000000000E+00 0.  1.
         11    1    1    2    0    0 -0.67749327111E+02 -0.19924821757E+02 -0.13257614516E+03  0.15021119836E+03  0.00000000000E+00 0. -1.
</event>
<event>
 7    1  0.2679104E-009  0.1018620E+03  0.7561462E-02  0.1276428E+00
         -1   -1    0    0    0  501 -0.00000000000E+00  0.00000000000E+00  0.16893583567E+03  0.16893583567E+03  0.00000000000E+00 0.  1.
          1   -1    0    0  501    0  0.00000000000E+00 -0.00000000000E+00 -0.18289515234E+03  0.18289515234E+03  0.00000000000E+00 0. -1.
         25    2    1    2    0    0  0.92494796255E+01 -0.86988600581E+02  0.99893161531E+02  0.18242303077E+03  0.12508776490E+03 0.  0.
          5    1    3    3  502    0 -0.21095910935E+02 -0.81821097392E+02  0.74822304513E+01  0.84930475150E+02  0.41800000000E+01 0. -1.
         -5    1    3    3    0  502  0.30345390560E+02 -0.51675031889E+01  0.92410931080E+02  0.97492555616E+02  0.41800000000E+01 0. -1.
        -11    1    1    2    0    0 -0.10198886692E+02  0.48598186480E+02 -0.42776603779E+00  0.49658674999E+02  0.00000000000E+00 0.  1.
         11    1    1    2    0    0  0.94940706643E+00  0.38390414101E+02 -0.11342471217E+03  0.11974928225E+03  0.00000000000E+00 0. -1.
</event>
<event>
 7    1  0.2679104E-009  0.8447621E+02  0.7561462E-02  0.1316808E+00
          2   -1    0    0  501    0  0.00000000000E+00  0.00000000000E+00  0.14787425022E+02  0.14787425022E+02  0.00000000000E+00 0. -1.
         -2   -1    0    0    0  501 -0.00000000000E+00 -0.00000000000E+00 -0.12703014356E+04  0.12703014356E+04  0.00000000000E+00 0.  1.
         25    2    1    2    0    0 -0.87002094652E+01  0.29594255506E+02 -0.10559060822E+04  0.10637371457E+04  0.12509015607E+03 0.  0.
          5    1    3    3  502    0  0.24746081376E+02 -0.55272033116E+01 -0.90091352597E+03  0.90127996327E+03  0.41800000000E+01 0.  1.
         -5    1    3    3    0  502 -0.33446290842E+02  0.35121458818E+02 -0.15499255621E+03  0.16245718242E+03  0.41800000000E+01 0.  1.
        -11    1    1    2    0    0  0.37712039239E+02 -0.47371892384E+02 -0.11109752280E+03  0.12652649392E+03  0.00000000000E+00 0. -1.
         11    1    1    2    0    0 -0.29011829773E+02  0.17777636878E+02 -0.88510405617E+02  0.94825221024E+02  0.00000000000E+00 0.  1.
</event>
<event>
 7    1  0.2679104E-009  0.7635225E+02  0.7561462E-02  0.1339734E+00
          1   -1    0    0  501    0  0.00000000000E+00  0.00000000000E+00  0.86659356929E+03  0.86659356929E+03  0.00000000000E+00 0. -1.
         -1   -1    0    0    0  501 -0.00000000000E+00 -0.00000000000E+00 -0.20518028508E+02  0.20518028508E+02  0.00000000000E+00 0.  1.
         25    2    1    2    0    0  0.48614221130E+02  0.49002991764E+02  0.57096772795E+03  0.58857228279E+03  0.12509416462E+03 0.  0.
          5    1    3    3  502    0  0.36156849816E+02  0.32251543695E+02  0.60324687312E+02  0.77485612591E+02  0.41800000000E+01 0. -1.
         -5    1    3    3    0  502  0.12457371314E+02  0.16751448068E+02  0.51064304063E+03  0.51108667020E+03  0.41800000000E+01 0. -1.
        -11    1    1    2    0    0 -0.24493921056E+02 -0.52951538287E+02  0.26621093194E+03  0.27252904039E+03  0.00000000000E+00 0. -1.
         11    1    1    2    0    0 -0.24120300075E+02  0.39485465234E+01  0.88968808969E+01  0.26010274605E+02  0.00000000000E+00 0.  1.
</event>
<event>
 7    1  0.2679104E-009  0.1100844E+03  0.7561462E-02  0.1260414E+00
         -2   -1    0    0    0  501 -0.00000000000E+00  0.00000000000E+00  0.15321212238E+03  0.15321212238E+03  0.00000000000E+00 0.  1.
          2   -1    0    0  501    0  0.00000000000E+00 -0.00000000000E+00 -0.12670668416E+03  0.12670668416E+03  0.00000000000E+00 0. -1.
         25    2    1    2    0    0  0.98150917818E+01 -0.80681690551E+02  0.50903719223E+02  0.15761766638E+03  0.12508504670E+03 0.  0.
          5    1    3    3  502    0 -0.39518093848E+02 -0.56482062748E+02 -0.16050519789E+02  0.70901302803E+02  0.41800000000E+01 0.  1.
         -5    1    3    3    0  502  0.49333185630E+02 -0.24199627803E+02  0.66954239012E+02  0.86716363576E+02  0.41800000000E+01 0.  1.
        -11    1    1    2    0    0 -0.16072188129E+02  0.10319341347E+01 -0.37985690226E+02  0.41258850944E+02  0.00000000000E+00 0. -1.
         11    1    1    2    0    0  0.62570963476E+01  0.79649756416E+02  0.13587409228E+02  0.81042289216E+02  0.00000000000E+00 0.  1.
</event>
<event>
 7    1  0.2679104E-009  0.7912104E+02  0.7561462E-02  0.1331564E+00
          2   -1    0    0  501    0  0.00000000000E+00  0.00000000000E+00  0.55052797156E+03  0.55052797156E+03  0.00000000000E+00 0. -1.
         -2   -1    0    0    0  501 -0.00000000000E+00 -0.00000000000E+00 -0.44434080787E+02  0.44434080787E+02  0.00000000000E+00 0.  1.
         25    2    1    2    0    0 -0.37929077702E+02  0.80200624113E+01  0.47342833275E+03  0.49120754613E+03  0.12509009068E+03 0.  0.
          5    1    3    3  502    0 -0.48618085670E+02 -0.36161368523E+02  0.40114729489E+03  0.40571909916E+03  0.41800000000E+01 0.  1.
         -5    1    3    3    0  502  0.10689007968E+02  0.44181430934E+02  0.72281037866E+02  0.85488446972E+02  0.41800000000E+01 0.  1.
        -11    1    1    2    0    0  0.32433878624E+02 -0.20398408581E+02  0.61179800651E+02  0.72187391994E+02  0.00000000000E+00 0. -1.
         11    1    1    2    0    0  0.54951990778E+01  0.12378346170E+02 -0.28514242636E+02  0.31567114215E+02  0.00000000000E+00 0.  1.
</event>
<event>
 7    1  0.2679104E-009  0.1078852E+03  0.7561462E-02  0.1264537E+00
          1   -1    0    0  501    0  0.00000000000E+00  0.00000000000E+00  0.92581913228E+02  0.92581913228E+02  0.00000000000E+00 0. -1.
         -1   -1    0    0    0  501 -0.00000000000E+00 -0.00000000000E+00 -0.17635798152E+03  0.17635798152E+03  0.00000000000E+00 0.  1.
         25    2    1    2    0    0  0.16212009139E+02 -0.53235943425E+02 -0.87538335356E+01  0.13719214902E+03  0.12509261064E+03 0.  0.
          5    1    3    3  502    0  0.32868237641E+02  0.34052533371E+02  0.21759315929E+01  0.47561572229E+02  0.41800000000E+01 0.  1.
         -5    1    3    3    0  502 -0.16656228503E+02 -0.87288476796E+02 -0.10929765129E+02  0.89630576787E+02  0.41800000000E+01 0.  1.
        -11    1    1    2    0    0  0.17230272221E+02  0.98260498410E+00 -0.67006534510E+02  0.69193377287E+02  0.00000000000E+00 0.  1.
         11    1    1    2    0    0 -0.33442281360E+02  0.52253338441E+02 -0.80157002433E+01  0.62554368442E+02  0.00000000000E+00 0. -1.
</event>
<event>
 7    1  0.2679104E-009  0.9508014E+02  0.7561462E-02  0.1290996E+00
         -1   -1    0    0    0  501 -0.00000000000E+00  0.00000000000E+00  0.14171273801E+03  0.14171273801E+03  0.00000000000E+00 0.  1.
          1   -1    0    0  501    0  0.00000000000E+00 -0.00000000000E+00 -0.97619818590E+02  0.97619818590E+02  0.00000000000E+00 0. -1.
         25    2    1    2    0    0  0.25806773873E+02 -0.40010757344E+02  0.34250928688E+02  0.13816618673E+03  0.12509963533E+03 0.  0.
          5    1    3    3  502    0 -0.45235645715E+02 -0.23576640519E+02 -0.10857980147E+02  0.52321025929E+02  0.41800000000E+01 0.  1.
         -5    1    3    3    0  502  0.71042419589E+02 -0.16434116825E+02  0.45108908835E+02  0.85845160802E+02  0.41800000000E+01 0.  1.
        -11    1    1    2    0    0  0.16634467439E+01  0.38385855609E+02 -0.32731458134E+02  0.50473649734E+02  0.00000000000E+00 0. -1.
         11    1    1    2    0    0 -0.27470220617E+02  0.16249017352E+01  0.42573448870E+02  0.50692720139E+02  0.00000000000E+00 0.  1.
</event>
<event>
 7    1  0.2679104E-009  0.9239116E+02  0.7561462E-02  0.1297162E+00
         -1   -1    0    0    0  501 -0.00000000000E+00  0.00000000000E+00  0.14270256422E+03  0.14270256422E+03  0.00000000000E+00 0.  1.
          1   -1    0    0  501    0  0.00000000000E+00 -0.00000000000E+00 -0.10660311848E+03  0.10660311848E+03  0.00000000000E+00 0. -1.
         25    2    1    2    0    0 -0.11086631690E+02 -0.57037797501E+02 -0.37356836371E+01  0.13797247590E+03  0.12508487130E+03 0.  0.
          5    1    3    3  502    0  0.50792864099E+02 -0.23254424223E+02  0.25481972538E+02  0.61542559369E+02  0.41800000000E+01 0.  1.
         -5    1    3    3    0  502 -0.61879495789E+02 -0.33783373278E+02 -0.29217656176E+02  0.76429916535E+02  0.41800000000E+01 0.  1.
        -11    1    1    2    0    0  0.81772810887E+01  0.37190496309E+02 -0.23601978413E+02  0.44800159896E+02  0.00000000000E+00 0. -1.
         11    1    1    2    0    0  0.29093506015E+01  0.19847301192E+02  0.63437107790E+02  0.66533046903E+02  0.00000000000E+00 0.  1.
</event>
<event>
 7    1  0.2734755E-009  0.1052037E+03  0.7561462E-02  0.1269719E+00
          2   -1    0    0  501    0  0.00000000000E+00  0.00000000000E+00  0.77634457207E+03  0.77634457207E+03  0.00000000000E+00 0. -1.
         -2   -1    0    0    0  501 -0.00000000000E+00 -0.00000000000E+00 -0.17978079770E+02  0.17978079770E+02  0.00000000000E+00 0.  1.
         25    2    1    2    0    0  0.38705572262E+01  0.66613115256E+01  0.58940811573E+03  0.60258517237E+03  0.12509040247E+03 0.  0.
          5    1    3    3  502    0  0.58504823583E+02 -0.22196093200E+02  0.26506448171E+03  0.27238232836E+03  0.41800000000E+01 0.  1.
         -5    1    3    3    0  502 -0.54634266357E+02  0.28857404725E+02  0.32434363402E+03  0.33020284401E+03  0.41800000000E+01 0.  1.
        -11    1    1    2    0    0 -0.26803341588E+02  0.31428054644E+02  0.11270484948E+03  0.12003551489E+03  0.00000000000E+00 0. -1.
         11    1    1    2    0    0  0.22932784362E+02 -0.38089366170E+02  0.56253527089E+02  0.71701964574E+02  0.00000000000E+00 0.  1.
</event>
<event>
 7    1  0.2679104E-009  0.1076930E+03  0.7561462E-02  0.1264903E+00
         -3   -1    0    0    0  501 -0.00000000000E+00  0.00000000000E+00  0.88554336861E+02  0.88554336861E+02  0.00000000000E+00 0.  1.
          3   -1    0    0  501    0  0.00000000000E+00 -0.00000000000E+00 -0.15452130676E+03  0.15452130676E+03  0.00000000000E+00 0. -1.
         25    2    1    2    0    0  0.20185649997E+02  0.14360361424E+02  0.12224491275E+01  0.12752593007E+03  0.12509071913E+03 0.  0.
          5    1    3    3  502    0 -0.43182697876E+02 -0.22380488751E+02 -0.17409947512E+02  0.51828663353E+02  0.41800000000E+01 0.  1.
         -5    1    3    3    0  502  0.63368347873E+02  0.36740850175E+02  0.18632396639E+02  0.75697266716E+02  0.41800000000E+01 0.  1.
        -11    1    1    2    0    0  0.32871706700E+01 -0.50227810235E+02 -0.28714412427E+02  0.57949597867E+02  0.00000000000E+00 0.  1.
         11    1    1    2    0    0 -0.23472820667E+02  0.35867448811E+02 -0.38475006604E+02  0.57600115690E+02  0.00000000000E+00 0. -1.
</event>
<event>
 7    1  0.2679104E-009  0.1335423E+03  0.7561462E-02  0.1222292E+00
         -1   -1    0    0    0  501 -0.00000000000E+00  0.00000000000E+00  0.84191376550E+02  0.84191376550E+02  0.00000000000E+00 0.  1.
          1   -1    0    0  501    0  0.00000000000E+00 -0.00000000000E+00 -0.26766914143E+03  0.26766914143E+03  0.00000000000E+00 0. -1.
         25    2    1    2    0    0 -0.66371297660E+02 -0.78696639848E+02 -0.10462244624E+03  0.19285066147E+03  0.12508881284E+03 0.  0.
          5    1    3    3  502    0 -0.14077420452E+02 -0.83928015388E+02 -0.11079687260E+03  0.13976947060E+03  0.41800000000E+01 0.  1.
         -5    1    3    3    0  502 -0.52293877208E+02  0.52313755397E+01  0.61744263617E+01  0.53081190872E+02  0.41800000000E+01 0.  1.
        -11    1    1    2    0    0  0.48981820257E+02  0.42820821675E+00 -0.37119155787E+01  0.49124132514E+02  0.00000000000E+00 0.  1.
         11    1    1    2    0    0  0.17389477403E+02  0.78268431632E+02 -0.75143403064E+02  0.10988572400E+03  0.00000000000E+00 0. -1.
</event>
<event>
 7    1  0.2679104E-009  0.1430489E+03  0.7561462E-02  0.1209284E+00
         -1   -1    0    0    0  501 -0.00000000000E+00  0.00000000000E+00  0.37693677552E+02  0.37693677552E+02  0.00000000000E+00 0.  1.
          1   -1    0    0  501    0  0.00000000000E+00 -0.00000000000E+00 -0.72385263052E+03  0.72385263052E+03  0.00000000000E+00 0. -1.
         25    2    1    2    0    0 -0.10580408916E+03  0.57868139685E+02 -0.44000872584E+03  0.47307318322E+03  0.12508929210E+03 0.  0.
          5    1    3    3  502    0 -0.28230619375E+02 -0.34458040187E+02 -0.19366384692E+03  0.19876489230E+03  0.41800000000E+01 0.  1.
         -5    1    3    3    0  502 -0.77573469785E+02  0.92326179872E+02 -0.24634487892E+03  0.27430829093E+03  0.41800000000E+01 0.  1.
        -11    1    1    2    0    0  0.79440793849E+02 -0.41002365222E+02 -0.24062151440E+03  0.25669192990E+03  0.00000000000E+00 0. -1.
         11    1    1    2    0    0  0.26363295312E+02 -0.16865774463E+02 -0.55287127250E+01  0.31781194948E+02  0.00000000000E+00 0.  1.
</event>
<event>
 7    1  0.2679104E-009  0.1143788E+03  0.7561462E-02  0.1252669E+00
         -2   -1    0    0    0  501 -0.00000000000E+00  0.00000000000E+00  0.72836229045E+02  0.72836229045E+02  0.00000000000E+00 0. -1.
          2   -1    0    0  501    0  0.00000000000E+00 -0.00000000000E+00 -0.31517292143E+03  0.31517292143E+03  0.00000000000E+00 0.  1.
         25    2    1    2    0    0 -0.27841317787E+02  0.45040206912E+02 -0.13762476076E+02  0.13653477859E+03  0.12509428764E+03 0.  0.
          5    1    3    3  502    0  0.22549893309E+02 -0.34056492544E+02  0.30164916307E+01  0.41169333179E+02  0.41800000000E+01 0. -1.
         -5    1    3    3    0  502 -0.50391211096E+02  0.79096699456E+02 -0.16778967707E+02  0.95365445408E+02  0.41800000000E+01 0. -1.
        -11    1    1    2    0    0  0.55049749088E+02 -0.31592832439E+02 -0.93336341159E+02  0.11287273593E+03  0.00000000000E+00 0. -1.
         11    1    1    2    0    0 -0.27208431301E+02 -0.13447374473E+02 -0.13523787515E+03  0.13860163595E+03  0.00000000000E+00 0.  1.
</event>
<event>
 7    1  0.2679104E-009  0.1405859E+03  0.7561462E-02  0.1212543E+00
          2   -1    0    0  501    0  0.00000000000E+00  0.00000000000E+00  0.85795871718E+03  0.85795871718E+03  0.00000000000E+00 0. -1.
         -2   -1    0    0    0  501 -0.00000000000E+00 -0.00000000000E+00 -0.30182756094E+02  0.30182756094E+02  0.00000000000E+00 0.  1.
         25    2    1    2    0    0  0.76572111217E+02 -0.23826132341E+02  0.26473646646E+03  0.30358482557E+03  0.12508947534E+03 0.  0.
          5    1    3    3  502    0  0.82847963075E+02 -0.56632041989E+02  0.24445600965E+03  0.26428618242E+03  0.41800000000E+01 0. -1.
         -5    1    3    3    0  502 -0.62758518572E+01  0.32805909648E+02  0.20280456812E+02  0.39298643143E+02  0.41800000000E+01 0. -1.
        -11    1    1    2    0    0 -0.32501657162E+02  0.73679292170E+02  0.40751801101E+03  0.41539851361E+03  0.00000000000E+00 0. -1.
         11    1    1    2    0    0 -0.44070454056E+02 -0.49853159829E+02  0.15552148361E+03  0.16915813410E+03  0.00000000000E+00 0.  1.
</event>
<event>
 7    1  0.2679104E-009  0.1627615E+03  0.7561462E-02  0.1185614E+00
         -1   -1    0    0    0  501 -0.00000000000E+00  0.00000000000E+00  0.39169924964E+02  0.39169924964E+02  0.00000000000E+00 0.  1.
          1   -1    0    0  501    0  0.00000000000E+00 -0.00000000000E+00 -0.82871107848E+03  0.82871107848E+03  0.00000000000E+00 0. -1.
         25    2    1    2    0    0  0.42144633322E+02  0.13354943650E+03 -0.48189258361E+03  0.51718434430E+03  0.12509021442E+03 0.  0.
          5    1    3    3  502    0  0.74868544049E+02  0.53779469730E+02 -0.16840901407E+03  0.19203280624E+03  0.41800000000E+01 0. -1.
         -5    1    3    3    0  502 -0.32723910728E+02  0.79769966773E+02 -0.31348356954E+03  0.32515153806E+03  0.41800000000E+01 0. -1.
        -11    1    1    2    0    0  0.95419067801E+01 -0.19554134701E+02 -0.38127815607E+01  0.22089578360E+02  0.00000000000E+00 0.  1.
         11    1    1    2    0    0 -0.51686540102E+02 -0.11399530180E+03 -0.30383578835E+03  0.32860708078E+03  0.00000000000E+00 0. -1.
</event>
<event>
 7    1  0.2679104E-009  0.1349817E+03  0.7561462E-02  0.1220246E+00
         -2   -1    0    0    0  501 -0.00000000000E+00  0.00000000000E+00  0.94754811696E+01  0.94754811696E+01  0.00000000000E+00 0.  1.
          2   -1    0    0  501    0  0.00000000000E+00 -0.00000000000E+00 -0.30678040957E+04  0.30678040957E+04  0.00000000000E+00 0. -1.
         25    2    1    2    0    0 -0.85583349461E+02 -0.38181709159E+02 -0.24501690355E+04  0.24551493629E+04  0.12509092299E+03 0.  0.
          5    1    3    3  502    0 -0.70785706263E+02  0.26577616372E+02 -0.17976807645E+04  0.17992750177E+04  0.41800000000E+01 0. -1.
         -5    1    3    3    0  502 -0.14797643198E+02 -0.64759325532E+02 -0.65248827097E+03  0.65587434516E+03  0.41800000000E+01 0. -1.
        -11    1    1    2    0    0  0.21829641792E+02 -0.28184770644E+02 -0.11295744886E+03  0.11844956652E+03  0.00000000000E+00 0.  1.
         11    1    1    2    0    0  0.63753707669E+02  0.66366479803E+02 -0.49520213018E+03  0.50368064745E+03  0.00000000000E+00 0. -1.
</event>
<event>
 7    1  0.2679104E-009  0.1329164E+03  0.7561462E-02  0.1223191E+00
          2   -1    0    0  501    0  0.00000000000E+00  0.00000000000E+00  0.88863684378E+03  0.88863684378E+03  0.00000000000E+00 0. -1.
         -2   -1    0    0    0  501 -0.00000000000E+00 -0.00000000000E+00 -0.25419085257E+02  0.25419085257E+02  0.00000000000E+00 0.  1.
         25    2    1    2    0    0  0.13026409328E+02 -0.10230551600E+03  0.49745367422E+03  0.52320557396E+03  0.12509120149E+03 0.  0.
          5    1    3    3  502    0 -0.33102530716E+02  0.11909917172E+02  0.71757951225E+02  0.80026868181E+02  0.41800000000E+01 0. -1.
         -5    1    3    3    0  502  0.46128940044E+02 -0.11421543318E+03  0.42569572299E+03  0.44317870578E+03  0.41800000000E+01 0. -1.
        -11    1    1    2    0    0  0.37437445378E+01  0.75122620468E+02  0.34417657220E+03  0.35229949841E+03  0.00000000000E+00 0. -1.
         11    1    1    2    0    0 -0.16770153865E+02  0.27182895536E+02  0.21587512104E+02  0.38550856661E+02  0.00000000000E+00 0.  1.
</event>
<event>
 7    1  0.2837503E-009  0.1153227E+03  0.7561462E-02  0.1251019E+00
          1   -1    0    0  501    0  0.00000000000E+00  0.00000000000E+00  0.28232070362E+03  0.28232070362E+03  0.00000000000E+00 0. -1.
         -1   -1    0    0    0  501 -0.00000000000E+00 -0.00000000000E+00 -0.91144448080E+02  0.91144448080E+02  0.00000000000E+00 0.  1.
         25    2    1    2    0    0  0.23143636623E+02 -0.93770000328E+02  0.18093498886E+03  0.24023361257E+03  0.12508508119E+03 0.  0.
          5    1    3    3  502    0  0.24373058737E+02 -0.65973914865E+02  0.19602820901E+03  0.20830538774E+03  0.41800000000E+01 0. -1.
         -5    1    3    3    0  502 -0.12294221146E+01 -0.27796085463E+02 -0.15093220152E+02  0.31928224823E+02  0.41800000000E+01 0. -1.
        -11    1    1    2    0    0  0.33737901221E+02  0.49830942838E+02 -0.25245591946E+01  0.60230741669E+02  0.00000000000E+00 0.  1.
         11    1    1    2    0    0 -0.56881537843E+02  0.43939057490E+02  0.12765825878E+02  0.73000797468E+02  0.00000000000E+00 0. -1.
</event>
<event>
 7    1  0.2679104E-009  0.1597586E+03  0.7561462E-02  0.1188970E+00
         -1   -1    0    0    0  501 -0.00000000000E+00  0.00000000000E+00  0.14678892643E+03  0.14678892643E+03  0.00000000000E+00 0.  1.
          1   -1    0    0  501    0  0.00000000000E+00 -0.00000000000E+00 -0.20014266739E+03  0.20014266739E+03  0.00000000000E+00 0. -1.
         25    2    1    2    0    0 -0.80507357179E+02  0.10236097092E+03 -0.54315425657E+02  0.18856554455E+03  0.12509035214E+03 0.  0.
          5    1    3    3  502    0  0.19302133535E+02 -0.15183731060E+02  0.32643090463E+00  0.24913791463E+02  0.41800000000E+01 0.  1.
         -5    1    3    3    0  502 -0.99809490714E+02  0.11754470198E+03 -0.54641856561E+02  0.16365175309E+03  0.41800000000E+01 0.  1.
        -11    1    1    2    0    0 -0.12746210626E+01 -0.33244670651E+02  0.32736513335E+02  0.46674533644E+02  0.00000000000E+00 0. -1.
         11    1    1    2    0    0  0.81781978241E+02 -0.69116300267E+02 -0.31774828644E+02  0.11169151563E+03  0.00000000000E+00 0.  1.
</event>
<event>
 7    1  0.2679104E-009  0.1539738E+03  0.7561462E-02  0.1195673E+00
          4   -1    0    0  501    0  0.00000000000E+00  0.00000000000E+00  0.55978033715E+02  0.55978033715E+02  0.00000000000E+00 0.  1.
         -4   -1    0    0    0  501 -0.00000000000E+00 -0.00000000000E+00 -0.52230293304E+03  0.52230293304E+03  0.00000000000E+00 0. -1.
         25    2    1    2    0    0 -0.96504794526E+02  0.68400981670E+02 -0.15137452043E+03  0.22925131085E+03  0.12510015361E+03 0.  0.
          5    1    3    3  502    0  0.22480649670E+02  0.19376988735E+02  0.71267263933E+00  0.29980453704E+02  0.41800000000E+01 0.  1.
         -5    1    3    3    0  502 -0.11898544420E+03  0.49023992935E+02 -0.15208719307E+03  0.19927085715E+03  0.41800000000E+01 0.  1.
        -11    1    1    2    0    0  0.93619911384E+02 -0.13905731425E+02 -0.17782308424E+03  0.20144256368E+03  0.00000000000E+00 0.  1.
         11    1    1    2    0    0  0.28848831423E+01 -0.54495250245E+02 -0.13712729466E+03  0.14758709222E+03  0.00000000000E+00 0. -1.
</event>
<event>
 7    1  0.2679104E-009  0.1454139E+03  0.7561462E-02  0.1206224E+00
         -1   -1    0    0    0  501 -0.00000000000E+00  0.00000000000E+00  0.24994336716E+03  0.24994336716E+03  0.00000000000E+00 0.  1.
          1   -1    0    0  501    0  0.00000000000E+00 -0.00000000000E+00 -0.10025893845E+03  0.10025893845E+03  0.00000000000E+00 0. -1.
         25    2    1    2    0    0  0.94529444796E+02 -0.66511671795E+02  0.64774423530E+02  0.18221593177E+03  0.12508917391E+03 0.  0.
          5    1    3    3  502    0  0.77641564249E+02 -0.10294481717E+03  0.57274957761E+02  0.14115148269E+03  0.41800000000E+01 0. -1.
         -5    1    3    3    0  502  0.16887880547E+02  0.36433145371E+02  0.74994657684E+01  0.41064449075E+02  0.41800000000E+01 0. -1.
        -11    1    1    2    0    0 -0.19844872330E+02 -0.21925164618E+01  0.60364652015E+02  0.63580793477E+02  0.00000000000E+00 0.  1.
         11    1    1    2    0    0 -0.74684572466E+02  0.68704188257E+02  0.24545353167E+02  0.10440558036E+03  0.00000000000E+00 0. -1.
</event>
<event>
 7    1  0.2679104E-009  0.1816205E+03  0.7561462E-02  0.1166244E+00
         -2   -1    0    0    0  501 -0.00000000000E+00  0.00000000000E+00  0.15802396359E+03  0.15802396359E+03  0.00000000000E+00 0.  1.
          2   -1    0    0  501    0  0.00000000000E+00 -0.00000000000E+00 -0.33197683636E+03  0.33197683636E+03  0.00000000000E+00 0. -1.
         25    2    1    2    0    0  0.98874188336E+02 -0.14147470959E+03  0.19864531338E+02  0.21408838515E+03  0.12509211997E+03 0.  0.
          5    1    3    3  502    0  0.22700750476E+02 -0.59763426969E+02 -0.50865615602E+02  0.81803267207E+02  0.41800000000E+01 0. -1.
         -5    1    3    3    0  502  0.76173437860E+02 -0.81711282626E+02  0.70730146941E+02  0.13228511795E+03  0.41800000000E+01 0. -1.
        -11    1    1    2    0    0 -0.61159478093E+02  0.26990589460E+02 -0.31943340512E+02  0.74090152403E+02  0.00000000000E+00 0. -1.
         11    1    1    2    0    0 -0.37714710243E+02  0.11448412013E+03 -0.16187406360E+03  0.20182226239E+03  0.00000000000E+00 0.  1.
</event>
<event>
 7    1  0.2679104E-009  0.1059035E+03  0.7561462E-02  0.1268350E+00
          1   -1    0    0  501    0  0.00000000000E+00  0.00000000000E+00  0.15253691619E+03  0.15253691619E+03  0.00000000000E+00 0. -1.
         -1   -1    0    0    0  501 -0.00000000000E+00 -0.00000000000E+00 -0.10577963550E+03  0.10577963550E+03  0.00000000000E+00 0.  1.
         25    2    1    2    0    0  0.31693233664E+02 -0.31366709632E+02 -0.23456943652E+02  0.13484900150E+03  0.12508274648E+03 0.  0.
          5    1    3    3  502    0  0.71435595980E+02 -0.83293072090E+01  0.16404669302E+02  0.73885095293E+02  0.41800000000E+01 0. -1.
         -5    1    3    3    0  502 -0.39742362316E+02 -0.23037402423E+02 -0.39861612954E+02  0.60963906208E+02  0.41800000000E+01 0. -1.
        -11    1    1    2    0    0  0.16293212101E+02 -0.18351840388E+02  0.42381483935E+02  0.48973962334E+02  0.00000000000E+00 0. -1.
         11    1    1    2    0    0 -0.47986445765E+02  0.49718550019E+02  0.27832740404E+02  0.74493587856E+02  0.00000000000E+00 0.  1.
</event>
<event>
 7    1  0.2679104E-009  0.8909267E+02  0.7561462E-02  0.1305064E+00
          1   -1    0    0  501    0  0.00000000000E+00  0.00000000000E+00  0.82103430647E+02  0.82103430647E+02  0.00000000000E+00 0. -1.
         -1   -1    0    0    0  501 -0.00000000000E+00 -0.00000000000E+00 -0.15721826468E+03  0.15721826468E+03  0.00000000000E+00 0.  1.
         25    2    1    2    0    0 -0.10376846510E+02  0.12117252944E+02 -0.56139074823E+02  0.13803582707E+03  0.12509111507E+03 0.  0.
          5    1    3    3  502    0 -0.39905377448E+02 -0.33014982197E+02 -0.65003614533E+02  0.83218810982E+02  0.41800000000E+01 0.  1.
         -5    1    3    3    0  502  0.29528530939E+02  0.45132235142E+02  0.88645397103E+01  0.54817016086E+02  0.41800000000E+01 0.  1.
        -11    1    1    2    0    0  0.15125773871E+02 -0.40562171505E+02 -0.44998818582E+02  0.62441752588E+02  0.00000000000E+00 0.  1.
         11    1    1    2    0    0 -0.47489273617E+01  0.28444918560E+02  0.26023059374E+02  0.38844115670E+02  0.00000000000E+00 0. -1.
</event>
<event>
 7    1  0.2679104E-009  0.1259376E+03  0.7561462E-02  0.1233611E+00
          4   -1    0    0  501    0  0.00000000000E+00  0.00000000000E+00  0.34595641381E+03  0.34595641381E+03  0.00000000000E+00 0. -1.
         -4   -1    0    0    0  501 -0.00000000000E+00 -0.00000000000E+00 -0.49645300154E+02  0.49645300154E+02  0.00000000000E+00 0.  1.
         25    2    1    2    0    0  0.41184110232E+02 -0.60590020186E+02  0.18855600344E+03  0.23784131386E+03  0.12509133729E+03 0.  0.
          5    1    3    3  502    0 -0.25893424785E+02 -0.64405689319E+02  0.13485462041E+03  0.15172937524E+03  0.41800000000E+01 0. -1.
         -5    1    3    3    0  502  0.67077535017E+02  0.38156691333E+01  0.53701383025E+02  0.86111938625E+02  0.41800000000E+01 0. -1.
        -11    1    1    2    0    0 -0.51597586979E+02 -0.19326126740E+01  0.53117071444E+02  0.74077454415E+02  0.00000000000E+00 0. -1.
         11    1    1    2    0    0  0.10413476747E+02  0.62522632860E+02  0.54638038777E+02  0.83682945689E+02  0.00000000000E+00 0.  1.
</event>
<event>
 7    1  0.2679104E-009  0.1029532E+03  0.7561462E-02  0.1274206E+00
         -1   -1    0    0    0  501 -0.00000000000E+00  0.00000000000E+00  0.15333770709E+02  0.15333770709E+02  0.00000000000E+00 0.  1.
          1   -1    0    0  501    0  0.00000000000E+00 -0.00000000000E+00 -0.91101087064E+03  0.91101087064E+03  0.00000000000E+00 0. -1.
         25    2    1    2    0    0 -0.72275086051E+01  0.51502687217E+01 -0.66269353262E+03  0.67445577334E+03  0.12509640225E+03 0.  0.
          5    1    3    3  502    0 -0.51280514724E+02  0.38621519491E+02 -0.45302683633E+03  0.45757196133E+03  0.41800000000E+01 0. -1.
         -5    1    3    3    0  502  0.44053006119E+02 -0.33471250770E+02 -0.20966669629E+03  0.21688381201E+03  0.41800000000E+01 0. -1.
        -11    1    1    2    0    0  0.14752000411E+02  0.38794584275E+02 -0.16820674283E+03  0.17325169441E+03  0.00000000000E+00 0. -1.
         11    1    1    2    0    0 -0.75244918061E+01 -0.43944852997E+02 -0.64776824485E+02  0.78637173602E+02  0.00000000000E+00 0.  1.
</event>
<event>
 7    1  0.2679104E-009  0.6691000E+02  0.7561462E-02  0.1370928E+00
         -2   -1    0    0    0  501 -0.00000000000E+00  0.00000000000E+00  0.24735966198E+02  0.24735966198E+02  0.00000000000E+00 0.  1.
          2   -1    0    0  501    0  0.00000000000E+00 -0.00000000000E+00 -0.48903649014E+03  0.48903649014E+03  0.00000000000E+00 0. -1.
         25    2    1    2    0    0 -0.50297254925E+01  0.19657033958E-01 -0.30482288800E+03  0.32952980663E+03  0.12509037486E+03 0.  0.
          5    1    3    3  502    0 -0.34830267043E+01 -0.24793183329E+02 -0.17858158617E+01  0.25445922127E+02  0.41800000000E+01 0. -1.
         -5    1    3    3    0  502 -0.15466987883E+01  0.24812840363E+02 -0.30303707214E+03  0.30408388450E+03  0.41800000000E+01 0. -1.
        -11    1    1    2    0    0 -0.14751666455E+02  0.37783394182E+02 -0.11784553373E+03  0.12463051938E+03  0.00000000000E+00 0. -1.
         11    1    1    2    0    0  0.19781391947E+02 -0.37803051216E+02 -0.41632102213E+02  0.59612130337E+02  0.00000000000E+00 0.  1.
</event>
<event>
 7    1  0.2679104E-009  0.1356401E+03  0.7561462E-02  0.1219319E+00
         -2   -1    0    0    0  501 -0.00000000000E+00  0.00000000000E+00  0.24998116677E+03  0.24998116677E+03  0.00000000000E+00 0. -1.
          2   -1    0    0  501    0  0.00000000000E+00 -0.00000000000E+00 -0.94748503113E+02  0.94748503113E+02  0.00000000000E+00 0.  1.
         25    2    1    2    0    0 -0.81054485924E+02 -0.47374294169E+02  0.19719930892E+02  0.15764049205E+03  0.12508995013E+03 0.  0.
          5    1    3    3  502    0 -0.80982336140E+02 -0.82753533410E+02 -0.20703695899E+01  0.11587944118E+03  0.41800000000E+01 0.  1.
         -5    1    3    3    0  502 -0.72149783742E-01  0.35379239241E+02  0.21790300482E+02  0.41761050872E+02  0.41800000000E+01 0.  1.
        -11    1    1    2    0    0  0.34621343271E+02  0.62085277141E+02  0.44509623833E+02  0.83870886852E+02  0.00000000000E+00 0. -1.
         11    1    1    2    0    0  0.46433142653E+02 -0.14710982971E+02  0.91003108930E+02  0.10321829097E+03  0.00000000000E+00 0.  1.
</event>
<event>
 7    1  0.2679104E-009  0.6357668E+02  0.7561462E-02  0.1383407E+00
          2   -1    0    0  501    0  0.00000000000E+00  0.00000000000E+00  0.52001866897E+03  0.52001866897E+03  0.00000000000E+00 0. -1.
         -2   -1    0    0    0  501 -0.00000000000E+00 -0.00000000000E+00 -0.36295295478E+02  0.36295295478E+02  0.00000000000E+00 0.  1.
         25    2    1    2    0    0 -0.30808344121E+02  0.12009830989E+02  0.41758048621E+03  0.43716570423E+03  0.12508797059E+03 0.  0.
          5    1    3    3  502    0  0.22947240717E+02  0.20295627607E+02  0.34493948515E+03  0.34632240640E+03  0.41800000000E+01 0.  1.
         -5    1    3    3    0  502 -0.53755584838E+02 -0.82857966180E+01  0.72641001055E+02  0.90843297833E+02  0.41800000000E+01 0.  1.
        -11    1    1    2    0    0  0.60419309934E+01 -0.15534383916E+02 -0.21956269535E+02  0.27566279866E+02  0.00000000000E+00 0.  1.
         11    1    1    2    0    0  0.24766413127E+02  0.35245529269E+01  0.88099156817E+02  0.91581980348E+02  0.00000000000E+00 0. -1.
</event>
<event>
 7    1  0.2679104E-009  0.9030172E+02  0.7561462E-02  0.1302123E+00
         -2   -1    0    0    0  501 -0.00000000000E+00  0.00000000000E+00  0.70444343222E+02  0.70444343222E+02  0.00000000000E+00 0.  1.
          2   -1    0    0  501    0  0.00000000000E+00 -0.00000000000E+00 -0.20713841561E+03  0.20713841561E+03  0.00000000000E+00 0. -1.
         25    2    1    2    0    0  0.15523076932E+02 -0.26603760137E+02 -0.13178230668E+03  0.18429003536E+03  0.12509002682E+03 0.  0.
          5    1    3    3  502    0 -0.54000706280E+02 -0.14695422414E+02 -0.42320315531E+02  0.70288784492E+02  0.41800000000E+01 0. -1.
         -5    1    3    3    0  502  0.69523783213E+02 -0.11908337724E+02 -0.89461991152E+02  0.11400125087E+03  0.41800000000E+01 0. -1.
        -11    1    1    2    0    0  0.12151105830E+02 -0.37796669827E+01  0.34241797057E+02  0.36529931851E+02  0.00000000000E+00 0.  1.
         11    1    1    2    0    0 -0.27674182762E+02  0.30383427120E+02 -0.39153562757E+02  0.56762791613E+02  0.00000000000E+00 0. -1.
</event>
<event>
 7    1  0.2679104E-009  0.1957802E+03  0.7561462E-02  0.1153349E+00
         -2   -1    0    0    0  501 -0.00000000000E+00  0.00000000000E+00  0.28345196797E+02  0.28345196797E+02  0.00000000000E+00 0. -1.
          2   -1    0    0  501    0  0.00000000000E+00 -0.00000000000E+00 -0.14709750846E+04  0.14709750846E+04  0.00000000000E+00 0.  1.
         25    2    1    2    0    0 -0.48943640164E+02  0.16261780895E+03 -0.91215021877E+03  0.93621891716E+03  0.12509119688E+03 0.  0.
          5    1    3    3  502    0  0.36211339602E+02  0.88742355880E+02 -0.35316092674E+03  0.36595980574E+03  0.41800000000E+01 0.  1.
         -5    1    3    3    0  502 -0.85154979767E+02  0.73875453074E+02 -0.55898929203E+03  0.57025911141E+03  0.41800000000E+01 0.  1.
        -11    1    1    2    0    0  0.62750142706E+02 -0.15459179273E+03 -0.51288616444E+03  0.53934072761E+03  0.00000000000E+00 0.  1.
         11    1    1    2    0    0 -0.13806502542E+02 -0.80260162241E+01 -0.17593504579E+02  0.23760636612E+02  0.00000000000E+00 0. -1.
</event>
<event>
 7    1  0.2679104E-009  0.1405042E+03  0.7561462E-02  0.1212652E+00
          2   -1    0    0  501    0  0.00000000000E+00  0.00000000000E+00  0.10846800425E+04  0.10846800425E+04  0.00000000000E+00 0. -1.
         -2   -1    0    0    0  501 -0.00000000000E+00 -0.00000000000E+00 -0.20665940962E+02  0.20665940962E+02  0.00000000000E+00 0.  1.
         25    2    1    2    0    0  0.15713285141E+02  0.96492643370E+02  0.69467924111E+03  0.71259084415E+03  0.12509486634E+03 0.  0.
          5    1    3    3  502    0 -0.47695294422E+02  0.44501973484E+02  0.18207723830E+03  0.19345505902E+03  0.41800000000E+01 0.  1.
         -5    1    3    3    0  502  0.63408579563E+02  0.51990669886E+02  0.51260200281E+03  0.51913578513E+03  0.41800000000E+01 0.  1.
        -11    1    1    2    0    0 -0.53980653454E+02 -0.58901027095E+02  0.21516763320E+03  0.22952200835E+03  0.00000000000E+00 0.  1.
         11    1    1    2    0    0  0.38267368313E+02 -0.37591616275E+02  0.15416722721E+03  0.16323313094E+03  0.00000000000E+00 0. -1.
</event>
<event>
 7    1  0.2679104E-009  0.1655828E+03  0.7561462E-02  0.1182534E+00
          2   -1    0    0  501    0  0.00000000000E+00  0.00000000000E+00  0.14177340684E+03  0.14177340684E+03  0.00000000000E+00 0. -1.
         -2   -1    0    0    0  501 -0.00000000000E+00 -0.00000000000E+00 -0.51350317921E+03  0.51350317921E+03  0.00000000000E+00 0.  1.
         25    2    1    2    0    0  0.35875508337E+02 -0.14365561643E+03 -0.43064269629E+03  0.47225861417E+03  0.12510427073E+03 0.  0.
          5    1    3    3  502    0 -0.37964837551E+02 -0.47365821521E+02 -0.22843165399E+03  0.23639657968E+03  0.41800000000E+01 0. -1.
         -5    1    3    3    0  502  0.73840345888E+02 -0.96289794908E+02 -0.20221104230E+03  0.23586203449E+03  0.41800000000E+01 0. -1.
        -11    1    1    2    0    0 -0.21920587055E+02  0.11451730177E+03  0.82657711462E+02  0.14292313250E+03  0.00000000000E+00 0.  1.
         11    1    1    2    0    0 -0.13954921282E+02  0.29138314664E+02 -0.23744787541E+02  0.40094839378E+02  0.00000000000E+00 0. -1.
</event>
<event>
 7    1  0.2679104E-009  0.1259221E+03  0.7561462E-02  0.1233635E+00
         -1   -1    0    0    0  501 -0.00000000000E+00  0.00000000000E+00  0.54436436724E+02  0.54436436724E+02  0.00000000000E+00 0.  1.
          1   -1    0    0  501    0  0.00000000000E+00 -0.00000000000E+00 -0.64592845671E+03  0.64592845671E+03  0.00000000000E+00 0. -1.
         25    2    1    2    0    0  0.11194109386E+03 -0.35677250921E+01 -0.52107799869E+03  0.54746077722E+03  0.12508990653E+03 0.  0.
          5    1    3    3  502    0  0.89099020915E+02  0.19116348681E+02 -0.50111736522E+03  0.50935268375E+03  0.41800000000E+01 0.  1.
         -5    1    3    3    0  502  0.22842072947E+02 -0.22684073773E+02 -0.19960633467E+02  0.38108093470E+02  0.41800000000E+01 0.  1.
        -11    1    1    2    0    0 -0.30080026765E+02 -0.27349354249E+02 -0.47354517615E+02  0.62411902123E+02  0.00000000000E+00 0. -1.
         11    1    1    2    0    0 -0.81861067097E+02  0.30917079341E+02 -0.23059503678E+02  0.90492214091E+02  0.00000000000E+00 0.  1.
</event>
<event>
 7    1  0.2679104E-009  0.8992280E+02  0.7561462E-02  0.1303039E+00
         -1   -1    0    0    0  501 -0.00000000000E+00  0.00000000000E+00  0.39721328862E+03  0.39721328862E+03  0.00000000000E+00 0.  1.
          1   -1    0    0  501    0  0.00000000000E+00 -0.00000000000E+00 -0.34165020824E+02  0.34165020824E+02  0.00000000000E+00 0. -1.
         25    2    1    2    0    0  0.32279797583E+02 -0.23381633443E+02  0.23519198540E+03  0.26935274785E+03  0.12508775585E+03 0.  0.
          5    1    3    3  502    0  0.19848661673E+02  0.48673622562E+02  0.62505150570E+02  0.81776874184E+02  0.41800000000E+01 0.  1.
         -5    1    3    3    0  502  0.12431135910E+02 -0.72055256005E+02  0.17268683483E+03  0.18757587366E+03  0.41800000000E+01 0.  1.
        -11    1    1    2    0    0 -0.18042844930E+02  0.32355539692E+02  0.13765410080E+03  0.14255201390E+03  0.00000000000E+00 0.  1.
         11    1    1    2    0    0 -0.14236952653E+02 -0.89739062487E+01 -0.97978184017E+01  0.19473547690E+02  0.00000000000E+00 0. -1.
</event>
<event>
 7    1  0.2679104E-009  0.1447129E+03  0.7561462E-02  0.1207125E+00
          2   -1    0    0  501    0  0.00000000000E+00  0.00000000000E+00  0.34282849860E+03  0.34282849860E+03  0.00000000000E+00 0. -1.
         -2   -1    0    0    0  501 -0.00000000000E+00 -0.00000000000E+00 -0.67776519273E+02  0.67776519273E+02  0.00000000000E+00 0.  1.
         25    2    1    2    0    0  0.84693477780E+02 -0.58464295806E+02  0.10920049336E+03  0.19534844237E+03  0.12508080238E+03 0.  0.
          5    1    3    3  502    0  0.81509743184E+02 -0.89580537947E+02  0.56014097721E+02  0.13350491585E+03  0.41800000000E+01 0. -1.
         -5    1    3    3    0  502  0.31837345954E+01  0.31116242142E+02  0.53186395638E+02  0.61843526516E+02  0.41800000000E+01 0. -1.
        -11    1    1    2    0    0 -0.81493175203E+02  0.34397876316E+01  0.10815873097E+03  0.13546689938E+03  0.00000000000E+00 0. -1.
         11    1    1    2    0    0 -0.32003025769E+01  0.55024508174E+02  0.57692755002E+02  0.79789676125E+02  0.00000000000E+00 0.  1.
</event>
<event>
 7    1  0.2679104E-009  0.1513605E+03  0.7561462E-02  0.1198811E+00
         -2   -1    0    0    0  501 -0.00000000000E+00  0.00000000000E+00  0.69995254819E+02  0.69995254819E+02  0.00000000000E+00 0.  1.
          2   -1    0    0  501    0  0.00000000000E+00 -0.00000000000E+00 -0.40549903287E+03  0.40549903287E+03  0.00000000000E+00 0. -1.
         25    2    1    2    0    0 -0.10681741312E+03  0.35510287295E+02 -0.89584501570E+02  0.19064144386E+03  0.12509131443E+03 0.  0.
          5    1    3    3  502    0 -0.97869951588E+02 -0.22721458282E+02 -0.84519603922E+02  0.13136144007E+03  0.41800000000E+01 0. -1.
         -5    1    3    3    0  502 -0.89474615274E+01  0.58231745578E+02 -0.50648976482E+01  0.59280003787E+02  0.41800000000E+01 0. -1.
        -11    1    1    2    0    0  0.46233084019E+02 -0.61696221000E+02 -0.14594389018E+03  0.16505617476E+03  0.00000000000E+00 0.  1.
         11    1    1    2    0    0  0.60584329097E+02  0.26185933705E+02 -0.99975386300E+02  0.11979666908E+03  0.00000000000E+00 0. -1.
</event>
<event>
 7    1  0.2679104E-009  0.1369790E+03  0.7561462E-02  0.1217453E+00
          1   -1    0    0  501    0  0.00000000000E+00  0.00000000000E+00  0.26401531086E+03  0.26401531086E+03  0.00000000000E+00 0. -1.
         -1   -1    0    0    0  501 -0.00000000000E+00 -0.00000000000E+00 -0.76488522360E+02  0.76488522360E+02  0.00000000000E+00 0.  1.
         25    2    1    2    0    0  0.38133405393E+02  0.81766400048E+02  0.10940540606E+03  0.18909671213E+03  0.12509245732E+03 0.  0.
          5    1    3    3  502    0  0.74713713606E+02  0.26810510293E+02  0.28163337785E+02  0.84330234544E+02  0.41800000000E+01 0.  1.
         -5    1    3    3    0  502 -0.36580308213E+02  0.54955889755E+02  0.81242068276E+02  0.10476647758E+03  0.41800000000E+01 0.  1.
        -11    1    1    2    0    0  0.27528646366E+02 -0.45843894720E+02  0.21843807001E+02  0.57763664688E+02  0.00000000000E+00 0.  1.
         11    1    1    2    0    0 -0.65662051759E+02 -0.35922505328E+02  0.56277575434E+02  0.93643456402E+02  0.00000000000E+00 0. -1.
</event>
<event>
 7    1  0.2679104E-009  0.1914499E+03  0.7561462E-02  0.1157160E+00
          1   -1    0    0  501    0  0.00000000000E+00  0.00000000000E+00  0.36568192524E+03  0.36568192524E+03  0.00000000000E+00 0. -1.
         -1   -1    0    0    0  501 -0.00000000000E+00 -0.00000000000E+00 -0.12947732958E+03  0.12947732958E+03  0.00000000000E+00 0.  1.
         25    2    1    2    0    0 -0.11088984022E+03  0.14484747628E+03  0.76207197675E+02  0.23395028764E+03  0.12509137484E+03 0.  0.
          5    1    3    3  502    0 -0.66469415412E+02  0.64103793100E+02 -0.26238403801E+02  0.96090611971E+02  0.41800000000E+01 0.  1.
         -5    1    3    3    0  502 -0.44420424812E+02  0.80743683176E+02  0.10244560148E+03  0.13785967567E+03  0.41800000000E+01 0.  1.
        -11    1    1    2    0    0  0.12256375538E+03 -0.13842043895E+03  0.16416183681E+03  0.24724724613E+03  0.00000000000E+00 0. -1.
         11    1    1    2    0    0 -0.11673915158E+02 -0.64270373237E+01 -0.41644388225E+01  0.13961721046E+02  0.00000000000E+00 0.  1.
</event>
<event>
 7    1  0.2679104E-009  0.1600915E+03  0.7561462E-02  0.1188593E+00
          1   -1    0    0  501    0  0.00000000000E+00  0.00000000000E+00  0.48961572019E+03  0.48961572019E+03  0.00000000000E+00 0. -1.
         -1   -1    0    0    0  501 -0.00000000000E+00 -0.00000000000E+00 -0.53452109856E+02  0.53452109856E+02  0.00000000000E+00 0.  1.
         25    2    1    2    0    0  0.10264890467E+03  0.58338662752E+02  0.27176972951E+03  0.32163241556E+03  0.12509367553E+03 0.  0.
          5    1    3    3  502    0  0.36534532033E+02 -0.39384581657E+02  0.89440673809E+02  0.10441754563E+03  0.41800000000E+01 0.  1.
         -5    1    3    3    0  502  0.66114372635E+02  0.97723244409E+02  0.18232905570E+03  0.21721486993E+03  0.41800000000E+01 0.  1.
        -11    1    1    2    0    0 -0.79915555533E+01  0.22426632202E+02  0.23311617273E+02  0.33320418545E+02  0.00000000000E+00 0.  1.
         11    1    1    2    0    0 -0.94657349115E+02 -0.80765294954E+02  0.14108226355E+03  0.18811499595E+03  0.00000000000E+00 0. -1.
</event>
<event>
 7    1  0.2679104E-009  0.1276986E+03  0.7561462E-02  0.1230911E+00
         -1   -1    0    0    0  501 -0.00000000000E+00  0.00000000000E+00  0.10491104950E+03  0.10491104950E+03  0.00000000000E+00 0.  1.
          1   -1    0    0  501    0  0.00000000000E+00 -0.00000000000E+00 -0.16008190064E+03  0.16008190064E+03  0.00000000000E+00 0. -1.
         25    2    1    2    0    0  0.34360415797E+02  0.57016645282E+02 -0.50750454325E+02  0.15051525134E+03  0.12509075209E+03 0.  0.
          5    1    3    3  502    0  0.63272116557E+02 -0.13697006244E+02 -0.28323574638E+02  0.70786057906E+02  0.41800000000E+01 0.  1.
         -5    1    3    3    0  502 -0.28911700760E+02  0.70713651527E+02 -0.22426879686E+02  0.79729193433E+02  0.41800000000E+01 0.  1.
        -11    1    1    2    0    0  0.90902129266E+01  0.22019587479E+02 -0.47174098284E+01  0.24284730991E+02  0.00000000000E+00 0. -1.
         11    1    1    2    0    0 -0.43450628724E+02 -0.79036232762E+02  0.29701301728E+00  0.90192967810E+02  0.00000000000E+00 0.  1.
</event>
<event>
 7    1  0.2679104E-009  0.2515185E+03  0.7561462E-02  0.1112349E+00
         -3   -1    0    0    0  501 -0.00000000000E+00  0.00000000000E+00  0.23515119433E+03  0.23515119433E+03  0.00000000000E+00 0.  1.
          3   -1    0    0  501    0  0.00000000000E+00 -0.00000000000E+00 -0.29136789555E+03  0.29136789555E+03  0.00000000000E+00 0. -1.
         25    2    1    2    0    0  0.23499172211E+03 -0.87893480071E+01  0.90705504014E+01  0.26651311944E+03  0.12509438775E+03 0.  0.
          5    1    3    3  502    0 -0.73323321166E+01  0.16503793461E+02  0.13275971491E+02  0.22800484905E+02  0.41800000000E+01 0. -1.
         -5    1    3    3    0  502  0.24232405423E+03 -0.25293141468E+02 -0.42054210897E+01  0.24371263453E+03  0.41800000000E+01 0. -1.
        -11    1    1    2    0    0 -0.22998959538E+02  0.17113856852E+02  0.15976257731E+02  0.32818852010E+02  0.00000000000E+00 0.  1.
         11    1    1    2    0    0 -0.21199276257E+03 -0.83245088446E+01 -0.81263509348E+02  0.22718711844E+03  0.00000000000E+00 0. -1.
</event>
<event>
 7    1  0.2679104E-009  0.1907819E+03  0.7561462E-02  0.1157758E+00
          2   -1    0    0  501    0  0.00000000000E+00  0.00000000000E+00  0.74199491726E+03  0.74199491726E+03  0.00000000000E+00 0. -1.
         -2   -1    0    0    0  501 -0.00000000000E+00 -0.00000000000E+00 -0.51764536459E+02  0.51764536459E+02  0.00000000000E+00 0.  1.
         25    2    1    2    0    0 -0.15595491905E+03 -0.21269789683E+02  0.27664612699E+03  0.34198828547E+03  0.12509423284E+03 0.  0.
          5    1    3    3  502    0 -0.75037308731E+02 -0.72128871818E+02  0.16295238406E+03  0.19340145739E+03  0.41800000000E+01 0.  1.
         -5    1    3    3    0  502 -0.80917610319E+02  0.50859082135E+02  0.11369374294E+03  0.14858682808E+03  0.41800000000E+01 0.  1.
        -11    1    1    2    0    0  0.68762629634E+02  0.55192900872E+02  0.20602422896E+03  0.22409939415E+03  0.00000000000E+00 0.  1.
         11    1    1    2    0    0  0.87192289416E+02 -0.33923111189E+02  0.20756002485E+03  0.22767177410E+03  0.00000000000E+00 0. -1.
</event>
<event>
 7    1  0.2679104E-009  0.1272415E+03  0.7561462E-02  0.1231607E+00
          3   -1    0    0  501    0  0.00000000000E+00  0.00000000000E+00  0.15902568740E+03  0.15902568740E+03  0.00000000000E+00 0. -1.
         -3   -1    0    0    0  501 -0.00000000000E+00 -0.00000000000E+00 -0.13188299066E+03  0.13188299066E+03  0.00000000000E+00 0.  1.
         25    2    1    2    0    0  0.66119511484E+02 -0.46291283690E+02  0.65821640104E+02  0.16277034822E+03  0.12508806982E+03 0.  0.
          5    1    3    3  502    0  0.41686924523E+02  0.30595245997E+02  0.63441033914E+02  0.81951851339E+02  0.41800000000E+01 0. -1.
         -5    1    3    3    0  502  0.24432586961E+02 -0.76886529686E+02  0.23806061905E+01  0.80818496884E+02  0.41800000000E+01 0. -1.
        -11    1    1    2    0    0 -0.25360351062E+02  0.70149525666E+02 -0.28314213928E+02  0.79785951568E+02  0.00000000000E+00 0.  1.
         11    1    1    2    0    0 -0.40759160422E+02 -0.23858241977E+02 -0.10364729431E+02  0.48352378273E+02  0.00000000000E+00 0. -1.
</event>
<event>
 7    1  0.2679104E-009  0.9078085E+02  0.7561462E-02  0.1300972E+00
          1   -1    0    0  501    0  0.00000000000E+00  0.00000000000E+00  0.30192471556E+02  0.30192471556E+02  0.00000000000E+00 0. -1.
         -1   -1    0    0    0  501 -0.00000000000E+00 -0.00000000000E+00 -0.49670887420E+03  0.49670887420E+03  0.00000000000E+00 0.  1.
         25    2    1    2    0    0  0.42872822931E+02 -0.32591880568E+02 -0.22047613702E+03  0.25914902803E+03  0.12509269406E+03 0.  0.
          5    1    3    3  502    0 -0.12165480995E+02 -0.12530731455E+02 -0.19382556249E+03  0.19465569407E+03  0.41800000000E+01 0. -1.
         -5    1    3    3    0  502  0.55038303926E+02 -0.20061149114E+02 -0.26650574533E+02  0.64493333963E+02  0.41800000000E+01 0. -1.
        -11    1    1    2    0    0 -0.34964603218E+01  0.57939462866E+02 -0.15177677505E+03  0.16249737240E+03  0.00000000000E+00 0. -1.
         11    1    1    2    0    0 -0.39376362609E+02 -0.25347582297E+02 -0.94263490573E+02  0.10525494533E+03  0.00000000000E+00 0.  1.
</event>
<event>
 7    1  0.2679104E-009  0.1210123E+03  0.7561462E-02  0.1241436E+00
          1   -1    0    0  501    0  0.00000000000E+00  0.00000000000E+00  0.35892717889E+04  0.35892717889E+04  0.00000000000E+00 0. -1.
         -1   -1    0    0    0  501 -0.00000000000E+00 -0.00000000000E+00 -0.93095487785E+01  0.93095487785E+01  0.00000000000E+00 0.  1.
         25    2    1    2    0    0  0.48263607058E+02 -0.53791219837E+02  0.31129622304E+04  0.31163127027E+04  0.12509253361E+03 0.  0.
          5    1    3    3  502    0  0.79680107129E+02 -0.12433255839E+02  0.12404671935E+04  0.12430928509E+04  0.41800000000E+01 0. -1.
         -5    1    3    3    0  502 -0.31416500071E+02 -0.41357963997E+02  0.18724950369E+04  0.18732198518E+04  0.41800000000E+01 0. -1.
        -11    1    1    2    0    0 -0.52206732791E+02 -0.29489073007E+01  0.12383762785E+03  0.13442468923E+03  0.00000000000E+00 0.  1.
         11    1    1    2    0    0  0.39431257332E+01  0.56740127137E+02  0.34316238189E+03  0.34784394578E+03  0.00000000000E+00 0. -1.
</event>
<event>
 7    1  0.2679104E-009  0.2251423E+03  0.7561462E-02  0.1130106E+00
          2   -1    0    0  501    0  0.00000000000E+00  0.00000000000E+00  0.13876720373E+04  0.13876720373E+04  0.00000000000E+00 0. -1.
         -2   -1    0    0    0  501 -0.00000000000E+00 -0.00000000000E+00 -0.61847554969E+02  0.61847554969E+02  0.00000000000E+00 0.  1.
         25    2    1    2    0    0 -0.16725604400E+03  0.14603660584E+03  0.28822685026E+03  0.38473685800E+03  0.12508580334E+03 0.  0.
          5    1    3    3  502    0 -0.67892438192E+02  0.88401439276E+02  0.54217608530E+02  0.12402104299E+03  0.41800000000E+01 0.  1.
         -5    1    3    3    0  502 -0.99363605812E+02  0.57635166562E+02  0.23400924173E+03  0.26071581501E+03  0.41800000000E+01 0.  1.
        -11    1    1    2    0    0  0.10847617050E+03 -0.11178590992E+03  0.87119372887E+03  0.88500942506E+03  0.00000000000E+00 0. -1.
         11    1    1    2    0    0  0.58779873507E+02 -0.34250695916E+02  0.16640390317E+03  0.17977330917E+03  0.00000000000E+00 0.  1.
</event>
<event>
 7    1  0.2679104E-009  0.1051099E+03  0.7561462E-02  0.1269903E+00
          1   -1    0    0  501    0  0.00000000000E+00  0.00000000000E+00  0.45671794079E+02  0.45671794079E+02  0.00000000000E+00 0. -1.
         -1   -1    0    0    0  501 -0.00000000000E+00 -0.00000000000E+00 -0.36214639890E+03  0.36214639890E+03  0.00000000000E+00 0.  1.
         25    2    1    2    0    0  0.60335403875E+02 -0.33489172639E+02 -0.19126649114E+03  0.23872550868E+03  0.12508042299E+03 0.  0.
          5    1    3    3  502    0  0.17268575083E+02 -0.68784531738E+02 -0.50140919013E+02  0.86954583843E+02  0.41800000000E+01 0. -1.
         -5    1    3    3    0  502  0.43066828793E+02  0.35295359099E+02 -0.14112557213E+03  0.15177092483E+03  0.41800000000E+01 0. -1.
        -11    1    1    2    0    0 -0.42380434985E+02 -0.31903097336E+01 -0.58001268320E+01  0.42894298187E+02  0.00000000000E+00 0. -1.
         11    1    1    2    0    0 -0.17954968890E+02  0.36679482373E+02 -0.11940798684E+03  0.12619838611E+03  0.00000000000E+00 0.  1.
</event>
<event>
 7    1  0.2679104E-009  0.1010183E+03  0.7561462E-02  0.1278169E+00
         -2   -1    0    0    0  501 -0.00000000000E+00  0.00000000000E+00  0.12726874070E+02  0.12726874070E+02  0.00000000000E+00 0.  1.
          2   -1    0    0  501    0  0.00000000000E+00 -0.00000000000E+00 -0.15662009647E+04  0.15662009647E+04  0.00000000000E+00 0. -1.
         25    2    1    2    0    0  0.10569711125E+02  0.42144683725E+02 -0.12831127966E+04  0.12899262346E+04  0.12507337306E+03 0.  0.
          5    1    3    3  502    0  0.31005306900E+02  0.63592466537E+02 -0.39486578901E+03  0.40117551594E+03  0.41800000000E+01 0.  1.
         -5    1    3    3    0  502 -0.20435595775E+02 -0.21447782812E+02 -0.88824700762E+03  0.88875071865E+03  0.41800000000E+01 0.  1.
        -11    1    1    2    0    0  0.38899467776E+02 -0.32844385365E+02 -0.11717300927E+03  0.12775537697E+03  0.00000000000E+00 0.  1.
         11    1    1    2    0    0 -0.49469178901E+02 -0.93002983594E+01 -0.15318828472E+03  0.16124622720E+03  0.00000000000E+00 0. -1.
</event>
<event>
 7    1  0.2679104E-009  0.2121688E+03  0.7561462E-02  0.1139860E+00
         -1   -1    0    0    0  501 -0.00000000000E+00  0.00000000000E+00  0.16331762845E+03  0.16331762845E+03  0.00000000000E+00 0. -1.
          1   -1    0    0  501    0  0.00000000000E+00 -0.00000000000E+00 -0.32751201417E+03  0.32751201417E+03  0.00000000000E+00 0.  1.
         25    2    1    2    0    0  0.20223213012E+03  0.25381308807E+02 -0.84795227070E+02  0.25373268389E+03  0.12509196237E+03 0.  0.
          5    1    3    3  502    0  0.71268291635E+02  0.27752330105E+02 -0.95293682486E+02  0.12226086676E+03  0.41800000000E+01 0.  1.
         -5    1    3    3    0  502  0.13096383849E+03 -0.23710212977E+01  0.10498455416E+02  0.13147181713E+03  0.41800000000E+01 0.  1.
        -11    1    1    2    0    0 -0.42199965432E+02 -0.37154924826E+02 -0.47250733849E+02  0.73443565889E+02  0.00000000000E+00 0. -1.
         11    1    1    2    0    0 -0.16003216469E+03  0.11773616019E+02 -0.32148424804E+02  0.16365339284E+03  0.00000000000E+00 0.  1.
</event>
<event>
 7    1  0.2679104E-009  0.2323009E+03  0.7561462E-02  0.1125031E+00
         -1   -1    0    0    0  501 -0.00000000000E+00  0.00000000000E+00  0.96236625221E+02  0.96236625221E+02  0.00000000000E+00 0.  1.
          1   -1    0    0  501    0  0.00000000000E+00 -0.00000000000E+00 -0.11768934590E+04  0.11768934590E+04  0.00000000000E+00 0. -1.
         25    2    1    2    0    0  0.12369776315E+03 -0.18759778943E+03 -0.97420066835E+03  0.10075752617E+04  0.12508756387E+03 0.  0.
          5    1    3    3  502    0  0.47923504299E+02 -0.11049394550E+03 -0.73803333843E+03  0.74780763254E+03  0.41800000000E+01 0. -1.
         -5    1    3    3    0  502  0.75774258849E+02 -0.77103843926E+02 -0.23616732992E+03  0.25976762919E+03  0.41800000000E+01 0. -1.
        -11    1    1    2    0    0 -0.27353759073E+02  0.10654599127E+03 -0.82237458092E+02  0.13734364166E+03  0.00000000000E+00 0.  1.
         11    1    1    2    0    0 -0.96344004076E+02  0.81051798154E+02 -0.24218707342E+02  0.12821118083E+03  0.00000000000E+00 0. -1.
</event>
<event>
 7    1  0.2679104E-009  0.1013673E+03  0.7561462E-02  0.1277447E+00
         -2   -1    0    0    0  501 -0.00000000000E+00  0.00000000000E+00  0.49358834197E+02  0.49358834197E+02  0.00000000000E+00 0.  1.
          2   -1    0    0  501    0  0.00000000000E+00 -0.00000000000E+00 -0.26699761770E+03  0.26699761770E+03  0.00000000000E+00 0. -1.
         25    2    1    2    0    0 -0.75163797191E+01 -0.34014684221E+02 -0.13784020570E+03  0.18937128259E+03  0.12509222859E+03 0.  0.
          5    1    3    3  502    0 -0.54272594440E+02 -0.53957346429E+02 -0.99328956055E+02  0.12546164215E+03  0.41800000000E+01 0. -1.
         -5    1    3    3    0  502  0.46756214721E+02  0.19942662208E+02 -0.38511249649E+02  0.63909640435E+02  0.41800000000E+01 0. -1.
        -11    1    1    2    0    0  0.35272038922E+02  0.31373098298E+02 -0.53754003370E+01  0.47510871970E+02  0.00000000000E+00 0.  1.
         11    1    1    2    0    0 -0.27755659203E+02  0.26415859225E+01 -0.74423177465E+02  0.79474297342E+02  0.00000000000E+00 0. -1.
</event>
<event>
 7    1  0.2679104E-009  0.7550336E+02  0.7561462E-02  0.1342319E+00
          1   -1    0    0  501    0  0.00000000000E+00  0.00000000000E+00  0.86897664797E+02  0.86897664797E+02  0.00000000000E+00 0.  1.
         -1   -1    0    0    0  501 -0.00000000000E+00 -0.00000000000E+00 -0.14983843541E+03  0.14983843541E+03  0.00000000000E+00 0. -1.
         25    2    1    2    0    0  0.18188061512E+02  0.85306167108E+00 -0.64363951745E+02  0.14184994100E+03  0.12508858534E+03 0.  0.
          5    1    3    3  502    0 -0.15665950417E+02  0.54485431774E+02 -0.52113428139E+02  0.77119167983E+02  0.41800000000E+01 0. -1.
         -5    1    3    3    0  502  0.33854011929E+02 -0.53632370103E+02 -0.12250523606E+02  0.64730773015E+02  0.41800000000E+01 0. -1.
        -11    1    1    2    0    0 -0.13334566799E+02  0.11321579778E+02  0.45582080703E+02  0.48823303059E+02  0.00000000000E+00 0.  1.
         11    1    1    2    0    0 -0.48534947125E+01 -0.12174641449E+02 -0.44158899570E+02  0.46062856149E+02  0.00000000000E+00 0. -1.
</event>
<event>
 7    1  0.2679104E-009  0.2039568E+03  0.7561462E-02  0.1146443E+00
         -1   -1    0    0    0  501 -0.00000000000E+00  0.00000000000E+00  0.42473454112E+02  0.42473454112E+02  0.00000000000E+00 0.  1.
          1   -1    0    0  501    0  0.00000000000E+00 -0.00000000000E+00 -0.13475104785E+04  0.13475104785E+04  0.00000000000E+00 0. -1.
         25    2    1    2    0    0  0.10549105426E+03 -0.13207020968E+03 -0.86836822034E+03  0.89346612030E+03  0.12508972472E+03 0.  0.
          5    1    3    3  502    0  0.68835837543E+02 -0.44544046578E+02 -0.65224729856E+03  0.65739375985E+03  0.41800000000E+01 0. -1.
         -5    1    3    3    0  502  0.36655216719E+02 -0.87526163099E+02 -0.21612092177E+03  0.23607236045E+03  0.41800000000E+01 0. -1.
        -11    1    1    2    0    0 -0.14623026450E+03  0.87328268850E+02 -0.27030025877E+03  0.31948669250E+03  0.00000000000E+00 0. -1.
         11    1    1    2    0    0  0.40739210239E+02  0.44741940827E+02 -0.16636854533E+03  0.17703111985E+03  0.00000000000E+00 0.  1.
</event>
<event>
 7    1  0.2679104E-009  0.2583701E+03  0.7561462E-02  0.1108126E+00
         -2   -1    0    0    0  501 -0.00000000000E+00  0.00000000000E+00  0.90451986268E+02  0.90451986268E+02  0.00000000000E+00 0.  1.
          2   -1    0    0  501    0  0.00000000000E+00 -0.00000000000E+00 -0.86593805595E+03  0.86593805595E+03  0.00000000000E+00 0. -1.
         25    2    1    2    0    0 -0.21810506117E+03 -0.13587682850E+03 -0.42387271703E+03  0.51122305738E+03  0.12509438006E+03 0.  0.
          5    1    3    3  502    0 -0.15315843352E+03 -0.86514383461E+02 -0.17050441902E+03  0.24501321109E+03  0.41800000000E+01 0.  1.
         -5    1    3    3    0  502 -0.64946627646E+02 -0.49362445038E+02 -0.25336829801E+03  0.26620984628E+03  0.41800000000E+01 0.  1.
        -11    1    1    2    0    0  0.14659628284E+03  0.10912818271E+03 -0.30544898097E+03  0.35594734215E+03  0.00000000000E+00 0. -1.
         11    1    1    2    0    0  0.71508778330E+02  0.26748645794E+02 -0.46164371681E+02  0.89219642696E+02  0.00000000000E+00 0.  1.
</event>
<event>
 7    1  0.2679104E-009  0.1078646E+03  0.7561462E-02  0.1264576E+00
          3   -1    0    0  501    0  0.00000000000E+00  0.00000000000E+00  0.21188506509E+03  0.21188506509E+03  0.00000000000E+00 0. -1.
         -3   -1    0    0    0  501 -0.00000000000E+00 -0.00000000000E+00 -0.71582281965E+02  0.71582281965E+02  0.00000000000E+00 0.  1.
         25    2    1    2    0    0  0.18968828432E+02 -0.56239395692E+02  0.46677539298E+02  0.14611199620E+03  0.12508891509E+03 0.  0.
          5    1    3    3  502    0 -0.32865891066E+02  0.25279981221E+02  0.11685643629E+02  0.43281299809E+02  0.41800000000E+01 0. -1.
         -5    1    3    3    0  502  0.51834719498E+02 -0.81519376914E+02  0.34991895668E+02  0.10283069639E+03  0.41800000000E+01 0. -1.
        -11    1    1    2    0    0 -0.32031334477E+02  0.55741478683E+02  0.27455108282E+02  0.69906378857E+02  0.00000000000E+00 0.  1.
         11    1    1    2    0    0  0.13062506045E+02  0.49791700904E+00  0.66170135548E+02  0.67448972001E+02  0.00000000000E+00 0. -1.
</event>
<event>
 7    1  0.2679104E-009  0.8892875E+02  0.7561462E-02  0.1305467E+00
         -3   -1    0    0    0  501 -0.00000000000E+00  0.00000000000E+00  0.81119375683E+02  0.81119375683E+02  0.00000000000E+00 0.  1.
          3   -1    0    0  501    0  0.00000000000E+00 -0.00000000000E+00 -0.15728945602E+03  0.15728945602E+03  0.00000000000E+00 0. -1.
         25    2    1    2    0    0 -0.18125667046E+02  0.44912561912E+00 -0.67969491016E+02  0.14351418173E+03  0.12509087548E+03 0.  0.
          5    1    3    3  502    0  0.44552957034E+02  0.31250238353E+02 -0.17752395915E+02  0.57394802363E+02  0.41800000000E+01 0. -1.
         -5    1    3    3    0  502 -0.62678624080E+02 -0.30801112734E+02 -0.50217095102E+02  0.86119379368E+02  0.41800000000E+01 0. -1.
        -11    1    1    2    0    0  0.34964085102E+02 -0.62228913002E+01  0.33955482812E+02  0.49134371230E+02  0.00000000000E+00 0.  1.
         11    1    1    2    0    0 -0.16838418056E+02  0.57737656811E+01 -0.42156072129E+02  0.45760278738E+02  0.00000000000E+00 0. -1.
</event>
<event>
 7    1  0.2679104E-009  0.1907065E+03  0.7561462E-02  0.1157826E+00
          2   -1    0    0  501    0  0.00000000000E+00  0.00000000000E+00  0.16006321683E+04  0.16006321683E+04  0.00000000000E+00 0. -1.
         -2   -1    0    0    0  501 -0.00000000000E+00 -0.00000000000E+00 -0.27664286551E+02  0.27664286551E+02  0.00000000000E+00 0.  1.
         25    2    1    2    0    0 -0.53122394175E+02  0.16048409299E+03  0.10533541336E+04  0.10741407962E+04  0.12508551656E+03 0.  0.
          5    1    3    3  502    0  0.60139727385E+01 -0.14103728827E+02  0.22285530426E+03  0.22342122118E+03  0.41800000000E+01 0.  1.
         -5    1    3    3    0  502 -0.59136366914E+02  0.17458782181E+03  0.83049882931E+03  0.85071957501E+03  0.41800000000E+01 0.  1.
        -11    1    1    2    0    0  0.67639390917E+02 -0.11521385963E+03  0.45318356387E+03  0.47246657365E+03  0.00000000000E+00 0. -1.
         11    1    1    2    0    0 -0.14516996742E+02 -0.45270233360E+02  0.66430184283E+02  0.81689084992E+02  0.00000000000E+00 0.  1.
</event>
<event>
 7    1  0.2679104E-009  0.1128202E+03  0.7561462E-02  0.1255435E+00
          2   -1    0    0  501    0  0.00000000000E+00  0.00000000000E+00  0.20441697434E+03  0.20441697434E+03  0.00000000000E+00 0. -1.
         -2   -1    0    0    0  501 -0.00000000000E+00 -0.00000000000E+00 -0.11288743537E+03  0.11288743537E+03  0.00000000000E+00 0.  1.
         25    2    1    2    0    0  0.43386358652E+02 -0.79499049099E+02  0.10644218898E+03  0.18756416937E+03  0.12509157890E+03 0.  0.
          5    1    3    3  502    0  0.60042281165E+02 -0.43543944614E+02  0.40584786970E+00  0.74288543885E+02  0.41800000000E+01 0.  1.
         -5    1    3    3    0  502 -0.16655922513E+02 -0.35955104485E+02  0.10603634111E+03  0.11327562549E+03  0.41800000000E+01 0.  1.
        -11    1    1    2    0    0  0.82175893150E+01  0.52743414048E+02 -0.39724046249E+02  0.66538683110E+02  0.00000000000E+00 0.  1.
         11    1    1    2    0    0 -0.51603947967E+02  0.26755635051E+02  0.24811396240E+02  0.63201557229E+02  0.00000000000E+00 0. -1.
</event>
<event>
 7    1  0.2679104E-009  0.1065176E+03  0.7561462E-02  0.1267158E+00
         -2   -1    0    0    0  501 -0.00000000000E+00  0.00000000000E+00  0.34453678425E+02  0.34453678425E+02  0.00000000000E+00 0.  1.
          2   -1    0    0  501    0  0.00000000000E+00 -0.00000000000E+00 -0.44091878729E+03  0.44091878729E+03  0.00000000000E+00 0. -1.
         25    2    1    2    0    0  0.32302892997E+02  0.28033178670E+02 -0.30487491452E+03  0.33230273364E+03  0.12508819799E+03 0.  0.
          5    1    3    3  502    0 -0.88662660874E+01  0.59512580104E+02 -0.24806336438E+03  0.25529054627E+03  0.41800000000E+01 0. -1.
         -5    1    3    3    0  502  0.41169159085E+02 -0.31479401434E+02 -0.56811550140E+02  0.77012187371E+02  0.41800000000E+01 0. -1.
        -11    1    1    2    0    0 -0.20947437604E+02  0.32758943553E+02 -0.40288874518E+02  0.55992293530E+02  0.00000000000E+00 0. -1.
         11    1    1    2    0    0 -0.11355455394E+02 -0.60792122223E+02 -0.61301319830E+02  0.87077438550E+02  0.00000000000E+00 0.  1.
</event>
<event>
 7    1  0.2679104E-009  0.1531428E+03  0.7561462E-02  0.1196663E+00
         -2   -1    0    0    0  501 -0.00000000000E+00  0.00000000000E+00  0.51389014458E+03  0.51389014458E+03  0.00000000000E+00 0.  1.
          2   -1    0    0  501    0  0.00000000000E+00 -0.00000000000E+00 -0.56581051887E+02  0.56581051887E+02  0.00000000000E+00 0. -1.
         25    2    1    2    0    0  0.49025214061E+02 -0.10444090220E+03  0.14351171122E+03  0.22261067480E+03  0.12509407505E+03 0.  0.
          5    1    3    3  502    0 -0.28959741792E+02  0.72777989792E+00  0.61370175550E+02  0.67992405130E+02  0.41800000000E+01 0.  1.
         -5    1    3    3    0  502  0.77984955853E+02 -0.10516868210E+03  0.82141535669E+02  0.15461826967E+03  0.41800000000E+01 0.  1.
        -11    1    1    2    0    0 -0.75296503006E+02  0.70958628214E+02  0.18188900214E+03  0.20925653964E+03  0.00000000000E+00 0. -1.
         11    1    1    2    0    0  0.26271288945E+02  0.33482273990E+02  0.13190837934E+03  0.13860398203E+03  0.00000000000E+00 0.  1.
</event>
<event>
 7    1  0.2679104E-009  0.1639644E+03  0.7561462E-02  0.1184292E+00
         -1   -1    0    0    0  501 -0.00000000000E+00  0.00000000000E+00  0.43565090274E+02  0.43565090274E+02  0.00000000000E+00 0.  1.
          1   -1    0    0  501    0  0.00000000000E+00 -0.00000000000E+00 -0.91057746619E+03  0.91057746619E+03  0.00000000000E+00 0. -1.
         25    2    1    2    0    0  0.11438864661E+03  0.10029605552E+03 -0.29338799066E+03  0.35336567100E+03  0.12508686243E+03 0.  0.
          5    1    3    3  502    0  0.41376537738E+02  0.22543650002E+02 -0.71104763199E+01  0.47835816123E+02  0.41800000000E+01 0.  1.
         -5    1    3    3    0  502  0.73012108874E+02  0.77752405515E+02 -0.28627751434E+03  0.30552985488E+03  0.41800000000E+01 0.  1.
        -11    1    1    2    0    0 -0.10493547109E+03 -0.39134394724E+02 -0.43081448942E+03  0.44513377567E+03  0.00000000000E+00 0. -1.
         11    1    1    2    0    0 -0.94531755181E+01 -0.61161660793E+02 -0.14280989584E+03  0.15564310980E+03  0.00000000000E+00 0.  1.
</event>
<event>
 7    1  0.2679104E-009  0.1784429E+03  0.7561462E-02  0.1169319E+00
         -2   -1    0    0    0  501 -0.00000000000E+00  0.00000000000E+00  0.46817464080E+02  0.46817464080E+02  0.00000000000E+00 0.  1.
          2   -1    0    0  501    0  0.00000000000E+00 -0.00000000000E+00 -0.79066077844E+03  0.79066077844E+03  0.00000000000E+00 0. -1.
         25    2    1    2    0    0 -0.49242897793E+02 -0.14477501807E+03 -0.47509158139E+03  0.51453316564E+03  0.12509076305E+03 0.  0.
          5    1    3    3  502    0  0.15443539012E+02 -0.11960396493E+03 -0.36393022684E+03  0.38341399783E+03  0.41800000000E+01 0.  1.
         -5    1    3    3    0  502 -0.64686436805E+02 -0.25171053131E+02 -0.11116135455E+03  0.13111916781E+03  0.41800000000E+01 0.  1.
        -11    1    1    2    0    0  0.81358032758E+01 -0.61868354251E+01  0.18315183578E+01  0.10383770366E+02  0.00000000000E+00 0.  1.
         11    1    1    2    0    0  0.41107094517E+02  0.15096185349E+03 -0.27058325133E+03  0.31256130651E+03  0.00000000000E+00 0. -1.
</event>
<event>
 7    1  0.3505533E-009  0.9034863E+02  0.7561462E-02  0.1302010E+00
          2   -1    0    0  501    0  0.00000000000E+00  0.00000000000E+00  0.94060439609E+03  0.94060439609E+03  0.00000000000E+00 0. -1.
         -2   -1    0    0    0  501 -0.00000000000E+00 -0.00000000000E+00 -0.14126758028E+02  0.14126758028E+02  0.00000000000E+00 0.  1.
         25    2    1    2    0    0 -0.40813422231E+01 -0.35393422674E+02  0.60436447535E+03  0.61820311379E+03  0.12509723864E+03 0.  0.
          5    1    3    3  502    0 -0.47454768834E+02  0.79783660501E+01  0.11141711694E+03  0.12143663268E+03  0.41800000000E+01 0.  1.
         -5    1    3    3    0  502  0.43373426611E+02 -0.43371788724E+02  0.49294735840E+03  0.49676648111E+03  0.41800000000E+01 0.  1.
        -11    1    1    2    0    0 -0.18587439343E-01  0.52917544452E+02  0.31079457764E+03  0.31526740451E+03  0.00000000000E+00 0. -1.
         11    1    1    2    0    0  0.40999296625E+01 -0.17524121778E+02  0.11318585078E+02  0.21260635820E+02  0.00000000000E+00 0.  1.
</event>
<event>
 7    1  0.2679104E-009  0.1952138E+03  0.7561462E-02  0.1153841E+00
          1   -1    0    0  501    0  0.00000000000E+00  0.00000000000E+00  0.22534998276E+03  0.22534998276E+03  0.00000000000E+00 0. -1.
         -1   -1    0    0    0  501 -0.00000000000E+00 -0.00000000000E+00 -0.71191192818E+03  0.71191192818E+03  0.00000000000E+00 0.  1.
         25    2    1    2    0    0  0.17589689930E+03 -0.67912060872E+02 -0.63918548800E+03  0.67805390243E+03  0.12508892573E+03 0.  0.
          5    1    3    3  502    0  0.17459535056E+03 -0.77358636085E+02 -0.63972052717E+03  0.66762842981E+03  0.41800000000E+01 0. -1.
         -5    1    3    3    0  502  0.13015487421E+01  0.94465752128E+01  0.53503917187E+00  0.10425472617E+02  0.41800000000E+01 0. -1.
        -11    1    1    2    0    0 -0.12385643422E+03  0.54141400967E+02  0.51504475164E+02  0.14465275164E+03  0.00000000000E+00 0.  1.
         11    1    1    2    0    0 -0.52040465080E+02  0.13770659906E+02  0.10111906742E+03  0.11455525687E+03  0.00000000000E+00 0. -1.
</event>
<event>
 7    1  0.2679104E-009  0.6033145E+02  0.7561462E-02  0.1396446E+00
          2   -1    0    0  501    0  0.00000000000E+00  0.00000000000E+00  0.44156488136E+03  0.44156488136E+03  0.00000000000E+00 0. -1.
         -2   -1    0    0    0  501 -0.00000000000E+00 -0.00000000000E+00 -0.31787544300E+02  0.31787544300E+02  0.00000000000E+00 0.  1.
         25    2    1    2    0    0  0.36918821078E+02  0.18280774235E+02  0.17843802698E+03  0.22177445565E+03  0.12508634477E+03 0.  0.
          5    1    3    3  502    0 -0.61949393914E+01  0.88145632405E+01  0.17703734663E+03  0.17741411528E+03  0.41800000000E+01 0.  1.
         -5    1    3    3    0  502  0.43113760469E+02  0.94662109944E+01  0.14006803557E+01  0.44360340371E+02  0.41800000000E+01 0.  1.
        -11    1    1    2    0    0  0.44366616049E+00 -0.26507304151E+02  0.12304724404E+02  0.29227388793E+02  0.00000000000E+00 0.  1.
         11    1    1    2    0    0 -0.37362487238E+02  0.82265299161E+01  0.21903458567E+03  0.22235058122E+03  0.00000000000E+00 0. -1.
</event>
<event>
 7    1  0.2679104E-009  0.1475968E+03  0.7561462E-02  0.1203457E+00
         -1   -1    0    0    0  501 -0.00000000000E+00  0.00000000000E+00  0.56413470406E+03  0.56413470406E+03  0.00000000000E+00 0.  1.
          1   -1    0    0  501    0  0.00000000000E+00 -0.00000000000E+00 -0.53200442669E+02  0.53200442669E+02  0.00000000000E+00 0. -1.
         25    2    1    2    0    0  0.80850089165E+00 -0.11882111402E+03  0.38316949091E+03  0.42022041760E+03  0.12508888754E+03 0.  0.
          5    1    3    3  502    0 -0.49641664476E+02 -0.82984544952E+02  0.14670645270E+03  0.17575831479E+03  0.41800000000E+01 0.  1.
         -5    1    3    3    0  502  0.50450165368E+02 -0.35836569073E+02  0.23646303821E+03  0.24446210281E+03  0.41800000000E+01 0.  1.
        -11    1    1    2    0    0 -0.33720354499E+02  0.66670605761E+02  0.27916302201E+02  0.79758083658E+02  0.00000000000E+00 0. -1.
         11    1    1    2    0    0  0.32911853608E+02  0.52150508263E+02  0.99848468273E+02  0.11735664547E+03  0.00000000000E+00 0.  1.
</event>
<event>
 7    1  0.2679104E-009  0.8392092E+02  0.7561462E-02  0.1318279E+00
          2   -1    0    0  501    0  0.00000000000E+00  0.00000000000E+00  0.83086006886E+03  0.83086006886E+03  0.00000000000E+00 0. -1.
         -2   -1    0    0    0  501 -0.00000000000E+00 -0.00000000000E+00 -0.29949366144E+02  0.29949366144E+02  0.00000000000E+00 0.  1.
         25    2    1    2    0    0  0.60803571877E+02 -0.30967337882E+02  0.67541259811E+03  0.69027827285E+03  0.12508343582E+03 0.  0.
          5    1    3    3  502    0  0.55486709327E+02 -0.52812184309E+02  0.19836626470E+03  0.21268415337E+03  0.41800000000E+01 0.  1.
         -5    1    3    3    0  502  0.53168625497E+01  0.21844846428E+02  0.47704633342E+03  0.47759411949E+03  0.41800000000E+01 0.  1.
        -11    1    1    2    0    0 -0.26333101626E+02  0.14388283857E+02 -0.84938521475E+01  0.31186543218E+02  0.00000000000E+00 0.  1.
         11    1    1    2    0    0 -0.34470470251E+02  0.16579054024E+02  0.13399195675E+03  0.13934461893E+03  0.00000000000E+00 0. -1.
</event>
<event>
 7    1  0.2679104E-009  0.9198342E+02  0.7561462E-02  0.1298118E+00
          3   -1    0    0  501    0  0.00000000000E+00  0.00000000000E+00  0.33593546537E+02  0.33593546537E+02  0.00000000000E+00 0. -1.
         -3   -1    0    0    0  501 -0.00000000000E+00 -0.00000000000E+00 -0.49328064830E+03  0.49328064830E+03  0.00000000000E+00 0.  1.
         25    2    1    2    0    0  0.60134963986E+02 -0.35643460900E+02 -0.25034618928E+03  0.28845769759E+03  0.12509180075E+03 0.  0.
          5    1    3    3  502    0  0.36829155171E+02  0.15017495487E+02 -0.93663264146E+01  0.41074472752E+02  0.41800000000E+01 0. -1.
         -5    1    3    3    0  502  0.23305808815E+02 -0.50660956387E+02 -0.24097986286E+03  0.24738322484E+03  0.41800000000E+01 0. -1.
        -11    1    1    2    0    0 -0.64784108047E+02  0.14476352479E+02 -0.20607170511E+03  0.21649963761E+03  0.00000000000E+00 0.  1.
         11    1    1    2    0    0  0.46491440603E+01  0.21167108421E+02 -0.32692073701E+01  0.21916859635E+02  0.00000000000E+00 0. -1.
</event>
<event>
 7    1  0.2679104E-009  0.1669186E+03  0.7561462E-02  0.1181100E+00
          2   -1    0    0  501    0  0.00000000000E+00  0.00000000000E+00  0.21170669016E+04  0.21170669016E+04  0.00000000000E+00 0. -1.
         -2   -1    0    0    0  501 -0.00000000000E+00 -0.00000000000E+00 -0.13997853297E+02  0.13997853297E+02  0.00000000000E+00 0.  1.
         25    2    1    2    0    0 -0.11166770412E+03 -0.73613662109E+02  0.11834427453E+04  0.11975276380E+04  0.12508822863E+03 0.  0.
          5    1    3    3  502    0 -0.45609309806E+02  0.27031457495E+02  0.20869265565E+03  0.21536249850E+03  0.41800000000E+01 0. -1.
         -5    1    3    3    0  502 -0.66058394319E+02 -0.10064511960E+03  0.97475008961E+03  0.98216513946E+03  0.41800000000E+01 0. -1.
        -11    1    1    2    0    0 -0.13819217159E+02  0.18616517892E+02  0.11243004047E+03  0.11479572946E+03  0.00000000000E+00 0.  1.
         11    1    1    2    0    0  0.12548692128E+03  0.54997144216E+02  0.80719626259E+03  0.81874138751E+03  0.00000000000E+00 0. -1.
</event>
<event>
 7    1  0.2679104E-009  0.9188450E+02  0.7561462E-02  0.1298351E+00
          3   -1    0    0  501    0  0.00000000000E+00  0.00000000000E+00  0.23112042023E+03  0.23112042023E+03  0.00000000000E+00 0. -1.
         -3   -1    0    0    0  501 -0.00000000000E+00 -0.00000000000E+00 -0.56201165762E+02  0.56201165762E+02  0.00000000000E+00 0.  1.
         25    2    1    2    0    0  0.25881574808E+02 -0.13569836696E+02  0.78782529094E+02  0.15069728193E+03  0.12509591324E+03 0.  0.
          5    1    3    3  502    0 -0.22801741653E+02  0.24491566792E+02 -0.16115332562E+02  0.37375561667E+02  0.41800000000E+01 0.  1.
         -5    1    3    3    0  502  0.48683316462E+02 -0.38061403488E+02  0.94897861656E+02  0.11332172027E+03  0.41800000000E+01 0.  1.
        -11    1    1    2    0    0  0.15972910388E+01  0.45758579400E+02  0.20966524763E+02  0.50358654549E+02  0.00000000000E+00 0.  1.
         11    1    1    2    0    0 -0.27478865847E+02 -0.32188742704E+02  0.75170200606E+02  0.86265649504E+02  0.00000000000E+00 0. -1.
</event>
<event>
 7    1  0.2679104E-009  0.9649978E+02  0.7561462E-02  0.1287833E+00
         -1   -1    0    0    0  501 -0.00000000000E+00  0.00000000000E+00  0.42249916680E+02  0.42249916680E+02  0.00000000000E+00 0.  1.
          1   -1    0    0  501    0  0.00000000000E+00 -0.00000000000E+00 -0.39449189209E+03  0.39449189209E+03  0.00000000000E+00 0. -1.
         25    2    1    2    0    0 -0.12866870868E+02  0.63830493178E+02 -0.16425490681E+03  0.21649082100E+03  0.12509481580E+03 0.  0.
          5    1    3    3  502    0 -0.72564925167E+01  0.93198756058E+02 -0.68164361929E+02  0.11576924225E+03  0.41800000000E+01 0. -1.
         -5    1    3    3    0  502 -0.56103783512E+01 -0.29368262879E+02 -0.96090544879E+02  0.10072157875E+03  0.41800000000E+01 0. -1.
        -11    1    1    2    0    0 -0.57262732842E+01 -0.30829962634E+02 -0.30845161526E+01  0.31508586792E+02  0.00000000000E+00 0.  1.
         11    1    1    2    0    0  0.18593144152E+02 -0.33000530544E+02 -0.18490255245E+03  0.18874240098E+03  0.00000000000E+00 0. -1.
</event>
<event>
 7    1  0.2679104E-009  0.1340511E+03  0.7561462E-02  0.1221565E+00
         -2   -1    0    0    0  501 -0.00000000000E+00  0.00000000000E+00  0.44679336886E+02  0.44679336886E+02  0.00000000000E+00 0.  1.
          2   -1    0    0  501    0  0.00000000000E+00 -0.00000000000E+00 -0.49653374621E+03  0.49653374621E+03  0.00000000000E+00 0. -1.
         25    2    1    2    0    0  0.29986149121E+02  0.97564570572E+02 -0.24168923182E+03  0.29065372832E+03  0.12509152825E+03 0.  0.
          5    1    3    3  502    0  0.77098715571E+02  0.41040625144E+02 -0.14001433027E+03  0.16507583087E+03  0.41800000000E+01 0. -1.
         -5    1    3    3    0  502 -0.47112566450E+02  0.56523945428E+02 -0.10167490155E+03  0.12557789746E+03  0.41800000000E+01 0. -1.
        -11    1    1    2    0    0 -0.10002657187E+01 -0.57495948296E+02 -0.18757252982E+03  0.19618929264E+03  0.00000000000E+00 0. -1.
         11    1    1    2    0    0 -0.28985883402E+02 -0.40068622275E+02 -0.22592647683E+02  0.54370062139E+02  0.00000000000E+00 0.  1.
</event>
<event>
 7    1  0.2679104E-009  0.1417816E+03  0.7561462E-02  0.1210952E+00
          1   -1    0    0  501    0  0.00000000000E+00  0.00000000000E+00  0.11697236762E+04  0.11697236762E+04  0.00000000000E+00 0. -1.
         -1   -1    0    0    0  501 -0.00000000000E+00 -0.00000000000E+00 -0.20706281926E+02  0.20706281926E+02  0.00000000000E+00 0.  1.
         25    2    1    2    0    0  0.19729881816E+02 -0.10862700246E+03  0.67148230220E+03  0.69189783594E+03  0.12508013159E+03 0.  0.
          5    1    3    3  502    0  0.71815345862E+00 -0.12322441071E+03  0.64171101759E+03  0.65344875364E+03  0.41800000000E+01 0. -1.
         -5    1    3    3    0  502  0.19011728357E+02  0.14597408246E+02  0.29771284605E+02  0.38449082299E+02  0.41800000000E+01 0. -1.
        -11    1    1    2    0    0 -0.38822886563E+02  0.17073177184E+02  0.84790708493E+02  0.94805981599E+02  0.00000000000E+00 0.  1.
         11    1    1    2    0    0  0.19093004747E+02  0.91553825281E+02  0.39274438354E+03  0.40372614054E+03  0.00000000000E+00 0. -1.
</event>
<event>
 7    1  0.2679104E-009  0.1089035E+03  0.7561462E-02  0.1262614E+00
          1   -1    0    0  501    0  0.00000000000E+00  0.00000000000E+00  0.59530623412E+03  0.59530623412E+03  0.00000000000E+00 0. -1.
         -1   -1    0    0    0  501 -0.00000000000E+00 -0.00000000000E+00 -0.42546257864E+02  0.42546257864E+02  0.00000000000E+00 0.  1.
         25    2    1    2    0    0  0.73500507052E+02 -0.51925342647E+02  0.37007468410E+03  0.40087568071E+03  0.12508986302E+03 0.  0.
          5    1    3    3  502    0  0.75410976450E+02 -0.35059870439E-01  0.31937279539E+03  0.32818176585E+03  0.41800000000E+01 0.  1.
         -5    1    3    3    0  502 -0.19104693980E+01 -0.51890282777E+02  0.50701888706E+02  0.72693914864E+02  0.41800000000E+01 0.  1.
        -11    1    1    2    0    0 -0.44987807064E+02  0.35276325076E+02  0.19386432443E+03  0.20211803033E+03  0.00000000000E+00 0. -1.
         11    1    1    2    0    0 -0.28512699988E+02  0.16649017571E+02 -0.11179032272E+02  0.34858780948E+02  0.00000000000E+00 0.  1.
</event>
<event>
 7    1  0.2679104E-009  0.1676019E+03  0.7561462E-02  0.1180372E+00
         -1   -1    0    0    0  501 -0.00000000000E+00  0.00000000000E+00  0.75545495050E+02  0.75545495050E+02  0.00000000000E+00 0. -1.
          1   -1    0    0  501    0  0.00000000000E+00 -0.00000000000E+00 -0.48382841318E+03  0.48382841318E+03  0.00000000000E+00 0.  1.
         25    2    1    2    0    0 -0.68374466758E+02 -0.12915527868E+03 -0.30042801937E+03  0.35673663241E+03  0.12509147200E+03 0.  0.
          5    1    3    3  502    0 -0.10002666361E+03 -0.82473480408E+02 -0.24673801804E+03  0.27875496471E+03  0.41800000000E+01 0.  1.
         -5    1    3    3    0  502  0.31652196847E+02 -0.46681798271E+02 -0.53690001323E+02  0.77981667699E+02  0.41800000000E+01 0.  1.
        -11    1    1    2    0    0  0.13377018091E+02  0.55065143217E+02  0.49716937400E+01  0.56884377022E+02  0.00000000000E+00 0. -1.
         11    1    1    2    0    0  0.54997448668E+02  0.74090135461E+02 -0.11282659251E+03  0.14575289880E+03  0.00000000000E+00 0.  1.
</event>
<event>
 7    1  0.2679104E-009  0.9982055E+02  0.7561462E-02  0.1280674E+00
         -2   -1    0    0    0  501 -0.00000000000E+00  0.00000000000E+00  0.19758527685E+02  0.19758527685E+02  0.00000000000E+00 0.  1.
          2   -1    0    0  501    0  0.00000000000E+00 -0.00000000000E+00 -0.67555393775E+03  0.67555393775E+03  0.00000000000E+00 0. -1.
         25    2    1    2    0    0 -0.17416376623E+02  0.27086681798E+02 -0.44904322371E+03  0.46725282344E+03  0.12509342808E+03 0.  0.
          5    1    3    3  502    0  0.47626449175E+02 -0.82281597251E+01 -0.25413098242E+03  0.25871994492E+03  0.41800000000E+01 0. -1.
         -5    1    3    3    0  502 -0.65042825798E+02  0.35314841524E+02 -0.19491224129E+03  0.20853287852E+03  0.41800000000E+01 0. -1.
        -11    1    1    2    0    0  0.37775895432E+02  0.59015575981E+01 -0.17134236795E+03  0.17555641177E+03  0.00000000000E+00 0. -1.
         11    1    1    2    0    0 -0.20359518809E+02 -0.32988239396E+02 -0.35409818399E+02  0.52503230221E+02  0.00000000000E+00 0.  1.
</event>
<event>
 7    1  0.2679104E-009  0.9739955E+02  0.7561462E-02  0.1285861E+00
         -1   -1    0    0    0  501 -0.00000000000E+00  0.00000000000E+00  0.15313604784E+03  0.15313604784E+03  0.00000000000E+00 0.  1.
          1   -1    0    0  501    0  0.00000000000E+00 -0.00000000000E+00 -0.20542462135E+03  0.20542462135E+03  0.00000000000E+00 0. -1.
         25    2    1    2    0    0 -0.31534030999E+02  0.16053237515E+02 -0.16563329234E+03  0.21055642342E+03  0.12509004104E+03 0.  0.
          5    1    3    3  502    0  0.16271388146E+02 -0.47023145125E+02 -0.52829665473E+02  0.72693742534E+02  0.41800000000E+01 0. -1.
         -5    1    3    3    0  502 -0.47805419145E+02  0.63076382640E+02 -0.11280362686E+03  0.13786268088E+03  0.41800000000E+01 0. -1.
        -11    1    1    2    0    0  0.24120985269E+02  0.18418864167E+02  0.11192005148E+01  0.30369871540E+02  0.00000000000E+00 0. -1.
         11    1    1    2    0    0  0.74130457302E+01 -0.34472101682E+02  0.11222551831E+03  0.11763437424E+03  0.00000000000E+00 0.  1.
</event>
<event>
 7    1  0.2679104E-009  0.1042815E+03  0.7561462E-02  0.1271542E+00
          1   -1    0    0  501    0  0.00000000000E+00  0.00000000000E+00  0.15894640975E+03  0.15894640975E+03  0.00000000000E+00 0. -1.
         -1   -1    0    0    0  501 -0.00000000000E+00 -0.00000000000E+00 -0.10088745909E+03  0.10088745909E+03  0.00000000000E+00 0.  1.
         25    2    1    2    0    0  0.10145447388E+02  0.52894016561E+02  0.38638861923E+01  0.13624383219E+03  0.12508695017E+03 0.  0.
          5    1    3    3  502    0  0.66551127416E+01  0.87074567518E+02  0.30471923822E+02  0.92586615531E+02  0.41800000000E+01 0.  1.
         -5    1    3    3    0  502  0.34903346462E+01 -0.34180550957E+02 -0.26608037630E+02  0.43657216656E+02  0.41800000000E+01 0.  1.
        -11    1    1    2    0    0 -0.20162693240E+02  0.10229665488E+02 -0.16722438179E+02  0.28121525445E+02  0.00000000000E+00 0. -1.
         11    1    1    2    0    0  0.10017245852E+02 -0.63123682049E+02  0.70917502648E+02  0.95468511205E+02  0.00000000000E+00 0.  1.
</event>
<event>
 7    1  0.2679104E-009  0.1038506E+03  0.7561462E-02  0.1272401E+00
          1   -1    0    0  501    0  0.00000000000E+00  0.00000000000E+00  0.28305852282E+03  0.28305852282E+03  0.00000000000E+00 0. -1.
         -1   -1    0    0    0  501 -0.00000000000E+00 -0.00000000000E+00 -0.45263240515E+02  0.45263240515E+02  0.00000000000E+00 0.  1.
         25    2    1    2    0    0  0.29836076601E+02 -0.14306289399E+02  0.12673268417E+03  0.18111652176E+03  0.12508860793E+03 0.  0.
          5    1    3    3  502    0 -0.44555197726E+02 -0.29423704188E+01  0.16933334936E+02  0.47937807836E+02  0.41800000000E+01 0.  1.
         -5    1    3    3    0  502  0.74391274328E+02 -0.11363918980E+02  0.10979934924E+03  0.13317871393E+03  0.41800000000E+01 0.  1.
        -11    1    1    2    0    0 -0.46559847272E+02  0.36875274902E+02  0.42272789731E+02  0.72901262189E+02  0.00000000000E+00 0.  1.
         11    1    1    2    0    0  0.16723770670E+02 -0.22568985503E+02  0.68789808399E+02  0.74303979379E+02  0.00000000000E+00 0. -1.
</event>
<event>
 7    1  0.2679104E-009  0.1031580E+03  0.7561462E-02  0.1273792E+00
          1   -1    0    0  501    0  0.00000000000E+00  0.00000000000E+00  0.15182190498E+02  0.15182190498E+02  0.00000000000E+00 0. -1.
         -1   -1    0    0    0  501 -0.00000000000E+00 -0.00000000000E+00 -0.80217426500E+03  0.80217426500E+03  0.00000000000E+00 0.  1.
         25    2    1    2    0    0 -0.80786620762E+01 -0.11282887638E+02 -0.49246714134E+03  0.50829526740E+03  0.12509046814E+03 0.  0.
          5    1    3    3  502    0  0.37867600542E+02  0.41086716445E+02 -0.21354388960E+03  0.22077259483E+03  0.41800000000E+01 0.  1.
         -5    1    3    3    0  502 -0.45946262618E+02 -0.52369604083E+02 -0.27892325174E+03  0.28752267257E+03  0.41800000000E+01 0.  1.
        -11    1    1    2    0    0 -0.32657646293E+02 -0.10490118762E+02 -0.52805518503E+02  0.62968144624E+02  0.00000000000E+00 0. -1.
         11    1    1    2    0    0  0.40736308369E+02  0.21773006400E+02 -0.24171941466E+03  0.24609304348E+03  0.00000000000E+00 0.  1.
</event>
<event>
 7    1  0.2679104E-009  0.1782371E+03  0.7561462E-02  0.1169520E+00
          2   -1    0    0  501    0  0.00000000000E+00  0.00000000000E+00  0.34862820881E+03  0.34862820881E+03  0.00000000000E+00 0. -1.
         -2   -1    0    0    0  501 -0.00000000000E+00 -0.00000000000E+00 -0.12269322337E+03  0.12269322337E+03  0.00000000000E+00 0.  1.
         25    2    1    2    0    0 -0.13867883520E+02  0.17021101088E+03  0.16441638490E+03  0.26803629152E+03  0.12508636827E+03 0.  0.
          5    1    3    3  502    0 -0.13084594596E+02  0.40699421768E+02 -0.16059413440E+02  0.45858769151E+02  0.41800000000E+01 0.  1.
         -5    1    3    3    0  502 -0.78328892463E+00  0.12951158912E+03  0.18047579834E+03  0.22217752236E+03  0.41800000000E+01 0.  1.
        -11    1    1    2    0    0  0.41708077332E+02 -0.95600586153E+02  0.27961043923E+01  0.10434008811E+03  0.00000000000E+00 0.  1.
         11    1    1    2    0    0 -0.27840193811E+02 -0.74610424730E+02  0.58722496153E+02  0.98945052551E+02  0.00000000000E+00 0. -1.
</event>
<event>
 7    1  0.2679104E-009  0.1256585E+03  0.7561462E-02  0.1234044E+00
          2   -1    0    0  501    0  0.00000000000E+00  0.00000000000E+00  0.12206087081E+03  0.12206087081E+03  0.00000000000E+00 0. -1.
         -2   -1    0    0    0  501 -0.00000000000E+00 -0.00000000000E+00 -0.19456418045E+03  0.19456418045E+03  0.00000000000E+00 0.  1.
         25    2    1    2    0    0  0.18757188806E+02  0.10701118001E+03 -0.47647085490E+02  0.17239800479E+03  0.12509037742E+03 0.  0.
          5    1    3    3  502    0 -0.10377042560E+01  0.64966903224E+02 -0.88848867760E+02  0.11015157306E+03  0.41800000000E+01 0.  1.
         -5    1    3    3    0  502  0.19794893062E+02  0.42044276787E+02  0.41201782269E+02  0.62246431737E+02  0.41800000000E+01 0.  1.
        -11    1    1    2    0    0  0.25888310123E+02 -0.26311069795E+01 -0.15562096826E+02  0.30320062378E+02  0.00000000000E+00 0.  1.
         11    1    1    2    0    0 -0.44645498928E+02 -0.10438007303E+03 -0.92941273220E+01  0.11390698408E+03  0.00000000000E+00 0. -1.
</event>
<event>
 7    1  0.2679104E-009  0.1901495E+03  0.7561462E-02  0.1158327E+00
          2   -1    0    0  501    0  0.00000000000E+00  0.00000000000E+00  0.81726031929E+03  0.81726031929E+03  0.00000000000E+00 0. -1.
         -2   -1    0    0    0  501 -0.00000000000E+00 -0.00000000000E+00 -0.62409006858E+02  0.62409006858E+02  0.00000000000E+00 0.  1.
         25    2    1    2    0    0  0.73188917530E+02 -0.17177845992E+03  0.51724926602E+03  0.56396361565E+03  0.12507477615E+03 0.  0.
          5    1    3    3  502    0  0.37047658823E+02 -0.34743947737E+02  0.36345767056E+02  0.62595192399E+02  0.41800000000E+01 0. -1.
         -5    1    3    3    0  502  0.36141258707E+02 -0.13703451219E+03  0.48090349897E+03  0.50136842325E+03  0.41800000000E+01 0. -1.
        -11    1    1    2    0    0 -0.20739766789E+02  0.70694268800E+02  0.16486489254E+03  0.18057754666E+03  0.00000000000E+00 0.  1.
         11    1    1    2    0    0 -0.52449150741E+02  0.10108419112E+03  0.72737153868E+02  0.13512816383E+03  0.00000000000E+00 0. -1.
</event>
<event>
 7    1  0.2679104E-009  0.9043273E+02  0.7561462E-02  0.1301807E+00
         -2   -1    0    0    0  501 -0.00000000000E+00  0.00000000000E+00  0.42389592639E+02  0.42389592639E+02  0.00000000000E+00 0.  1.
          2   -1    0    0  501    0  0.00000000000E+00 -0.00000000000E+00 -0.38378673166E+03  0.38378673166E+03  0.00000000000E+00 0. -1.
         25    2    1    2    0    0  0.37168428989E+02 -0.44843768908E+02 -0.28085077731E+03  0.31291977099E+03  0.12509663559E+03 0.  0.
          5    1    3    3  502    0  0.35516574266E+02  0.41268838035E+01 -0.25468274727E+03  0.25721437046E+03  0.41800000000E+01 0. -1.
         -5    1    3    3    0  502  0.16518547226E+01 -0.48970652712E+02 -0.26168030043E+02  0.55705400523E+02  0.41800000000E+01 0. -1.
        -11    1    1    2    0    0 -0.22164449223E+02  0.66074303879E+02 -0.45221505653E+02  0.83078643561E+02  0.00000000000E+00 0.  1.
         11    1    1    2    0    0 -0.15003979766E+02 -0.21230534970E+02 -0.15324856062E+02  0.30177909756E+02  0.00000000000E+00 0. -1.
</event>
<event>
 7    1  0.2679104E-009  0.1422235E+03  0.7561462E-02  0.1210368E+00
          1   -1    0    0  501    0  0.00000000000E+00  0.00000000000E+00  0.19598666213E+03  0.19598666213E+03  0.00000000000E+00 0. -1.
         -1   -1    0    0    0  501 -0.00000000000E+00 -0.00000000000E+00 -0.13034070575E+03  0.13034070575E+03  0.00000000000E+00 0.  1.
         25    2    1    2    0    0  0.37509934689E+02  0.10968600205E+03  0.63015225127E+02  0.18181271750E+03  0.12508769484E+03 0.  0.
          5    1    3    3  502    0  0.79167088495E+02  0.45162507046E+02  0.49222918976E+02  0.10366989966E+03  0.41800000000E+01 0. -1.
         -5    1    3    3    0  502 -0.41657153806E+02  0.64523495001E+02  0.13792306150E+02  0.78142817836E+02  0.41800000000E+01 0. -1.
        -11    1    1    2    0    0 -0.30079653822E+02 -0.97350146961E+02  0.36085118933E+02  0.10809242571E+03  0.00000000000E+00 0. -1.
         11    1    1    2    0    0 -0.74302808668E+01 -0.12335855086E+02 -0.33454387679E+02  0.36422224663E+02  0.00000000000E+00 0.  1.
</event>
<event>
 7    1  0.2679104E-009  0.2304120E+03  0.7561462E-02  0.1126350E+00
          1   -1    0    0  501    0  0.00000000000E+00  0.00000000000E+00  0.11113358730E+04  0.11113358730E+04  0.00000000000E+00 0. -1.
         -1   -1    0    0    0  501 -0.00000000000E+00 -0.00000000000E+00 -0.52586504196E+02  0.52586504196E+02  0.00000000000E+00 0.  1.
         25    2    1    2    0    0 -0.17251893976E+03  0.11850754147E+03  0.42380836083E+03  0.48894584438E+03  0.12509072734E+03 0.  0.
          5    1    3    3  502    0  0.48789492800E+01  0.39975621947E+02  0.13547596472E+03  0.14139683134E+03  0.41800000000E+01 0.  1.
         -5    1    3    3    0  502 -0.17739788904E+03  0.78531919523E+02  0.28833239611E+03  0.34754901304E+03  0.41800000000E+01 0.  1.
        -11    1    1    2    0    0  0.92836352458E+01 -0.47289793855E+02  0.18221589578E+03  0.18848114803E+03  0.00000000000E+00 0. -1.
         11    1    1    2    0    0  0.16323530451E+03 -0.71217747615E+02  0.45272511224E+03  0.48649538483E+03  0.00000000000E+00 0.  1.
</event>
<event>
 7    1  0.2679104E-009  0.1167541E+03  0.7561462E-02  0.1248550E+00
         -1   -1    0    0    0  501 -0.00000000000E+00  0.00000000000E+00  0.74846995947E+03  0.74846995947E+03  0.00000000000E+00 0.  1.
          1   -1    0    0  501    0  0.00000000000E+00 -0.00000000000E+00 -0.26250330253E+02  0.26250330253E+02  0.00000000000E+00 0. -1.
         25    2    1    2    0    0  0.90090579823E+02 -0.46086868039E+01  0.33127877989E+03  0.36542075007E+03  0.12509653077E+03 0.  0.
          5    1    3    3  502    0  0.40975668014E+01 -0.23859979039E+02  0.22915579316E+03  0.23046895364E+03  0.41800000000E+01 0. -1.
         -5    1    3    3    0  502  0.85993013022E+02  0.19251292235E+02  0.10212298673E+03  0.13495179643E+03  0.41800000000E+01 0. -1.
        -11    1    1    2    0    0 -0.89753452080E+02 -0.23364617238E+02  0.31500731646E+03  0.32837660836E+03  0.00000000000E+00 0.  1.
         11    1    1    2    0    0 -0.33712774325E+00  0.27973304042E+02  0.75933532869E+02  0.80922931287E+02  0.00000000000E+00 0. -1.
</event>
<event>
 7    1  0.2679104E-009  0.7084547E+02  0.7561462E-02  0.1357241E+00
          1   -1    0    0  501    0  0.00000000000E+00  0.00000000000E+00  0.20077792054E+02  0.20077792054E+02  0.00000000000E+00 0. -1.
         -1   -1    0    0    0  501 -0.00000000000E+00 -0.00000000000E+00 -0.70878161056E+03  0.70878161056E+03  0.00000000000E+00 0.  1.
         25    2    1    2    0    0  0.57498491981E+01  0.48820988528E+02 -0.35743415168E+03  0.38186817098E+03  0.12509027754E+03 0.  0.
          5    1    3    3  502    0 -0.16317385359E+02  0.15379447541E+02 -0.65139180417E+00  0.22818439537E+02  0.41800000000E+01 0. -1.
         -5    1    3    3    0  502  0.22067234557E+02  0.33441540987E+02 -0.35678275988E+03  0.35904973144E+03  0.41800000000E+01 0. -1.
        -11    1    1    2    0    0  0.12828794437E+02 -0.56907740542E+02 -0.31671662727E+03  0.32204423747E+03  0.00000000000E+00 0.  1.
         11    1    1    2    0    0 -0.18578643635E+02  0.80867520137E+01 -0.14553039560E+02  0.24946994165E+02  0.00000000000E+00 0. -1.
</event>
<event>
 7    1  0.2679104E-009  0.1410573E+03  0.7561462E-02  0.1211913E+00
          1   -1    0    0  501    0  0.00000000000E+00  0.00000000000E+00  0.73071861991E+03  0.73071861991E+03  0.00000000000E+00 0. -1.
         -1   -1    0    0    0  501 -0.00000000000E+00 -0.00000000000E+00 -0.42046623719E+02  0.42046623719E+02  0.00000000000E+00 0.  1.
         25    2    1    2    0    0 -0.39921519739E+02 -0.81502920761E+02  0.13797590129E+03  0.20717668824E+03  0.12509347298E+03 0.  0.
          5    1    3    3  502    0  0.33522575868E+02  0.11415808446E+02  0.38180494861E+02  0.52242763740E+02  0.41800000000E+01 0.  1.
         -5    1    3    3    0  502 -0.73444095607E+02 -0.92918729207E+02  0.99795406428E+02  0.15493392450E+03  0.41800000000E+01 0.  1.
        -11    1    1    2    0    0  0.36158113027E+01 -0.19905293426E+02  0.64238828392E+02  0.67349252935E+02  0.00000000000E+00 0.  1.
         11    1    1    2    0    0  0.36305708436E+02  0.10140821419E+03  0.48645726651E+03  0.49823930245E+03  0.00000000000E+00 0. -1.
</event>
<event>
 7    1  0.2679104E-009  0.1051653E+03  0.7561462E-02  0.1269794E+00
          1   -1    0    0  501    0  0.00000000000E+00  0.00000000000E+00  0.23092367971E+03  0.23092367971E+03  0.00000000000E+00 0. -1.
         -1   -1    0    0    0  501 -0.00000000000E+00 -0.00000000000E+00 -0.59012213162E+02  0.59012213162E+02  0.00000000000E+00 0.  1.
         25    2    1    2    0    0 -0.34805235886E+02  0.18127859768E+02  0.12303834173E+03  0.17979645580E+03  0.12509319820E+03 0.  0.
          5    1    3    3  502    0 -0.12689824253E+02  0.65260905343E+02  0.10536442304E+03  0.12465613281E+03  0.41800000000E+01 0. -1.
         -5    1    3    3    0  502 -0.22115411633E+02 -0.47133045575E+02  0.17673918694E+02  0.55140322985E+02  0.41800000000E+01 0. -1.
        -11    1    1    2    0    0  0.51664322533E+02 -0.38943984372E+02  0.52221581445E+02  0.83144029913E+02  0.00000000000E+00 0. -1.
         11    1    1    2    0    0 -0.16859086648E+02  0.20816124604E+02 -0.33484566267E+01  0.26995407163E+02  0.00000000000E+00 0.  1.
</event>
<event>
 7    1  0.2679104E-009  0.1279572E+03  0.7561462E-02  0.1230519E+00
          2   -1    0    0  501    0  0.00000000000E+00  0.00000000000E+00  0.40208080091E+03  0.40208080091E+03  0.00000000000E+00 0. -1.
         -2   -1    0    0    0  501 -0.00000000000E+00 -0.00000000000E+00 -0.49629866218E+02  0.49629866218E+02  0.00000000000E+00 0.  1.
         25    2    1    2    0    0  0.18136228646E+01  0.92046454160E+02  0.18306290853E+03  0.24007475771E+03  0.12509205355E+03 0.  0.
          5    1    3    3  502    0  0.50677167186E+02  0.17895859659E+02  0.11855552754E+03  0.13023564250E+03  0.41800000000E+01 0. -1.
         -5    1    3    3    0  502 -0.48863544322E+02  0.74150594501E+02  0.64507380988E+02  0.10983911521E+03  0.41800000000E+01 0. -1.
        -11    1    1    2    0    0  0.11174980495E+02  0.70170162900E+01  0.68087103069E+02  0.69353963917E+02  0.00000000000E+00 0. -1.
         11    1    1    2    0    0 -0.12988603360E+02 -0.99063470450E+02  0.10130092309E+03  0.14228194549E+03  0.00000000000E+00 0.  1.
</event>
<event>
 7    1  0.2679104E-009  0.1316011E+03  0.7561462E-02  0.1225099E+00
         -3   -1    0    0    0  501 -0.00000000000E+00  0.00000000000E+00  0.10545048163E+03  0.10545048163E+03  0.00000000000E+00 0.  1.
          3   -1    0    0  501    0  0.00000000000E+00 -0.00000000000E+00 -0.18784658776E+03  0.18784658776E+03  0.00000000000E+00 0. -1.
         25    2    1    2    0    0 -0.10223320842E+02  0.82658749148E+02 -0.93346364663E+01  0.15056708679E+03  0.12508527926E+03 0.  0.
          5    1    3    3  502    0 -0.64425079717E+02  0.53258734987E+02 -0.23962690830E+02  0.87056112369E+02  0.41800000000E+01 0. -1.
         -5    1    3    3    0  502  0.54201758875E+02  0.29400014160E+02  0.14628054364E+02  0.63510974424E+02  0.41800000000E+01 0. -1.
        -11    1    1    2    0    0  0.33229639856E+02 -0.14068903004E+01 -0.37283215568E+01  0.33467726049E+02  0.00000000000E+00 0.  1.
         11    1    1    2    0    0 -0.23006319014E+02 -0.81251858847E+02 -0.69333148100E+02  0.10926225655E+03  0.00000000000E+00 0. -1.
</event>
<event>
 7    1  0.2679104E-009  0.1398396E+03  0.7561462E-02  0.1213545E+00
          1   -1    0    0  501    0  0.00000000000E+00  0.00000000000E+00  0.39210033771E+03  0.39210033771E+03  0.00000000000E+00 0. -1.
         -1   -1    0    0    0  501 -0.00000000000E+00 -0.00000000000E+00 -0.54180860349E+02  0.54180860349E+02  0.00000000000E+00 0.  1.
         25    2    1    2    0    0 -0.89554018981E+02  0.23023429623E+02  0.12745817550E+03  0.20110325677E+03  0.12508770025E+03 0.  0.
          5    1    3    3  502    0  0.42907246252E+01 -0.40396764829E+02  0.46081127972E+02  0.61573140911E+02  0.41800000000E+01 0.  1.
         -5    1    3    3    0  502 -0.93844743606E+02  0.63420194452E+02  0.81377047529E+02  0.13953011586E+03  0.41800000000E+01 0.  1.
        -11    1    1    2    0    0 -0.57740854068E+01 -0.29396053540E+02  0.57353026970E+02  0.64705778171E+02  0.00000000000E+00 0.  1.
         11    1    1    2    0    0  0.95328104388E+02  0.63726239169E+01  0.15310827489E+03  0.18047216312E+03  0.00000000000E+00 0. -1.
</event>
<event>
 7    1  0.2679104E-009  0.1588050E+03  0.7561462E-02  0.1190052E+00
         -2   -1    0    0    0  501 -0.00000000000E+00  0.00000000000E+00  0.35864938973E+02  0.35864938973E+02  0.00000000000E+00 0.  1.
          2   -1    0    0  501    0  0.00000000000E+00 -0.00000000000E+00 -0.94472807239E+03  0.94472807239E+03  0.00000000000E+00 0. -1.
         25    2    1    2    0    0  0.14473765819E+03  0.94859859593E+01 -0.39929676202E+03  0.44285945977E+03  0.12509046053E+03 0.  0.
          5    1    3    3  502    0 -0.13654078726E+01 -0.11614735115E+01 -0.17420590562E+03  0.17426526709E+03  0.41800000000E+01 0.  1.
         -5    1    3    3    0  502  0.14610306607E+03  0.10647459471E+02 -0.22509085640E+03  0.26859419268E+03  0.41800000000E+01 0.  1.
        -11    1    1    2    0    0 -0.35138105362E+01  0.21619267590E+02 -0.12444033936E+03  0.12635322575E+03  0.00000000000E+00 0.  1.
         11    1    1    2    0    0 -0.14122384766E+03 -0.31105253549E+02 -0.38512603203E+03  0.41138032585E+03  0.00000000000E+00 0. -1.
</event>
<event>
 7    1  0.2679104E-009  0.1079489E+03  0.7561462E-02  0.1264416E+00
          1   -1    0    0  501    0  0.00000000000E+00  0.00000000000E+00  0.15284532594E+03  0.15284532594E+03  0.00000000000E+00 0.  1.
         -1   -1    0    0    0  501 -0.00000000000E+00 -0.00000000000E+00 -0.12106949962E+03  0.12106949962E+03  0.00000000000E+00 0. -1.
         25    2    1    2    0    0  0.21808103349E+02 -0.35936149398E+02 -0.53437251131E+02  0.14237064718E+03  0.12508741409E+03 0.  0.
          5    1    3    3  502    0  0.19482892483E+01 -0.74513744436E+02 -0.16427795323E+01  0.74674393639E+02  0.41800000000E+01 0. -1.
         -5    1    3    3    0  502  0.19859814101E+02  0.38577595037E+02 -0.51794471599E+02  0.67696253539E+02  0.41800000000E+01 0. -1.
        -11    1    1    2    0    0 -0.51146929051E+01  0.64427112687E+02  0.69723729200E+02  0.95070559829E+02  0.00000000000E+00 0.  1.
         11    1    1    2    0    0 -0.16693410444E+02 -0.28490963288E+02  0.15489348246E+02  0.36473618554E+02  0.00000000000E+00 0. -1.
</event>
<event>
 7    1  0.2679104E-009  0.1042576E+03  0.7561462E-02  0.1271589E+00
          1   -1    0    0  501    0  0.00000000000E+00  0.00000000000E+00  0.23977769805E+03  0.23977769805E+03  0.00000000000E+00 0. -1.
         -1   -1    0    0    0  501 -0.00000000000E+00 -0.00000000000E+00 -0.10635917324E+03  0.10635917324E+03  0.00000000000E+00 0.  1.
         25    2    1    2    0    0  0.16564126673E+02  0.33241762450E+02  0.19155848808E+03  0.23177598243E+03  0.12508423807E+03 0.  0.
          5    1    3    3  502    0  0.62884377176E+02  0.10335122019E+02  0.50269744582E+02  0.81275945152E+02  0.41800000000E+01 0. -1.
         -5    1    3    3    0  502 -0.46320250503E+02  0.22906640430E+02  0.14128874350E+03  0.15050003728E+03  0.41800000000E+01 0. -1.
        -11    1    1    2    0    0 -0.50983497969E+02 -0.12055536805E+02 -0.51385111689E+02  0.73383122965E+02  0.00000000000E+00 0. -1.
         11    1    1    2    0    0  0.34419371296E+02 -0.21186225645E+02 -0.67548515817E+01  0.40977765890E+02  0.00000000000E+00 0.  1.
</event>
<event>
 7    1  0.2679104E-009  0.1059645E+03  0.7561462E-02  0.1268231E+00
         -1   -1    0    0    0  501 -0.00000000000E+00  0.00000000000E+00  0.65306030316E+03  0.65306030316E+03  0.00000000000E+00 0.  1.
          1   -1    0    0  501    0  0.00000000000E+00 -0.00000000000E+00 -0.21048682112E+02  0.21048682112E+02  0.00000000000E+00 0. -1.
         25    2    1    2    0    0  0.33300192756E+02 -0.30647547413E+02  0.35324170887E+03  0.37745830183E+03  0.12508752829E+03 0.  0.
          5    1    3    3  502    0  0.21767644703E+02  0.47406804775E+02  0.17091671367E+03  0.17874907246E+03  0.41800000000E+01 0.  1.
         -5    1    3    3    0  502  0.11532548053E+02 -0.78054352188E+02  0.18232499520E+03  0.19870922937E+03  0.41800000000E+01 0.  1.
        -11    1    1    2    0    0  0.88698017047E+01  0.36901725909E+02  0.22426533590E+03  0.22745406491E+03  0.00000000000E+00 0.  1.
         11    1    1    2    0    0 -0.42169994460E+02 -0.62541784953E+01  0.54504576276E+02  0.69196618533E+02  0.00000000000E+00 0. -1.
</event>
<event>
 7    1  0.2679104E-009  0.1360790E+03  0.7561462E-02  0.1218704E+00
          3   -1    0    0  501    0  0.00000000000E+00  0.00000000000E+00  0.63652597952E+03  0.63652597952E+03  0.00000000000E+00 0. -1.
         -3   -1    0    0    0  501 -0.00000000000E+00 -0.00000000000E+00 -0.44769036371E+02  0.44769036371E+02  0.00000000000E+00 0.  1.
         25    2    1    2    0    0 -0.11249822431E+03 -0.44136948475E+02  0.43344141854E+03  0.46703187085E+03  0.12507351597E+03 0.  0.
          5    1    3    3  502    0 -0.12650076493E+03 -0.44185920252E+02  0.25589451807E+03  0.28888460648E+03  0.41800000000E+01 0. -1.
         -5    1    3    3    0  502  0.14002540627E+02  0.48971776957E-01  0.17754690046E+03  0.17814726438E+03  0.41800000000E+01 0. -1.
        -11    1    1    2    0    0  0.27098472347E+02  0.22911317960E+02  0.28243211914E+01  0.35598209005E+02  0.00000000000E+00 0.  1.
         11    1    1    2    0    0  0.85399751960E+02  0.21225630515E+02  0.15549120342E+03  0.17866493603E+03  0.00000000000E+00 0. -1.
</event>
<event>
 7    1  0.2679104E-009  0.9864131E+02  0.7561462E-02  0.1283179E+00
          3   -1    0    0  501    0  0.00000000000E+00  0.00000000000E+00  0.11871801943E+03  0.11871801943E+03  0.00000000000E+00 0. -1.
         -3   -1    0    0    0  501 -0.00000000000E+00 -0.00000000000E+00 -0.13388155929E+03  0.13388155929E+03  0.00000000000E+00 0.  1.
         25    2    1    2    0    0  0.61331404157E+02  0.14897568087E+01  0.78396307881E+01  0.13954620775E+03  0.12509166150E+03 0.  0.
          5    1    3    3  502    0  0.73174288654E+02  0.42852686074E+02 -0.21151961835E+02  0.87496897735E+02  0.41800000000E+01 0.  1.
         -5    1    3    3    0  502 -0.11842884497E+02 -0.41362929265E+02  0.28991592623E+02  0.52049310019E+02  0.41800000000E+01 0.  1.
        -11    1    1    2    0    0 -0.25688052803E+02  0.15144079427E+02 -0.54857731263E+02  0.62438688950E+02  0.00000000000E+00 0.  1.
         11    1    1    2    0    0 -0.35643351354E+02 -0.16633836236E+02  0.31854560619E+02  0.50614682019E+02  0.00000000000E+00 0. -1.
</event>
<event>
 7    1  0.2679104E-009  0.1331747E+03  0.7561462E-02  0.1222820E+00
          2   -1    0    0  501    0  0.00000000000E+00  0.00000000000E+00  0.24733410979E+03  0.24733410979E+03  0.00000000000E+00 0. -1.
         -2   -1    0    0    0  501 -0.00000000000E+00 -0.00000000000E+00 -0.82190735253E+02  0.82190735253E+02  0.00000000000E+00 0.  1.
         25    2    1    2    0    0 -0.87344269673E+02 -0.31157120597E+01  0.55706459670E+02  0.16244764191E+03  0.12508915864E+03 0.  0.
          5    1    3    3  502    0 -0.17037193699E+02 -0.55107575607E+02 -0.15333143209E+01  0.57852694934E+02  0.41800000000E+01 0. -1.
         -5    1    3    3    0  502 -0.70307075975E+02  0.51991863547E+02  0.57239773991E+02  0.10459494698E+03  0.41800000000E+01 0. -1.
        -11    1    1    2    0    0 -0.10355291062E+02  0.19339079575E+02  0.41615066186E+02  0.47043020582E+02  0.00000000000E+00 0.  1.
         11    1    1    2    0    0  0.97699560735E+02 -0.16223367515E+02  0.67821848684E+02  0.12003418255E+03  0.00000000000E+00 0. -1.
</event>
<event>
 7    1  0.2679104E-009  0.1059679E+03  0.7561462E-02  0.1268224E+00
         -1   -1    0    0    0  501 -0.00000000000E+00  0.00000000000E+00  0.17646107803E+03  0.17646107803E+03  0.00000000000E+00 0.  1.
          1   -1    0    0  501    0  0.00000000000E+00 -0.00000000000E+00 -0.75918352537E+02  0.75918352537E+02  0.00000000000E+00 0. -1.
         25    2    1    2    0    0 -0.32931837737E+02 -0.47035393593E+01  0.84925991028E+02  0.15481235569E+03  0.12509121594E+03 0.  0.
          5    1    3    3  502    0 -0.57501280133E+02 -0.49198859017E+02  0.65717030459E+02  0.10031513065E+03  0.41800000000E+01 0. -1.
         -5    1    3    3    0  502  0.24569442396E+02  0.44495319658E+02  0.19208960569E+02  0.54497225042E+02  0.41800000000E+01 0. -1.
        -11    1    1    2    0    0 -0.26023000344E+02  0.29230017700E+00  0.26846808454E+02  0.37390280962E+02  0.00000000000E+00 0.  1.
         11    1    1    2    0    0  0.58954838081E+02  0.44112391823E+01 -0.11230073984E+02  0.60176793915E+02  0.00000000000E+00 0. -1.
</event>
<event>
 7    1  0.2679104E-009  0.9230757E+02  0.7561462E-02  0.1297358E+00
          1   -1    0    0  501    0  0.00000000000E+00  0.00000000000E+00  0.16165244372E+03  0.16165244372E+03  0.00000000000E+00 0. -1.
         -1   -1    0    0    0  501 -0.00000000000E+00 -0.00000000000E+00 -0.11718766205E+03  0.11718766205E+03  0.00000000000E+00 0.  1.
         25    2    1    2    0    0 -0.23229307649E+01  0.35523853377E+02 -0.53360996638E+02  0.14057650965E+03  0.12508804474E+03 0.  0.
          5    1    3    3  502    0 -0.17998890148E+02  0.76081082181E+02 -0.56849726452E+02  0.96755645365E+02  0.41800000000E+01 0.  1.
         -5    1    3    3    0  502  0.15675959383E+02 -0.40557228804E+02  0.34887298133E+01  0.43820864284E+02  0.41800000000E+01 0.  1.
        -11    1    1    2    0    0  0.22345966611E+02 -0.56447833628E+00  0.95311649829E+02  0.97897760203E+02  0.00000000000E+00 0. -1.
         11    1    1    2    0    0 -0.20023035846E+02 -0.34959375041E+02  0.25141284810E+01  0.40365835923E+02  0.00000000000E+00 0.  1.
</event>
<event>
 7    1  0.2679104E-009  0.9229710E+02  0.7561462E-02  0.1297382E+00
          1   -1    0    0  501    0  0.00000000000E+00  0.00000000000E+00  0.41923573916E+02  0.41923573916E+02  0.00000000000E+00 0. -1.
         -1   -1    0    0    0  501 -0.00000000000E+00 -0.00000000000E+00 -0.46626760561E+03  0.46626760561E+03  0.00000000000E+00 0.  1.
         25    2    1    2    0    0  0.28219395890E+02 -0.34337716391E+02 -0.92766045369E+02  0.16195111238E+03  0.12508881068E+03 0.  0.
          5    1    3    3  502    0  0.30263412890E+02 -0.56914823837E+02  0.17949751371E+01  0.64620938309E+02  0.41800000000E+01 0. -1.
         -5    1    3    3    0  502 -0.20440170004E+01  0.22577107447E+02 -0.94561020506E+02  0.97330174074E+02  0.41800000000E+01 0. -1.
        -11    1    1    2    0    0 -0.56379973369E+02  0.55125222018E+01 -0.23202526074E+03  0.23884055543E+03  0.00000000000E+00 0.  1.
         11    1    1    2    0    0  0.28160577479E+02  0.28825194189E+02 -0.99552725585E+02  0.10739951171E+03  0.00000000000E+00 0. -1.
</event>
<event>
 7    1  0.2679104E-009  0.1345463E+03  0.7561462E-02  0.1220862E+00
         -2   -1    0    0    0  501 -0.00000000000E+00  0.00000000000E+00  0.10694837149E+03  0.10694837149E+03  0.00000000000E+00 0.  1.
          2   -1    0    0  501    0  0.00000000000E+00 -0.00000000000E+00 -0.26748262001E+03  0.26748262001E+03  0.00000000000E+00 0. -1.
         25    2    1    2    0    0 -0.92334367608E+02  0.51624287064E+01 -0.18592194360E+03  0.24242214183E+03  0.12509692093E+03 0.  0.
          5    1    3    3  502    0 -0.49825892017E+02 -0.57454889412E+02 -0.67232967033E+02  0.10159442942E+03  0.41800000000E+01 0. -1.
         -5    1    3    3    0  502 -0.42508475591E+02  0.62617318119E+02 -0.11868897657E+03  0.14082771242E+03  0.41800000000E+01 0. -1.
        -11    1    1    2    0    0 -0.11001820956E+02  0.70605329566E+01  0.24704527493E+02  0.27950042373E+02  0.00000000000E+00 0.  1.
         11    1    1    2    0    0  0.10333618856E+03 -0.12222961663E+02  0.68316759199E+00  0.10405880730E+03  0.00000000000E+00 0. -1.
</event>
<event>
 7    1  0.2679104E-009  0.1077455E+03  0.7561462E-02  0.1264803E+00
          3   -1    0    0  501    0  0.00000000000E+00  0.00000000000E+00  0.10864892836E+03  0.10864892836E+03  0.00000000000E+00 0. -1.
         -3   -1    0    0    0  501 -0.00000000000E+00 -0.00000000000E+00 -0.16410045645E+03  0.16410045645E+03  0.00000000000E+00 0.  1.
         25    2    1    2    0    0  0.43019229801E+02  0.39211267979E+02  0.83988638932E+01  0.13822567193E+03  0.12509043847E+03 0.  0.
          5    1    3    3  502    0 -0.28902171455E+02  0.23613145226E+02 -0.36125728800E+02  0.52110045323E+02  0.41800000000E+01 0.  1.
         -5    1    3    3    0  502  0.71921401256E+02  0.15598122753E+02  0.44524592693E+02  0.86115626610E+02  0.41800000000E+01 0.  1.
        -11    1    1    2    0    0  0.10544090339E+02  0.21083634205E+02  0.95866710689E+01  0.25448020248E+02  0.00000000000E+00 0. -1.
         11    1    1    2    0    0 -0.53563320140E+02 -0.60294902184E+02 -0.73437063049E+02  0.10907569263E+03  0.00000000000E+00 0.  1.
</event>
<event>
 7    1  0.2679104E-009  0.8866690E+02  0.7561462E-02  0.1306112E+00
         -2   -1    0    0    0  501 -0.00000000000E+00  0.00000000000E+00  0.39014667559E+03  0.39014667559E+03  0.00000000000E+00 0.  1.
          2   -1    0    0  501    0  0.00000000000E+00 -0.00000000000E+00 -0.42939034495E+02  0.42939034495E+02  0.00000000000E+00 0. -1.
         25    2    1    2    0    0  0.21840480916E+02 -0.33751879372E+02  0.27894393785E+03  0.30833983503E+03  0.12509011726E+03 0.  0.
          5    1    3    3  502    0  0.13729941247E+02 -0.57441117643E+02  0.48594031739E+02  0.76595336695E+02  0.41800000000E+01 0. -1.
         -5    1    3    3    0  502  0.81105396697E+01  0.23689238271E+02  0.23034990611E+03  0.23174449833E+03  0.41800000000E+01 0. -1.
        -11    1    1    2    0    0 -0.54076054852E+02  0.22940885473E+02  0.69153251895E+02  0.90734096029E+02  0.00000000000E+00 0.  1.
         11    1    1    2    0    0  0.32235573935E+02  0.10810993899E+02 -0.88954864530E+00  0.34011779030E+02  0.00000000000E+00 0. -1.
</event>
<event>
 7    1  0.2842669E-009  0.1767013E+03  0.7561462E-02  0.1171034E+00
          1   -1    0    0  501    0  0.00000000000E+00  0.00000000000E+00  0.14459491116E+04  0.14459491116E+04  0.00000000000E+00 0. -1.
         -1   -1    0    0    0  501 -0.00000000000E+00 -0.00000000000E+00 -0.27953921248E+02  0.27953921248E+02  0.00000000000E+00 0.  1.
         25    2    1    2    0    0 -0.60821245308E+02 -0.15217389635E+03  0.59020021393E+03  0.62517188846E+03  0.12508988364E+03 0.  0.
          5    1    3    3  502    0 -0.80056628567E+01 -0.90628354110E+02  0.47838881588E+03  0.48698143781E+03  0.41800000000E+01 0.  1.
         -5    1    3    3    0  502 -0.52815582451E+02 -0.61545542243E+02  0.11181139805E+03  0.13819045066E+03  0.41800000000E+01 0.  1.
        -11    1    1    2    0    0  0.68943627099E+02  0.68977166200E+02  0.33540263630E+03  0.34929357511E+03  0.00000000000E+00 0.  1.
         11    1    1    2    0    0 -0.81223817916E+01  0.83196730152E+02  0.49239234016E+03  0.49943756932E+03  0.00000000000E+00 0. -1.
</event>
<event>
 7    1  0.2679104E-009  0.2008864E+03  0.7561462E-02  0.1148993E+00
         -1   -1    0    0    0  501 -0.00000000000E+00  0.00000000000E+00  0.58358282794E+02  0.58358282794E+02  0.00000000000E+00 0.  1.
          1   -1    0    0  501    0  0.00000000000E+00 -0.00000000000E+00 -0.75380321379E+03  0.75380321379E+03  0.00000000000E+00 0. -1.
         25    2    1    2    0    0  0.16790770163E+03 -0.16572948526E+02 -0.24668936263E+03  0.32399364543E+03  0.12509429146E+03 0.  0.
          5    1    3    3  502    0 -0.16670089016E+02 -0.18703178883E+02 -0.29507357327E+02  0.38934012181E+02  0.41800000000E+01 0.  1.
         -5    1    3    3    0  502  0.18457779065E+03  0.21302303577E+01 -0.21718200530E+03  0.28505963325E+03  0.41800000000E+01 0.  1.
        -11    1    1    2    0    0 -0.32372214875E+02  0.42821811861E+02 -0.11146599610E+03  0.12371877850E+03  0.00000000000E+00 0.  1.
         11    1    1    2    0    0 -0.13553548676E+03 -0.26248863336E+02 -0.33728957227E+03  0.36444907265E+03  0.00000000000E+00 0. -1.
</event>
<event>
 7    1  0.2679104E-009  0.2960950E+03  0.7561462E-02  0.1087209E+00
          2   -1    0    0  501    0  0.00000000000E+00  0.00000000000E+00  0.65250451854E+03  0.65250451854E+03  0.00000000000E+00 0. -1.
         -2   -1    0    0    0  501 -0.00000000000E+00 -0.00000000000E+00 -0.14528246959E+03  0.14528246959E+03  0.00000000000E+00 0.  1.
         25    2    1    2    0    0  0.23289877114E+03 -0.14922338215E+03  0.36078081147E+03  0.47150871480E+03  0.12509284084E+03 0.  0.
          5    1    3    3  502    0  0.23323842777E+03 -0.10434863197E+03  0.32788614523E+03  0.41571095465E+03  0.41800000000E+01 0. -1.
         -5    1    3    3    0  502 -0.33965663828E+00 -0.44874750181E+02  0.32894666242E+02  0.55797760148E+02  0.41800000000E+01 0. -1.
        -11    1    1    2    0    0 -0.28023333156E+02  0.63639140741E+02  0.35065095090E+02  0.77876879297E+02  0.00000000000E+00 0. -1.
         11    1    1    2    0    0 -0.20487543798E+03  0.85584241412E+02  0.11137614240E+03  0.24840139404E+03  0.00000000000E+00 0.  1.
</event>
<event>
 7    1  0.2679104E-009  0.1013551E+03  0.7561462E-02  0.1277472E+00
          2   -1    0    0  501    0  0.00000000000E+00  0.00000000000E+00  0.72200538281E+02  0.72200538281E+02  0.00000000000E+00 0. -1.
         -2   -1    0    0    0  501 -0.00000000000E+00 -0.00000000000E+00 -0.23514185028E+03  0.23514185028E+03  0.00000000000E+00 0.  1.
         25    2    1    2    0    0  0.44024427750E+02 -0.57606517330E+01 -0.23372319507E+02  0.13478003537E+03  0.12509219508E+03 0.  0.
          5    1    3    3  502    0  0.48339875477E+02 -0.43522566165E+02 -0.54901180687E+02  0.85220709734E+02  0.41800000000E+01 0.  1.
         -5    1    3    3    0  502 -0.43154477270E+01  0.37761914432E+02  0.31528861180E+02  0.49559325641E+02  0.41800000000E+01 0.  1.
        -11    1    1    2    0    0  0.40991649208E+01  0.40014483644E+02 -0.39598319135E+02  0.56444565130E+02  0.00000000000E+00 0. -1.
         11    1    1    2    0    0 -0.48123592671E+02 -0.34253831911E+02 -0.99970673361E+02  0.11611778806E+03  0.00000000000E+00 0.  1.
</event>
<event>
 7    1  0.2679104E-009  0.1165701E+03  0.7561462E-02  0.1248865E+00
          2   -1    0    0  501    0  0.00000000000E+00  0.00000000000E+00  0.39419184378E+03  0.39419184378E+03  0.00000000000E+00 0. -1.
         -2   -1    0    0    0  501 -0.00000000000E+00 -0.00000000000E+00 -0.36523995096E+02  0.36523995096E+02  0.00000000000E+00 0.  1.
         25    2    1    2    0    0 -0.33301112858E+02 -0.39193535020E+02  0.22429730876E+03  0.26191913994E+03  0.12508899170E+03 0.  0.
          5    1    3    3  502    0  0.18511063117E+01  0.44135307859E+02  0.65225247215E+02  0.78886990490E+02  0.41800000000E+01 0. -1.
         -5    1    3    3    0  502 -0.35152219170E+02 -0.83328842878E+02  0.15907206154E+03  0.18303214945E+03  0.41800000000E+01 0. -1.
        -11    1    1    2    0    0  0.58957788343E+02  0.42050196430E+02  0.71547006298E+02  0.10179987199E+03  0.00000000000E+00 0.  1.
         11    1    1    2    0    0 -0.25656675485E+02 -0.28566614103E+01  0.61823533625E+02  0.66996826949E+02  0.00000000000E+00 0. -1.
</event>
<event>
 7    1  0.2679104E-009  0.8417846E+02  0.7561462E-02  0.1317595E+00
          2   -1    0    0  501    0  0.00000000000E+00  0.00000000000E+00  0.21349128148E+03  0.21349128148E+03  0.00000000000E+00 0. -1.
         -2   -1    0    0    0  501 -0.00000000000E+00 -0.00000000000E+00 -0.76421235659E+02  0.76421235659E+02  0.00000000000E+00 0.  1.
         25    2    1    2    0    0 -0.65414560735E+02  0.70803210491E+01  0.44154159245E+02  0.14807520516E+03  0.12508989129E+03 0.  0.
          5    1    3    3  502    0 -0.52026893802E+02 -0.27043186435E+02 -0.29445232751E+02  0.65746678570E+02  0.41800000000E+01 0. -1.
         -5    1    3    3    0  502 -0.13387666933E+02  0.34123507484E+02  0.73599391995E+02  0.82328526593E+02  0.41800000000E+01 0. -1.
        -11    1    1    2    0    0  0.51866055204E+02 -0.18390916195E+02  0.86048509886E+01  0.55698805566E+02  0.00000000000E+00 0.  1.
         11    1    1    2    0    0  0.13548505531E+02  0.11310595146E+02  0.84311035584E+02  0.86138506407E+02  0.00000000000E+00 0. -1.
</event>
<event>
 7    1  0.2679104E-009  0.1072327E+03  0.7561462E-02  0.1265782E+00
          1   -1    0    0  501    0  0.00000000000E+00  0.00000000000E+00  0.87933948740E+02  0.87933948740E+02  0.00000000000E+00 0. -1.
         -1   -1    0    0    0  501 -0.00000000000E+00 -0.00000000000E+00 -0.13395421098E+03  0.13395421098E+03  0.00000000000E+00 0.  1.
         25    2    1    2    0    0 -0.10249497069E+02 -0.29347672037E+01 -0.16370504911E+02  0.12660944137E+03  0.12509313396E+03 0.  0.
          5    1    3    3  502    0  0.19381485195E+02 -0.58547168271E+02 -0.14181622444E+02  0.63419269123E+02  0.41800000000E+01 0. -1.
         -5    1    3    3    0  502 -0.29630982263E+02  0.55612401067E+02 -0.21888824667E+01  0.63190172249E+02  0.41800000000E+01 0. -1.
        -11    1    1    2    0    0  0.30199213067E+02 -0.35250330559E+02 -0.81421134792E+01  0.47126131672E+02  0.00000000000E+00 0. -1.
         11    1    1    2    0    0 -0.19949715999E+02  0.38185097763E+02 -0.21507643850E+02  0.48152586676E+02  0.00000000000E+00 0.  1.
</event>
<event>
 7    1  0.2679104E-009  0.1129322E+03  0.7561462E-02  0.1255234E+00
          1   -1    0    0  501    0  0.00000000000E+00  0.00000000000E+00  0.29619108488E+03  0.29619108488E+03  0.00000000000E+00 0. -1.
         -1   -1    0    0    0  501 -0.00000000000E+00 -0.00000000000E+00 -0.45419507760E+02  0.45419507760E+02  0.00000000000E+00 0.  1.
         25    2    1    2    0    0  0.32333964931E+02  0.27185787732E+02  0.12405240049E+03  0.18116703308E+03  0.12509174019E+03 0.  0.
          5    1    3    3  502    0 -0.18527624195E+01 -0.47610687561E+02  0.60653529860E+02  0.77243338762E+02  0.41800000000E+01 0. -1.
         -5    1    3    3    0  502  0.34186727351E+02  0.74796475292E+02  0.63398870634E+02  0.10392369432E+03  0.41800000000E+01 0. -1.
        -11    1    1    2    0    0  0.27242708632E+02  0.54161987149E+01  0.21130688570E+02  0.34899948160E+02  0.00000000000E+00 0.  1.
         11    1    1    2    0    0 -0.59576673563E+02 -0.32601986446E+02  0.10558848805E+03  0.12554361140E+03  0.00000000000E+00 0. -1.
</event>
<event>
 7    1  0.2679104E-009  0.1061520E+03  0.7561462E-02  0.1267866E+00
         -2   -1    0    0    0  501 -0.00000000000E+00  0.00000000000E+00  0.11390467486E+02  0.11390467486E+02  0.00000000000E+00 0.  1.
          2   -1    0    0  501    0  0.00000000000E+00 -0.00000000000E+00 -0.10878349661E+04  0.10878349661E+04  0.00000000000E+00 0. -1.
         25    2    1    2    0    0 -0.14634911269E+02  0.13659969318E+02 -0.70375924253E+03  0.71507172681E+03  0.12509887154E+03 0.  0.
          5    1    3    3  502    0  0.53555572778E+01  0.67325186352E+02 -0.32346051174E+03  0.33046261176E+03  0.41800000000E+01 0.  1.
         -5    1    3    3    0  502 -0.19990468546E+02 -0.53665217034E+02 -0.38029873078E+03  0.38460911506E+03  0.41800000000E+01 0.  1.
        -11    1    1    2    0    0 -0.27584178992E+02  0.19291548839E+02 -0.83114866096E+02  0.89672357800E+02  0.00000000000E+00 0.  1.
         11    1    1    2    0    0  0.42219090261E+02 -0.32951518157E+02 -0.28957038997E+03  0.29448134895E+03  0.00000000000E+00 0. -1.
</event>
<event>
 7    1  0.2679104E-009  0.1164544E+03  0.7561462E-02  0.1249064E+00
          1   -1    0    0  501    0  0.00000000000E+00  0.00000000000E+00  0.48488240699E+03  0.48488240699E+03  0.00000000000E+00 0. -1.
         -1   -1    0    0    0  501 -0.00000000000E+00 -0.00000000000E+00 -0.28416337239E+02  0.28416337239E+02  0.00000000000E+00 0.  1.
         25    2    1    2    0    0 -0.29507992978E+01 -0.43739641587E+02  0.27956272076E+03  0.30939380984E+03  0.12508937311E+03 0.  0.
          5    1    3    3  502    0 -0.60647370525E+02 -0.42501923558E+02  0.14343237730E+03  0.16147704578E+03  0.41800000000E+01 0.  1.
         -5    1    3    3    0  502  0.57696571227E+02 -0.12377180289E+01  0.13613034346E+03  0.14791676405E+03  0.41800000000E+01 0.  1.
        -11    1    1    2    0    0  0.46450033640E+02  0.29828604450E+02  0.10708824704E+03  0.12047922610E+03  0.00000000000E+00 0.  1.
         11    1    1    2    0    0 -0.43499234343E+02  0.13911037137E+02  0.69815101952E+02  0.83425708287E+02  0.00000000000E+00 0. -1.
</event>
<event>
 7    1  0.2679104E-009  0.1357757E+03  0.7561462E-02  0.1219129E+00
          1   -1    0    0  501    0  0.00000000000E+00  0.00000000000E+00  0.73103479421E+02  0.73103479421E+02  0.00000000000E+00 0. -1.
         -1   -1    0    0    0  501 -0.00000000000E+00 -0.00000000000E+00 -0.33739946995E+03  0.33739946995E+03  0.00000000000E+00 0.  1.
         25    2    1    2    0    0 -0.11551841260E+02  0.82877621809E+02 -0.24070704238E+03  0.28388088071E+03  0.12508528670E+03 0.  0.
          5    1    3    3  502    0  0.46812744237E+02  0.74440645485E+02 -0.11378609652E+03  0.14386657320E+03  0.41800000000E+01 0.  1.
         -5    1    3    3    0  502 -0.58364585497E+02  0.84369763239E+01 -0.12692094587E+03  0.14001430752E+03  0.41800000000E+01 0.  1.
        -11    1    1    2    0    0  0.46465229141E+02 -0.16338889042E+02 -0.85939307961E+01  0.49998324579E+02  0.00000000000E+00 0.  1.
         11    1    1    2    0    0 -0.34913387881E+02 -0.66538732767E+02 -0.14995017355E+02  0.76623744081E+02  0.00000000000E+00 0. -1.
</event>
<event>
 7    1  0.2679104E-009  0.1050663E+03  0.7561462E-02  0.1269989E+00
          1   -1    0    0  501    0  0.00000000000E+00  0.00000000000E+00  0.58556799821E+03  0.58556799821E+03  0.00000000000E+00 0. -1.
         -1   -1    0    0    0  501 -0.00000000000E+00 -0.00000000000E+00 -0.24570070590E+02  0.24570070590E+02  0.00000000000E+00 0.  1.
         25    2    1    2    0    0  0.15520390258E+02  0.45979060066E+02  0.33552484727E+03  0.36135823982E+03  0.12509155795E+03 0.  0.
          5    1    3    3  502    0 -0.29111765668E+02  0.63970709432E+02  0.10915608813E+03  0.12989330445E+03  0.41800000000E+01 0.  1.
         -5    1    3    3    0  502  0.44632155926E+02 -0.17991649367E+02  0.22636875914E+03  0.23146493537E+03  0.41800000000E+01 0.  1.
        -11    1    1    2    0    0 -0.82191565897E+01 -0.67859468557E+02  0.99532197041E+02  0.12074402783E+03  0.00000000000E+00 0.  1.
         11    1    1    2    0    0 -0.73012336683E+01  0.21880408491E+02  0.12594088331E+03  0.12803580116E+03  0.00000000000E+00 0. -1.
</event>
<event>
 7    1  0.2679104E-009  0.8924361E+02  0.7561462E-02  0.1304694E+00
         -1   -1    0    0    0  501 -0.00000000000E+00  0.00000000000E+00  0.39714203304E+03  0.39714203304E+03  0.00000000000E+00 0.  1.
          1   -1    0    0  501    0  0.00000000000E+00 -0.00000000000E+00 -0.36922546950E+02  0.36922546950E+02  0.00000000000E+00 0. -1.
         25    2    1    2    0    0 -0.52770379786E+02  0.36442485258E+01  0.18494955335E+03  0.22945915126E+03  0.12508865370E+03 0.  0.
          5    1    3    3  502    0 -0.69335937500E+02  0.40953686200E+02  0.16539173181E+03  0.18400155976E+03  0.41800000000E+01 0.  1.
         -5    1    3    3    0  502  0.16565557714E+02 -0.37309437674E+02  0.19557821536E+02  0.45457591502E+02  0.41800000000E+01 0.  1.
        -11    1    1    2    0    0  0.21010479785E+02  0.87015539021E+01 -0.31522779682E+01  0.22958531257E+02  0.00000000000E+00 0. -1.
         11    1    1    2    0    0  0.31759900001E+02 -0.12345802428E+02  0.17842221071E+03  0.18164689747E+03  0.00000000000E+00 0.  1.
</event>
<event>
 7    1  0.2679104E-009  0.1083991E+03  0.7561462E-02  0.1263563E+00
          2   -1    0    0  501    0  0.00000000000E+00  0.00000000000E+00  0.93682637620E+03  0.93682637620E+03  0.00000000000E+00 0. -1.
         -2   -1    0    0    0  501 -0.00000000000E+00 -0.00000000000E+00 -0.13291480229E+02  0.13291480229E+02  0.00000000000E+00 0.  1.
         25    2    1    2    0    0 -0.22380231543E+02 -0.14319360479E+02  0.59506290249E+03  0.60864869048E+03  0.12508977436E+03 0.  0.
          5    1    3    3  502    0 -0.11849939406E+02 -0.68595556781E+02  0.39186476710E+03  0.39802165716E+03  0.41800000000E+01 0. -1.
         -5    1    3    3    0  502 -0.10530292137E+02  0.54276196302E+02  0.20319813539E+03  0.21062703332E+03  0.41800000000E+01 0. -1.
        -11    1    1    2    0    0 -0.90977904828E+01 -0.33306564330E+02  0.93788982128E+02  0.99942334312E+02  0.00000000000E+00 0.  1.
         11    1    1    2    0    0  0.31478022026E+02  0.47625924808E+02  0.23468301135E+03  0.24152683164E+03  0.00000000000E+00 0. -1.
</event>
<event>
 7    1  0.2679104E-009  0.8738201E+02  0.7561462E-02  0.1309318E+00
         -1   -1    0    0    0  501 -0.00000000000E+00  0.00000000000E+00  0.22311678950E+02  0.22311678950E+02  0.00000000000E+00 0.  1.
          1   -1    0    0  501    0  0.00000000000E+00 -0.00000000000E+00 -0.65935393248E+03  0.65935393248E+03  0.00000000000E+00 0. -1.
         25    2    1    2    0    0  0.49217120484E+02 -0.15115204846E+02 -0.40025423933E+03  0.42249447097E+03  0.12508927825E+03 0.  0.
          5    1    3    3  502    0  0.22694380513E+02  0.29939379084E+02 -0.34210193086E+03  0.34418396944E+03  0.41800000000E+01 0.  1.
         -5    1    3    3    0  502  0.26522739971E+02 -0.45054583929E+02 -0.58152308473E+02  0.78310501527E+02  0.41800000000E+01 0.  1.
        -11    1    1    2    0    0  0.15830148761E+02 -0.47060737751E+01 -0.44749200629E+01  0.17110395955E+02  0.00000000000E+00 0.  1.
         11    1    1    2    0    0 -0.65047269245E+02  0.19821278621E+02 -0.23231309414E+03  0.24206074450E+03  0.00000000000E+00 0. -1.
</event>
<event>
 7    1  0.2679104E-009  0.9020316E+02  0.7561462E-02  0.1302360E+00
          2   -1    0    0  501    0  0.00000000000E+00  0.00000000000E+00  0.38018716489E+02  0.38018716489E+02  0.00000000000E+00 0. -1.
         -2   -1    0    0    0  501 -0.00000000000E+00 -0.00000000000E+00 -0.39119261783E+03  0.39119261783E+03  0.00000000000E+00 0.  1.
         25    2    1    2    0    0 -0.35382406433E+02 -0.24383625704E+02 -0.14052615024E+03  0.19297842262E+03  0.12508635740E+03 0.  0.
          5    1    3    3  502    0 -0.25711939906E+01 -0.40958482676E+02 -0.14935127032E+03  0.15494348224E+03  0.41800000000E+01 0. -1.
         -5    1    3    3    0  502 -0.32811212442E+02  0.16574856972E+02  0.88251200794E+01  0.38034940384E+02  0.41800000000E+01 0. -1.
        -11    1    1    2    0    0  0.22455770615E+02  0.60108586809E+02 -0.11955033000E+03  0.13568192674E+03  0.00000000000E+00 0.  1.
         11    1    1    2    0    0  0.12926635817E+02 -0.35724961105E+02 -0.93097421097E+02  0.10055098495E+03  0.00000000000E+00 0. -1.
</event>
<event>
 7    1  0.2679104E-009  0.2050345E+03  0.7561462E-02  0.1145560E+00
         -1   -1    0    0    0  501 -0.00000000000E+00  0.00000000000E+00  0.62045165114E+02  0.62045165114E+02  0.00000000000E+00 0.  1.
          1   -1    0    0  501    0  0.00000000000E+00 -0.00000000000E+00 -0.79730542555E+03  0.79730542555E+03  0.00000000000E+00 0. -1.
         25    2    1    2    0    0 -0.13420595152E+02  0.18436437867E+03 -0.49317386107E+03  0.54133057942E+03  0.12509197607E+03 0.  0.
          5    1    3    3  502    0  0.31762396872E+02  0.13524413345E+03 -0.22107448233E+03  0.26113449528E+03  0.41800000000E+01 0.  1.
         -5    1    3    3    0  502 -0.45182992024E+02  0.49120245228E+02 -0.27209937874E+03  0.28019608414E+03  0.41800000000E+01 0.  1.
        -11    1    1    2    0    0 -0.25022788240E+02 -0.15174294725E+03 -0.16191569917E+03  0.22331313353E+03  0.00000000000E+00 0. -1.
         11    1    1    2    0    0  0.38443383391E+02 -0.32621431425E+02 -0.80170700196E+02  0.94706877706E+02  0.00000000000E+00 0.  1.
</event>
<event>
 7    1  0.2780821E-009  0.1239893E+03  0.7561462E-02  0.1236657E+00
         -2   -1    0    0    0  501 -0.00000000000E+00  0.00000000000E+00  0.19420994237E+02  0.19420994237E+02  0.00000000000E+00 0.  1.
          2   -1    0    0  501    0  0.00000000000E+00 -0.00000000000E+00 -0.90463734616E+03  0.90463734616E+03  0.00000000000E+00 0. -1.
         25    2    1    2    0    0  0.63952738150E+02 -0.40811386697E+02 -0.51794686515E+03  0.53820991141E+03  0.12508169976E+03 0.  0.
          5    1    3    3  502    0  0.83210822286E+02 -0.59725814383E+02 -0.27072286605E+03  0.28948153042E+03  0.41800000000E+01 0.  1.
         -5    1    3    3    0  502 -0.19258084136E+02  0.18914427685E+02 -0.24722399910E+03  0.24872838099E+03  0.41800000000E+01 0.  1.
        -11    1    1    2    0    0 -0.60842113896E+02 -0.14667996937E+02 -0.18526605122E+03  0.19555158576E+03  0.00000000000E+00 0.  1.
         11    1    1    2    0    0 -0.31106242538E+01  0.55479383635E+02 -0.18200343554E+03  0.19029684323E+03  0.00000000000E+00 0. -1.
</event>
<event>
 7    1  0.2679104E-009  0.1165336E+03  0.7561462E-02  0.1248928E+00
          2   -1    0    0  501    0  0.00000000000E+00  0.00000000000E+00  0.11085789229E+04  0.11085789229E+04  0.00000000000E+00 0. -1.
         -2   -1    0    0    0  501 -0.00000000000E+00 -0.00000000000E+00 -0.15464530467E+02  0.15464530467E+02  0.00000000000E+00 0.  1.
         25    2    1    2    0    0 -0.25778623012E+02  0.68878637605E+02  0.62094614712E+03  0.63767487316E+03  0.12508525937E+03 0.  0.
          5    1    3    3  502    0  0.11278426940E+02  0.88036537737E+02  0.53167986792E+03  0.53905341966E+03  0.41800000000E+01 0.  1.
         -5    1    3    3    0  502 -0.37057049953E+02 -0.19157900132E+02  0.89266279197E+02  0.98621453500E+02  0.41800000000E+01 0.  1.
        -11    1    1    2    0    0  0.21869284261E+02  0.94770277129E+01  0.35828693417E+02  0.43032254419E+02  0.00000000000E+00 0. -1.
         11    1    1    2    0    0  0.39093387508E+01 -0.78355665318E+02  0.43633955191E+03  0.44333632580E+03  0.00000000000E+00 0.  1.
</event>
<event>
 7    1  0.2679104E-009  0.1024363E+03  0.7561462E-02  0.1275255E+00
         -1   -1    0    0    0  501 -0.00000000000E+00  0.00000000000E+00  0.34431892754E+02  0.34431892754E+02  0.00000000000E+00 0.  1.
          1   -1    0    0  501    0  0.00000000000E+00 -0.00000000000E+00 -0.36227499508E+03  0.36227499508E+03  0.00000000000E+00 0. -1.
         25    2    1    2    0    0 -0.23374312615E+02 -0.16114453050E+02 -0.19489442525E+03  0.23331706174E+03  0.12508788997E+03 0.  0.
          5    1    3    3  502    0 -0.46076949891E+02 -0.50621303187E+02 -0.17360688442E+03  0.18666125566E+03  0.41800000000E+01 0.  1.
         -5    1    3    3    0  502  0.22702637276E+02  0.34506850137E+02 -0.21287540827E+02  0.46655806071E+02  0.41800000000E+01 0.  1.
        -11    1    1    2    0    0  0.64339855920E+00 -0.36998785101E+02 -0.46785412979E+02  0.59650640636E+02  0.00000000000E+00 0. -1.
         11    1    1    2    0    0  0.22730914056E+02  0.53113238151E+02 -0.86163264102E+02  0.10373918547E+03  0.00000000000E+00 0.  1.
</event>
<event>
 7    1  0.2679104E-009  0.1103066E+03  0.7561462E-02  0.1260003E+00
          2   -1    0    0  501    0  0.00000000000E+00  0.00000000000E+00  0.17034002898E+04  0.17034002898E+04  0.00000000000E+00 0. -1.
         -2   -1    0    0    0  501 -0.00000000000E+00 -0.00000000000E+00 -0.16522176876E+02  0.16522176876E+02  0.00000000000E+00 0.  1.
         25    2    1    2    0    0  0.28283000946E+02 -0.62292116243E+02  0.14615300300E+04  0.14684674870E+04  0.12508595310E+03 0.  0.
          5    1    3    3  502    0  0.48371939753E+02 -0.72523933338E+02  0.57002176088E+03  0.57666441345E+03  0.41800000000E+01 0. -1.
         -5    1    3    3    0  502 -0.20088938807E+02  0.10231817095E+02  0.89150826916E+03  0.89180307351E+03  0.41800000000E+01 0. -1.
        -11    1    1    2    0    0 -0.20500178496E+02  0.84461077184E+02  0.19093791816E+03  0.20978851129E+03  0.00000000000E+00 0. -1.
         11    1    1    2    0    0 -0.77828224506E+01 -0.22168960941E+02  0.34410164703E+02  0.41666468405E+02  0.00000000000E+00 0.  1.
</event>
<event>
 7    1  0.2679104E-009  0.1202970E+03  0.7561462E-02  0.1242608E+00
         -1   -1    0    0    0  501 -0.00000000000E+00  0.00000000000E+00  0.24253404141E+02  0.24253404141E+02  0.00000000000E+00 0.  1.
          1   -1    0    0  501    0  0.00000000000E+00 -0.00000000000E+00 -0.10280182253E+04  0.10280182253E+04  0.00000000000E+00 0. -1.
         25    2    1    2    0    0 -0.18392364749E+02 -0.11088644098E+03 -0.61942986137E+03  0.64185176137E+03  0.12508496529E+03 0.  0.
          5    1    3    3  502    0 -0.47490549165E+01 -0.89803982002E+02 -0.60678454748E+03  0.61342666078E+03  0.41800000000E+01 0. -1.
         -5    1    3    3    0  502 -0.13643309833E+02 -0.21082458979E+02 -0.12645313894E+02  0.28425100585E+02  0.41800000000E+01 0. -1.
        -11    1    1    2    0    0  0.38096217394E+02  0.68925948148E+02 -0.13077446098E+03  0.15265669901E+03  0.00000000000E+00 0.  1.
         11    1    1    2    0    0 -0.19703852645E+02  0.41960492832E+02 -0.25356049876E+03  0.25776316902E+03  0.00000000000E+00 0. -1.
</event>
<event>
 7    1  0.2679104E-009  0.1207104E+03  0.7561462E-02  0.1241930E+00
          3   -1    0    0  501    0  0.00000000000E+00  0.00000000000E+00  0.17458744596E+02  0.17458744596E+02  0.00000000000E+00 0. -1.
         -3   -1    0    0    0  501 -0.00000000000E+00 -0.00000000000E+00 -0.10437197000E+04  0.10437197000E+04  0.00000000000E+00 0.  1.
         25    2    1    2    0    0  0.51585786291E+02 -0.51683779506E+02 -0.45483369392E+03  0.47733563230E+03  0.12507321986E+03 0.  0.
          5    1    3    3  502    0  0.58405648072E+02  0.10442838769E+02 -0.35151462415E+03  0.35651125649E+03  0.41800000000E+01 0. -1.
         -5    1    3    3    0  502 -0.68198617810E+01 -0.62126618275E+02 -0.10331906977E+03  0.12082437581E+03  0.41800000000E+01 0. -1.
        -11    1    1    2    0    0 -0.61550820305E+02 -0.49960804276E+01 -0.32128141171E+03  0.32716236001E+03  0.00000000000E+00 0.  1.
         11    1    1    2    0    0  0.99650340146E+01  0.56679859933E+02 -0.25014584982E+03  0.25668045233E+03  0.00000000000E+00 0. -1.
</event>
<event>
 7    1  0.2679104E-009  0.1502765E+03  0.7561462E-02  0.1200134E+00
         -2   -1    0    0    0  501 -0.00000000000E+00  0.00000000000E+00  0.39629058239E+02  0.39629058239E+02  0.00000000000E+00 0.  1.
          2   -1    0    0  501    0  0.00000000000E+00 -0.00000000000E+00 -0.75741024289E+03  0.75741024289E+03  0.00000000000E+00 0. -1.
         25    2    1    2    0    0  0.67800167007E+02  0.10926581740E+03 -0.46932979469E+03  0.50244810642E+03  0.12509101473E+03 0.  0.
          5    1    3    3  502    0  0.52881828641E+02  0.26979651878E+02 -0.35922772397E+03  0.36412418140E+03  0.41800000000E+01 0. -1.
         -5    1    3    3    0  502  0.14918338366E+02  0.82286165520E+02 -0.11010207072E+03  0.13832392502E+03  0.41800000000E+01 0. -1.
        -11    1    1    2    0    0 -0.22264285281E+02  0.13726946169E+02 -0.30071379433E+02  0.39854928317E+02  0.00000000000E+00 0.  1.
         11    1    1    2    0    0 -0.45535881726E+02 -0.12299276357E+03 -0.21838001053E+03  0.25473626639E+03  0.00000000000E+00 0. -1.
</event>
<event>
 7    1  0.2679104E-009  0.1138209E+03  0.7561462E-02  0.1253653E+00
         -4   -1    0    0    0  501 -0.00000000000E+00  0.00000000000E+00  0.51718629477E+02  0.51718629477E+02  0.00000000000E+00 0. -1.
          4   -1    0    0  501    0  0.00000000000E+00 -0.00000000000E+00 -0.39873799183E+03  0.39873799183E+03  0.00000000000E+00 0.  1.
         25    2    1    2    0    0  0.44160419824E+02  0.54292758353E+02 -0.28058560635E+03  0.31507792202E+03  0.12509183892E+03 0.  0.
          5    1    3    3  502    0  0.22112091998E+02  0.76897677766E+02 -0.84595714242E+02  0.11651654272E+03  0.41800000000E+01 0. -1.
         -5    1    3    3    0  502  0.22048327826E+02 -0.22604919412E+02 -0.19598989211E+03  0.19856137931E+03  0.41800000000E+01 0. -1.
        -11    1    1    2    0    0 -0.18248016801E+02  0.25735037724E+02 -0.68161438801E+01  0.32276029825E+02  0.00000000000E+00 0.  1.
         11    1    1    2    0    0 -0.25912403023E+02 -0.80027796077E+02 -0.59617612122E+02  0.10310266946E+03  0.00000000000E+00 0. -1.
</event>
<event>
 7    1  0.2679104E-009  0.1062812E+03  0.7561462E-02  0.1267616E+00
          2   -1    0    0  501    0  0.00000000000E+00  0.00000000000E+00  0.18448463150E+04  0.18448463150E+04  0.00000000000E+00 0. -1.
         -2   -1    0    0    0  501 -0.00000000000E+00 -0.00000000000E+00 -0.18764471690E+02  0.18764471690E+02  0.00000000000E+00 0.  1.
         25    2    1    2    0    0  0.12207806423E+02 -0.76808796061E+02  0.16048513379E+04  0.16115970801E+04  0.12509480452E+03 0.  0.
          5    1    3    3  502    0 -0.91728324920E+01 -0.70447195831E+02  0.38423050727E+03  0.39076527913E+03  0.41800000000E+01 0.  1.
         -5    1    3    3    0  502  0.21380638915E+02 -0.63616002294E+01  0.12206208307E+04  0.12208318010E+04  0.41800000000E+01 0.  1.
        -11    1    1    2    0    0  0.38668048173E+02  0.24743269991E+02  0.64135493948E+02  0.78872104975E+02  0.00000000000E+00 0.  1.
         11    1    1    2    0    0 -0.50875854596E+02  0.52065526070E+02  0.15709501146E+03  0.17314160162E+03  0.00000000000E+00 0. -1.
</event>
<event>
 7    1  0.2679104E-009  0.1473180E+03  0.7561462E-02  0.1203808E+00
         -2   -1    0    0    0  501 -0.00000000000E+00  0.00000000000E+00  0.13421009222E+04  0.13421009222E+04  0.00000000000E+00 0.  1.
          2   -1    0    0  501    0  0.00000000000E+00 -0.00000000000E+00 -0.19432472130E+02  0.19432472130E+02  0.00000000000E+00 0. -1.
         25    2    1    2    0    0  0.32614004291E+02  0.11417285204E+03  0.83317092385E+03  0.85083536620E+03  0.12509164089E+03 0.  0.
          5    1    3    3  502    0 -0.36711599715E+02  0.90691632086E+01  0.32775544532E+03  0.32995620257E+03  0.41800000000E+01 0.  1.
         -5    1    3    3    0  502  0.69325604006E+02  0.10510368884E+03  0.50541547852E+03  0.52087916364E+03  0.41800000000E+01 0.  1.
        -11    1    1    2    0    0 -0.44244346113E+02 -0.56412261483E+02  0.37646526132E+03  0.38323099873E+03  0.00000000000E+00 0.  1.
         11    1    1    2    0    0  0.11630341822E+02 -0.57760590561E+02  0.11303226490E+03  0.12746702939E+03  0.00000000000E+00 0. -1.
</event>
<event>
 7    1  0.2679104E-009  0.9200684E+02  0.7561462E-02  0.1298063E+00
         -2   -1    0    0    0  501 -0.00000000000E+00  0.00000000000E+00  0.13453383650E+02  0.13453383650E+02  0.00000000000E+00 0. -1.
          2   -1    0    0  501    0  0.00000000000E+00 -0.00000000000E+00 -0.12856992498E+04  0.12856992498E+04  0.00000000000E+00 0.  1.
         25    2    1    2    0    0 -0.18859834902E+02 -0.43616732766E+01 -0.10427575826E+04  0.10504120822E+04  0.12508976308E+03 0.  0.
          5    1    3    3  502    0  0.29470631407E+02  0.19001633492E+02 -0.83641334526E+03  0.83715848961E+03  0.41800000000E+01 0. -1.
         -5    1    3    3    0  502 -0.48330466309E+02 -0.23363306769E+02 -0.20634423732E+03  0.21325359259E+03  0.41800000000E+01 0. -1.
        -11    1    1    2    0    0 -0.99787794334E+01  0.44403209522E+02 -0.91474972792E+02  0.10217089459E+03  0.00000000000E+00 0.  1.
         11    1    1    2    0    0  0.28838614335E+02 -0.40041536245E+02 -0.13801331078E+03  0.14656965666E+03  0.00000000000E+00 0. -1.
</event>
<event>
 7    1  0.2679104E-009  0.1061678E+03  0.7561462E-02  0.1267836E+00
         -2   -1    0    0    0  501 -0.00000000000E+00  0.00000000000E+00  0.58259431639E+03  0.58259431639E+03  0.00000000000E+00 0.  1.
          2   -1    0    0  501    0  0.00000000000E+00 -0.00000000000E+00 -0.37537584493E+02  0.37537584493E+02  0.00000000000E+00 0. -1.
         25    2    1    2    0    0  0.79091820317E+02 -0.30258834154E+02  0.40841251040E+03  0.43545706763E+03  0.12510382094E+03 0.  0.
          5    1    3    3  502    0 -0.11662456243E+02 -0.34545351576E+02  0.25091286931E+03  0.25358259914E+03  0.41800000000E+01 0. -1.
         -5    1    3    3    0  502  0.90754276560E+02  0.42865174220E+01  0.15749964109E+03  0.18187446849E+03  0.41800000000E+01 0. -1.
        -11    1    1    2    0    0 -0.19160169847E+02  0.75953427272E+01  0.11531779372E+03  0.11714518722E+03  0.00000000000E+00 0.  1.
         11    1    1    2    0    0 -0.59931650470E+02  0.22663491427E+02  0.21326427775E+02  0.67529646033E+02  0.00000000000E+00 0. -1.
</event>
<event>
 7    1  0.2679104E-009  0.9366393E+02  0.7561462E-02  0.1294214E+00
          1   -1    0    0  501    0  0.00000000000E+00  0.00000000000E+00  0.26107689333E+03  0.26107689333E+03  0.00000000000E+00 0. -1.
         -1   -1    0    0    0  501 -0.00000000000E+00 -0.00000000000E+00 -0.69733406604E+02  0.69733406604E+02  0.00000000000E+00 0.  1.
         25    2    1    2    0    0 -0.31402911042E+02 -0.48341603520E+02  0.41259296537E+02  0.14378104219E+03  0.12509038768E+03 0.  0.
          5    1    3    3  502    0 -0.51365610852E+02  0.13624934000E+02 -0.17375379295E+02  0.56066398229E+02  0.41800000000E+01 0. -1.
         -5    1    3    3    0  502  0.19962699811E+02 -0.61966537520E+02  0.58634675832E+02  0.87714643965E+02  0.41800000000E+01 0. -1.
        -11    1    1    2    0    0  0.39669352673E+02  0.34067512465E+02  0.15962664347E+03  0.16797296882E+03  0.00000000000E+00 0. -1.
         11    1    1    2    0    0 -0.82664416315E+01  0.14274091055E+02 -0.95424532866E+01  0.19056288920E+02  0.00000000000E+00 0.  1.
</event>
<event>
 7    1  0.2679104E-009  0.1032964E+03  0.7561462E-02  0.1273513E+00
         -1   -1    0    0    0  501 -0.00000000000E+00  0.00000000000E+00  0.57928086838E+02  0.57928086838E+02  0.00000000000E+00 0.  1.
          1   -1    0    0  501    0  0.00000000000E+00 -0.00000000000E+00 -0.31334794674E+03  0.31334794674E+03  0.00000000000E+00 0. -1.
         25    2    1    2    0    0  0.69287060935E+02  0.38520679506E+02 -0.16196348917E+03  0.21946574011E+03  0.12509396345E+03 0.  0.
          5    1    3    3  502    0  0.74199495994E+01  0.54050643244E+02 -0.11397088318E+02  0.55891803596E+02  0.41800000000E+01 0. -1.
         -5    1    3    3    0  502  0.61867111336E+02 -0.15529963737E+02 -0.15056640086E+03  0.16357393651E+03  0.41800000000E+01 0. -1.
        -11    1    1    2    0    0 -0.27960265062E+02 -0.37288341931E+02  0.31653963957E+01  0.46714201274E+02  0.00000000000E+00 0.  1.
         11    1    1    2    0    0 -0.41326795873E+02 -0.12323375752E+01 -0.96621767128E+02  0.10509609220E+03  0.00000000000E+00 0. -1.
</event>
<event>
 7    1  0.2679104E-009  0.1092131E+03  0.7561462E-02  0.1262034E+00
          1   -1    0    0  501    0  0.00000000000E+00  0.00000000000E+00  0.32672932524E+02  0.32672932524E+02  0.00000000000E+00 0. -1.
         -1   -1    0    0    0  501 -0.00000000000E+00 -0.00000000000E+00 -0.40321289637E+03  0.40321289637E+03  0.00000000000E+00 0.  1.
         25    2    1    2    0    0  0.38354171315E+02  0.47798746699E+01 -0.21970589227E+03  0.25575903736E+03  0.12509243156E+03 0.  0.
          5    1    3    3  502    0 -0.62128742700E+01  0.59384001761E+02 -0.90113918717E+02  0.10818063698E+03  0.41800000000E+01 0. -1.
         -5    1    3    3    0  502  0.44567045585E+02 -0.54604127091E+02 -0.12959197356E+03  0.14757840038E+03  0.41800000000E+01 0. -1.
        -11    1    1    2    0    0 -0.14388994174E+02 -0.41608280693E+02 -0.11593940527E+03  0.12401708700E+03  0.00000000000E+00 0.  1.
         11    1    1    2    0    0 -0.23965177141E+02  0.36828406023E+02 -0.34894666304E+02  0.56109704526E+02  0.00000000000E+00 0. -1.
</event>
<event>
 7    1  0.2679104E-009  0.1547303E+03  0.7561462E-02  0.1194778E+00
         -2   -1    0    0    0  501 -0.00000000000E+00  0.00000000000E+00  0.27617514319E+02  0.27617514319E+02  0.00000000000E+00 0. -1.
          2   -1    0    0  501    0  0.00000000000E+00 -0.00000000000E+00 -0.88686512895E+03  0.88686512895E+03  0.00000000000E+00 0.  1.
         25    2    1    2    0    0  0.78878098921E+02  0.79297553552E+02 -0.51072554875E+03  0.53758476527E+03  0.12508771808E+03 0.  0.
          5    1    3    3  502    0 -0.19837291283E+02  0.64766694818E+02 -0.19918214203E+03  0.21042633149E+03  0.41800000000E+01 0. -1.
         -5    1    3    3    0  502  0.98715390204E+02  0.14530858734E+02 -0.31154340672E+03  0.32715843378E+03  0.41800000000E+01 0. -1.
        -11    1    1    2    0    0 -0.73699517538E+02 -0.12526008793E+02 -0.15434946662E+03  0.17150008055E+03  0.00000000000E+00 0.  1.
         11    1    1    2    0    0 -0.51785813829E+01 -0.66771544759E+02 -0.19417259926E+03  0.20539779745E+03  0.00000000000E+00 0. -1.
</event>
<event>
 7    1  0.2679104E-009  0.1662354E+03  0.7561462E-02  0.1181832E+00
          1   -1    0    0  501    0  0.00000000000E+00  0.00000000000E+00  0.59636024830E+03  0.59636024830E+03  0.00000000000E+00 0. -1.
         -1   -1    0    0    0  501 -0.00000000000E+00 -0.00000000000E+00 -0.53275521630E+02  0.53275521630E+02  0.00000000000E+00 0.  1.
         25    2    1    2    0    0 -0.12898091868E+03 -0.64610966928E+01  0.38467236928E+03  0.42461503801E+03  0.12508907091E+03 0.  0.
          5    1    3    3  502    0  0.12581882265E+02  0.27084184992E+02  0.37162220618E+02  0.47857704492E+02  0.41800000000E+01 0. -1.
         -5    1    3    3    0  502 -0.14156280094E+03 -0.33545281685E+02  0.34751014866E+03  0.37675733351E+03  0.41800000000E+01 0. -1.
        -11    1    1    2    0    0  0.11756635637E+03  0.37740518241E+02  0.10502102477E+03  0.16209753394E+03  0.00000000000E+00 0. -1.
         11    1    1    2    0    0  0.11414562310E+02 -0.31279421548E+02  0.53391332623E+02  0.62923197983E+02  0.00000000000E+00 0.  1.
</event>
<event>
 7    1  0.2679104E-009  0.1237236E+03  0.7561462E-02  0.1237078E+00
          2   -1    0    0  501    0  0.00000000000E+00  0.00000000000E+00  0.91930320056E+02  0.91930320056E+02  0.00000000000E+00 0. -1.
         -2   -1    0    0    0  501 -0.00000000000E+00 -0.00000000000E+00 -0.22271794979E+03  0.22271794979E+03  0.00000000000E+00 0.  1.
         25    2    1    2    0    0 -0.67734274630E+02 -0.48472948009E+02 -0.24449590881E+02  0.15225741720E+03  0.12508788890E+03 0.  0.
          5    1    3    3  502    0 -0.42992034194E+02  0.32054759169E+02  0.19415734449E+02  0.57186237275E+02  0.41800000000E+01 0. -1.
         -5    1    3    3    0  502 -0.24742240437E+02 -0.80527707178E+02 -0.43865325331E+02  0.95071179920E+02  0.41800000000E+01 0. -1.
        -11    1    1    2    0    0  0.36909724754E+02 -0.14137225316E+02 -0.57143236389E+01  0.39935478158E+02  0.00000000000E+00 0. -1.
         11    1    1    2    0    0  0.30824549877E+02  0.62610173325E+02 -0.10062371522E+03  0.12245537450E+03  0.00000000000E+00 0.  1.
</event>
<event>
 7    1  0.2679104E-009  0.1651235E+03  0.7561462E-02  0.1183031E+00
          2   -1    0    0  501    0  0.00000000000E+00  0.00000000000E+00  0.10005679422E+04  0.10005679422E+04  0.00000000000E+00 0. -1.
         -2   -1    0    0    0  501 -0.00000000000E+00 -0.00000000000E+00 -0.27731158699E+02  0.27731158699E+02  0.00000000000E+00 0.  1.
         25    2    1    2    0    0 -0.10374585011E+03  0.78634579686E+02  0.53793537440E+03  0.56742232859E+03  0.12508810261E+03 0.  0.
          5    1    3    3  502    0 -0.12824757634E+03  0.41798625059E+02  0.43059434031E+03  0.45124663346E+03  0.41800000000E+01 0.  1.
         -5    1    3    3    0  502  0.24501726230E+02  0.36835954627E+02  0.10734103409E+03  0.11617569514E+03  0.41800000000E+01 0.  1.
        -11    1    1    2    0    0  0.95228654396E+02 -0.27643325581E+02  0.31679307076E+03  0.33194954398E+03  0.00000000000E+00 0. -1.
         11    1    1    2    0    0  0.85171957125E+01 -0.50991254105E+02  0.11810833831E+03  0.12892722830E+03  0.00000000000E+00 0.  1.
</event>
<event>
 7    1  0.2679104E-009  0.6435978E+02  0.7561462E-02  0.1380396E+00
         -2   -1    0    0    0  501 -0.00000000000E+00  0.00000000000E+00  0.17649978763E+02  0.17649978763E+02  0.00000000000E+00 0.  1.
          2   -1    0    0  501    0  0.00000000000E+00 -0.00000000000E+00 -0.75632366159E+03  0.75632366159E+03  0.00000000000E+00 0. -1.
         25    2    1    2    0    0 -0.37100309717E+02 -0.17268981122E+02 -0.42018682683E+03  0.44031702719E+03  0.12508982492E+03 0.  0.
          5    1    3    3  502    0 -0.28205779223E+02  0.48166120926E+01 -0.11827846727E+02  0.31243176724E+02  0.41800000000E+01 0.  1.
         -5    1    3    3    0  502 -0.88945304940E+01 -0.22085593215E+02 -0.40835898011E+03  0.40907385047E+03  0.41800000000E+01 0.  1.
        -11    1    1    2    0    0  0.11613576591E+02 -0.24263236290E+02 -0.26956793568E+02  0.38082128564E+02  0.00000000000E+00 0.  1.
         11    1    1    2    0    0  0.25486733126E+02  0.41532217412E+02 -0.29153006243E+03  0.29557448460E+03  0.00000000000E+00 0. -1.
</event>
<event>
 7    1  0.2679104E-009  0.1528350E+03  0.7561462E-02  0.1197032E+00
         -1   -1    0    0    0  501 -0.00000000000E+00  0.00000000000E+00  0.46989990185E+02  0.46989990185E+02  0.00000000000E+00 0.  1.
          1   -1    0    0  501    0  0.00000000000E+00 -0.00000000000E+00 -0.79062514587E+03  0.79062514587E+03  0.00000000000E+00 0. -1.
         25    2    1    2    0    0  0.73201930222E+02  0.93518928904E+02 -0.61702760350E+03  0.64068251852E+03  0.12508682346E+03 0.  0.
          5    1    3    3  502    0  0.26747369251E+02 -0.25218445447E+02 -0.72302516794E+02  0.81218951528E+02  0.41800000000E+01 0.  1.
         -5    1    3    3    0  502  0.46454560971E+02  0.11873737435E+03 -0.54472508671E+03  0.55946356699E+03  0.41800000000E+01 0.  1.
        -11    1    1    2    0    0  0.36400885893E+01 -0.55046914165E+02 -0.17149303531E+02  0.57771200573E+02  0.00000000000E+00 0.  1.
         11    1    1    2    0    0 -0.76842018811E+02 -0.38472014739E+02 -0.10945824866E+03  0.13916141697E+03  0.00000000000E+00 0. -1.
</event>
<event>
 7    1  0.2679104E-009  0.1110404E+03  0.7561462E-02  0.1258655E+00
          2   -1    0    0  501    0  0.00000000000E+00  0.00000000000E+00  0.11159398740E+04  0.11159398740E+04  0.00000000000E+00 0. -1.
         -2   -1    0    0    0  501 -0.00000000000E+00 -0.00000000000E+00 -0.11564039104E+02  0.11564039104E+02  0.00000000000E+00 0.  1.
         25    2    1    2    0    0 -0.24519558753E+02  0.77043370346E+01  0.72461079883E+03  0.73577780049E+03  0.12509035272E+03 0.  0.
          5    1    3    3  502    0 -0.14363450558E+02 -0.58038831059E+02  0.39181986018E+03  0.39637745881E+03  0.41800000000E+01 0.  1.
         -5    1    3    3    0  502 -0.10156108196E+02  0.65743168094E+02  0.33279093865E+03  0.33940034168E+03  0.41800000000E+01 0.  1.
        -11    1    1    2    0    0  0.18925726360E+02  0.41687981164E+02  0.16086680606E+03  0.16725489585E+03  0.00000000000E+00 0. -1.
         11    1    1    2    0    0  0.55938323932E+01 -0.49392318199E+02  0.21889822998E+03  0.22447121674E+03  0.00000000000E+00 0.  1.
</event>
<event>
 7    1  0.2679104E-009  0.1622210E+03  0.7561462E-02  0.1186212E+00
          1   -1    0    0  501    0  0.00000000000E+00  0.00000000000E+00  0.50548935386E+03  0.50548935386E+03  0.00000000000E+00 0. -1.
         -1   -1    0    0    0  501 -0.00000000000E+00 -0.00000000000E+00 -0.54568283742E+02  0.54568283742E+02  0.00000000000E+00 0.  1.
         25    2    1    2    0    0 -0.14500625559E+02  0.12272763829E+03  0.27046185635E+03  0.32260321468E+03  0.12510346532E+03 0.  0.
          5    1    3    3  502    0 -0.65687648652E+02  0.59655209023E+02  0.18144046710E+03  0.20201912447E+03  0.41800000000E+01 0.  1.
         -5    1    3    3    0  502  0.51187023093E+02  0.63072429269E+02  0.89021389252E+02  0.12058409021E+03  0.41800000000E+01 0.  1.
        -11    1    1    2    0    0  0.30246658717E+02  0.29392305553E+00  0.38077566006E+02  0.48629700670E+02  0.00000000000E+00 0.  1.
         11    1    1    2    0    0 -0.15746033158E+02 -0.12302156135E+03  0.14238164776E+03  0.18882472226E+03  0.00000000000E+00 0. -1.
</event>
<event>
 7    1  0.2679104E-009  0.1133739E+03  0.7561462E-02  0.1254446E+00
         -2   -1    0    0    0  501 -0.00000000000E+00  0.00000000000E+00  0.32285553075E+02  0.32285553075E+02  0.00000000000E+00 0.  1.
          2   -1    0    0  501    0  0.00000000000E+00 -0.00000000000E+00 -0.50078010365E+03  0.50078010365E+03  0.00000000000E+00 0. -1.
         25    2    1    2    0    0  0.62619135543E+02  0.29394704121E+02 -0.25856425448E+03  0.29544832112E+03  0.12509609104E+03 0.  0.
          5    1    3    3  502    0 -0.28359352957E+02  0.95055660445E+01 -0.13176168800E+02  0.32949848410E+02  0.41800000000E+01 0. -1.
         -5    1    3    3    0  502  0.90978488500E+02  0.19889138076E+02 -0.24538808568E+03  0.26249847271E+03  0.41800000000E+01 0. -1.
        -11    1    1    2    0    0 -0.22385926031E+02 -0.52399141615E+02 -0.15827078153E+03  0.16821545712E+03  0.00000000000E+00 0. -1.
         11    1    1    2    0    0 -0.40233209512E+02  0.23004437495E+02 -0.51659514561E+02  0.69401878482E+02  0.00000000000E+00 0.  1.
</event>
<event>
 7    1  0.2679104E-009  0.1142162E+03  0.7561462E-02  0.1252956E+00
         -1   -1    0    0    0  501 -0.00000000000E+00  0.00000000000E+00  0.23237315007E+02  0.23237315007E+02  0.00000000000E+00 0.  1.
          1   -1    0    0  501    0  0.00000000000E+00 -0.00000000000E+00 -0.61776737235E+03  0.61776737235E+03  0.00000000000E+00 0. -1.
         25    2    1    2    0    0 -0.17494338311E+02 -0.44687982721E+02 -0.37602333728E+03  0.39917803189E+03  0.12508590366E+03 0.  0.
          5    1    3    3  502    0 -0.68255257575E+02 -0.87695854295E+01 -0.23699615789E+03  0.24682045513E+03  0.41800000000E+01 0. -1.
         -5    1    3    3    0  502  0.50760919264E+02 -0.35918397291E+02 -0.13902717939E+03  0.15235757676E+03  0.41800000000E+01 0. -1.
        -11    1    1    2    0    0  0.38078666904E+02 -0.94604318436E+01 -0.13205725165E+03  0.13776284825E+03  0.00000000000E+00 0. -1.
         11    1    1    2    0    0 -0.20584328592E+02  0.54148414564E+02 -0.86449468413E+02  0.10406380722E+03  0.00000000000E+00 0.  1.
</event>
<event>
 7    1  0.2679104E-009  0.1482239E+03  0.7561462E-02  0.1202673E+00
          1   -1    0    0  501    0  0.00000000000E+00  0.00000000000E+00  0.74903933663E+02  0.74903933663E+02  0.00000000000E+00 0. -1.
         -1   -1    0    0    0  501 -0.00000000000E+00 -0.00000000000E+00 -0.32930485796E+03  0.32930485796E+03  0.00000000000E+00 0.  1.
         25    2    1    2    0    0  0.97095317151E+02  0.51163239541E+02 -0.16378230122E+03  0.23348862956E+03  0.12508844969E+03 0.  0.
          5    1    3    3  502    0 -0.11891967542E+02 -0.23910987519E+02 -0.58086649200E+02  0.64067819001E+02  0.41800000000E+01 0.  1.
         -5    1    3    3    0  502  0.10898728469E+03  0.75074227061E+02 -0.10569565202E+03  0.16942081056E+03  0.41800000000E+01 0.  1.
        -11    1    1    2    0    0 -0.11057308450E+03 -0.54278193326E+02 -0.59770628332E+02  0.13691258999E+03  0.00000000000E+00 0. -1.
         11    1    1    2    0    0  0.13477767353E+02  0.31149537842E+01 -0.30847994744E+02  0.33807572075E+02  0.00000000000E+00 0.  1.
</event>
<event>
 7    1  0.2679104E-009  0.8869775E+02  0.7561462E-02  0.1306036E+00
          2   -1    0    0  501    0  0.00000000000E+00  0.00000000000E+00  0.10602181909E+03  0.10602181909E+03  0.00000000000E+00 0. -1.
         -2   -1    0    0    0  501 -0.00000000000E+00 -0.00000000000E+00 -0.14451731433E+03  0.14451731433E+03  0.00000000000E+00 0.  1.
         25    2    1    2    0    0 -0.53921447103E+02 -0.26115423797E+02 -0.10277192982E+02  0.13907864646E+03  0.12509081256E+03 0.  0.
          5    1    3    3  502    0  0.28737076749E+02 -0.10037084038E+02  0.32339921834E+02  0.44608357740E+02  0.41800000000E+01 0.  1.
         -5    1    3    3    0  502 -0.82658523852E+02 -0.16078339759E+02 -0.42617114816E+02  0.94470288715E+02  0.41800000000E+01 0.  1.
        -11    1    1    2    0    0  0.44933280540E+02  0.13592277778E+02  0.26983627565E+02  0.54146706934E+02  0.00000000000E+00 0. -1.
         11    1    1    2    0    0  0.89881665635E+01  0.12523146019E+02 -0.55201929827E+02  0.57313780027E+02  0.00000000000E+00 0.  1.
</event>
<event>
 7    1  0.2679104E-009  0.1455411E+03  0.7561462E-02  0.1206062E+00
          1   -1    0    0  501    0  0.00000000000E+00  0.00000000000E+00  0.13045634385E+03  0.13045634385E+03  0.00000000000E+00 0. -1.
         -1   -1    0    0    0  501 -0.00000000000E+00 -0.00000000000E+00 -0.18379019043E+03  0.18379019043E+03  0.00000000000E+00 0.  1.
         25    2    1    2    0    0  0.97816212714E+02  0.41823969877E+02 -0.36941346029E+02  0.16831623589E+03  0.12509371004E+03 0.  0.
          5    1    3    3  502    0  0.11766556198E+03  0.49483904842E+02 -0.26480920746E+01  0.12774320375E+03  0.41800000000E+01 0.  1.
         -5    1    3    3    0  502 -0.19849349263E+02 -0.76599349644E+01 -0.34293253954E+02  0.40573032134E+02  0.41800000000E+01 0.  1.
        -11    1    1    2    0    0 -0.11145169345E+03 -0.53596607737E+02 -0.24668784321E+02  0.12610561151E+03  0.00000000000E+00 0.  1.
         11    1    1    2    0    0  0.13635480734E+02  0.11772637860E+02  0.82762837701E+01  0.19824686884E+02  0.00000000000E+00 0. -1.
</event>
<event>
 7    1  0.2679104E-009  0.7111799E+02  0.7561462E-02  0.1356332E+00
          2   -1    0    0  501    0  0.00000000000E+00  0.00000000000E+00  0.36422167386E+03  0.36422167386E+03  0.00000000000E+00 0. -1.
         -2   -1    0    0    0  501 -0.00000000000E+00 -0.00000000000E+00 -0.34006805910E+02  0.34006805910E+02  0.00000000000E+00 0.  1.
         25    2    1    2    0    0 -0.22018497791E+02 -0.20698607240E+02  0.19166028802E+03  0.23085466908E+03  0.12508783172E+03 0.  0.
          5    1    3    3  502    0 -0.47790491837E+02  0.22271514393E+01  0.19010179467E+03  0.19607410857E+03  0.41800000000E+01 0.  1.
         -5    1    3    3    0  502  0.25771994046E+02 -0.22925758680E+02  0.15584933527E+01  0.34780560514E+02  0.41800000000E+01 0.  1.
        -11    1    1    2    0    0  0.27084153393E+01 -0.16944045500E+02 -0.48722927992E+01  0.17837472598E+02  0.00000000000E+00 0.  1.
         11    1    1    2    0    0  0.19310082452E+02  0.37642652741E+02  0.14342687273E+03  0.14953633809E+03  0.00000000000E+00 0. -1.
</event>
<event>
 7    1  0.2679104E-009  0.1933264E+03  0.7561462E-02  0.1155495E+00
          2   -1    0    0  501    0  0.00000000000E+00  0.00000000000E+00  0.61548811020E+02  0.61548811020E+02  0.00000000000E+00 0. -1.
         -2   -1    0    0    0  501 -0.00000000000E+00 -0.00000000000E+00 -0.72832678429E+03  0.72832678429E+03  0.00000000000E+00 0.  1.
         25    2    1    2    0    0 -0.42655429992E+02  0.17576288045E+03 -0.37030579059E+03  0.43067992031E+03  0.12508692720E+03 0.  0.
          5    1    3    3  502    0 -0.51200502442E+02  0.44267435230E+02 -0.49850990045E+02  0.84164665274E+02  0.41800000000E+01 0. -1.
         -5    1    3    3    0  502  0.85450724500E+01  0.13149544522E+03 -0.32045480055E+03  0.34651525503E+03  0.41800000000E+01 0. -1.
        -11    1    1    2    0    0 -0.10474131649E+02 -0.35500116772E+02 -0.12979293466E+03  0.13496729831E+03  0.00000000000E+00 0.  1.
         11    1    1    2    0    0  0.53129561641E+02 -0.14026276368E+03 -0.16667924802E+03  0.22422837670E+03  0.00000000000E+00 0. -1.
</event>
<event>
 7    1  0.2679104E-009  0.1517209E+03  0.7561462E-02  0.1198374E+00
         -4   -1    0    0    0  501 -0.00000000000E+00  0.00000000000E+00  0.12238460420E+03  0.12238460420E+03  0.00000000000E+00 0.  1.
          4   -1    0    0  501    0  0.00000000000E+00 -0.00000000000E+00 -0.27030288166E+03  0.27030288166E+03  0.00000000000E+00 0. -1.
         25    2    1    2    0    0  0.11280094728E+03  0.42290168363E+01 -0.17669512679E+03  0.24414564457E+03  0.12507593549E+03 0.  0.
          5    1    3    3  502    0  0.17902014652E+02  0.56742656655E+02 -0.69661007760E+02  0.91707903776E+02  0.41800000000E+01 0. -1.
         -5    1    3    3    0  502  0.94898932624E+02 -0.52513639818E+02 -0.10703411903E+03  0.15243774079E+03  0.41800000000E+01 0. -1.
        -11    1    1    2    0    0 -0.21001230430E+01 -0.22895705173E+02 -0.15644048275E+02  0.27809352358E+02  0.00000000000E+00 0. -1.
         11    1    1    2    0    0 -0.11070082423E+03  0.18666688336E+02  0.44420897611E+02  0.12073248893E+03  0.00000000000E+00 0.  1.
</event>
<event>
 7    1  0.2679104E-009  0.1053055E+03  0.7561462E-02  0.1269519E+00
         -2   -1    0    0    0  501 -0.00000000000E+00  0.00000000000E+00  0.28299361021E+03  0.28299361021E+03  0.00000000000E+00 0.  1.
          2   -1    0    0  501    0  0.00000000000E+00 -0.00000000000E+00 -0.60261907573E+02  0.60261907573E+02  0.00000000000E+00 0. -1.
         25    2    1    2    0    0  0.68835690758E+02  0.23249544388E+01  0.10064004516E+03  0.17470159869E+03  0.12509385340E+03 0.  0.
          5    1    3    3  502    0  0.97039176908E+02  0.10655933455E+01  0.35212503956E+02  0.10332052158E+03  0.41800000000E+01 0. -1.
         -5    1    3    3    0  502 -0.28203486150E+02  0.12593610933E+01  0.65427541206E+02  0.71381077112E+02  0.41800000000E+01 0. -1.
        -11    1    1    2    0    0 -0.67397729455E+02 -0.17548944097E+02  0.13275296522E+03  0.14991253833E+03  0.00000000000E+00 0.  1.
         11    1    1    2    0    0 -0.14379613032E+01  0.15223989658E+02 -0.10661307745E+02  0.18641380761E+02  0.00000000000E+00 0. -1.
</event>
<event>
 7    1  0.2679104E-009  0.1237604E+03  0.7561462E-02  0.1237019E+00
          1   -1    0    0  501    0  0.00000000000E+00  0.00000000000E+00  0.61792091362E+02  0.61792091362E+02  0.00000000000E+00 0. -1.
         -1   -1    0    0    0  501 -0.00000000000E+00 -0.00000000000E+00 -0.27889822738E+03  0.27889822738E+03  0.00000000000E+00 0.  1.
         25    2    1    2    0    0 -0.28097136807E+02  0.52653355224E+02 -0.17364833468E+03  0.22217923973E+03  0.12509214810E+03 0.  0.
          5    1    3    3  502    0  0.48352769279E+02  0.96166538860E+01 -0.48477755782E+02  0.69267853544E+02  0.41800000000E+01 0. -1.
         -5    1    3    3    0  502 -0.76449906086E+02  0.43036701338E+02 -0.12517057890E+03  0.15291138618E+03  0.41800000000E+01 0. -1.
        -11    1    1    2    0    0 -0.20932574535E+02 -0.57261657113E+02 -0.22411823962E+02  0.64956600168E+02  0.00000000000E+00 0.  1.
         11    1    1    2    0    0  0.49029711342E+02  0.46083018897E+01 -0.21045977370E+02  0.53554478842E+02  0.00000000000E+00 0. -1.
</event>
<event>
 7    1  0.2679104E-009  0.1276194E+03  0.7561462E-02  0.1231031E+00
          2   -1    0    0  501    0  0.00000000000E+00  0.00000000000E+00  0.12219590563E+04  0.12219590563E+04  0.00000000000E+00 0. -1.
         -2   -1    0    0    0  501 -0.00000000000E+00 -0.00000000000E+00 -0.24008534338E+02  0.24008534338E+02  0.00000000000E+00 0.  1.
         25    2    1    2    0    0  0.61708972062E+02  0.10207925468E+03  0.84106213606E+03  0.85863921617E+03  0.12509042880E+03 0.  0.
          5    1    3    3  502    0  0.89094104782E+01 -0.56319242184E+01  0.43649235607E+03  0.43663960594E+03  0.41800000000E+01 0.  1.
         -5    1    3    3    0  502  0.52799561583E+02  0.10771117890E+03  0.40456977999E+03  0.42199961024E+03  0.41800000000E+01 0.  1.
        -11    1    1    2    0    0 -0.34320488978E+02 -0.26133603824E+02  0.24828431642E+03  0.25200389480E+03  0.00000000000E+00 0. -1.
         11    1    1    2    0    0 -0.27388483084E+02 -0.75945650856E+02  0.10860406951E+03  0.13532447969E+03  0.00000000000E+00 0.  1.
</event>
<event>
 7    1  0.2679104E-009  0.1250249E+03  0.7561462E-02  0.1235030E+00
         -1   -1    0    0    0  501 -0.00000000000E+00  0.00000000000E+00  0.88670983404E+02  0.88670983404E+02  0.00000000000E+00 0.  1.
          1   -1    0    0  501    0  0.00000000000E+00 -0.00000000000E+00 -0.18527207390E+03  0.18527207390E+03  0.00000000000E+00 0. -1.
         25    2    1    2    0    0  0.60827483325E+02  0.21937258046E+02 -0.27244448889E+02  0.14342755032E+03  0.12509187095E+03 0.  0.
          5    1    3    3  502    0 -0.35338270594E+02  0.25909237469E+02 -0.31997784080E+01  0.44133807186E+02  0.41800000000E+01 0.  1.
         -5    1    3    3    0  502  0.96165753919E+02 -0.39719794229E+01 -0.24044670481E+02  0.99293743136E+02  0.41800000000E+01 0.  1.
        -11    1    1    2    0    0  0.93449392069E+01  0.24045370365E+02 -0.96535319446E+01  0.27544480460E+02  0.00000000000E+00 0.  1.
         11    1    1    2    0    0 -0.70172422532E+02 -0.45982628412E+02 -0.59703109658E+02  0.10297102652E+03  0.00000000000E+00 0. -1.
</event>
<event>
 7    1  0.2679104E-009  0.1290901E+03  0.7561462E-02  0.1228812E+00
         -2   -1    0    0    0  501 -0.00000000000E+00  0.00000000000E+00  0.15877623575E+02  0.15877623575E+02  0.00000000000E+00 0.  1.
          2   -1    0    0  501    0  0.00000000000E+00 -0.00000000000E+00 -0.13511106196E+04  0.13511106196E+04  0.00000000000E+00 0. -1.
         25    2    1    2    0    0 -0.43859072492E+02 -0.58597725513E+02 -0.10273008349E+04  0.10374741519E+04  0.12509316041E+03 0.  0.
          5    1    3    3  502    0  0.41587398701E+02 -0.11561238847E+01 -0.31198033026E+03  0.31476983214E+03  0.41800000000E+01 0.  1.
         -5    1    3    3    0  502 -0.85446471193E+02 -0.57441601629E+02 -0.71532050460E+03  0.72270431972E+03  0.41800000000E+01 0.  1.
        -11    1    1    2    0    0  0.49959428198E+02  0.78198385954E+02 -0.27909026124E+03  0.29411274360E+03  0.00000000000E+00 0. -1.
         11    1    1    2    0    0 -0.61003557064E+01 -0.19600660441E+02 -0.28841899965E+02  0.35401347758E+02  0.00000000000E+00 0.  1.
</event>
<event>
 7    1  0.2679104E-009  0.7284271E+02  0.7561462E-02  0.1350685E+00
          2   -1    0    0  501    0  0.00000000000E+00  0.00000000000E+00  0.10779427297E+04  0.10779427297E+04  0.00000000000E+00 0. -1.
         -2   -1    0    0    0  501 -0.00000000000E+00 -0.00000000000E+00 -0.13876460114E+02  0.13876460114E+02  0.00000000000E+00 0.  1.
         25    2    1    2    0    0 -0.13629057129E+02  0.15730395520E+02  0.83075305229E+03  0.84037589799E+03  0.12509124465E+03 0.  0.
          5    1    3    3  502    0  0.40864287080E+01 -0.15468013160E+02  0.76640577539E+03  0.76658413973E+03  0.41800000000E+01 0.  1.
         -5    1    3    3    0  502 -0.17715485837E+02  0.31198408680E+02  0.64347276898E+02  0.73791758258E+02  0.41800000000E+01 0.  1.
        -11    1    1    2    0    0 -0.30224933962E+02 -0.34026563919E+02  0.98651642496E+02  0.10864391493E+03  0.00000000000E+00 0.  1.
         11    1    1    2    0    0  0.43853991091E+02  0.18296168399E+02  0.13466157476E+03  0.14279937685E+03  0.00000000000E+00 0. -1.
</event>
<event>
 7    1  0.2679104E-009  0.1062366E+03  0.7561462E-02  0.1267702E+00
          1   -1    0    0  501    0  0.00000000000E+00  0.00000000000E+00  0.10642307441E+04  0.10642307441E+04  0.00000000000E+00 0. -1.
         -1   -1    0    0    0  501 -0.00000000000E+00 -0.00000000000E+00 -0.14121086775E+02  0.14121086775E+02  0.00000000000E+00 0.  1.
         25    2    1    2    0    0  0.19787778925E+02 -0.31816502872E+02  0.77155546510E+03  0.78252736235E+03  0.12508953214E+03 0.  0.
          5    1    3    3  502    0  0.28775979926E+02  0.38437077163E+02  0.16678205909E+03  0.17360643294E+03  0.41800000000E+01 0. -1.
         -5    1    3    3    0  502 -0.89882010017E+01 -0.70253580035E+02  0.60477340601E+03  0.60892092942E+03  0.41800000000E+01 0. -1.
        -11    1    1    2    0    0  0.81579025119E+00  0.59117840595E+02  0.12191972789E+03  0.13549909460E+03  0.00000000000E+00 0.  1.
         11    1    1    2    0    0 -0.20603569176E+02 -0.27301337723E+02  0.15663446429E+03  0.16032537387E+03  0.00000000000E+00 0. -1.
</event>
<event>
 7    1  0.2679104E-009  0.9597314E+02  0.7561462E-02  0.1288999E+00
         -4   -1    0    0    0  501 -0.00000000000E+00  0.00000000000E+00  0.40146385672E+03  0.40146385672E+03  0.00000000000E+00 0.  1.
          4   -1    0    0  501    0  0.00000000000E+00 -0.00000000000E+00 -0.38864346906E+02  0.38864346906E+02  0.00000000000E+00 0. -1.
         25    2    1    2    0    0  0.54876682568E+02  0.10930000076E+02  0.25324385462E+03  0.28794391991E+03  0.12509330883E+03 0.  0.
          5    1    3    3  502    0  0.58640728272E+02 -0.26273502622E+02  0.50761656935E+02  0.81995427721E+02  0.41800000000E+01 0. -1.
         -5    1    3    3    0  502 -0.37640457038E+01  0.37203502698E+02  0.20248219769E+03  0.20594849218E+03  0.41800000000E+01 0. -1.
        -11    1    1    2    0    0 -0.65691037932E+02  0.99229350952E+01  0.36430347771E+02  0.75769039483E+02  0.00000000000E+00 0. -1.
         11    1    1    2    0    0  0.10814355363E+02 -0.20852935171E+02  0.72925307422E+02  0.76615244239E+02  0.00000000000E+00 0.  1.
</event>
<event>
 7    1  0.2679104E-009  0.7225434E+02  0.7561462E-02  0.1352591E+00
          2   -1    0    0  501    0  0.00000000000E+00  0.00000000000E+00  0.42470418033E+03  0.42470418033E+03  0.00000000000E+00 0. -1.
         -2   -1    0    0    0  501 -0.00000000000E+00 -0.00000000000E+00 -0.23934484670E+02  0.23934484670E+02  0.00000000000E+00 0.  1.
         25    2    1    2    0    0 -0.18237547493E+02  0.15785888133E+01  0.24692715027E+03  0.27740847302E+03  0.12508934121E+03 0.  0.
          5    1    3    3  502    0  0.26856238908E+02  0.19568368013E+02  0.21837932967E+03  0.22093252957E+03  0.41800000000E+01 0.  1.
         -5    1    3    3    0  502 -0.45093786402E+02 -0.17989779199E+02  0.28547820594E+02  0.56475943448E+02  0.41800000000E+01 0.  1.
        -11    1    1    2    0    0 -0.22001595055E+02  0.32627254878E+00  0.14921492724E+02  0.26586229215E+02  0.00000000000E+00 0.  1.
         11    1    1    2    0    0  0.40239142548E+02 -0.19048613621E+01  0.13892105267E+03  0.14464396277E+03  0.00000000000E+00 0. -1.
</event>
<event>
 7    1  0.2679104E-009  0.1203894E+03  0.7561462E-02  0.1242456E+00
          2   -1    0    0  501    0  0.00000000000E+00  0.00000000000E+00  0.67102931280E+03  0.67102931280E+03  0.00000000000E+00 0.  1.
         -2   -1    0    0    0  501 -0.00000000000E+00 -0.00000000000E+00 -0.35864533768E+02  0.35864533768E+02  0.00000000000E+00 0. -1.
         25    2    1    2    0    0 -0.48508515261E+02 -0.84002696041E+02  0.45672661940E+03  0.48338189312E+03  0.12509724508E+03 0.  0.
          5    1    3    3  502    0 -0.20925142269E+02  0.21127190845E+01  0.31160909892E+03  0.31234600700E+03  0.41800000000E+01 0. -1.
         -5    1    3    3    0  502 -0.27583372993E+02 -0.86115415125E+02  0.14511752049E+03  0.17103588612E+03  0.41800000000E+01 0. -1.
        -11    1    1    2    0    0  0.46384766566E+02  0.16293262487E+01  0.97626920247E+02  0.10809818144E+03  0.00000000000E+00 0.  1.
         11    1    1    2    0    0  0.21237486952E+01  0.82373369792E+02  0.80811239382E+02  0.11541377201E+03  0.00000000000E+00 0. -1.
</event>
<event>
 7    1  0.2679104E-009  0.2220559E+03  0.7561462E-02  0.1132360E+00
          2   -1    0    0  501    0  0.00000000000E+00  0.00000000000E+00  0.39879952257E+03  0.39879952257E+03  0.00000000000E+00 0. -1.
         -2   -1    0    0    0  501 -0.00000000000E+00 -0.00000000000E+00 -0.17015573625E+03  0.17015573625E+03  0.00000000000E+00 0.  1.
         25    2    1    2    0    0 -0.17129394387E+03  0.13152518996E+03  0.22209464503E+03  0.33408726581E+03  0.12509108290E+03 0.  0.
          5    1    3    3  502    0 -0.85600764080E+02  0.29180038872E+02  0.21415784506E+02  0.93032648601E+02  0.41800000000E+01 0. -1.
         -5    1    3    3    0  502 -0.85693179794E+02  0.10234515109E+03  0.20067886053E+03  0.24105461721E+03  0.41800000000E+01 0. -1.
        -11    1    1    2    0    0  0.69444350758E+01 -0.20623278357E+02 -0.26044740524E+02  0.33939258944E+02  0.00000000000E+00 0.  1.
         11    1    1    2    0    0  0.16434950880E+03 -0.11090191161E+03  0.32593881807E+02  0.20092873406E+03  0.00000000000E+00 0. -1.
</event>
<event>
 7    1  0.2679104E-009  0.1797341E+03  0.7561462E-02  0.1168061E+00
          2   -1    0    0  501    0  0.00000000000E+00  0.00000000000E+00  0.20157784650E+03  0.20157784650E+03  0.00000000000E+00 0.  1.
         -2   -1    0    0    0  501 -0.00000000000E+00 -0.00000000000E+00 -0.20844883674E+03  0.20844883674E+03  0.00000000000E+00 0. -1.
         25    2    1    2    0    0  0.36207133685E+02 -0.15330323956E+03 -0.76785563287E+02  0.21530540467E+03  0.12509018651E+03 0.  0.
          5    1    3    3  502    0 -0.41992657090E+02 -0.86242920509E+02 -0.52310838706E+02  0.10933947518E+03  0.41800000000E+01 0.  1.
         -5    1    3    3    0  502  0.78199790775E+02 -0.67060319051E+02 -0.24474724581E+02  0.10596592949E+03  0.41800000000E+01 0.  1.
        -11    1    1    2    0    0 -0.40618907105E+02  0.11842779493E+03  0.90039684121E+02  0.15421472998E+03  0.00000000000E+00 0.  1.
         11    1    1    2    0    0  0.44117734201E+01  0.34875444632E+02 -0.20125111068E+02  0.40506548588E+02  0.00000000000E+00 0. -1.
</event>
<event>
 7    1  0.2679104E-009  0.7315496E+02  0.7561462E-02  0.1349682E+00
          1   -1    0    0  501    0  0.00000000000E+00  0.00000000000E+00  0.11591483222E+04  0.11591483222E+04  0.00000000000E+00 0. -1.
         -1   -1    0    0    0  501 -0.00000000000E+00 -0.00000000000E+00 -0.27786626724E+02  0.27786626724E+02  0.00000000000E+00 0.  1.
         25    2    1    2    0    0  0.21576614553E+02 -0.32214468312E+02  0.10507347624E+04  0.10588648259E+04  0.12509139195E+03 0.  0.
          5    1    3    3  502    0  0.19217317165E+02 -0.45960536647E+02  0.15195409800E+03  0.15996623552E+03  0.41800000000E+01 0. -1.
         -5    1    3    3    0  502  0.23592973879E+01  0.13746068335E+02  0.89878066439E+03  0.89889859036E+03  0.41800000000E+01 0. -1.
        -11    1    1    2    0    0 -0.80582416468E+01 -0.23283112804E+02 -0.49992122752E+01  0.25140221233E+02  0.00000000000E+00 0.  1.
         11    1    1    2    0    0 -0.13518372906E+02  0.55497581116E+02  0.85626145353E+02  0.10292990180E+03  0.00000000000E+00 0. -1.
</event>
<event>
 7    1  0.2679104E-009  0.2439219E+03  0.7561462E-02  0.1117207E+00
         -1   -1    0    0    0  501 -0.00000000000E+00  0.00000000000E+00  0.56467891156E+03  0.56467891156E+03  0.00000000000E+00 0.  1.
          1   -1    0    0  501    0  0.00000000000E+00 -0.00000000000E+00 -0.12098756867E+03  0.12098756867E+03  0.00000000000E+00 0. -1.
         25    2    1    2    0    0  0.16632283288E+03 -0.15225685310E+03  0.32558756267E+03  0.41533209086E+03  0.12509216875E+03 0.  0.
          5    1    3    3  502    0  0.16100402543E+03 -0.17220922699E+03  0.28766387595E+03  0.37194931374E+03  0.41800000000E+01 0.  1.
         -5    1    3    3    0  502  0.53188074501E+01  0.19952373890E+02  0.37923686715E+02  0.43382777119E+02  0.41800000000E+01 0.  1.
        -11    1    1    2    0    0 -0.14983473521E+03  0.11073777044E+03  0.12606541908E+03  0.22495731054E+03  0.00000000000E+00 0.  1.
         11    1    1    2    0    0 -0.16488097670E+02  0.41519082658E+02 -0.79616388566E+01  0.45377078826E+02  0.00000000000E+00 0. -1.
</event>
<event>
 7    1  0.2679104E-009  0.7787540E+02  0.7561462E-02  0.1335191E+00
          2   -1    0    0  501    0  0.00000000000E+00  0.00000000000E+00  0.11874416146E+03  0.11874416146E+03  0.00000000000E+00 0. -1.
         -2   -1    0    0    0  501 -0.00000000000E+00 -0.00000000000E+00 -0.16345806758E+03  0.16345806758E+03  0.00000000000E+00 0.  1.
         25    2    1    2    0    0  0.55445937630E+02 -0.93502471833E+01 -0.90644275387E+02  0.16438810410E+03  0.12508151337E+03 0.  0.
          5    1    3    3  502    0  0.41309934104E+02  0.33941839452E+02  0.93447463865E+01  0.54436713770E+02  0.41800000000E+01 0.  1.
         -5    1    3    3    0  502  0.14136003525E+02 -0.43292086635E+02 -0.99989021773E+02  0.10995139033E+03  0.41800000000E+01 0.  1.
        -11    1    1    2    0    0 -0.27945753919E+02  0.25577271773E+01 -0.27388993413E+02  0.39213060204E+02  0.00000000000E+00 0.  1.
         11    1    1    2    0    0 -0.27500183711E+02  0.67925200060E+01  0.73319362682E+02  0.78601064728E+02  0.00000000000E+00 0. -1.
</event>
<event>
 7    1  0.2679104E-009  0.6783800E+02  0.7561462E-02  0.1367603E+00
          2   -1    0    0  501    0  0.00000000000E+00  0.00000000000E+00  0.12037007217E+03  0.12037007217E+03  0.00000000000E+00 0.  1.
         -2   -1    0    0    0  501 -0.00000000000E+00 -0.00000000000E+00 -0.17808809523E+03  0.17808809523E+03  0.00000000000E+00 0. -1.
         25    2    1    2    0    0  0.38013799278E+02 -0.24688957241E+02  0.57391685167E+02  0.14490186618E+03  0.12509257273E+03 0.  0.
          5    1    3    3  502    0  0.30148840137E+02 -0.29275235823E+02 -0.33224300917E+02  0.53733774905E+02  0.41800000000E+01 0. -1.
         -5    1    3    3    0  502  0.78649591412E+01  0.45862785819E+01  0.90615986084E+02  0.91168091279E+02  0.41800000000E+01 0. -1.
        -11    1    1    2    0    0  0.16205997064E+02 -0.10015772110E+02  0.27624576803E+01  0.19250485818E+02  0.00000000000E+00 0.  1.
         11    1    1    2    0    0 -0.54219796342E+02  0.34704729352E+02 -0.11787216591E+03  0.13430581540E+03  0.00000000000E+00 0. -1.
</event>
<event>
 7    1  0.2679104E-009  0.1831209E+03  0.7561462E-02  0.1164816E+00
         -2   -1    0    0    0  501 -0.00000000000E+00  0.00000000000E+00  0.43274491217E+03  0.43274491217E+03  0.00000000000E+00 0.  1.
          2   -1    0    0  501    0  0.00000000000E+00 -0.00000000000E+00 -0.88449029383E+02  0.88449029383E+02  0.00000000000E+00 0. -1.
         25    2    1    2    0    0  0.13759670481E+03 -0.70646139112E+02  0.11204651535E+03  0.22831018169E+03  0.12508951719E+03 0.  0.
          5    1    3    3  502    0  0.97478272348E+02  0.12917485705E+02  0.26073690790E+02  0.10181446247E+03  0.41800000000E+01 0. -1.
         -5    1    3    3    0  502  0.40118432466E+02 -0.83563624817E+02  0.85972824563E+02  0.12649571921E+03  0.41800000000E+01 0. -1.
        -11    1    1    2    0    0 -0.54029993661E+02  0.73732540799E+02  0.92640276204E+02  0.13014587417E+03  0.00000000000E+00 0. -1.
         11    1    1    2    0    0 -0.83566711153E+02 -0.30864016862E+01  0.13960909123E+03  0.16273788570E+03  0.00000000000E+00 0.  1.
</event>
<event>
 7    1  0.2679104E-009  0.1130577E+03  0.7561462E-02  0.1255010E+00
          2   -1    0    0  501    0  0.00000000000E+00  0.00000000000E+00  0.11547451570E+04  0.11547451570E+04  0.00000000000E+00 0. -1.
         -2   -1    0    0    0  501 -0.00000000000E+00 -0.00000000000E+00 -0.11747665062E+02  0.11747665062E+02  0.00000000000E+00 0.  1.
         25    2    1    2    0    0  0.38783320491E+02  0.52968442110E+00  0.74067322843E+03  0.75216263091E+03  0.12508943007E+03 0.  0.
          5    1    3    3  502    0 -0.44873978069E+02  0.22146262158E+01  0.32628585534E+03  0.32939112052E+03  0.41800000000E+01 0.  1.
         -5    1    3    3    0  502  0.83657298559E+02 -0.16849417947E+01  0.41438737309E+03  0.42277151040E+03  0.41800000000E+01 0.  1.
        -11    1    1    2    0    0 -0.56175997397E+02  0.28790022728E+02  0.29671051396E+03  0.30335084834E+03  0.00000000000E+00 0.  1.
         11    1    1    2    0    0  0.17392676907E+02 -0.29319707150E+02  0.10561374955E+03  0.11097934281E+03  0.00000000000E+00 0. -1.
</event>
<event>
 7    1  0.2679104E-009  0.1862109E+03  0.7561462E-02  0.1161924E+00
          2   -1    0    0  501    0  0.00000000000E+00  0.00000000000E+00  0.55361636972E+03  0.55361636972E+03  0.00000000000E+00 0. -1.
         -2   -1    0    0    0  501 -0.00000000000E+00 -0.00000000000E+00 -0.71143529367E+02  0.71143529367E+02  0.00000000000E+00 0.  1.
         25    2    1    2    0    0 -0.16235946745E+03 -0.31053836959E+02  0.23428504607E+03  0.31282937907E+03  0.12509116731E+03 0.  0.
          5    1    3    3  502    0 -0.17340095283E+03  0.30864707700E+00  0.20266083787E+03  0.26675245699E+03  0.41800000000E+01 0.  1.
         -5    1    3    3    0  502  0.11041485380E+02 -0.31362484036E+02  0.31624208199E+02  0.46076922081E+02  0.41800000000E+01 0.  1.
        -11    1    1    2    0    0  0.12801141692E+03  0.27460497492E+02  0.24430827384E+03  0.27717780296E+03  0.00000000000E+00 0. -1.
         11    1    1    2    0    0  0.34348050534E+02  0.35933394666E+01  0.38795204441E+01  0.34752717057E+02  0.00000000000E+00 0.  1.
</event>
<event>
 7    1  0.2679104E-009  0.9855261E+02  0.7561462E-02  0.1283369E+00
         -2   -1    0    0    0  501 -0.00000000000E+00  0.00000000000E+00  0.31198410845E+02  0.31198410845E+02  0.00000000000E+00 0.  1.
          2   -1    0    0  501    0  0.00000000000E+00 -0.00000000000E+00 -0.47952829091E+03  0.47952829091E+03  0.00000000000E+00 0. -1.
         25    2    1    2    0    0  0.37767143934E+01  0.46644044802E+02 -0.18894863374E+03  0.23138518296E+03  0.12509031223E+03 0.  0.
          5    1    3    3  502    0  0.12639376372E+02 -0.32006878571E+02 -0.10650721359E+02  0.36264367861E+02  0.41800000000E+01 0. -1.
         -5    1    3    3    0  502 -0.88626619788E+01  0.78650923372E+02 -0.17829791238E+03  0.19512081510E+03  0.41800000000E+01 0. -1.
        -11    1    1    2    0    0  0.32547720275E+02 -0.22197866420E+02 -0.20861330533E+03  0.21230075490E+03  0.00000000000E+00 0. -1.
         11    1    1    2    0    0 -0.36324434669E+02 -0.24446178382E+02 -0.50767940998E+02  0.67040763903E+02  0.00000000000E+00 0.  1.
</event>
<event>
 7    1  0.2679104E-009  0.1220534E+03  0.7561462E-02  0.1239748E+00
          3   -1    0    0  501    0  0.00000000000E+00  0.00000000000E+00  0.79646400205E+02  0.79646400205E+02  0.00000000000E+00 0. -1.
         -3   -1    0    0    0  501 -0.00000000000E+00 -0.00000000000E+00 -0.24173059548E+03  0.24173059548E+03  0.00000000000E+00 0.  1.
         25    2    1    2    0    0 -0.32129995716E+02  0.62081969593E+02 -0.33465351578E+02  0.14715072068E+03  0.12508755840E+03 0.  0.
          5    1    3    3  502    0  0.32909461559E+02  0.67302981642E+02 -0.31992019933E+01  0.75102804817E+02  0.41800000000E+01 0. -1.
         -5    1    3    3    0  502 -0.65039457274E+02 -0.52210120490E+01 -0.30266149585E+02  0.72047915862E+02  0.41800000000E+01 0. -1.
        -11    1    1    2    0    0 -0.18451007054E+02  0.55204045559E+01  0.12779208116E+01  0.19301492413E+02  0.00000000000E+00 0.  1.
         11    1    1    2    0    0  0.50581002769E+02 -0.67602374149E+02 -0.12989676450E+03  0.15492478259E+03  0.00000000000E+00 0. -1.
</event>
<event>
 7    1  0.2679104E-009  0.1068305E+03  0.7561462E-02  0.1266555E+00
         -1   -1    0    0    0  501 -0.00000000000E+00  0.00000000000E+00  0.22369928723E+02  0.22369928723E+02  0.00000000000E+00 0.  1.
          1   -1    0    0  501    0  0.00000000000E+00 -0.00000000000E+00 -0.64135483311E+03  0.64135483311E+03  0.00000000000E+00 0. -1.
         25    2    1    2    0    0 -0.26912465357E+02  0.33583233655E+02 -0.27540297685E+03  0.30552702791E+03  0.12509136962E+03 0.  0.
          5    1    3    3  502    0 -0.35503348566E+02 -0.40845268944E+02 -0.14835907087E+03  0.15797692890E+03  0.41800000000E+01 0. -1.
         -5    1    3    3    0  502  0.85908832097E+01  0.74428502599E+02 -0.12704390598E+03  0.14755009902E+03  0.41800000000E+01 0. -1.
        -11    1    1    2    0    0  0.31041885183E+02 -0.54662687042E+02 -0.32074169800E+03  0.32684376210E+03  0.00000000000E+00 0. -1.
         11    1    1    2    0    0 -0.41294198262E+01  0.21079453387E+02 -0.22840229540E+02  0.31353971816E+02  0.00000000000E+00 0.  1.
</event>
<event>
 7    1  0.2679104E-009  0.1075054E+03  0.7561462E-02  0.1265261E+00
          2   -1    0    0  501    0  0.00000000000E+00  0.00000000000E+00  0.16363773138E+02  0.16363773138E+02  0.00000000000E+00 0. -1.
         -2   -1    0    0    0  501 -0.00000000000E+00 -0.00000000000E+00 -0.94995560333E+03  0.94995560333E+03  0.00000000000E+00 0.  1.
         25    2    1    2    0    0  0.58364950374E+02  0.16778434585E+02 -0.55817852958E+03  0.57524157299E+03  0.12510640717E+03 0.  0.
          5    1    3    3  502    0  0.16106925847E+02 -0.52000689245E+02 -0.16364561102E+03  0.17251337092E+03  0.41800000000E+01 0. -1.
         -5    1    3    3    0  502  0.42258024527E+02  0.68779123829E+02 -0.39453291856E+03  0.40272820206E+03  0.41800000000E+01 0. -1.
        -11    1    1    2    0    0  0.36922103765E+01 -0.17129067999E+02 -0.94857284344E+01  0.19925271188E+02  0.00000000000E+00 0.  1.
         11    1    1    2    0    0 -0.62057160751E+02  0.35063341460E+00 -0.36592757219E+03  0.37115253230E+03  0.00000000000E+00 0. -1.
</event>
<event>
 7    1  0.2679104E-009  0.1486740E+03  0.7561462E-02  0.1202112E+00
         -1   -1    0    0    0  501 -0.00000000000E+00  0.00000000000E+00  0.17151283029E+03  0.17151283029E+03  0.00000000000E+00 0.  1.
          1   -1    0    0  501    0  0.00000000000E+00 -0.00000000000E+00 -0.15508560134E+03  0.15508560134E+03  0.00000000000E+00 0. -1.
         25    2    1    2    0    0 -0.11380740607E+03 -0.33769074737E+02 -0.87017291093E+01  0.17267260824E+03  0.12509050108E+03 0.  0.
          5    1    3    3  502    0  0.30400269866E+01 -0.53209744804E+02  0.31580972799E+01  0.53553381636E+02  0.41800000000E+01 0. -1.
         -5    1    3    3    0  502 -0.11684743305E+03  0.19440670067E+02 -0.11859826389E+02  0.11911922660E+03  0.41800000000E+01 0. -1.
        -11    1    1    2    0    0  0.77842788703E+02  0.42022093349E+02  0.56944084327E+02  0.10520449050E+03  0.00000000000E+00 0.  1.
         11    1    1    2    0    0  0.35964617365E+02 -0.82530186116E+01 -0.31815126271E+02  0.48721332885E+02  0.00000000000E+00 0. -1.
</event>
<event>
 7    1  0.2679104E-009  0.1020542E+03  0.7561462E-02  0.1276035E+00
          3   -1    0    0  501    0  0.00000000000E+00  0.00000000000E+00  0.15155938738E+03  0.15155938738E+03  0.00000000000E+00 0. -1.
         -3   -1    0    0    0  501 -0.00000000000E+00 -0.00000000000E+00 -0.10077005393E+03  0.10077005393E+03  0.00000000000E+00 0.  1.
         25    2    1    2    0    0  0.30944416167E+02 -0.89918401111E+01 -0.22103475614E+02  0.13105089441E+03  0.12508942086E+03 0.  0.
          5    1    3    3  502    0  0.62094979939E+02 -0.34778761801E+02  0.18434882754E+02  0.73638754119E+02  0.41800000000E+01 0.  1.
         -5    1    3    3    0  502 -0.31150563771E+02  0.25786921690E+02 -0.40538358368E+02  0.57412140290E+02  0.41800000000E+01 0.  1.
        -11    1    1    2    0    0 -0.61721319679E+01  0.46665223736E+02  0.18373641813E+02  0.50530476278E+02  0.00000000000E+00 0.  1.
         11    1    1    2    0    0 -0.24772284199E+02 -0.37673383625E+02  0.54519167259E+02  0.70748070623E+02  0.00000000000E+00 0. -1.
</event>
<event>
 7    1  0.2833802E-009  0.1094305E+03  0.7561462E-02  0.1261628E+00
         -2   -1    0    0    0  501 -0.00000000000E+00  0.00000000000E+00  0.40328541654E+02  0.40328541654E+02  0.00000000000E+00 0.  1.
          2   -1    0    0  501    0  0.00000000000E+00 -0.00000000000E+00 -0.35815764668E+03  0.35815764668E+03  0.00000000000E+00 0. -1.
         25    2    1    2    0    0  0.36230267806E+02  0.32255984805E+02 -0.14816509930E+03  0.19988427761E+03  0.12509095461E+03 0.  0.
          5    1    3    3  502    0  0.74037425952E+02  0.17163511050E+02 -0.43881691900E+02  0.87858988369E+02  0.41800000000E+01 0. -1.
         -5    1    3    3    0  502 -0.37807158146E+02  0.15092473755E+02 -0.10428340740E+03  0.11202528925E+03  0.41800000000E+01 0. -1.
        -11    1    1    2    0    0 -0.47860007344E+01 -0.59817919170E+02 -0.11567457439E+03  0.13031383816E+03  0.00000000000E+00 0.  1.
         11    1    1    2    0    0 -0.31444267072E+02  0.27561934365E+02 -0.53989431341E+02  0.68288072561E+02  0.00000000000E+00 0. -1.
</event>
<event>
 7    1  0.2679104E-009  0.1030716E+03  0.7561462E-02  0.1273966E+00
          1   -1    0    0  501    0  0.00000000000E+00  0.00000000000E+00  0.15337575792E+03  0.15337575792E+03  0.00000000000E+00 0.  1.
         -1   -1    0    0    0  501 -0.00000000000E+00 -0.00000000000E+00 -0.10434232840E+03  0.10434232840E+03  0.00000000000E+00 0. -1.
         25    2    1    2    0    0 -0.19852199304E+02 -0.10842062363E+02  0.90288145611E+02  0.15592033520E+03  0.12509013374E+03 0.  0.
          5    1    3    3  502    0  0.17423096478E+02 -0.61116874678E+02  0.37289588884E+02  0.73802591421E+02  0.41800000000E+01 0. -1.
         -5    1    3    3    0  502 -0.37275295782E+02  0.50274812315E+02  0.52998556727E+02  0.82117743784E+02  0.41800000000E+01 0. -1.
        -11    1    1    2    0    0  0.37893916084E+02  0.33628957434E+02 -0.50265389500E+02  0.71368515719E+02  0.00000000000E+00 0. -1.
         11    1    1    2    0    0 -0.18041716780E+02 -0.22786895071E+02  0.90106734163E+01  0.30429235396E+02  0.00000000000E+00 0.  1.
</event>
<event>
 7    1  0.2679104E-009  0.1414206E+03  0.7561462E-02  0.1211430E+00
         -1   -1    0    0    0  501 -0.00000000000E+00  0.00000000000E+00  0.19013425109E+03  0.19013425109E+03  0.00000000000E+00 0.  1.
          1   -1    0    0  501    0  0.00000000000E+00 -0.00000000000E+00 -0.12967544111E+03  0.12967544111E+03  0.00000000000E+00 0. -1.
         25    2    1    2    0    0 -0.10204371784E+03  0.18674634171E+02 -0.14530924713E+02  0.16315105648E+03  0.12508180182E+03 0.  0.
          5    1    3    3  502    0 -0.10592715834E+02 -0.46889897628E+02 -0.15054199712E+02  0.50546705702E+02  0.41800000000E+01 0. -1.
         -5    1    3    3    0  502 -0.91451002001E+02  0.65564531799E+02  0.52327499946E+00  0.11260435078E+03  0.41800000000E+01 0. -1.
        -11    1    1    2    0    0  0.88514375303E+01  0.19393154322E+02 -0.11248212804E+02  0.24103208753E+02  0.00000000000E+00 0. -1.
         11    1    1    2    0    0  0.93192280305E+02 -0.38067788493E+02  0.86237947502E+02  0.13255542697E+03  0.00000000000E+00 0.  1.
</event>
<event>
 7    1  0.2679104E-009  0.1003080E+03  0.7561462E-02  0.1279650E+00
          2   -1    0    0  501    0  0.00000000000E+00  0.00000000000E+00  0.39756838977E+03  0.39756838977E+03  0.00000000000E+00 0. -1.
         -2   -1    0    0    0  501 -0.00000000000E+00 -0.00000000000E+00 -0.33612875163E+02  0.33612875163E+02  0.00000000000E+00 0.  1.
         25    2    1    2    0    0 -0.28355030799E+02  0.22435312407E+02  0.18445406301E+03  0.22578446080E+03  0.12509184770E+03 0.  0.
          5    1    3    3  502    0 -0.65779129800E+02 -0.10479975531E+02  0.53279450510E+02  0.85398454617E+02  0.41800000000E+01 0.  1.
         -5    1    3    3    0  502  0.37424099001E+02  0.32915287938E+02  0.13117461250E+03  0.14038600618E+03  0.41800000000E+01 0.  1.
        -11    1    1    2    0    0 -0.18483896533E+02  0.15076893611E+02  0.10507732360E+02  0.26064911114E+02  0.00000000000E+00 0.  1.
         11    1    1    2    0    0  0.46838927332E+02 -0.37512206018E+02  0.16899371923E+03  0.17933189302E+03  0.00000000000E+00 0. -1.
</event>
<event>
 7    1  0.2679104E-009  0.7099936E+02  0.7561462E-02  0.1356727E+00
          3   -1    0    0  501    0  0.00000000000E+00  0.00000000000E+00  0.21173355463E+03  0.21173355463E+03  0.00000000000E+00 0.  1.
         -3   -1    0    0    0  501 -0.00000000000E+00 -0.00000000000E+00 -0.59359425534E+02  0.59359425534E+02  0.00000000000E+00 0. -1.
         25    2    1    2    0    0 -0.16181090083E+02  0.97988630998E+01  0.59004018087E+02  0.13959610668E+03  0.12509098071E+03 0.  0.
          5    1    3    3  502    0  0.10460395966E+02  0.35153048840E+02  0.86129374193E+02  0.93706447086E+02  0.41800000000E+01 0.  1.
         -5    1    3    3    0  502 -0.26641486049E+02 -0.25354185741E+02 -0.27125356106E+02  0.45889659591E+02  0.41800000000E+01 0.  1.
        -11    1    1    2    0    0  0.27308911279E+02  0.21561170904E+02  0.26833537719E+01  0.34897866890E+02  0.00000000000E+00 0. -1.
         11    1    1    2    0    0 -0.11127821196E+02 -0.31360034004E+02  0.90686757237E+02  0.96599006596E+02  0.00000000000E+00 0.  1.
</event>
<event>
 7    1  0.2679104E-009  0.1812831E+03  0.7561462E-02  0.1166567E+00
         -2   -1    0    0    0  501 -0.00000000000E+00  0.00000000000E+00  0.34755742811E+02  0.34755742811E+02  0.00000000000E+00 0.  1.
          2   -1    0    0  501    0  0.00000000000E+00 -0.00000000000E+00 -0.12416203166E+04  0.12416203166E+04  0.00000000000E+00 0. -1.
         25    2    1    2    0    0  0.82124020077E+02 -0.15691963305E+03 -0.64527258266E+03  0.68072905711E+03  0.12508883779E+03 0.  0.
          5    1    3    3  502    0 -0.80872786655E+00  0.24471268231E+01  0.44414017688E+01  0.66212476258E+01  0.41800000000E+01 0.  1.
         -5    1    3    3    0  502  0.82932747944E+02 -0.15936675988E+03 -0.64971398443E+03  0.67410780948E+03  0.41800000000E+01 0.  1.
        -11    1    1    2    0    0 -0.37351275704E+02  0.89932754049E+02 -0.17057419947E+03  0.19641429574E+03  0.00000000000E+00 0.  1.
         11    1    1    2    0    0 -0.44772744374E+02  0.66986879003E+02 -0.39101779165E+03  0.39923270656E+03  0.00000000000E+00 0. -1.
</event>
<event>
 7    1  0.2679104E-009  0.1084217E+03  0.7561462E-02  0.1263521E+00
          2   -1    0    0  501    0  0.00000000000E+00  0.00000000000E+00  0.14620665966E+02  0.14620665966E+02  0.00000000000E+00 0. -1.
         -2   -1    0    0    0  501 -0.00000000000E+00 -0.00000000000E+00 -0.87434120211E+03  0.87434120211E+03  0.00000000000E+00 0.  1.
         25    2    1    2    0    0  0.28252308132E+02  0.80892540556E+01 -0.56574922950E+03  0.58015462511E+03  0.12507425561E+03 0.  0.
          5    1    3    3  502    0 -0.30041796737E+02  0.46455490276E+02 -0.18904906926E+03  0.19702194070E+03  0.41800000000E+01 0.  1.
         -5    1    3    3    0  502  0.58294104869E+02 -0.38366236220E+02 -0.37670016024E+03  0.38313268442E+03  0.41800000000E+01 0.  1.
        -11    1    1    2    0    0 -0.58525603697E+02  0.44263515105E+01 -0.14817078288E+03  0.15937195417E+03  0.00000000000E+00 0. -1.
         11    1    1    2    0    0  0.30273295565E+02 -0.12515605566E+02 -0.14580052377E+03  0.14943528880E+03  0.00000000000E+00 0.  1.
</event>
<event>
 7    1  0.2679104E-009  0.1231388E+03  0.7561462E-02  0.1238007E+00
          2   -1    0    0  501    0  0.00000000000E+00  0.00000000000E+00  0.20068820290E+02  0.20068820290E+02  0.00000000000E+00 0. -1.
         -2   -1    0    0    0  501 -0.00000000000E+00 -0.00000000000E+00 -0.11872676605E+04  0.11872676605E+04  0.00000000000E+00 0.  1.
         25    2    1    2    0    0  0.48413722163E+02 -0.76936208983E+02 -0.86446424888E+03  0.87818508175E+03  0.12509009347E+03 0.  0.
          5    1    3    3  502    0  0.38974685778E+00 -0.72936289878E+02 -0.21804535000E+03  0.22995891229E+03  0.41800000000E+01 0. -1.
         -5    1    3    3    0  502  0.48023975305E+02 -0.39999191058E+01 -0.64641889887E+03  0.64822616946E+03  0.41800000000E+01 0. -1.
        -11    1    1    2    0    0  0.15810829319E+02 -0.85115417772E+01 -0.81394019363E+02  0.83351155093E+02  0.00000000000E+00 0.  1.
         11    1    1    2    0    0 -0.64224551482E+02  0.85447750761E+02 -0.22134057199E+03  0.24580024397E+03  0.00000000000E+00 0. -1.
</event>
<event>
 7    1  0.2679104E-009  0.7824938E+02  0.7561462E-02  0.1334094E+00
          1   -1    0    0  501    0  0.00000000000E+00  0.00000000000E+00  0.18068815681E+03  0.18068815681E+03  0.00000000000E+00 0. -1.
         -1   -1    0    0    0  501 -0.00000000000E+00 -0.00000000000E+00 -0.68092321964E+02  0.68092321964E+02  0.00000000000E+00 0.  1.
         25    2    1    2    0    0 -0.30767778032E+02  0.14456915424E+02  0.56700767430E+02  0.14148550228E+03  0.12509001462E+03 0.  0.
          5    1    3    3  502    0 -0.22068329310E+02  0.61551347006E+02  0.65463307170E+02  0.92620173086E+02  0.41800000000E+01 0. -1.
         -5    1    3    3    0  502 -0.86994487225E+01 -0.47094431582E+02 -0.87625397398E+01  0.48865329190E+02  0.41800000000E+01 0. -1.
        -11    1    1    2    0    0  0.20213765099E+02 -0.22041901024E+02 -0.16216985072E+02  0.34021056789E+02  0.00000000000E+00 0.  1.
         11    1    1    2    0    0  0.10554012934E+02  0.75849855992E+01  0.72112052488E+02  0.73273919709E+02  0.00000000000E+00 0. -1.
</event>
<event>
 7    1  0.2679104E-009  0.1352899E+03  0.7561462E-02  0.1219811E+00
          2   -1    0    0  501    0  0.00000000000E+00  0.00000000000E+00  0.93533836468E+02  0.93533836468E+02  0.00000000000E+00 0.  1.
         -2   -1    0    0    0  501 -0.00000000000E+00 -0.00000000000E+00 -0.54331486436E+03  0.54331486436E+03  0.00000000000E+00 0. -1.
         25    2    1    2    0    0 -0.22654360009E+02  0.93616206628E+02 -0.44842436511E+03  0.47540433304E+03  0.12509058508E+03 0.  0.
          5    1    3    3  502    0 -0.39962969655E+02  0.48957317008E+02 -0.71876558489E+02  0.95799634094E+02  0.41800000000E+01 0.  1.
         -5    1    3    3    0  502  0.17308609646E+02  0.44658889620E+02 -0.37654780662E+03  0.37960469894E+03  0.41800000000E+01 0.  1.
        -11    1    1    2    0    0  0.75677685334E+02 -0.56557010951E+02 -0.14064245085E+02  0.95517592804E+02  0.00000000000E+00 0.  1.
         11    1    1    2    0    0 -0.53023325326E+02 -0.37059195677E+02  0.12707582297E+02  0.65926774991E+02  0.00000000000E+00 0. -1.
</event>
<event>
 7    1  0.2679104E-009  0.1164255E+03  0.7561462E-02  0.1249113E+00
         -1   -1    0    0    0  501 -0.00000000000E+00  0.00000000000E+00  0.68253239854E+02  0.68253239854E+02  0.00000000000E+00 0.  1.
          1   -1    0    0  501    0  0.00000000000E+00 -0.00000000000E+00 -0.24725728843E+03  0.24725728843E+03  0.00000000000E+00 0. -1.
         25    2    1    2    0    0 -0.47746513851E+02 -0.44991520645E+02 -0.62715523541E+02  0.15455170004E+03  0.12509606139E+03 0.  0.
          5    1    3    3  502    0 -0.23493660616E+02  0.34079578807E+02 -0.58299220002E+02  0.71621513762E+02  0.41800000000E+01 0. -1.
         -5    1    3    3    0  502 -0.24252853235E+02 -0.79071099452E+02 -0.44163035395E+01  0.82930186274E+02  0.41800000000E+01 0. -1.
        -11    1    1    2    0    0 -0.25349042354E+02  0.14772101874E+02 -0.49005255788E+02  0.57116582854E+02  0.00000000000E+00 0. -1.
         11    1    1    2    0    0  0.73095556205E+02  0.30219418771E+02 -0.67283269248E+02  0.10384224539E+03  0.00000000000E+00 0.  1.
</event>
<event>
 7    1  0.2679104E-009  0.1336114E+03  0.7561462E-02  0.1222193E+00
          2   -1    0    0  501    0  0.00000000000E+00  0.00000000000E+00  0.18271881871E+03  0.18271881871E+03  0.00000000000E+00 0. -1.
         -2   -1    0    0    0  501 -0.00000000000E+00 -0.00000000000E+00 -0.12093193843E+03  0.12093193843E+03  0.00000000000E+00 0.  1.
         25    2    1    2    0    0 -0.12822889035E+02 -0.99402602966E+02  0.21607532966E+02  0.16173522461E+03  0.12508434531E+03 0.  0.
          5    1    3    3  502    0 -0.53915852636E+02 -0.17143386207E+02  0.37943727474E+02  0.68249642569E+02  0.41800000000E+01 0.  1.
         -5    1    3    3    0  502  0.41092963602E+02 -0.82259216759E+02 -0.16336194508E+02  0.93485582045E+02  0.41800000000E+01 0.  1.
        -11    1    1    2    0    0  0.13648566985E+02 -0.46280008407E+01 -0.17731376214E+02  0.22849583693E+02  0.00000000000E+00 0.  1.
         11    1    1    2    0    0 -0.82567795038E+00  0.10403060381E+03  0.57910723523E+02  0.11906594883E+03  0.00000000000E+00 0. -1.
</event>
<event>
 7    1  0.2679104E-009  0.3106321E+03  0.7561462E-02  0.1080043E+00
         -1   -1    0    0    0  501 -0.00000000000E+00  0.00000000000E+00  0.37956613294E+02  0.37956613294E+02  0.00000000000E+00 0.  1.
          1   -1    0    0  501    0  0.00000000000E+00 -0.00000000000E+00 -0.28014164131E+04  0.28014164131E+04  0.00000000000E+00 0. -1.
         25    2    1    2    0    0  0.26902610508E+03  0.14885180031E+03 -0.14512558308E+04  0.14887319741E+04  0.12508996940E+03 0.  0.
          5    1    3    3  502    0  0.18666394381E+03  0.12260174192E+03 -0.12477931735E+04  0.12676276628E+04  0.41800000000E+01 0.  1.
         -5    1    3    3    0  502  0.82362161266E+02  0.26250058389E+02 -0.20346265729E+03  0.22110431132E+03  0.41800000000E+01 0.  1.
        -11    1    1    2    0    0 -0.13442823602E+03 -0.46438283592E+02 -0.44767703408E+03  0.46972565574E+03  0.00000000000E+00 0. -1.
         11    1    1    2    0    0 -0.13459786906E+03 -0.10241351672E+03 -0.86452693489E+03  0.88091539657E+03  0.00000000000E+00 0.  1.
</event>
<event>
 7    1  0.2679104E-009  0.1559003E+03  0.7561462E-02  0.1193405E+00
         -2   -1    0    0    0  501 -0.00000000000E+00  0.00000000000E+00  0.38029577093E+02  0.38029577093E+02  0.00000000000E+00 0. -1.
          2   -1    0    0  501    0  0.00000000000E+00 -0.00000000000E+00 -0.68639758927E+03  0.68639758927E+03  0.00000000000E+00 0.  1.
         25    2    1    2    0    0 -0.79614926592E+02 -0.87533561553E+02 -0.40497739669E+03  0.44006204823E+03  0.12508898242E+03 0.  0.
          5    1    3    3  502    0  0.27406372548E+02 -0.42905477683E+02 -0.17746849080E+03  0.18467410998E+03  0.41800000000E+01 0.  1.
         -5    1    3    3    0  502 -0.10702129914E+03 -0.44628083870E+02 -0.22750890589E+03  0.25538793824E+03  0.41800000000E+01 0.  1.
        -11    1    1    2    0    0  0.97375729163E+02  0.75827668450E+02 -0.22313461309E+03  0.25499200672E+03  0.00000000000E+00 0.  1.
         11    1    1    2    0    0 -0.17760802571E+02  0.11705893102E+02 -0.20256002397E+02  0.29373111418E+02  0.00000000000E+00 0. -1.
</event>
<event>
 7    1  0.2679104E-009  0.2017409E+03  0.7561462E-02  0.1148278E+00
         -1   -1    0    0    0  501 -0.00000000000E+00  0.00000000000E+00  0.54151925937E+03  0.54151925937E+03  0.00000000000E+00 0.  1.
          1   -1    0    0  501    0  0.00000000000E+00 -0.00000000000E+00 -0.80757866038E+02  0.80757866038E+02  0.00000000000E+00 0. -1.
         25    2    1    2    0    0  0.16608380765E+03  0.42421269265E+02  0.31310368458E+03  0.37823930738E+03  0.12509061155E+03 0.  0.
          5    1    3    3  502    0  0.55669565586E+00 -0.30043016629E+02  0.32459085721E+02  0.44429240417E+02  0.41800000000E+01 0. -1.
         -5    1    3    3    0  502  0.16552711199E+03  0.72464285894E+02  0.28064459886E+03  0.33381006696E+03  0.41800000000E+01 0. -1.
        -11    1    1    2    0    0 -0.98049064266E+02 -0.68428104539E+02  0.74907036197E+02  0.14109248232E+03  0.00000000000E+00 0.  1.
         11    1    1    2    0    0 -0.68034743384E+02  0.26006835275E+02  0.72750672557E+02  0.10294533572E+03  0.00000000000E+00 0. -1.
</event>
<event>
 7    1  0.2679104E-009  0.2293420E+03  0.7561462E-02  0.1127104E+00
         -1   -1    0    0    0  501 -0.00000000000E+00  0.00000000000E+00  0.31525712131E+02  0.31525712131E+02  0.00000000000E+00 0.  1.
          1   -1    0    0  501    0  0.00000000000E+00 -0.00000000000E+00 -0.21976068209E+04  0.21976068209E+04  0.00000000000E+00 0. -1.
         25    2    1    2    0    0  0.13388980964E+03  0.18152703013E+03 -0.14531341461E+04  0.14758469801E+04  0.12508764305E+03 0.  0.
          5    1    3    3  502    0  0.12461822317E+03  0.16973933295E+03 -0.14404480046E+04  0.14557640843E+04  0.41800000000E+01 0.  1.
         -5    1    3    3    0  502  0.92715864703E+01  0.11787697175E+02 -0.12686141494E+02  0.20082895866E+02  0.41800000000E+01 0.  1.
        -11    1    1    2    0    0 -0.74390334120E+02 -0.14421093739E+03 -0.58770671387E+03  0.60969656207E+03  0.00000000000E+00 0.  1.
         11    1    1    2    0    0 -0.59499475517E+02 -0.37316092742E+02 -0.12524024879E+03  0.14358899081E+03  0.00000000000E+00 0. -1.
</event>
<event>
 7    1  0.2679104E-009  0.1746023E+03  0.7561462E-02  0.1173132E+00
          1   -1    0    0  501    0  0.00000000000E+00  0.00000000000E+00  0.26234503882E+02  0.26234503882E+02  0.00000000000E+00 0. -1.
         -1   -1    0    0    0  501 -0.00000000000E+00 -0.00000000000E+00 -0.12517202233E+04  0.12517202233E+04  0.00000000000E+00 0.  1.
         25    2    1    2    0    0  0.59655745962E+01  0.14081621615E+03 -0.52954986976E+03  0.56208100603E+03  0.12508876032E+03 0.  0.
          5    1    3    3  502    0 -0.49422208370E+02  0.16694364590E+02 -0.13797459221E+03  0.14756597502E+03  0.41800000000E+01 0. -1.
         -5    1    3    3    0  502  0.55387782966E+02  0.12412185156E+03 -0.39157527756E+03  0.41451503100E+03  0.41800000000E+01 0. -1.
        -11    1    1    2    0    0 -0.37153892167E+02 -0.11350819587E+03 -0.59293099745E+03  0.60484021854E+03  0.00000000000E+00 0.  1.
         11    1    1    2    0    0  0.31188317571E+02 -0.27308020273E+02 -0.10300485221E+03  0.11103350261E+03  0.00000000000E+00 0. -1.
</event>
<event>
 7    1  0.2679104E-009  0.1315465E+03  0.7561462E-02  0.1225179E+00
         -3   -1    0    0    0  501 -0.00000000000E+00  0.00000000000E+00  0.40109272513E+02  0.40109272513E+02  0.00000000000E+00 0.  1.
          3   -1    0    0  501    0  0.00000000000E+00 -0.00000000000E+00 -0.63350620536E+03  0.63350620536E+03  0.00000000000E+00 0. -1.
         25    2    1    2    0    0 -0.82439318159E+02  0.20940050273E+02 -0.14889468252E+03  0.21225560741E+03  0.12509232395E+03 0.  0.
          5    1    3    3  502    0  0.25665592747E+02 -0.16718336802E+02 -0.10604580540E+02  0.32682640115E+02  0.41800000000E+01 0. -1.
         -5    1    3    3    0  502 -0.10810491091E+03  0.37658387074E+02 -0.13829010198E+03  0.17957296730E+03  0.41800000000E+01 0. -1.
        -11    1    1    2    0    0  0.17710935154E+02 -0.45164670589E+02 -0.25670511844E+03  0.26124900484E+03  0.00000000000E+00 0. -1.
         11    1    1    2    0    0  0.64728383004E+02  0.24224620316E+02 -0.18779713188E+03  0.20011086562E+03  0.00000000000E+00 0.  1.
</event>
<event>
 7    1  0.2679104E-009  0.1000072E+03  0.7561462E-02  0.1280281E+00
         -1   -1    0    0    0  501 -0.00000000000E+00  0.00000000000E+00  0.23146585299E+02  0.23146585299E+02  0.00000000000E+00 0.  1.
          1   -1    0    0  501    0  0.00000000000E+00 -0.00000000000E+00 -0.65311988203E+03  0.65311988203E+03  0.00000000000E+00 0. -1.
         25    2    1    2    0    0 -0.50765840525E+02  0.25274848182E+02 -0.38825456702E+03  0.41183210893E+03  0.12509232040E+03 0.  0.
          5    1    3    3  502    0  0.11310101316E+01 -0.45387212109E+02 -0.89397597215E+02  0.10035278270E+03  0.41800000000E+01 0.  1.
         -5    1    3    3    0  502 -0.51896850657E+02  0.70662060291E+02 -0.29885696980E+03  0.31147932623E+03  0.41800000000E+01 0.  1.
        -11    1    1    2    0    0  0.38353479251E+02 -0.34179302033E+02 -0.24367685233E+03  0.24903337612E+03  0.00000000000E+00 0. -1.
         11    1    1    2    0    0  0.12412361275E+02  0.89044538511E+01  0.19581226254E+01  0.15400982274E+02  0.00000000000E+00 0.  1.
</event>
<event>
 7    1  0.2679104E-009  0.2149029E+03  0.7561462E-02  0.1137741E+00
         -2   -1    0    0    0  501 -0.00000000000E+00  0.00000000000E+00  0.69278338642E+02  0.69278338642E+02  0.00000000000E+00 0.  1.
          2   -1    0    0  501    0  0.00000000000E+00 -0.00000000000E+00 -0.10153217789E+04  0.10153217789E+04  0.00000000000E+00 0. -1.
         25    2    1    2    0    0  0.20174320172E+03  0.30786745962E+02 -0.74158456527E+03  0.77925791795E+03  0.12508833712E+03 0.  0.
          5    1    3    3  502    0  0.10374383341E+03  0.18512575936E+02 -0.17663732606E+03  0.20572728500E+03  0.41800000000E+01 0. -1.
         -5    1    3    3    0  502  0.97999368305E+02  0.12274170026E+02 -0.56494723921E+03  0.57353063295E+03  0.41800000000E+01 0. -1.
        -11    1    1    2    0    0 -0.17843805835E+03  0.97762576840E+01 -0.17461488396E+03  0.24985210342E+03  0.00000000000E+00 0. -1.
         11    1    1    2    0    0 -0.23305143371E+02 -0.40563003646E+02 -0.29843991018E+02  0.55490096163E+02  0.00000000000E+00 0.  1.
</event>
<event>
 7    1  0.2679104E-009  0.1495514E+03  0.7561462E-02  0.1201025E+00
         -1   -1    0    0    0  501 -0.00000000000E+00  0.00000000000E+00  0.93434705888E+03  0.93434705888E+03  0.00000000000E+00 0.  1.
          1   -1    0    0  501    0  0.00000000000E+00 -0.00000000000E+00 -0.33312292628E+02  0.33312292628E+02  0.00000000000E+00 0. -1.
         25    2    1    2    0    0  0.19752583917E+02 -0.13193879261E+03  0.58425462428E+03  0.61220764448E+03  0.12508686746E+03 0.  0.
          5    1    3    3  502    0  0.45903232159E+02 -0.88551062189E+02  0.18943777174E+03  0.21413205995E+03  0.41800000000E+01 0. -1.
         -5    1    3    3    0  502 -0.26150648243E+02 -0.43387730417E+02  0.39481685254E+03  0.39807558453E+03  0.41800000000E+01 0. -1.
        -11    1    1    2    0    0  0.10671307581E+02  0.11099427457E+03  0.28734290184E+03  0.30821996858E+03  0.00000000000E+00 0.  1.
         11    1    1    2    0    0 -0.30423891498E+02  0.20944518040E+02  0.29437240131E+02  0.47231738443E+02  0.00000000000E+00 0. -1.
</event>
<event>
 7    1  0.2679104E-009  0.1242854E+03  0.7561462E-02  0.1236190E+00
          2   -1    0    0  501    0  0.00000000000E+00  0.00000000000E+00  0.38415814949E+03  0.38415814949E+03  0.00000000000E+00 0. -1.
         -2   -1    0    0    0  501 -0.00000000000E+00 -0.00000000000E+00 -0.40960549488E+02  0.40960549488E+02  0.00000000000E+00 0.  1.
         25    2    1    2    0    0 -0.35152018650E+02 -0.51216726932E+02  0.17618602544E+03  0.22482713973E+03  0.12508760797E+03 0.  0.
          5    1    3    3  502    0  0.11073776195E+02  0.37599529771E+02  0.47608802710E+02  0.61809575745E+02  0.41800000000E+01 0.  1.
         -5    1    3    3    0  502 -0.46225794845E+02 -0.88816256703E+02  0.12857722273E+03  0.16301756399E+03  0.41800000000E+01 0.  1.
        -11    1    1    2    0    0  0.64776108524E+02  0.25174964825E+02  0.89423047169E+02  0.11325283420E+03  0.00000000000E+00 0.  1.
         11    1    1    2    0    0 -0.29624089874E+02  0.26041762107E+02  0.77588527393E+02  0.87038725046E+02  0.00000000000E+00 0. -1.
</event>
<event>
 7    1  0.2679104E-009  0.1137151E+03  0.7561462E-02  0.1253841E+00
         -2   -1    0    0    0  501 -0.00000000000E+00  0.00000000000E+00  0.35993543471E+02  0.35993543471E+02  0.00000000000E+00 0.  1.
          2   -1    0    0  501    0  0.00000000000E+00 -0.00000000000E+00 -0.50740261821E+03  0.50740261821E+03  0.00000000000E+00 0. -1.
         25    2    1    2    0    0  0.79520709435E+02 -0.89556037296E+01 -0.23769689296E+03  0.28026651174E+03  0.12508300688E+03 0.  0.
          5    1    3    3  502    0  0.40050350947E+02  0.32767886870E+02 -0.20921883836E+02  0.55972874182E+02  0.41800000000E+01 0. -1.
         -5    1    3    3    0  502  0.39470358488E+02 -0.41723490600E+02 -0.21677500913E+03  0.22429363756E+03  0.41800000000E+01 0. -1.
        -11    1    1    2    0    0 -0.61156432250E+02 -0.34877793771E+02 -0.16687733338E+03  0.18112044086E+03  0.00000000000E+00 0.  1.
         11    1    1    2    0    0 -0.18364277185E+02  0.43833397500E+02 -0.66834848399E+02  0.82009209077E+02  0.00000000000E+00 0. -1.
</event>
<event>
 7    1  0.2679104E-009  0.1189948E+03  0.7561462E-02  0.1244765E+00
          1   -1    0    0  501    0  0.00000000000E+00  0.00000000000E+00  0.14911701062E+03  0.14911701062E+03  0.00000000000E+00 0. -1.
         -1   -1    0    0    0  501 -0.00000000000E+00 -0.00000000000E+00 -0.12501275094E+03  0.12501275094E+03  0.00000000000E+00 0.  1.
         25    2    1    2    0    0 -0.33930174273E+02 -0.75651979849E+02  0.33290106420E+01  0.15011334699E+03  0.12509378822E+03 0.  0.
          5    1    3    3  502    0 -0.37158132687E+02  0.24746698115E+01  0.47269832336E+02  0.60322137433E+02  0.41800000000E+01 0.  1.
         -5    1    3    3    0  502  0.32279584135E+01 -0.78126649661E+02 -0.43940821694E+02  0.89791209558E+02  0.41800000000E+01 0.  1.
        -11    1    1    2    0    0  0.58770429495E+02  0.21406089357E+02  0.87972484183E+01  0.63163087514E+02  0.00000000000E+00 0.  1.
         11    1    1    2    0    0 -0.24840255222E+02  0.54245890492E+02  0.11978000623E+02  0.60853327055E+02  0.00000000000E+00 0. -1.
</event>
<event>
 7    1  0.2679104E-009  0.1271627E+03  0.7561462E-02  0.1231728E+00
          3   -1    0    0  501    0  0.00000000000E+00  0.00000000000E+00  0.10003056598E+04  0.10003056598E+04  0.00000000000E+00 0. -1.
         -3   -1    0    0    0  501 -0.00000000000E+00 -0.00000000000E+00 -0.17232971655E+02  0.17232971655E+02  0.00000000000E+00 0.  1.
         25    2    1    2    0    0  0.72464817475E+02 -0.10770567445E+02  0.48762261814E+03  0.50871347901E+03  0.12508569506E+03 0.  0.
          5    1    3    3  502    0  0.99299397457E+02 -0.38006791747E+02  0.36599116377E+03  0.38114549835E+03  0.41800000000E+01 0. -1.
         -5    1    3    3    0  502 -0.26834579983E+02  0.27236224303E+02  0.12163145437E+03  0.12756798066E+03  0.41800000000E+01 0. -1.
        -11    1    1    2    0    0 -0.90495657133E+02  0.54635822137E+01  0.45841093696E+03  0.46728995476E+03  0.00000000000E+00 0. -1.
         11    1    1    2    0    0  0.18030839658E+02  0.53069852311E+01  0.37039133084E+02  0.41535197732E+02  0.00000000000E+00 0.  1.
</event>
<event>
 7    1  0.2837084E-009  0.1421018E+03  0.7561462E-02  0.1210529E+00
         -1   -1    0    0    0  501 -0.00000000000E+00  0.00000000000E+00  0.12420513980E+03  0.12420513980E+03  0.00000000000E+00 0.  1.
          1   -1    0    0  501    0  0.00000000000E+00 -0.00000000000E+00 -0.24601955481E+03  0.24601955481E+03  0.00000000000E+00 0. -1.
         25    2    1    2    0    0  0.86851416521E+02  0.89355947272E+02 -0.50675090571E+01  0.17663607645E+03  0.12508784909E+03 0.  0.
          5    1    3    3  502    0  0.98436920167E+02  0.52929909314E+02 -0.45585949402E+02  0.12077646184E+03  0.41800000000E+01 0.  1.
         -5    1    3    3    0  502 -0.11585503645E+02  0.36426037958E+02  0.40518440345E+02  0.55859614607E+02  0.41800000000E+01 0.  1.
        -11    1    1    2    0    0 -0.36160080998E+02 -0.71572311612E+02 -0.19554492431E+02  0.82538024094E+02  0.00000000000E+00 0.  1.
         11    1    1    2    0    0 -0.50691335523E+02 -0.17783635661E+02 -0.97192413525E+02  0.11105059406E+03  0.00000000000E+00 0. -1.
</event>
<event>
 7    1  0.2679104E-009  0.9607631E+02  0.7561462E-02  0.1288770E+00
          1   -1    0    0  501    0  0.00000000000E+00  0.00000000000E+00  0.93100906243E+02  0.93100906243E+02  0.00000000000E+00 0. -1.
         -1   -1    0    0    0  501 -0.00000000000E+00 -0.00000000000E+00 -0.19883113700E+03  0.19883113700E+03  0.00000000000E+00 0.  1.
         25    2    1    2    0    0 -0.95261029530E+01 -0.78510514759E+02 -0.77929840424E+02  0.16726854435E+03  0.12510418992E+03 0.  0.
          5    1    3    3  502    0  0.55018986383E+01 -0.71110702930E+02  0.14785473100E+02  0.72959478991E+02  0.41800000000E+01 0.  1.
         -5    1    3    3    0  502 -0.15028001591E+02 -0.73998118290E+01 -0.92715313524E+02  0.94309065359E+02  0.41800000000E+01 0.  1.
        -11    1    1    2    0    0  0.32250779927E+02  0.73367341017E+02  0.94794928638E+01  0.80701550907E+02  0.00000000000E+00 0. -1.
         11    1    1    2    0    0 -0.22724676974E+02  0.51431737421E+01 -0.37279883197E+02  0.43961947988E+02  0.00000000000E+00 0.  1.
</event>
<event>
 7    1  0.2679104E-009  0.8206488E+02  0.7561462E-02  0.1323292E+00
          2   -1    0    0  501    0  0.00000000000E+00  0.00000000000E+00  0.26814101253E+03  0.26814101253E+03  0.00000000000E+00 0. -1.
         -2   -1    0    0    0  501 -0.00000000000E+00 -0.00000000000E+00 -0.76106210689E+02  0.76106210689E+02  0.00000000000E+00 0.  1.
         25    2    1    2    0    0  0.26690601734E+02 -0.18311282578E+02  0.21035783730E+03  0.24687239166E+03  0.12509143361E+03 0.  0.
          5    1    3    3  502    0  0.41988616808E+02 -0.54380315793E+02  0.59594151265E+02  0.91045032551E+02  0.41800000000E+01 0.  1.
         -5    1    3    3    0  502 -0.15298015074E+02  0.36069033215E+02  0.15076368603E+03  0.15582735911E+03  0.41800000000E+01 0.  1.
        -11    1    1    2    0    0 -0.14230046416E+02 -0.14792446287E+02  0.30696156860E+02  0.36926477413E+02  0.00000000000E+00 0. -1.
         11    1    1    2    0    0 -0.12460555318E+02  0.33103728864E+02 -0.49019192314E+02  0.60448354144E+02  0.00000000000E+00 0.  1.
</event>
<event>
 7    1  0.2679104E-009  0.1529328E+03  0.7561462E-02  0.1196915E+00
          2   -1    0    0  501    0  0.00000000000E+00  0.00000000000E+00  0.33791183226E+03  0.33791183226E+03  0.00000000000E+00 0. -1.
         -2   -1    0    0    0  501 -0.00000000000E+00 -0.00000000000E+00 -0.93452340700E+02  0.93452340700E+02  0.00000000000E+00 0.  1.
         25    2    1    2    0    0 -0.12659847322E+03 -0.23522886505E+02  0.19222329005E+03  0.26301782037E+03  0.12509228987E+03 0.  0.
          5    1    3    3  502    0 -0.88328258476E+02  0.43180796348E+02  0.79555306724E+02  0.12654241047E+03  0.41800000000E+01 0. -1.
         -5    1    3    3    0  502 -0.38270214744E+02 -0.66703682854E+02  0.11266798332E+03  0.13647540991E+03  0.41800000000E+01 0. -1.
        -11    1    1    2    0    0  0.38131707840E+02 -0.25411029006E+01  0.64838484408E+02  0.75262961721E+02  0.00000000000E+00 0. -1.
         11    1    1    2    0    0  0.88466765380E+02  0.26063989406E+02 -0.12602282898E+02  0.93083390864E+02  0.00000000000E+00 0.  1.
</event>
<event>
 7    1  0.2679104E-009  0.1027866E+03  0.7561462E-02  0.1274543E+00
         -2   -1    0    0    0  501 -0.00000000000E+00  0.00000000000E+00  0.39633146556E+02  0.39633146556E+02  0.00000000000E+00 0.  1.
          2   -1    0    0  501    0  0.00000000000E+00 -0.00000000000E+00 -0.39214619521E+03  0.39214619521E+03  0.00000000000E+00 0. -1.
         25    2    1    2    0    0  0.19654538329E+02 -0.45740031996E+02 -0.25636760926E+03  0.28956809883E+03  0.12508749489E+03 0.  0.
          5    1    3    3  502    0  0.55484315042E+02 -0.16688550625E+02 -0.22793448610E+03  0.23522036326E+03  0.41800000000E+01 0. -1.
         -5    1    3    3    0  502 -0.35829776713E+02 -0.29051481371E+02 -0.28433123163E+02  0.54347735573E+02  0.41800000000E+01 0. -1.
        -11    1    1    2    0    0  0.21405505575E+02  0.55048778174E+02 -0.73869269674E+02  0.94579240056E+02  0.00000000000E+00 0. -1.
         11    1    1    2    0    0 -0.41060043905E+02 -0.93087461779E+01 -0.22276169717E+02  0.47632002877E+02  0.00000000000E+00 0.  1.
</event>
<event>
 7    1  0.2679104E-009  0.8672307E+02  0.7561462E-02  0.1310987E+00
          2   -1    0    0  501    0  0.00000000000E+00  0.00000000000E+00  0.28444183667E+03  0.28444183667E+03  0.00000000000E+00 0. -1.
         -2   -1    0    0    0  501 -0.00000000000E+00 -0.00000000000E+00 -0.59562013625E+02  0.59562013625E+02  0.00000000000E+00 0.  1.
         25    2    1    2    0    0 -0.11287414048E+02 -0.54712350623E+02  0.65729802462E+02  0.15195004320E+03  0.12509021413E+03 0.  0.
          5    1    3    3  502    0  0.16944968143E+01 -0.56284040384E+02 -0.23871418225E+02  0.61303193469E+02  0.41800000000E+01 0.  1.
         -5    1    3    3    0  502 -0.12981910862E+02  0.15716897611E+01  0.89601220687E+02  0.90646849735E+02  0.41800000000E+01 0.  1.
        -11    1    1    2    0    0  0.49262148519E+02  0.35302427326E+02  0.65998682798E+02  0.89603832412E+02  0.00000000000E+00 0.  1.
         11    1    1    2    0    0 -0.37974734472E+02  0.19409923297E+02  0.93151337781E+02  0.10244997468E+03  0.00000000000E+00 0. -1.
</event>
<event>
 7    1  0.2679104E-009  0.1007954E+03  0.7561462E-02  0.1278632E+00
         -1   -1    0    0    0  501 -0.00000000000E+00  0.00000000000E+00  0.11000970394E+02  0.11000970394E+02  0.00000000000E+00 0.  1.
          1   -1    0    0  501    0  0.00000000000E+00 -0.00000000000E+00 -0.10611981935E+04  0.10611981935E+04  0.00000000000E+00 0. -1.
         25    2    1    2    0    0 -0.58693144341E+01 -0.98096880206E+01 -0.60633640224E+03  0.61921061565E+03  0.12508906833E+03 0.  0.
          5    1    3    3  502    0 -0.57840957110E+02  0.14320140438E+01 -0.45635830967E+03  0.46003044050E+03  0.41800000000E+01 0.  1.
         -5    1    3    3    0  502  0.51971642676E+02 -0.11241702064E+02 -0.14997809257E+03  0.15918017515E+03  0.41800000000E+01 0.  1.
        -11    1    1    2    0    0  0.11429963851E+02 -0.39244583888E+02 -0.21735764652E+03  0.22116764669E+03  0.00000000000E+00 0. -1.
         11    1    1    2    0    0 -0.55606494173E+01  0.49054271908E+02 -0.22650317437E+03  0.23182090159E+03  0.00000000000E+00 0.  1.
</event>
<event>
 7    1  0.2679104E-009  0.6001881E+02  0.7561462E-02  0.1397753E+00
          1   -1    0    0  501    0  0.00000000000E+00  0.00000000000E+00  0.15301527376E+03  0.15301527376E+03  0.00000000000E+00 0. -1.
         -1   -1    0    0    0  501 -0.00000000000E+00 -0.00000000000E+00 -0.12871235222E+03  0.12871235222E+03  0.00000000000E+00 0.  1.
         25    2    1    2    0    0  0.16486898639E+02 -0.25016155855E+02 -0.72048633534E+02  0.14743003603E+03  0.12508790528E+03 0.  0.
          5    1    3    3  502    0 -0.18118533669E+02 -0.40121299926E+02  0.19487178660E+02  0.48324139953E+02  0.41800000000E+01 0.  1.
         -5    1    3    3    0  502  0.34605432308E+02  0.15105144071E+02 -0.91535812195E+02  0.99105896074E+02  0.41800000000E+01 0.  1.
        -11    1    1    2    0    0 -0.18421620269E+02  0.69980141842E+01 -0.12900268573E+02  0.23553030062E+02  0.00000000000E+00 0.  1.
         11    1    1    2    0    0  0.19347216307E+01  0.18018141671E+02  0.10925182364E+03  0.11074455989E+03  0.00000000000E+00 0. -1.
</event>
<event>
 7    1  0.2679104E-009  0.1513044E+03  0.7561462E-02  0.1198879E+00
         -4   -1    0    0    0  501 -0.00000000000E+00  0.00000000000E+00  0.10267259619E+03  0.10267259619E+03  0.00000000000E+00 0.  1.
          4   -1    0    0  501    0  0.00000000000E+00 -0.00000000000E+00 -0.40347651351E+03  0.40347651351E+03  0.00000000000E+00 0. -1.
         25    2    1    2    0    0 -0.24069452561E+02  0.12484045417E+03 -0.14522931019E+02  0.17894905876E+03  0.12508945823E+03 0.  0.
          5    1    3    3  502    0  0.19700901920E+01  0.14316540436E+03 -0.24500951385E+02  0.14532027828E+03  0.41800000000E+01 0. -1.
         -5    1    3    3    0  502 -0.26039542753E+02 -0.18324950186E+02  0.99780203657E+01  0.33628780479E+02  0.41800000000E+01 0. -1.
        -11    1    1    2    0    0  0.11918776379E+02 -0.47907395114E+02 -0.26574651773E+02  0.56065924177E+02  0.00000000000E+00 0.  1.
         11    1    1    2    0    0  0.12150676182E+02 -0.76933059057E+02 -0.25970633452E+03  0.27113412677E+03  0.00000000000E+00 0. -1.
</event>
<event>
 7    1  0.2679104E-009  0.1124812E+03  0.7561462E-02  0.1256043E+00
         -2   -1    0    0    0  501 -0.00000000000E+00  0.00000000000E+00  0.80567829663E+01  0.80567829663E+01  0.00000000000E+00 0.  1.
          2   -1    0    0  501    0  0.00000000000E+00 -0.00000000000E+00 -0.19862924062E+04  0.19862924062E+04  0.00000000000E+00 0. -1.
         25    2    1    2    0    0 -0.32656192924E+01  0.38274491307E+02 -0.15416848351E+04  0.15472293130E+04  0.12510321876E+03 0.  0.
          5    1    3    3  502    0 -0.20071859339E+02  0.80532797871E+02 -0.11199660668E+04  0.11230449119E+04  0.41800000000E+01 0.  1.
         -5    1    3    3    0  502  0.16806240047E+02 -0.42258306564E+02 -0.42171876835E+03  0.42418440112E+03  0.41800000000E+01 0.  1.
        -11    1    1    2    0    0 -0.42362513542E+02 -0.14757734817E+02 -0.18221987460E+03  0.18766048063E+03  0.00000000000E+00 0. -1.
         11    1    1    2    0    0  0.45628132835E+02 -0.23516756491E+02 -0.25433091350E+03  0.25945939548E+03  0.00000000000E+00 0.  1.
</event>
<event>
 7    1  0.2679104E-009  0.1094731E+03  0.7561462E-02  0.1261549E+00
         -1   -1    0    0    0  501 -0.00000000000E+00  0.00000000000E+00  0.25848617332E+02  0.25848617332E+02  0.00000000000E+00 0.  1.
          1   -1    0    0  501    0  0.00000000000E+00 -0.00000000000E+00 -0.49611550828E+03  0.49611550828E+03  0.00000000000E+00 0. -1.
         25    2    1    2    0    0  0.17493193395E+02 -0.20171849024E+01 -0.32285455556E+03  0.34668832705E+03  0.12509057206E+03 0.  0.
          5    1    3    3  502    0  0.63846585454E+02 -0.31361887413E+02 -0.17744502632E+03  0.19121758346E+03  0.41800000000E+01 0.  1.
         -5    1    3    3    0  502 -0.46353392059E+02  0.29344702511E+02 -0.14540952924E+03  0.15547074359E+03  0.41800000000E+01 0.  1.
        -11    1    1    2    0    0 -0.54744365486E+02 -0.41928739366E+01 -0.10498583099E+03  0.11847594884E+03  0.00000000000E+00 0. -1.
         11    1    1    2    0    0  0.37251172091E+02  0.62100588390E+01 -0.42426504390E+02  0.56799849715E+02  0.00000000000E+00 0.  1.
</event>
<event>
 7    1  0.2679104E-009  0.1140907E+03  0.7561462E-02  0.1253177E+00
         -1   -1    0    0    0  501 -0.00000000000E+00  0.00000000000E+00  0.25094177761E+03  0.25094177761E+03  0.00000000000E+00 0.  1.
          1   -1    0    0  501    0  0.00000000000E+00 -0.00000000000E+00 -0.68294011432E+02  0.68294011432E+02  0.00000000000E+00 0. -1.
         25    2    1    2    0    0 -0.56683560439E+02  0.81461354601E+01  0.47715107364E+02  0.14561468503E+03  0.12509004548E+03 0.  0.
          5    1    3    3  502    0  0.33296787978E+02  0.28085985105E+02  0.53218072266E+01  0.44082793482E+02  0.41800000000E+01 0.  1.
         -5    1    3    3    0  502 -0.89980348417E+02 -0.19939849645E+02  0.42393300138E+02  0.10153189155E+03  0.41800000000E+01 0.  1.
        -11    1    1    2    0    0  0.38598884687E+02 -0.39966618692E+02  0.31426511119E+02  0.63834395978E+02  0.00000000000E+00 0. -1.
         11    1    1    2    0    0  0.18084675752E+02  0.31820483232E+02  0.10350614770E+03  0.10978670804E+03  0.00000000000E+00 0.  1.
</event>
<event>
 7    1  0.2679104E-009  0.1318711E+03  0.7561462E-02  0.1224706E+00
          1   -1    0    0  501    0  0.00000000000E+00  0.00000000000E+00  0.57637792533E+03  0.57637792533E+03  0.00000000000E+00 0. -1.
         -1   -1    0    0    0  501 -0.00000000000E+00 -0.00000000000E+00 -0.46775265806E+02  0.46775265806E+02  0.00000000000E+00 0.  1.
         25    2    1    2    0    0 -0.38269215173E+02 -0.10956008529E+03  0.43313993145E+03  0.46553753157E+03  0.12508816078E+03 0.  0.
          5    1    3    3  502    0  0.29635559296E+02 -0.41563517659E+02  0.28036065296E+03  0.28500063246E+03  0.41800000000E+01 0. -1.
         -5    1    3    3    0  502 -0.67904774469E+02 -0.67996567629E+02  0.15277927849E+03  0.18053689911E+03  0.41800000000E+01 0. -1.
        -11    1    1    2    0    0  0.20440202323E+02  0.46280277024E+02  0.14671453662E+02  0.52677485370E+02  0.00000000000E+00 0.  1.
         11    1    1    2    0    0  0.17829012850E+02  0.63279808264E+02  0.81791274415E+02  0.10493817420E+03  0.00000000000E+00 0. -1.
</event>
<event>
 7    1  0.2679104E-009  0.9443608E+02  0.7561462E-02  0.1292451E+00
         -2   -1    0    0    0  501 -0.00000000000E+00  0.00000000000E+00  0.16961618617E+02  0.16961618617E+02  0.00000000000E+00 0.  1.
          2   -1    0    0  501    0  0.00000000000E+00 -0.00000000000E+00 -0.26947301162E+04  0.26947301162E+04  0.00000000000E+00 0. -1.
         25    2    1    2    0    0 -0.18429953445E+02 -0.11071839908E+01 -0.25563924021E+04  0.25595178037E+04  0.12509350299E+03 0.  0.
          5    1    3    3  502    0 -0.24912929416E+02 -0.50908245982E+02 -0.65593759486E+03  0.65839494554E+03  0.41800000000E+01 0.  1.
         -5    1    3    3    0  502  0.64829759712E+01  0.49801061991E+02 -0.19004548073E+04  0.19011228581E+04  0.41800000000E+01 0.  1.
        -11    1    1    2    0    0 -0.87221741958E+00 -0.38013085225E+02 -0.92093154398E+02  0.99633852172E+02  0.00000000000E+00 0.  1.
         11    1    1    2    0    0  0.19302170864E+02  0.39120269215E+02 -0.29282941043E+02  0.52540078985E+02  0.00000000000E+00 0. -1.
</event>
<event>
 7    1  0.3613337E-009  0.1078466E+03  0.7561462E-02  0.1264610E+00
         -1   -1    0    0    0  501 -0.00000000000E+00  0.00000000000E+00  0.37137209333E+02  0.37137209333E+02  0.00000000000E+00 0.  1.
          1   -1    0    0  501    0  0.00000000000E+00 -0.00000000000E+00 -0.58532228482E+03  0.58532228482E+03  0.00000000000E+00 0. -1.
         25    2    1    2    0    0  0.52268357519E+02  0.82748584464E+02 -0.25938206798E+03  0.30414529619E+03  0.12508395011E+03 0.  0.
          5    1    3    3  502    0  0.72791940303E+01  0.50722495668E+02 -0.14984789403E+02  0.53551606381E+02  0.41800000000E+01 0.  1.
         -5    1    3    3    0  502  0.44989163489E+02  0.32026088797E+02 -0.24439727858E+03  0.25059368981E+03  0.41800000000E+01 0.  1.
        -11    1    1    2    0    0 -0.33517597233E+02 -0.11831328327E+02 -0.22440208445E+02  0.42035373310E+02  0.00000000000E+00 0.  1.
         11    1    1    2    0    0 -0.18750760286E+02 -0.70917256137E+02 -0.26636279906E+03  0.27627882465E+03  0.00000000000E+00 0. -1.
</event>
<event>
 7    1  0.2679104E-009  0.1400068E+03  0.7561462E-02  0.1213320E+00
         -2   -1    0    0    0  501 -0.00000000000E+00  0.00000000000E+00  0.47216805888E+02  0.47216805888E+02  0.00000000000E+00 0. -1.
          2   -1    0    0  501    0  0.00000000000E+00 -0.00000000000E+00 -0.61518476509E+03  0.61518476509E+03  0.00000000000E+00 0.  1.
         25    2    1    2    0    0 -0.12631740663E+02  0.11456129482E+03 -0.19513479430E+03  0.25886320666E+03  0.12509484669E+03 0.  0.
          5    1    3    3  502    0  0.17815009697E+02  0.96242671310E+02 -0.20004953683E+03  0.22274944655E+03  0.41800000000E+01 0. -1.
         -5    1    3    3    0  502 -0.30446750361E+02  0.18318623515E+02  0.49147425286E+01  0.36113760108E+02  0.41800000000E+01 0. -1.
        -11    1    1    2    0    0 -0.24530079487E+02 -0.10509582971E+03 -0.32366889558E+03  0.34118677024E+03  0.00000000000E+00 0.  1.
         11    1    1    2    0    0  0.37161820150E+02 -0.94654651110E+01 -0.49164269323E+02  0.62351594083E+02  0.00000000000E+00 0. -1.
</event>
<event>
 7    1  0.2679104E-009  0.1085001E+03  0.7561462E-02  0.1263373E+00
          1   -1    0    0  501    0  0.00000000000E+00  0.00000000000E+00  0.41552656788E+02  0.41552656788E+02  0.00000000000E+00 0. -1.
         -1   -1    0    0    0  501 -0.00000000000E+00 -0.00000000000E+00 -0.45943236671E+03  0.45943236671E+03  0.00000000000E+00 0.  1.
         25    2    1    2    0    0  0.32309633706E+02 -0.66876553543E+02 -0.30847610822E+03  0.34105958780E+03  0.12509095590E+03 0.  0.
          5    1    3    3  502    0 -0.21203614712E+01 -0.65497787595E+02 -0.29749189503E+03  0.30465284526E+03  0.41800000000E+01 0.  1.
         -5    1    3    3    0  502  0.34429995177E+02 -0.13787659477E+01 -0.10984213183E+02  0.36406742544E+02  0.41800000000E+01 0.  1.
        -11    1    1    2    0    0  0.28412557716E+02  0.31274014725E+01 -0.28230743282E+02  0.40174979056E+02  0.00000000000E+00 0. -1.
         11    1    1    2    0    0 -0.60722191422E+02  0.63749152070E+02 -0.81172858417E+02  0.11975045664E+03  0.00000000000E+00 0.  1.
</event>
<event>
 7    1  0.2679104E-009  0.1179048E+03  0.7561462E-02  0.1246594E+00
         -2   -1    0    0    0  501 -0.00000000000E+00  0.00000000000E+00  0.32416828860E+02  0.32416828860E+02  0.00000000000E+00 0.  1.
          2   -1    0    0  501    0  0.00000000000E+00 -0.00000000000E+00 -0.14527542008E+04  0.14527542008E+04  0.00000000000E+00 0. -1.
         25    2    1    2    0    0 -0.38375651743E+02  0.26017921693E+02 -0.13549959805E+04  0.13615477677E+04  0.12509433989E+03 0.  0.
          5    1    3    3  502    0 -0.81890150364E+02  0.29237909236E+02 -0.10175014322E+04  0.10212186294E+04  0.41800000000E+01 0. -1.
         -5    1    3    3    0  502  0.43514498620E+02 -0.32199875423E+01 -0.33749454827E+03  0.34032913836E+03  0.41800000000E+01 0. -1.
        -11    1    1    2    0    0  0.38296887566E+02  0.30158659017E+02 -0.29125190924E+02  0.56784443797E+02  0.00000000000E+00 0.  1.
         11    1    1    2    0    0  0.78764176822E-01 -0.56176580710E+02 -0.36216200527E+02  0.66838818098E+02  0.00000000000E+00 0. -1.
</event>
<event>
 7    1  0.2679104E-009  0.1391772E+03  0.7561462E-02  0.1214440E+00
          2   -1    0    0  501    0  0.00000000000E+00  0.00000000000E+00  0.27513127824E+03  0.27513127824E+03  0.00000000000E+00 0. -1.
         -2   -1    0    0    0  501 -0.00000000000E+00 -0.00000000000E+00 -0.83333163307E+02  0.83333163307E+02  0.00000000000E+00 0.  1.
         25    2    1    2    0    0 -0.10717179177E+03  0.31983736467E+02  0.12243844781E+03  0.20771906562E+03  0.12508910572E+03 0.  0.
          5    1    3    3  502    0 -0.80131625648E+02  0.74149865627E+02  0.11183913384E+03  0.15634815081E+03  0.41800000000E+01 0.  1.
         -5    1    3    3    0  502 -0.27040166117E+02 -0.42166129160E+02  0.10599313966E+02  0.51370914811E+02  0.41800000000E+01 0.  1.
        -11    1    1    2    0    0  0.53190180982E+02 -0.36736017717E+02  0.25120508334E+01  0.64691890914E+02  0.00000000000E+00 0.  1.
         11    1    1    2    0    0  0.53981610783E+02  0.47522812498E+01  0.66847616288E+02  0.86053485015E+02  0.00000000000E+00 0. -1.
</event>
<event>
 7    1  0.2679104E-009  0.7402618E+02  0.7561462E-02  0.1346913E+00
          1   -1    0    0  501    0  0.00000000000E+00  0.00000000000E+00  0.24218655042E+03  0.24218655042E+03  0.00000000000E+00 0. -1.
         -1   -1    0    0    0  501 -0.00000000000E+00 -0.00000000000E+00 -0.58801338942E+02  0.58801338942E+02  0.00000000000E+00 0.  1.
         25    2    1    2    0    0 -0.44477286133E+02  0.17241277523E+02  0.68383897045E+02  0.15033143772E+03  0.12509073971E+03 0.  0.
          5    1    3    3  502    0 -0.58107236913E+02  0.32207696979E+02 -0.11730655909E+02  0.67593397713E+02  0.41800000000E+01 0.  1.
         -5    1    3    3    0  502  0.13629950779E+02 -0.14966419456E+02  0.80114552954E+02  0.82738040010E+02  0.41800000000E+01 0.  1.
        -11    1    1    2    0    0  0.46692131791E+02 -0.34200084935E+01  0.12498334780E+03  0.13346418567E+03  0.00000000000E+00 0. -1.
         11    1    1    2    0    0 -0.22148456581E+01 -0.13821269029E+02 -0.99820333697E+01  0.17192265967E+02  0.00000000000E+00 0.  1.
</event>
<event>
 7    1  0.2679104E-009  0.1747531E+03  0.7561462E-02  0.1172980E+00
         -2   -1    0    0    0  501 -0.00000000000E+00  0.00000000000E+00  0.18256818266E+02  0.18256818266E+02  0.00000000000E+00 0. -1.
          2   -1    0    0  501    0  0.00000000000E+00 -0.00000000000E+00 -0.20333260311E+04  0.20333260311E+04  0.00000000000E+00 0.  1.
         25    2    1    2    0    0  0.14343843640E+03 -0.67324127500E+02 -0.10750322747E+04  0.10938233223E+04  0.12509174873E+03 0.  0.
          5    1    3    3  502    0  0.10241704695E+03 -0.18962270747E+02 -0.32970587284E+03  0.34579221246E+03  0.41800000000E+01 0. -1.
         -5    1    3    3    0  502  0.41021389445E+02 -0.48361856753E+02 -0.74532640187E+03  0.74803110985E+03  0.41800000000E+01 0. -1.
        -11    1    1    2    0    0 -0.85177400206E+02 -0.90442185972E+01 -0.37895880986E+03  0.38851868291E+03  0.00000000000E+00 0.  1.
         11    1    1    2    0    0 -0.58261036191E+02  0.76368346097E+02 -0.56107812826E+03  0.56924084414E+03  0.00000000000E+00 0. -1.
</event>
<event>
 7    1  0.2679104E-009  0.9893487E+02  0.7561462E-02  0.1282552E+00
          2   -1    0    0  501    0  0.00000000000E+00  0.00000000000E+00  0.45375298909E+03  0.45375298909E+03  0.00000000000E+00 0. -1.
         -2   -1    0    0    0  501 -0.00000000000E+00 -0.00000000000E+00 -0.44087299304E+02  0.44087299304E+02  0.00000000000E+00 0.  1.
         25    2    1    2    0    0 -0.22089834240E+02  0.36279465160E+02  0.36350318115E+03  0.38676665536E+03  0.12509885142E+03 0.  0.
          5    1    3    3  502    0  0.37638254373E+02  0.75089456229E+01  0.26599090770E+03  0.26877808287E+03  0.41800000000E+01 0. -1.
         -5    1    3    3    0  502 -0.59728088613E+02  0.28770519537E+02  0.97512273451E+02  0.11798857249E+03  0.41800000000E+01 0. -1.
        -11    1    1    2    0    0  0.84731521644E+01 -0.62615930409E+02  0.50786679756E+02  0.81066860610E+02  0.00000000000E+00 0. -1.
         11    1    1    2    0    0  0.13616682076E+02  0.26336465249E+02 -0.46241711191E+01  0.30006772421E+02  0.00000000000E+00 0.  1.
</event>
<event>
 7    1  0.2679104E-009  0.8464780E+02  0.7561462E-02  0.1316356E+00
          2   -1    0    0  501    0  0.00000000000E+00  0.00000000000E+00  0.16428543415E+03  0.16428543415E+03  0.00000000000E+00 0. -1.
         -2   -1    0    0    0  501 -0.00000000000E+00 -0.00000000000E+00 -0.77447847370E+02  0.77447847370E+02  0.00000000000E+00 0.  1.
         25    2    1    2    0    0 -0.13536002345E+02  0.27410672668E+02  0.43820585291E+02  0.13602549874E+03  0.12509246291E+03 0.  0.
          5    1    3    3  502    0 -0.24918754746E+02  0.65109143299E+02 -0.85573553782E+01  0.70362245632E+02  0.41800000000E+01 0. -1.
         -5    1    3    3    0  502  0.11382752401E+02 -0.37698470632E+02  0.52377940669E+02  0.65663253109E+02  0.41800000000E+01 0. -1.
        -11    1    1    2    0    0 -0.17731445722E+02  0.78964046237E+00 -0.21987792493E+02  0.28257578066E+02  0.00000000000E+00 0.  1.
         11    1    1    2    0    0  0.31267448067E+02 -0.28200313130E+02  0.65004793979E+02  0.77450204709E+02  0.00000000000E+00 0. -1.
</event>
<event>
 7    1  0.2679104E-009  0.6732031E+02  0.7561462E-02  0.1369450E+00
          1   -1    0    0  501    0  0.00000000000E+00  0.00000000000E+00  0.36457487519E+03  0.36457487519E+03  0.00000000000E+00 0. -1.
         -1   -1    0    0    0  501 -0.00000000000E+00 -0.00000000000E+00 -0.54834870101E+02  0.54834870101E+02  0.00000000000E+00 0.  1.
         25    2    1    2    0    0  0.34917724031E+01  0.54055278772E+02  0.27022993728E+03  0.30266487232E+03  0.12509052840E+03 0.  0.
          5    1    3    3  502    0  0.26896309911E+01  0.56884622344E+01 -0.13144673842E+02  0.15160724517E+02  0.41800000000E+01 0.  1.
         -5    1    3    3    0  502  0.80214141195E+00  0.48366816537E+02  0.28337461112E+03  0.28750414780E+03  0.41800000000E+01 0.  1.
        -11    1    1    2    0    0  0.84259296440E+00  0.12153283793E+02  0.48302009569E+02  0.49814620326E+02  0.00000000000E+00 0. -1.
         11    1    1    2    0    0 -0.43343653675E+01 -0.66208562564E+02 -0.87919417588E+01  0.66930252651E+02  0.00000000000E+00 0.  1.
</event>
<event>
 7    1  0.2679104E-009  0.1079479E+03  0.7561462E-02  0.1264418E+00
          1   -1    0    0  501    0  0.00000000000E+00  0.00000000000E+00  0.51837593829E+02  0.51837593829E+02  0.00000000000E+00 0. -1.
         -1   -1    0    0    0  501 -0.00000000000E+00 -0.00000000000E+00 -0.23680521171E+03  0.23680521171E+03  0.00000000000E+00 0.  1.
         25    2    1    2    0    0 -0.13999048837E+01  0.15706471406E+02 -0.83377443598E+02  0.15115682327E+03  0.12509170294E+03 0.  0.
          5    1    3    3  502    0  0.66666154063E+01  0.68935441781E+02 -0.31226094665E+02  0.76086005826E+02  0.41800000000E+01 0.  1.
         -5    1    3    3    0  502 -0.80665202900E+01 -0.53228970375E+02 -0.52151348933E+02  0.75070817448E+02  0.41800000000E+01 0.  1.
        -11    1    1    2    0    0  0.38911204172E+01 -0.53999736597E+02 -0.62934768589E+02  0.83017452792E+02  0.00000000000E+00 0.  1.
         11    1    1    2    0    0 -0.24912155335E+01  0.38293265190E+02 -0.38655405694E+02  0.54468529475E+02  0.00000000000E+00 0. -1.
</event>
<event>
 7    1  0.2679104E-009  0.9442226E+02  0.7561462E-02  0.1292483E+00
          2   -1    0    0  501    0  0.00000000000E+00  0.00000000000E+00  0.12812980542E+02  0.12812980542E+02  0.00000000000E+00 0. -1.
         -2   -1    0    0    0  501 -0.00000000000E+00 -0.00000000000E+00 -0.12379263801E+04  0.12379263801E+04  0.00000000000E+00 0.  1.
         25    2    1    2    0    0  0.46754413567E+02  0.73166434482E+01 -0.88649117768E+03  0.89652288797E+03  0.12508865697E+03 0.  0.
          5    1    3    3  502    0  0.59478507961E+02 -0.14764713829E+02 -0.19274777167E+03  0.20229895098E+03  0.41800000000E+01 0.  1.
         -5    1    3    3    0  502 -0.12724094394E+02  0.22081357277E+02 -0.69374340601E+03  0.69422393700E+03  0.41800000000E+01 0.  1.
        -11    1    1    2    0    0 -0.65247791861E+02  0.20320673234E+02 -0.18991140798E+03  0.20183296803E+03  0.00000000000E+00 0. -1.
         11    1    1    2    0    0  0.18493378294E+02 -0.27637316682E+02 -0.14871081389E+03  0.15238350463E+03  0.00000000000E+00 0.  1.
</event>
<event>
 7    1  0.2679104E-009  0.1762611E+03  0.7561462E-02  0.1171471E+00
         -2   -1    0    0    0  501 -0.00000000000E+00  0.00000000000E+00  0.23638444778E+03  0.23638444778E+03  0.00000000000E+00 0.  1.
          2   -1    0    0  501    0  0.00000000000E+00 -0.00000000000E+00 -0.15191261219E+03  0.15191261219E+03  0.00000000000E+00 0. -1.
         25    2    1    2    0    0  0.45705673292E+02  0.13413582452E+03 -0.15424818944E+02  0.18964971154E+03  0.12509060739E+03 0.  0.
          5    1    3    3  502    0  0.22698177449E+02 -0.20710768413E+02  0.60109621609E+01  0.31587137475E+02  0.41800000000E+01 0. -1.
         -5    1    3    3    0  502  0.23007495843E+02  0.15484659293E+03 -0.21435781104E+02  0.15806257406E+03  0.41800000000E+01 0. -1.
        -11    1    1    2    0    0  0.20170162187E+02 -0.63547640724E+01 -0.36714693419E+01  0.21463880269E+02  0.00000000000E+00 0. -1.
         11    1    1    2    0    0 -0.65875835478E+02 -0.12778106045E+03  0.10356812388E+03  0.17718346817E+03  0.00000000000E+00 0.  1.
</event>
<event>
 7    1  0.2679104E-009  0.1000051E+03  0.7561462E-02  0.1280285E+00
         -2   -1    0    0    0  501 -0.00000000000E+00  0.00000000000E+00  0.67532524855E+02  0.67532524855E+02  0.00000000000E+00 0.  1.
          2   -1    0    0  501    0  0.00000000000E+00 -0.00000000000E+00 -0.21188637669E+03  0.21188637669E+03  0.00000000000E+00 0. -1.
         25    2    1    2    0    0 -0.31944535301E+01 -0.33098465563E+02 -0.14788512363E+03  0.19653061773E+03  0.12509420834E+03 0.  0.
          5    1    3    3  502    0 -0.63810512341E+02 -0.19838191040E+02 -0.70038501154E+02  0.96892720846E+02  0.41800000000E+01 0.  1.
         -5    1    3    3    0  502  0.60616058811E+02 -0.13260274523E+02 -0.77846622472E+02  0.99637896889E+02  0.41800000000E+01 0.  1.
        -11    1    1    2    0    0 -0.26265432464E+02 -0.38448328871E+00 -0.19480413212E+02  0.32703321984E+02  0.00000000000E+00 0. -1.
         11    1    1    2    0    0  0.29459885994E+02  0.33482948852E+02  0.23011685003E+02  0.50184961824E+02  0.00000000000E+00 0.  1.
</event>
<event>
 7    1  0.2679104E-009  0.9839230E+02  0.7561462E-02  0.1283714E+00
          1   -1    0    0  501    0  0.00000000000E+00  0.00000000000E+00  0.10598213753E+03  0.10598213753E+03  0.00000000000E+00 0. -1.
         -1   -1    0    0    0  501 -0.00000000000E+00 -0.00000000000E+00 -0.13019255588E+03  0.13019255588E+03  0.00000000000E+00 0.  1.
         25    2    1    2    0    0  0.27759206891E+02 -0.31973307184E+02  0.24945295516E+01  0.13208460893E+03  0.12508898952E+03 0.  0.
          5    1    3    3  502    0  0.35826543776E+02  0.43028216498E+02  0.59152325145E+01  0.56457338138E+02  0.41800000000E+01 0. -1.
         -5    1    3    3    0  502 -0.80673368854E+01 -0.75001523681E+02 -0.34207029629E+01  0.75627270794E+02  0.41800000000E+01 0. -1.
        -11    1    1    2    0    0 -0.32436984492E+02 -0.33921372645E+00 -0.53019902828E+02  0.62156118964E+02  0.00000000000E+00 0.  1.
         11    1    1    2    0    0  0.46777776012E+01  0.32312520910E+02  0.26314954928E+02  0.41933965513E+02  0.00000000000E+00 0. -1.
</event>
<event>
 7    1  0.2679104E-009  0.1285057E+03  0.7561462E-02  0.1229690E+00
          2   -1    0    0  501    0  0.00000000000E+00  0.00000000000E+00  0.23325453949E+03  0.23325453949E+03  0.00000000000E+00 0. -1.
         -2   -1    0    0    0  501 -0.00000000000E+00 -0.00000000000E+00 -0.85392411172E+02  0.85392411172E+02  0.00000000000E+00 0.  1.
         25    2    1    2    0    0  0.89381668320E+02  0.51134887934E+01  0.82858579455E+02  0.17472750135E+03  0.12509566395E+03 0.  0.
          5    1    3    3  502    0  0.38221099039E+02  0.50750379161E+02  0.84767358028E+02  0.10601618171E+03  0.41800000000E+01 0. -1.
         -5    1    3    3    0  502  0.51160569281E+02 -0.45636890368E+02 -0.19087785729E+01  0.68711319644E+02  0.41800000000E+01 0. -1.
        -11    1    1    2    0    0 -0.95760763812E+02  0.20779104074E+02  0.64378301324E+02  0.11724530154E+03  0.00000000000E+00 0.  1.
         11    1    1    2    0    0  0.63790954923E+01 -0.25892592867E+02  0.62524753707E+00  0.26674147768E+02  0.00000000000E+00 0. -1.
</event>
<event>
 7    1  0.2679104E-009  0.9302223E+02  0.7561462E-02  0.1295694E+00
         -2   -1    0    0    0  501 -0.00000000000E+00  0.00000000000E+00  0.38608336020E+02  0.38608336020E+02  0.00000000000E+00 0.  1.
          2   -1    0    0  501    0  0.00000000000E+00 -0.00000000000E+00 -0.33498394380E+03  0.33498394380E+03  0.00000000000E+00 0. -1.
         25    2    1    2    0    0  0.30939880217E+01 -0.24694937257E+02 -0.20750409215E+03  0.24357297324E+03  0.12510168803E+03 0.  0.
          5    1    3    3  502    0 -0.37326849174E+02 -0.59226769193E+02 -0.14732301910E+03  0.16316448209E+03  0.41800000000E+01 0.  1.
         -5    1    3    3    0  502  0.40420837195E+02  0.34531831936E+02 -0.60181073047E+02  0.80408491154E+02  0.41800000000E+01 0.  1.
        -11    1    1    2    0    0  0.20475499211E+02  0.31928993435E+02 -0.14449327032E+00  0.37930562453E+02  0.00000000000E+00 0.  1.
         11    1    1    2    0    0 -0.23569487233E+02 -0.72340561780E+01 -0.88727022362E+02  0.92088744125E+02  0.00000000000E+00 0. -1.
</event>
<event>
 7    1  0.2679104E-009  0.1290063E+03  0.7561462E-02  0.1228938E+00
          1   -1    0    0  501    0  0.00000000000E+00  0.00000000000E+00  0.33436298191E+02  0.33436298191E+02  0.00000000000E+00 0.  1.
         -1   -1    0    0    0  501 -0.00000000000E+00 -0.00000000000E+00 -0.55182790552E+03  0.55182790552E+03  0.00000000000E+00 0. -1.
         25    2    1    2    0    0  0.79215796148E+02 -0.17736496883E+02 -0.31611678350E+03  0.34952421440E+03  0.12509048711E+03 0.  0.
          5    1    3    3  502    0 -0.23419831114E+02 -0.24860342420E+02 -0.30743122228E+02  0.46142573389E+02  0.41800000000E+01 0. -1.
         -5    1    3    3    0  502  0.10263562726E+03  0.71238455372E+01 -0.28537366127E+03  0.30338164101E+03  0.41800000000E+01 0. -1.
        -11    1    1    2    0    0  0.16255666353E+02 -0.12483332638E+02 -0.42366339086E+02  0.47063648073E+02  0.00000000000E+00 0.  1.
         11    1    1    2    0    0 -0.95471462501E+02  0.30219829521E+02 -0.15990848475E+03  0.18867634124E+03  0.00000000000E+00 0. -1.
</event>
<event>
 7    1  0.2679104E-009  0.9111437E+02  0.7561462E-02  0.1300175E+00
          2   -1    0    0  501    0  0.00000000000E+00  0.00000000000E+00  0.23509636903E+04  0.23509636903E+04  0.00000000000E+00 0. -1.
         -2   -1    0    0    0  501 -0.00000000000E+00 -0.00000000000E+00 -0.16856194418E+02  0.16856194418E+02  0.00000000000E+00 0.  1.
         25    2    1    2    0    0  0.22396889071E+02  0.25671296024E+02  0.21855771967E+04  0.21894190862E+04  0.12509043069E+03 0.  0.
          5    1    3    3  502    0  0.20219658387E+02 -0.27167364598E+02  0.17871632816E+04  0.17874890119E+04  0.41800000000E+01 0. -1.
         -5    1    3    3    0  502  0.21772306839E+01  0.52838660622E+02  0.39841391513E+03  0.40193007422E+03  0.41800000000E+01 0. -1.
        -11    1    1    2    0    0  0.31985787564E+02  0.53787336270E+01  0.29225418105E+02  0.43659437066E+02  0.00000000000E+00 0.  1.
         11    1    1    2    0    0 -0.54382676635E+02 -0.31050029651E+02  0.11930488109E+03  0.13474136154E+03  0.00000000000E+00 0. -1.
</event>
<event>
 7    1  0.2679104E-009  0.6484951E+02  0.7561462E-02  0.1378538E+00
          2   -1    0    0  501    0  0.00000000000E+00  0.00000000000E+00  0.82043872106E+03  0.82043872106E+03  0.00000000000E+00 0.  1.
         -2   -1    0    0    0  501 -0.00000000000E+00 -0.00000000000E+00 -0.15260735026E+02  0.15260735026E+02  0.00000000000E+00 0. -1.
         25    2    1    2    0    0 -0.37948029356E+01 -0.61761968295E+01  0.53732351808E+03  0.55173926268E+03  0.12508838860E+03 0.  0.
          5    1    3    3  502    0 -0.26681339797E+02  0.18098552904E+01  0.52212249750E+03  0.52282362634E+03  0.41800000000E+01 0.  1.
         -5    1    3    3    0  502  0.22886536862E+02 -0.79860521199E+01  0.15201020587E+02  0.28915636338E+02  0.41800000000E+01 0.  1.
        -11    1    1    2    0    0 -0.16675322257E+02 -0.31224321624E+02  0.20484625521E+03  0.20788220921E+03  0.00000000000E+00 0.  1.
         11    1    1    2    0    0  0.20470125193E+02  0.37400518454E+02  0.63008212738E+02  0.76077984190E+02  0.00000000000E+00 0. -1.
</event>
<event>
 7    1  0.2679104E-009  0.7641768E+02  0.7561462E-02  0.1339536E+00
         -2   -1    0    0    0  501 -0.00000000000E+00  0.00000000000E+00  0.14993129173E+03  0.14993129173E+03  0.00000000000E+00 0. -1.
          2   -1    0    0  501    0  0.00000000000E+00 -0.00000000000E+00 -0.11052227669E+03  0.11052227669E+03  0.00000000000E+00 0.  1.
         25    2    1    2    0    0 -0.18874066798E+02  0.56578112522E+02  0.55495001886E+02  0.14927931891E+03  0.12508919460E+03 0.  0.
          5    1    3    3  502    0  0.18049790225E+02  0.41769877383E+02 -0.30155620523E+02  0.54748072412E+02  0.41800000000E+01 0.  1.
         -5    1    3    3    0  502 -0.36923857023E+02  0.14808235139E+02  0.85650622408E+02  0.94531246497E+02  0.41800000000E+01 0.  1.
        -11    1    1    2    0    0 -0.55463691806E+01 -0.32053383041E+02  0.36075022975E+02  0.48575599411E+02  0.00000000000E+00 0. -1.
         11    1    1    2    0    0  0.24420435978E+02 -0.24524729481E+02 -0.52161009820E+02  0.62598650105E+02  0.00000000000E+00 0.  1.
</event>
<event>
 7    1  0.2679104E-009  0.7456927E+02  0.7561462E-02  0.1345210E+00
          2   -1    0    0  501    0  0.00000000000E+00  0.00000000000E+00  0.18244862100E+03  0.18244862100E+03  0.00000000000E+00 0. -1.
         -2   -1    0    0    0  501 -0.00000000000E+00 -0.00000000000E+00 -0.73702201181E+02  0.73702201181E+02  0.00000000000E+00 0.  1.
         25    2    1    2    0    0 -0.30701079393E+02  0.56948340184E+00  0.94693429245E+02  0.15986310885E+03  0.12508592024E+03 0.  0.
          5    1    3    3  502    0 -0.41678284019E+02  0.90946823666E+01  0.12179639772E+03  0.12911865669E+03  0.41800000000E+01 0.  1.
         -5    1    3    3    0  502  0.10977204626E+02 -0.85251989648E+01 -0.27102968478E+02  0.30744452168E+02  0.41800000000E+01 0.  1.
        -11    1    1    2    0    0  0.56234024210E+02 -0.19990675452E+02 -0.33798053347E+01  0.59777216964E+02  0.00000000000E+00 0. -1.
         11    1    1    2    0    0 -0.25532944816E+02  0.19421192050E+02  0.17432795914E+02  0.36510496367E+02  0.00000000000E+00 0.  1.
</event>
<event>
 7    1  0.2679104E-009  0.8372224E+02  0.7561462E-02  0.1318808E+00
         -2   -1    0    0    0  501 -0.00000000000E+00  0.00000000000E+00  0.56485863482E+02  0.56485863482E+02  0.00000000000E+00 0.  1.
          2   -1    0    0  501    0  0.00000000000E+00 -0.00000000000E+00 -0.17092077816E+03  0.17092077816E+03  0.00000000000E+00 0. -1.
         25    2    1    2    0    0  0.13813856803E+02  0.40352893242E+01 -0.66696280421E+02  0.14249297139E+03  0.12509495143E+03 0.  0.
          5    1    3    3  502    0  0.15743399415E+02  0.62824517116E+02 -0.22107480186E+02  0.68563748849E+02  0.41800000000E+01 0. -1.
         -5    1    3    3    0  502 -0.19295426122E+01 -0.58789227792E+02 -0.44588800234E+02  0.73929222540E+02  0.41800000000E+01 0. -1.
        -11    1    1    2    0    0 -0.66784981086E+01  0.18640888548E+02  0.10210027117E+02  0.22278458577E+02  0.00000000000E+00 0.  1.
         11    1    1    2    0    0 -0.71353586944E+01 -0.22676177872E+02 -0.57948661379E+02  0.62635211680E+02  0.00000000000E+00 0. -1.
</event>
<event>
 7    1  0.2679104E-009  0.1432311E+03  0.7561462E-02  0.1209046E+00
         -1   -1    0    0    0  501 -0.00000000000E+00  0.00000000000E+00  0.90543038501E+02  0.90543038501E+02  0.00000000000E+00 0.  1.
          1   -1    0    0  501    0  0.00000000000E+00 -0.00000000000E+00 -0.33428558618E+03  0.33428558618E+03  0.00000000000E+00 0. -1.
         25    2    1    2    0    0  0.85980536636E+02 -0.10419666090E+03 -0.13886300781E+03  0.23060839544E+03  0.12509076819E+03 0.  0.
          5    1    3    3  502    0  0.87181508535E+01 -0.10506215696E+02 -0.10290233525E+03  0.10388815968E+03  0.41800000000E+01 0.  1.
         -5    1    3    3    0  502  0.77262385782E+02 -0.93690445207E+02 -0.35960672558E+02  0.12672023576E+03  0.41800000000E+01 0.  1.
        -11    1    1    2    0    0 -0.80000173817E+02  0.11395244240E+03 -0.11371169887E+03  0.17976522856E+03  0.00000000000E+00 0. -1.
         11    1    1    2    0    0 -0.59803628182E+01 -0.97557814965E+01  0.88321589998E+01  0.14455000679E+02  0.00000000000E+00 0.  1.
</event>
<event>
 7    1  0.2679104E-009  0.1273949E+03  0.7561462E-02  0.1231373E+00
          2   -1    0    0  501    0  0.00000000000E+00  0.00000000000E+00  0.14724010512E+03  0.14724010512E+03  0.00000000000E+00 0. -1.
         -2   -1    0    0    0  501 -0.00000000000E+00 -0.00000000000E+00 -0.15127622611E+03  0.15127622611E+03  0.00000000000E+00 0.  1.
         25    2    1    2    0    0 -0.76686798764E+02  0.41983893832E+02 -0.56161686878E+02  0.16262241322E+03  0.12509357203E+03 0.  0.
          5    1    3    3  502    0 -0.94883444913E+02  0.93013692516E+01 -0.74201494139E+02  0.12088307458E+03  0.41800000000E+01 0.  1.
         -5    1    3    3    0  502  0.18196646149E+02  0.32682524581E+02  0.18039807261E+02  0.41739338640E+02  0.41800000000E+01 0.  1.
        -11    1    1    2    0    0  0.88096075015E+02 -0.55431912939E+02  0.31479195096E+02  0.10874077032E+03  0.00000000000E+00 0.  1.
         11    1    1    2    0    0 -0.11409276252E+02  0.13448019107E+02  0.20646370795E+02  0.27153147690E+02  0.00000000000E+00 0. -1.
</event>
<event>
 7    1  0.2679104E-009  0.7015835E+02  0.7561462E-02  0.1359555E+00
          1   -1    0    0  501    0  0.00000000000E+00  0.00000000000E+00  0.70958855446E+02  0.70958855446E+02  0.00000000000E+00 0. -1.
         -1   -1    0    0    0  501 -0.00000000000E+00 -0.00000000000E+00 -0.25400050927E+03  0.25400050927E+03  0.00000000000E+00 0.  1.
         25    2    1    2    0    0  0.25152119116E+00 -0.77053238424E+01 -0.19519080814E+03  0.23196183791E+03  0.12508959743E+03 0.  0.
          5    1    3    3  502    0  0.35913187088E+02 -0.14697976373E+02 -0.62666839886E+01  0.39528865965E+02  0.41800000000E+01 0.  1.
         -5    1    3    3    0  502 -0.35661665896E+02  0.69926525303E+01 -0.18892412416E+03  0.19243297195E+03  0.41800000000E+01 0.  1.
        -11    1    1    2    0    0 -0.14382026191E+02  0.32852169062E+02  0.39426971245E+02  0.53297220857E+02  0.00000000000E+00 0. -1.
         11    1    1    2    0    0  0.14130505000E+02 -0.25146845220E+02 -0.27277816921E+02  0.39700305944E+02  0.00000000000E+00 0.  1.
</event>
<event>
 7    1  0.2679104E-009  0.9356730E+02  0.7561462E-02  0.1294436E+00
         -3   -1    0    0    0  501 -0.00000000000E+00  0.00000000000E+00  0.42142689575E+02  0.42142689575E+02  0.00000000000E+00 0.  1.
          3   -1    0    0  501    0  0.00000000000E+00 -0.00000000000E+00 -0.30665935897E+03  0.30665935897E+03  0.00000000000E+00 0. -1.
         25    2    1    2    0    0  0.15746843814E+02  0.21831638877E+02 -0.17586014021E+03  0.21748305584E+03  0.12508999607E+03 0.  0.
          5    1    3    3  502    0  0.63549509709E+02  0.17035385319E+02 -0.50125853843E+02  0.82817982110E+02  0.41800000000E+01 0. -1.
         -5    1    3    3    0  502 -0.47802665895E+02  0.47962535577E+01 -0.12573428636E+03  0.13466507373E+03  0.41800000000E+01 0. -1.
        -11    1    1    2    0    0  0.26329864986E+02 -0.18232977402E+01 -0.79591838730E+02  0.83853723813E+02  0.00000000000E+00 0. -1.
         11    1    1    2    0    0 -0.42076708799E+02 -0.20008341136E+02 -0.90646904621E+01  0.47465268898E+02  0.00000000000E+00 0.  1.
</event>
<event>
 7    1  0.2679104E-009  0.1575036E+03  0.7561462E-02  0.1191544E+00
         -2   -1    0    0    0  501 -0.00000000000E+00  0.00000000000E+00  0.75783936370E+02  0.75783936370E+02  0.00000000000E+00 0. -1.
          2   -1    0    0  501    0  0.00000000000E+00 -0.00000000000E+00 -0.34264784211E+03  0.34264784211E+03  0.00000000000E+00 0.  1.
         25    2    1    2    0    0  0.11618450682E+03  0.11863927975E+02 -0.11626487466E+03  0.20689281693E+03  0.12509006438E+03 0.  0.
          5    1    3    3  502    0  0.12139100649E+03  0.50703107366E+02 -0.86384111788E+02  0.15743655459E+03  0.41800000000E+01 0. -1.
         -5    1    3    3    0  502 -0.52064996684E+01 -0.38839179391E+02 -0.29880762872E+02  0.49456262337E+02  0.41800000000E+01 0. -1.
        -11    1    1    2    0    0  0.15872346765E+01 -0.25382772797E+02 -0.49858652888E+02  0.55970436273E+02  0.00000000000E+00 0.  1.
         11    1    1    2    0    0 -0.11777174149E+03  0.13518844822E+02 -0.10074037819E+03  0.15556852528E+03  0.00000000000E+00 0. -1.
</event>
<event>
 7    1  0.2679104E-009  0.1198056E+03  0.7561462E-02  0.1243418E+00
         -1   -1    0    0    0  501 -0.00000000000E+00  0.00000000000E+00  0.26544152353E+03  0.26544152353E+03  0.00000000000E+00 0. -1.
          1   -1    0    0  501    0  0.00000000000E+00 -0.00000000000E+00 -0.61061670358E+02  0.61061670358E+02  0.00000000000E+00 0.  1.
         25    2    1    2    0    0  0.23129578112E+02 -0.55241853663E+02  0.72640766047E+02  0.15655766809E+03  0.12508790016E+03 0.  0.
          5    1    3    3  502    0  0.52172269241E+01 -0.92486004258E+02  0.31079395131E+02  0.97797145368E+02  0.41800000000E+01 0. -1.
         -5    1    3    3    0  502  0.17912351187E+02  0.37244150596E+02  0.41561370916E+02  0.58760522726E+02  0.41800000000E+01 0. -1.
        -11    1    1    2    0    0 -0.27916969926E+02 -0.17170594510E+02  0.26692404178E+02  0.42269030820E+02  0.00000000000E+00 0.  1.
         11    1    1    2    0    0  0.47873918143E+01  0.72412448173E+02  0.10504668295E+03  0.12767649498E+03  0.00000000000E+00 0. -1.
</event>
<event>
 7    1  0.3036286E-009  0.1160656E+03  0.7561462E-02  0.1249732E+00
         -1   -1    0    0    0  501 -0.00000000000E+00  0.00000000000E+00  0.29781802539E+02  0.29781802539E+02  0.00000000000E+00 0.  1.
          1   -1    0    0  501    0  0.00000000000E+00 -0.00000000000E+00 -0.62022204835E+03  0.62022204835E+03  0.00000000000E+00 0. -1.
         25    2    1    2    0    0 -0.43732224087E+02 -0.32329037960E+02 -0.46832550044E+03  0.48778453882E+03  0.12508919949E+03 0.  0.
          5    1    3    3  502    0 -0.42987892280E+02 -0.72876843204E+02 -0.21305863343E+03  0.22928246082E+03  0.41800000000E+01 0. -1.
         -5    1    3    3    0  502 -0.74433180719E+00  0.40547805244E+02 -0.25526686701E+03  0.25850207800E+03  0.41800000000E+01 0. -1.
        -11    1    1    2    0    0 -0.27559521350E+02 -0.17790871531E+01 -0.35304629909E+02  0.44823088483E+02  0.00000000000E+00 0.  1.
         11    1    1    2    0    0  0.71291745437E+02  0.34108125113E+02 -0.86810115468E+02  0.11739622359E+03  0.00000000000E+00 0. -1.
</event>
<event>
 7    1  0.2679104E-009  0.1421902E+03  0.7561462E-02  0.1210412E+00
          2   -1    0    0  501    0  0.00000000000E+00  0.00000000000E+00  0.44321317498E+03  0.44321317498E+03  0.00000000000E+00 0.  1.
         -2   -1    0    0    0  501 -0.00000000000E+00 -0.00000000000E+00 -0.53796230489E+02  0.53796230489E+02  0.00000000000E+00 0. -1.
         25    2    1    2    0    0  0.21199988115E+02 -0.10675163535E+03  0.24048702410E+03  0.29210714260E+03  0.12508885982E+03 0.  0.
          5    1    3    3  502    0  0.42449553262E+02 -0.11998018825E+03  0.14348331581E+03  0.19183885024E+03  0.41800000000E+01 0.  1.
         -5    1    3    3    0  502 -0.21249565147E+02  0.13228552901E+02  0.97003708294E+02  0.10026829236E+03  0.41800000000E+01 0.  1.
        -11    1    1    2    0    0  0.21363229151E+02  0.58424525512E+01  0.28545969205E+01  0.22330932250E+02  0.00000000000E+00 0. -1.
         11    1    1    2    0    0 -0.42563217266E+02  0.10090918280E+03  0.14607532347E+03  0.18257133062E+03  0.00000000000E+00 0.  1.
</event>
<event>
 7    1  0.2679104E-009  0.8619570E+02  0.7561462E-02  0.1312335E+00
          2   -1    0    0  501    0  0.00000000000E+00  0.00000000000E+00  0.28599697819E+03  0.28599697819E+03  0.00000000000E+00 0. -1.
         -2   -1    0    0    0  501 -0.00000000000E+00 -0.00000000000E+00 -0.46075953923E+02  0.46075953923E+02  0.00000000000E+00 0.  1.
         25    2    1    2    0    0 -0.32058787214E+02  0.24952123365E+02  0.12944530901E+03  0.18453657443E+03  0.12508910816E+03 0.  0.
          5    1    3    3  502    0 -0.23271854342E+02  0.73983489660E+02  0.56243865462E+02  0.95895676383E+02  0.41800000000E+01 0. -1.
         -5    1    3    3    0  502 -0.87869328725E+01 -0.49031366295E+02  0.73201443547E+02  0.88640898052E+02  0.41800000000E+01 0. -1.
        -11    1    1    2    0    0  0.14953878559E+02 -0.58849315771E+00 -0.13428105563E+02  0.20106686131E+02  0.00000000000E+00 0.  1.
         11    1    1    2    0    0  0.17104908655E+02 -0.24363630207E+02  0.12390382082E+03  0.12742967155E+03  0.00000000000E+00 0. -1.
</event>
<event>
 7    1  0.2679104E-009  0.8847075E+02  0.7561462E-02  0.1306598E+00
         -3   -1    0    0    0  501 -0.00000000000E+00  0.00000000000E+00  0.29400925532E+03  0.29400925532E+03  0.00000000000E+00 0.  1.
          3   -1    0    0  501    0  0.00000000000E+00 -0.00000000000E+00 -0.53741616410E+02  0.53741616410E+02  0.00000000000E+00 0. -1.
         25    2    1    2    0    0  0.42772954786E+02  0.67562416589E+01  0.19724598097E+03  0.23754583310E+03  0.12508746281E+03 0.  0.
          5    1    3    3  502    0 -0.42506304604E+02  0.13948387281E+02  0.50319319898E+02  0.67459986614E+02  0.41800000000E+01 0.  1.
         -5    1    3    3    0  502  0.85279259390E+02 -0.71921456224E+01  0.14692666107E+03  0.17008584649E+03  0.41800000000E+01 0.  1.
        -11    1    1    2    0    0 -0.10316397905E+02 -0.91391756856E+01  0.67872606357E+02  0.69257803110E+02  0.00000000000E+00 0.  1.
         11    1    1    2    0    0 -0.32456556880E+02  0.23829340267E+01 -0.24850948421E+02  0.40947235517E+02  0.00000000000E+00 0. -1.
</event>
<event>
 7    1  0.2679104E-009  0.1390800E+03  0.7561462E-02  0.1214572E+00
          2   -1    0    0  501    0  0.00000000000E+00  0.00000000000E+00  0.27269060964E+03  0.27269060964E+03  0.00000000000E+00 0. -1.
         -2   -1    0    0    0  501 -0.00000000000E+00 -0.00000000000E+00 -0.90700097730E+02  0.90700097730E+02  0.00000000000E+00 0.  1.
         25    2    1    2    0    0  0.10437529390E+03 -0.27662881658E+02  0.13987350558E+03  0.21649635949E+03  0.12508652651E+03 0.  0.
          5    1    3    3  502    0 -0.11997295384E+01  0.38847433115E+02  0.22314517129E+02  0.45010804096E+02  0.41800000000E+01 0. -1.
         -5    1    3    3    0  502  0.10557502344E+03 -0.66510314774E+02  0.11755898845E+03  0.17148555540E+03  0.41800000000E+01 0. -1.
        -11    1    1    2    0    0 -0.62966847952E+02 -0.24608905547E+01  0.65244954976E+02  0.90707133529E+02  0.00000000000E+00 0. -1.
         11    1    1    2    0    0 -0.41408445949E+02  0.30123772213E+02 -0.23127948638E+02  0.56187214351E+02  0.00000000000E+00 0.  1.
</event>
<event>
 7    1  0.2679104E-009  0.1702299E+03  0.7561462E-02  0.1177608E+00
          1   -1    0    0  501    0  0.00000000000E+00  0.00000000000E+00  0.42354112168E+03  0.42354112168E+03  0.00000000000E+00 0. -1.
         -1   -1    0    0    0  501 -0.00000000000E+00 -0.00000000000E+00 -0.77361543286E+02  0.77361543286E+02  0.00000000000E+00 0.  1.
         25    2    1    2    0    0 -0.81427129856E+02  0.11721676244E+03  0.21926611136E+03  0.28999040544E+03  0.12508661311E+03 0.  0.
          5    1    3    3  502    0 -0.78629717550E+02  0.13481846335E+03  0.22207974712E+03  0.27146921929E+03  0.41800000000E+01 0. -1.
         -5    1    3    3    0  502 -0.27974123057E+01 -0.17601700903E+02 -0.28136357543E+01  0.18521186151E+02  0.41800000000E+01 0. -1.
        -11    1    1    2    0    0 -0.17583953865E+02 -0.26085551740E+02  0.11063902432E+02  0.33347584323E+02  0.00000000000E+00 0. -1.
         11    1    1    2    0    0  0.99011083721E+02 -0.91131210702E+02  0.11584956460E+03  0.17756467521E+03  0.00000000000E+00 0.  1.
</event>
<event>
 7    1  0.2679104E-009  0.1142040E+03  0.7561462E-02  0.1252977E+00
         -2   -1    0    0    0  501 -0.00000000000E+00  0.00000000000E+00  0.19920262637E+02  0.19920262637E+02  0.00000000000E+00 0. -1.
          2   -1    0    0  501    0  0.00000000000E+00 -0.00000000000E+00 -0.69746806350E+03  0.69746806350E+03  0.00000000000E+00 0.  1.
         25    2    1    2    0    0 -0.28463384358E+02 -0.32079877234E+02 -0.34869640121E+03  0.37292824547E+03  0.12508802214E+03 0.  0.
          5    1    3    3  502    0 -0.15315299919E+02  0.48031576651E+02 -0.12064306187E+03  0.13081976741E+03  0.41800000000E+01 0. -1.
         -5    1    3    3    0  502 -0.13148084439E+02 -0.80111453886E+02 -0.22805333934E+03  0.24210847807E+03  0.41800000000E+01 0. -1.
        -11    1    1    2    0    0 -0.28106779201E+02  0.28218689160E+02 -0.81742488675E+02  0.90929202733E+02  0.00000000000E+00 0.  1.
         11    1    1    2    0    0  0.56570163559E+02  0.38611880739E+01 -0.24710891098E+03  0.25353087793E+03  0.00000000000E+00 0. -1.
</event>
<event>
 7    1  0.2679104E-009  0.1104711E+03  0.7561462E-02  0.1259700E+00
          1   -1    0    0  501    0  0.00000000000E+00  0.00000000000E+00  0.10234533677E+04  0.10234533677E+04  0.00000000000E+00 0. -1.
         -1   -1    0    0    0  501 -0.00000000000E+00 -0.00000000000E+00 -0.23808589066E+02  0.23808589066E+02  0.00000000000E+00 0.  1.
         25    2    1    2    0    0  0.71330098716E+02  0.36764443532E+02  0.78795024466E+03  0.80184364604E+03  0.12509211546E+03 0.  0.
          5    1    3    3  502    0  0.94699421029E+02 -0.19021508181E+01  0.39202429536E+03  0.40332631835E+03  0.41800000000E+01 0.  1.
         -5    1    3    3    0  502 -0.23369322313E+02  0.38666594350E+02  0.39592594930E+03  0.39851732769E+03  0.41800000000E+01 0.  1.
        -11    1    1    2    0    0 -0.21139759883E+02 -0.15675813872E+02 -0.52928980197E+00  0.26323007734E+02  0.00000000000E+00 0.  1.
         11    1    1    2    0    0 -0.50190338833E+02 -0.21088629659E+02  0.21222382381E+03  0.21909530302E+03  0.00000000000E+00 0. -1.
</event>
<event>
 7    1  0.2679104E-009  0.6729045E+02  0.7561462E-02  0.1369557E+00
          2   -1    0    0  501    0  0.00000000000E+00  0.00000000000E+00  0.16663748198E+03  0.16663748198E+03  0.00000000000E+00 0. -1.
         -2   -1    0    0    0  501 -0.00000000000E+00 -0.00000000000E+00 -0.80428111047E+02  0.80428111047E+02  0.00000000000E+00 0.  1.
         25    2    1    2    0    0  0.35747568579E+02 -0.20333810122E+02  0.35957969866E+02  0.13651123724E+03  0.12510391602E+03 0.  0.
          5    1    3    3  502    0  0.50482181163E+02 -0.18702082270E+02 -0.34705543844E+02  0.64188516650E+02  0.41800000000E+01 0.  1.
         -5    1    3    3    0  502 -0.14734612583E+02 -0.16317278517E+01  0.70663513710E+02  0.72322720590E+02  0.41800000000E+01 0.  1.
        -11    1    1    2    0    0 -0.48571626903E+02  0.12502633523E+02 -0.76499853002E+01  0.50735008230E+02  0.00000000000E+00 0.  1.
         11    1    1    2    0    0  0.12824058324E+02  0.78311765992E+01  0.57901386371E+02  0.59819347560E+02  0.00000000000E+00 0. -1.
</event>
<event>
 7    1  0.2679104E-009  0.1262952E+03  0.7561462E-02  0.1233059E+00
          2   -1    0    0  501    0  0.00000000000E+00  0.00000000000E+00  0.38284069352E+03  0.38284069352E+03  0.00000000000E+00 0. -1.
         -2   -1    0    0    0  501 -0.00000000000E+00 -0.00000000000E+00 -0.68574531644E+02  0.68574531644E+02  0.00000000000E+00 0.  1.
         25    2    1    2    0    0 -0.95663511552E+02  0.34010054827E+02  0.80789743723E+02  0.18022815113E+03  0.12508801900E+03 0.  0.
          5    1    3    3  502    0 -0.15305882567E+02  0.62819795853E+02  0.33242859255E+01  0.64877731689E+02  0.41800000000E+01 0. -1.
         -5    1    3    3    0  502 -0.80357628985E+02 -0.28809741026E+02  0.77465457797E+02  0.11535041944E+03  0.41800000000E+01 0. -1.
        -11    1    1    2    0    0  0.45203175932E+02 -0.93251312744E+01  0.20114534734E+03  0.20637280815E+03  0.00000000000E+00 0. -1.
         11    1    1    2    0    0  0.50460335620E+02 -0.24684923552E+02  0.32331070812E+02  0.64814265880E+02  0.00000000000E+00 0.  1.
</event>
<event>
 7    1  0.2679104E-009  0.8174618E+02  0.7561462E-02  0.1324168E+00
          2   -1    0    0  501    0  0.00000000000E+00  0.00000000000E+00  0.82351448211E+02  0.82351448211E+02  0.00000000000E+00 0. -1.
         -2   -1    0    0    0  501 -0.00000000000E+00 -0.00000000000E+00 -0.20729494876E+03  0.20729494876E+03  0.00000000000E+00 0.  1.
         25    2    1    2    0    0 -0.39000847964E+02  0.57003039903E+02 -0.96785201118E+02  0.17258044287E+03  0.12508485682E+03 0.  0.
          5    1    3    3  502    0 -0.13546900368E+02  0.11306958702E+02  0.30174391901E+02  0.35204149631E+02  0.41800000000E+01 0. -1.
         -5    1    3    3    0  502 -0.25453947596E+02  0.45696081200E+02 -0.12695959302E+03  0.13737629324E+03  0.41800000000E+01 0. -1.
        -11    1    1    2    0    0  0.13694852729E+02  0.12732549519E+02 -0.37882326894E+02  0.42246153664E+02  0.00000000000E+00 0.  1.
         11    1    1    2    0    0  0.25305995235E+02 -0.69735589422E+02  0.97240274626E+01  0.74819800434E+02  0.00000000000E+00 0. -1.
</event>
<event>
 7    1  0.2679104E-009  0.9905934E+02  0.7561462E-02  0.1282287E+00
         -2   -1    0    0    0  501 -0.00000000000E+00  0.00000000000E+00  0.50318449607E+02  0.50318449607E+02  0.00000000000E+00 0.  1.
          2   -1    0    0  501    0  0.00000000000E+00 -0.00000000000E+00 -0.28290817332E+03  0.28290817332E+03  0.00000000000E+00 0. -1.
         25    2    1    2    0    0  0.82814159253E+01 -0.40974498121E+02 -0.16391520530E+03  0.21038727829E+03  0.12508845268E+03 0.  0.
          5    1    3    3  502    0  0.35501462081E+02  0.11144187688E+02 -0.14302959808E+03  0.14784953519E+03  0.41800000000E+01 0.  1.
         -5    1    3    3    0  502 -0.27220046156E+02 -0.52118685809E+02 -0.20885607213E+02  0.62537743098E+02  0.41800000000E+01 0.  1.
        -11    1    1    2    0    0 -0.36036937230E+02  0.58639617153E+02 -0.43629623840E+02  0.81491162841E+02  0.00000000000E+00 0. -1.
         11    1    1    2    0    0  0.27755521305E+02 -0.17665119031E+02 -0.25044894578E+02  0.41348181795E+02  0.00000000000E+00 0.  1.
</event>
<event>
 7    1  0.2679104E-009  0.7316137E+02  0.7561462E-02  0.1349661E+00
         -2   -1    0    0    0  501 -0.00000000000E+00  0.00000000000E+00  0.15176246589E+03  0.15176246589E+03  0.00000000000E+00 0.  1.
          2   -1    0    0  501    0  0.00000000000E+00 -0.00000000000E+00 -0.11794193374E+03  0.11794193374E+03  0.00000000000E+00 0. -1.
         25    2    1    2    0    0  0.25679570415E+02  0.23099653133E+01 -0.56717657992E+02  0.13974611559E+03  0.12508919944E+03 0.  0.
          5    1    3    3  502    0 -0.28026129428E+02 -0.26611230895E+02 -0.67277090479E+02  0.77700069780E+02  0.41800000000E+01 0.  1.
         -5    1    3    3    0  502  0.53705699843E+02  0.28921196209E+02  0.10559432487E+02  0.62046045807E+02  0.41800000000E+01 0.  1.
        -11    1    1    2    0    0 -0.21729616361E+02  0.16376499712E+02  0.10340770794E+03  0.10692763923E+03  0.00000000000E+00 0.  1.
         11    1    1    2    0    0 -0.39499540540E+01 -0.18686465025E+02 -0.12869517803E+02  0.23030644816E+02  0.00000000000E+00 0. -1.
</event>
<event>
 7    1  0.2679104E-009  0.8509966E+02  0.7561462E-02  0.1315172E+00
         -1   -1    0    0    0  501 -0.00000000000E+00  0.00000000000E+00  0.10557482711E+03  0.10557482711E+03  0.00000000000E+00 0.  1.
          1   -1    0    0  501    0  0.00000000000E+00 -0.00000000000E+00 -0.13509912823E+03  0.13509912823E+03  0.00000000000E+00 0. -1.
         25    2    1    2    0    0  0.11305252360E+02  0.18177461372E+02 -0.63879951348E+02  0.14207662891E+03  0.12508753521E+03 0.  0.
          5    1    3    3  502    0  0.15711549907E+02  0.69826074356E+02 -0.52448727655E+02  0.88830596604E+02  0.41800000000E+01 0. -1.
         -5    1    3    3    0  502 -0.44062975468E+01 -0.51648612984E+02 -0.11431223693E+02  0.53246032306E+02  0.41800000000E+01 0. -1.
        -11    1    1    2    0    0  0.15713408071E+02 -0.54200451882E+01  0.58100988578E+02  0.60431886920E+02  0.00000000000E+00 0.  1.
         11    1    1    2    0    0 -0.27018660432E+02 -0.12757416184E+02 -0.23745338348E+02  0.38165439503E+02  0.00000000000E+00 0. -1.
</event>
<event>
 7    1  0.2679104E-009  0.1420860E+03  0.7561462E-02  0.1210549E+00
         -1   -1    0    0    0  501 -0.00000000000E+00  0.00000000000E+00  0.17598536784E+03  0.17598536784E+03  0.00000000000E+00 0.  1.
          1   -1    0    0  501    0  0.00000000000E+00 -0.00000000000E+00 -0.15133711256E+03  0.15133711256E+03  0.00000000000E+00 0. -1.
         25    2    1    2    0    0 -0.17896391221E+02 -0.11758666780E+03 -0.12777693210E+02  0.17308239505E+03  0.12508933116E+03 0.  0.
          5    1    3    3  502    0  0.46175137709E+02 -0.74567860664E+02  0.18452206372E+02  0.89724386353E+02  0.41800000000E+01 0. -1.
         -5    1    3    3    0  502 -0.64071528930E+02 -0.43018807137E+02 -0.31229899582E+02  0.83358008702E+02  0.41800000000E+01 0. -1.
        -11    1    1    2    0    0  0.14306515927E+02  0.75820366343E+02 -0.23165501616E+02  0.80560814391E+02  0.00000000000E+00 0. -1.
         11    1    1    2    0    0  0.35898752945E+01  0.41766301458E+02  0.60591450105E+02  0.73679270952E+02  0.00000000000E+00 0.  1.
</event>
<event>
 7    1  0.2679104E-009  0.1108958E+03  0.7561462E-02  0.1258920E+00
         -2   -1    0    0    0  501 -0.00000000000E+00  0.00000000000E+00  0.11867081779E+02  0.11867081779E+02  0.00000000000E+00 0.  1.
          2   -1    0    0  501    0  0.00000000000E+00 -0.00000000000E+00 -0.14416405185E+04  0.14416405185E+04  0.00000000000E+00 0. -1.
         25    2    1    2    0    0 -0.31306741478E+02 -0.29613560697E+01 -0.11727534639E+04  0.11798250233E+04  0.12509003453E+03 0.  0.
          5    1    3    3  502    0 -0.65342882015E+02 -0.40484605337E+02 -0.78175098425E+03  0.78553215674E+03  0.41800000000E+01 0.  1.
         -5    1    3    3    0  502  0.34036140537E+02  0.37523249267E+02 -0.39100247965E+03  0.39429286653E+03  0.41800000000E+01 0.  1.
        -11    1    1    2    0    0 -0.11067331439E+01  0.42689764939E+02 -0.11198243771E+03  0.11984868478E+03  0.00000000000E+00 0.  1.
         11    1    1    2    0    0  0.32413474621E+02 -0.39728408870E+02 -0.14503753512E+03  0.15383389224E+03  0.00000000000E+00 0. -1.
</event>
<event>
 7    1  0.2679104E-009  0.1262518E+03  0.7561462E-02  0.1233126E+00
          2   -1    0    0  501    0  0.00000000000E+00  0.00000000000E+00  0.10224270383E+04  0.10224270383E+04  0.00000000000E+00 0. -1.
         -2   -1    0    0    0  501 -0.00000000000E+00 -0.00000000000E+00 -0.27207380992E+02  0.27207380992E+02  0.00000000000E+00 0.  1.
         25    2    1    2    0    0  0.11818854957E+03  0.93256666912E+01  0.67231056233E+03  0.69404924799E+03  0.12508942846E+03 0.  0.
          5    1    3    3  502    0  0.14789621045E+02 -0.11716039441E+02  0.72242088631E+01  0.20631530834E+02  0.41800000000E+01 0.  1.
         -5    1    3    3    0  502  0.10339892852E+03  0.21041706132E+02  0.66508635347E+03  0.67341771716E+03  0.41800000000E+01 0.  1.
        -11    1    1    2    0    0 -0.91613549086E+01  0.13375057829E+02  0.25372468459E+01  0.16409150412E+02  0.00000000000E+00 0.  1.
         11    1    1    2    0    0 -0.10902719466E+03 -0.22700724520E+02  0.32037184815E+03  0.33917602091E+03  0.00000000000E+00 0. -1.
</event>
<event>
 7    1  0.2679104E-009  0.7068322E+02  0.7561462E-02  0.1357785E+00
          1   -1    0    0  501    0  0.00000000000E+00  0.00000000000E+00  0.68722792289E+03  0.68722792289E+03  0.00000000000E+00 0. -1.
         -1   -1    0    0    0  501 -0.00000000000E+00 -0.00000000000E+00 -0.32791413504E+02  0.32791413504E+02  0.00000000000E+00 0.  1.
         25    2    1    2    0    0  0.37727686692E+02 -0.52198090808E+02  0.54247913381E+03  0.56042864538E+03  0.12509451192E+03 0.  0.
          5    1    3    3  502    0  0.35082536102E+02 -0.35467621117E+02  0.62250696640E+02  0.79883403277E+02  0.41800000000E+01 0.  1.
         -5    1    3    3    0  502  0.26451505899E+01 -0.16730469691E+02  0.48022843717E+03  0.48054524210E+03  0.41800000000E+01 0.  1.
        -11    1    1    2    0    0 -0.12078152013E+02  0.45878008390E+02  0.12233264686E+03  0.13120956481E+03  0.00000000000E+00 0. -1.
         11    1    1    2    0    0 -0.25649534679E+02  0.63200824187E+01 -0.10375271279E+02  0.28381126213E+02  0.00000000000E+00 0.  1.
</event>
<event>
 7    1  0.2679104E-009  0.1924449E+03  0.7561462E-02  0.1156274E+00
         -2   -1    0    0    0  501 -0.00000000000E+00  0.00000000000E+00  0.56288305585E+02  0.56288305585E+02  0.00000000000E+00 0.  1.
          2   -1    0    0  501    0  0.00000000000E+00 -0.00000000000E+00 -0.85224453064E+03  0.85224453064E+03  0.00000000000E+00 0. -1.
         25    2    1    2    0    0 -0.65771525730E+02  0.16772515686E+03 -0.53902941817E+03  0.58194332321E+03  0.12509075081E+03 0.  0.
          5    1    3    3  502    0 -0.66948621254E+02  0.13994030559E+03 -0.53023506532E+03  0.55247814790E+03  0.41800000000E+01 0.  1.
         -5    1    3    3    0  502  0.11770955241E+01  0.27784851268E+02 -0.87943528480E+01  0.29465175307E+02  0.41800000000E+01 0.  1.
        -11    1    1    2    0    0  0.30554833340E+02 -0.16324577631E+03 -0.21399145261E+03  0.27087842866E+03  0.00000000000E+00 0.  1.
         11    1    1    2    0    0  0.35216692390E+02 -0.44793805480E+01 -0.42935354280E+02  0.55711084356E+02  0.00000000000E+00 0. -1.
</event>
<event>
 7    1  0.2679104E-009  0.1450481E+03  0.7561462E-02  0.1206693E+00
         -1   -1    0    0    0  501 -0.00000000000E+00  0.00000000000E+00  0.71435110409E+02  0.71435110409E+02  0.00000000000E+00 0.  1.
          1   -1    0    0  501    0  0.00000000000E+00 -0.00000000000E+00 -0.35324453790E+03  0.35324453790E+03  0.00000000000E+00 0. -1.
         25    2    1    2    0    0 -0.11001946875E+03  0.34525415221E+02 -0.16287995925E+03  0.23552783016E+03  0.12508872793E+03 0.  0.
          5    1    3    3  502    0 -0.61766458366E+02 -0.30681763064E+02 -0.21300672354E+02  0.72302538037E+02  0.41800000000E+01 0. -1.
         -5    1    3    3    0  502 -0.48253010383E+02  0.65207178286E+02 -0.14157928690E+03  0.16322529212E+03  0.41800000000E+01 0. -1.
        -11    1    1    2    0    0  0.29972034813E+02 -0.49953320172E+02 -0.21452521958E+02  0.62079527748E+02  0.00000000000E+00 0.  1.
         11    1    1    2    0    0  0.80047433936E+02  0.15427904951E+02 -0.97476946289E+02  0.12707229040E+03  0.00000000000E+00 0. -1.
</event>
<event>
 7    1  0.2679104E-009  0.3901136E+03  0.7561462E-02  0.1047258E+00
          2   -1    0    0  501    0  0.00000000000E+00  0.00000000000E+00  0.19729507855E+04  0.19729507855E+04  0.00000000000E+00 0.  1.
         -2   -1    0    0    0  501 -0.00000000000E+00 -0.00000000000E+00 -0.79349008292E+02  0.79349008292E+02  0.00000000000E+00 0. -1.
         25    2    1    2    0    0 -0.27509001678E+03  0.26221172087E+03  0.99219641176E+03  0.10698276628E+04  0.12509198482E+03 0.  0.
          5    1    3    3  502    0 -0.21910582559E+03  0.13067762302E+03  0.68488538659E+03  0.73086898219E+03  0.41800000000E+01 0. -1.
         -5    1    3    3    0  502 -0.55984191187E+02  0.13153409785E+03  0.30731102518E+03  0.33895868060E+03  0.41800000000E+01 0. -1.
        -11    1    1    2    0    0  0.18237092281E+03 -0.19853999522E+03  0.72239307133E+03  0.77105708783E+03  0.00000000000E+00 0.  1.
         11    1    1    2    0    0  0.92719093966E+02 -0.63671725654E+02  0.17901229411E+03  0.21141504317E+03  0.00000000000E+00 0. -1.
</event>
<event>
 7    1  0.2679104E-009  0.7720987E+02  0.7561462E-02  0.1337161E+00
          1   -1    0    0  501    0  0.00000000000E+00  0.00000000000E+00  0.12546495468E+03  0.12546495468E+03  0.00000000000E+00 0. -1.
         -1   -1    0    0    0  501 -0.00000000000E+00 -0.00000000000E+00 -0.17171000015E+03  0.17171000015E+03  0.00000000000E+00 0.  1.
         25    2    1    2    0    0 -0.35373830903E+02 -0.91460056679E+01  0.67201236504E+02  0.14661921996E+03  0.12508489974E+03 0.  0.
          5    1    3    3  502    0 -0.40751757544E+02  0.14935003138E+02 -0.25559279452E+02  0.50542152979E+02  0.41800000000E+01 0.  1.
         -5    1    3    3    0  502  0.53779266404E+01 -0.24081008806E+02  0.92760515956E+02  0.96077066985E+02  0.41800000000E+01 0.  1.
        -11    1    1    2    0    0  0.39708948732E+02 -0.27875464853E+02 -0.25006178080E+02  0.54581600309E+02  0.00000000000E+00 0. -1.
         11    1    1    2    0    0 -0.43351178288E+01  0.37021470521E+02 -0.88440103899E+02  0.95974134556E+02  0.00000000000E+00 0.  1.
</event>
<event>
 7    1  0.2679104E-009  0.1690734E+03  0.7561462E-02  0.1178818E+00
          1   -1    0    0  501    0  0.00000000000E+00  0.00000000000E+00  0.10229922459E+04  0.10229922459E+04  0.00000000000E+00 0. -1.
         -1   -1    0    0    0  501 -0.00000000000E+00 -0.00000000000E+00 -0.44256077450E+02  0.44256077450E+02  0.00000000000E+00 0.  1.
         25    2    1    2    0    0 -0.88479276180E+02 -0.14057094460E+03  0.32687118120E+03  0.38739660469E+03  0.12507033000E+03 0.  0.
          5    1    3    3  502    0 -0.40137676599E+02 -0.80117962009E+02  0.56231478237E+02  0.10587432391E+03  0.41800000000E+01 0. -1.
         -5    1    3    3    0  502 -0.48341599581E+02 -0.60452982588E+02  0.27063970296E+03  0.28152228077E+03  0.41800000000E+01 0. -1.
        -11    1    1    2    0    0  0.36731208806E+02  0.25395049268E+02  0.60722776009E+02  0.75374702347E+02  0.00000000000E+00 0.  1.
         11    1    1    2    0    0  0.51748067374E+02  0.11517589533E+03  0.59114221128E+03  0.60447701635E+03  0.00000000000E+00 0. -1.
</event>
<event>
 7    1  0.2679104E-009  0.1170681E+03  0.7561462E-02  0.1248014E+00
          1   -1    0    0  501    0  0.00000000000E+00  0.00000000000E+00  0.84438499760E+03  0.84438499760E+03  0.00000000000E+00 0. -1.
         -1   -1    0    0    0  501 -0.00000000000E+00 -0.00000000000E+00 -0.25898431118E+02  0.25898431118E+02  0.00000000000E+00 0.  1.
         25    2    1    2    0    0  0.64512335836E+02  0.76684685159E+02  0.48087408732E+03  0.50688238693E+03  0.12508990334E+03 0.  0.
          5    1    3    3  502    0  0.21635801651E+02  0.28926938089E+02  0.19919675683E+02  0.41462531756E+02  0.41800000000E+01 0. -1.
         -5    1    3    3    0  502  0.42876534185E+02  0.47757747070E+02  0.46095441163E+03  0.46541985518E+03  0.41800000000E+01 0. -1.
        -11    1    1    2    0    0  0.12962980142E+02 -0.49781564514E+02  0.10917063162E+03  0.12068334528E+03  0.00000000000E+00 0. -1.
         11    1    1    2    0    0 -0.77475315979E+02 -0.26903120645E+02  0.22844184755E+03  0.24271769651E+03  0.00000000000E+00 0.  1.
</event>
<event>
 7    1  0.2679104E-009  0.1481415E+03  0.7561462E-02  0.1202775E+00
         -1   -1    0    0    0  501 -0.00000000000E+00  0.00000000000E+00  0.37239536073E+03  0.37239536073E+03  0.00000000000E+00 0.  1.
          1   -1    0    0  501    0  0.00000000000E+00 -0.00000000000E+00 -0.65205216733E+02  0.65205216733E+02  0.00000000000E+00 0. -1.
         25    2    1    2    0    0 -0.10609116075E+03  0.33967346300E+02  0.16588001909E+03  0.23573947714E+03  0.12509118812E+03 0.  0.
          5    1    3    3  502    0 -0.13274668063E+03  0.28295036196E+02  0.11533012500E+03  0.17815948031E+03  0.41800000000E+01 0.  1.
         -5    1    3    3    0  502  0.26655519883E+02  0.56723101032E+01  0.50549894090E+02  0.57579996828E+02  0.41800000000E+01 0.  1.
        -11    1    1    2    0    0  0.12351480510E+01 -0.27857608615E+02  0.27927681283E+01  0.28024480411E+02  0.00000000000E+00 0. -1.
         11    1    1    2    0    0  0.10485601270E+03 -0.61097376842E+01  0.13851735677E+03  0.17383661991E+03  0.00000000000E+00 0.  1.
</event>
<event>
 7    1  0.2679104E-009  0.1254633E+03  0.7561462E-02  0.1234347E+00
         -2   -1    0    0    0  501 -0.00000000000E+00  0.00000000000E+00  0.58971353607E+02  0.58971353607E+02  0.00000000000E+00 0.  1.
          2   -1    0    0  501    0  0.00000000000E+00 -0.00000000000E+00 -0.30388246721E+03  0.30388246721E+03  0.00000000000E+00 0. -1.
         25    2    1    2    0    0 -0.83961091758E+00  0.77860061534E+02 -0.14837289114E+03  0.20910539426E+03  0.12509059499E+03 0.  0.
          5    1    3    3  502    0  0.59217706274E+02  0.17226123839E+02 -0.65827056746E+02  0.90300331553E+02  0.41800000000E+01 0.  1.
         -5    1    3    3    0  502 -0.60057317191E+02  0.60633937695E+02 -0.82545834397E+02  0.11880506271E+03  0.41800000000E+01 0.  1.
        -11    1    1    2    0    0  0.34515730517E+02 -0.43868056593E+02 -0.12744446738E+02  0.57255243995E+02  0.00000000000E+00 0.  1.
         11    1    1    2    0    0 -0.33676119599E+02 -0.33992004941E+02 -0.83793775724E+02  0.96493182563E+02  0.00000000000E+00 0. -1.
</event>
<event>
 7    1  0.2760081E-009  0.1415595E+03  0.7561462E-02  0.1211246E+00
         -2   -1    0    0    0  501 -0.00000000000E+00  0.00000000000E+00  0.21057454585E+02  0.21057454585E+02  0.00000000000E+00 0.  1.
          2   -1    0    0  501    0  0.00000000000E+00 -0.00000000000E+00 -0.14709409460E+04  0.14709409460E+04  0.00000000000E+00 0. -1.
         25    2    1    2    0    0  0.10300716733E+02  0.11847269174E+03 -0.10683688178E+04  0.10822207478E+04  0.12509169705E+03 0.  0.
          5    1    3    3  502    0 -0.50054475630E+02  0.41186504336E+02 -0.26343209731E+03  0.27132217189E+03  0.41800000000E+01 0. -1.
         -5    1    3    3    0  502  0.60355192363E+02  0.77286187402E+02 -0.80493672049E+03  0.81089857590E+03  0.41800000000E+01 0. -1.
        -11    1    1    2    0    0  0.37043696422E+01 -0.49202391154E+02 -0.47928813292E+02  0.68787853530E+02  0.00000000000E+00 0.  1.
         11    1    1    2    0    0 -0.14005086375E+02 -0.69270300585E+02 -0.33358586029E+03  0.34098979922E+03  0.00000000000E+00 0. -1.
</event>
<event>
 7    1  0.2679104E-009  0.1369963E+03  0.7561462E-02  0.1217429E+00
          2   -1    0    0  501    0  0.00000000000E+00  0.00000000000E+00  0.10323670541E+04  0.10323670541E+04  0.00000000000E+00 0. -1.
         -2   -1    0    0    0  501 -0.00000000000E+00 -0.00000000000E+00 -0.25156964881E+02  0.25156964881E+02  0.00000000000E+00 0.  1.
         25    2    1    2    0    0  0.11809907944E+03  0.14592662861E+02  0.49425314697E+03  0.52353986028E+03  0.12508986223E+03 0.  0.
          5    1    3    3  502    0  0.10118161396E+03  0.28483866020E+02  0.48959972402E+03  0.50077381300E+03  0.41800000000E+01 0. -1.
         -5    1    3    3    0  502  0.16917465480E+02 -0.13891203159E+02  0.46534229555E+01  0.22766047278E+02  0.41800000000E+01 0. -1.
        -11    1    1    2    0    0 -0.58849264376E+02 -0.50227353715E+02  0.31263034350E+03  0.32206172492E+03  0.00000000000E+00 0.  1.
         11    1    1    2    0    0 -0.59249815064E+02  0.35634690855E+02  0.20032659874E+03  0.21192243378E+03  0.00000000000E+00 0. -1.
</event>
<event>
 7    1  0.2679104E-009  0.1349639E+03  0.7561462E-02  0.1220271E+00
          2   -1    0    0  501    0  0.00000000000E+00  0.00000000000E+00  0.76630168862E+02  0.76630168862E+02  0.00000000000E+00 0. -1.
         -2   -1    0    0    0  501 -0.00000000000E+00 -0.00000000000E+00 -0.37499078502E+03  0.37499078502E+03  0.00000000000E+00 0.  1.
         25    2    1    2    0    0 -0.88085210170E+02 -0.68708974548E+02 -0.24743183798E+03  0.29891561821E+03  0.12509238557E+03 0.  0.
          5    1    3    3  502    0 -0.10051244213E+03 -0.71425766986E+02 -0.25518336807E+03  0.28344384797E+03  0.41800000000E+01 0. -1.
         -5    1    3    3    0  502  0.12427231961E+02  0.27167924380E+01  0.77515300922E+01  0.15471770233E+02  0.41800000000E+01 0. -1.
        -11    1    1    2    0    0  0.21696324919E+02 -0.14959097568E+02 -0.36364146073E+02  0.44909422560E+02  0.00000000000E+00 0.  1.
         11    1    1    2    0    0  0.66388885250E+02  0.83668072116E+02 -0.14564632105E+02  0.10779591312E+03  0.00000000000E+00 0. -1.
</event>
<event>
 7    1  0.2679104E-009  0.6995110E+02  0.7561462E-02  0.1360259E+00
          1   -1    0    0  501    0  0.00000000000E+00  0.00000000000E+00  0.10008303688E+03  0.10008303688E+03  0.00000000000E+00 0. -1.
         -1   -1    0    0    0  501 -0.00000000000E+00 -0.00000000000E+00 -0.17868358084E+03  0.17868358084E+03  0.00000000000E+00 0.  1.
         25    2    1    2    0    0  0.37469829190E+01  0.35852265573E+02  0.27934447442E+02  0.13314243578E+03  0.12508856872E+03 0.  0.
          5    1    3    3  502    0 -0.16451251783E+02  0.14181448925E+01 -0.45979384054E+02  0.49032958081E+02  0.41800000000E+01 0.  1.
         -5    1    3    3    0  502  0.20198234702E+02  0.34434120680E+02  0.73913831496E+02  0.84109477698E+02  0.41800000000E+01 0.  1.
        -11    1    1    2    0    0 -0.12589644529E+02 -0.57754121462E+02 -0.10672813885E+03  0.12200382501E+03  0.00000000000E+00 0.  1.
         11    1    1    2    0    0  0.88426616101E+01  0.21901855889E+02  0.19314744742E+00  0.23620356934E+02  0.00000000000E+00 0. -1.
</event>
<event>
 7    1  0.2679104E-009  0.1033534E+03  0.7561462E-02  0.1273398E+00
          2   -1    0    0  501    0  0.00000000000E+00  0.00000000000E+00  0.46473358014E+03  0.46473358014E+03  0.00000000000E+00 0. -1.
         -2   -1    0    0    0  501 -0.00000000000E+00 -0.00000000000E+00 -0.28169502073E+02  0.28169502073E+02  0.00000000000E+00 0.  1.
         25    2    1    2    0    0  0.58197134258E+01 -0.23751548489E+01  0.32124712179E+03  0.34479931937E+03  0.12508935589E+03 0.  0.
          5    1    3    3  502    0  0.28387612613E+02 -0.53275613057E+02  0.10241057272E+03  0.11895186128E+03  0.41800000000E+01 0.  1.
         -5    1    3    3    0  502 -0.22567899187E+02  0.50900458209E+02  0.21883654907E+03  0.22584745810E+03  0.41800000000E+01 0.  1.
        -11    1    1    2    0    0  0.39546630304E+02  0.16491877689E+02  0.37557542758E+02  0.56977952018E+02  0.00000000000E+00 0.  1.
         11    1    1    2    0    0 -0.45366343730E+02 -0.14116722840E+02  0.77759413517E+02  0.91125810821E+02  0.00000000000E+00 0. -1.
</event>
<event>
 7    1  0.2679104E-009  0.9783700E+02  0.7561462E-02  0.1284911E+00
         -2   -1    0    0    0  501 -0.00000000000E+00  0.00000000000E+00  0.18239586949E+03  0.18239586949E+03  0.00000000000E+00 0.  1.
          2   -1    0    0  501    0  0.00000000000E+00 -0.00000000000E+00 -0.11562683690E+03  0.11562683690E+03  0.00000000000E+00 0. -1.
         25    2    1    2    0    0  0.31134108383E+02  0.98385883483E+01 -0.61882974395E+02  0.14332866482E+03  0.12508986015E+03 0.  0.
          5    1    3    3  502    0 -0.14531683999E+02  0.55222040037E+02 -0.52743571271E+01  0.57497258968E+02  0.41800000000E+01 0. -1.
         -5    1    3    3    0  502  0.45665792382E+02 -0.45383451689E+02 -0.56608617268E+02  0.85831405849E+02  0.41800000000E+01 0. -1.
        -11    1    1    2    0    0 -0.90475992641E+01 -0.37459208170E+02  0.10577027358E+03  0.11257176423E+03  0.00000000000E+00 0.  1.
         11    1    1    2    0    0 -0.22086509119E+02  0.27620619822E+02  0.22881733414E+02  0.42122277341E+02  0.00000000000E+00 0. -1.
</event>
<event>
 7    1  0.2679104E-009  0.1476659E+03  0.7561462E-02  0.1203371E+00
         -2   -1    0    0    0  501 -0.00000000000E+00  0.00000000000E+00  0.14516540056E+03  0.14516540056E+03  0.00000000000E+00 0.  1.
          2   -1    0    0  501    0  0.00000000000E+00 -0.00000000000E+00 -0.22019652376E+03  0.22019652376E+03  0.00000000000E+00 0. -1.
         25    2    1    2    0    0  0.10883352442E+03 -0.71059885911E+02 -0.97413899913E+02  0.20501685889E+03  0.12509277001E+03 0.  0.
          5    1    3    3  502    0  0.96078644971E+02 -0.89385444576E+02 -0.31110575302E+02  0.13493036729E+03  0.41800000000E+01 0. -1.
         -5    1    3    3    0  502  0.12754879453E+02  0.18325558665E+02 -0.66303324611E+02  0.70086491600E+02  0.41800000000E+01 0. -1.
        -11    1    1    2    0    0 -0.52993289413E+02  0.27112110325E+01  0.44617898291E+02  0.69328177792E+02  0.00000000000E+00 0. -1.
         11    1    1    2    0    0 -0.55840235011E+02  0.68348674878E+02 -0.22235121577E+02  0.91016887638E+02  0.00000000000E+00 0.  1.
</event>
<event>
 7    1  0.2679104E-009  0.1097815E+03  0.7561462E-02  0.1260975E+00
         -2   -1    0    0    0  501 -0.00000000000E+00  0.00000000000E+00  0.38421990990E+02  0.38421990990E+02  0.00000000000E+00 0.  1.
          2   -1    0    0  501    0  0.00000000000E+00 -0.00000000000E+00 -0.49224928747E+03  0.49224928747E+03  0.00000000000E+00 0. -1.
         25    2    1    2    0    0 -0.36915661215E+02 -0.44426594909E+02 -0.37236954930E+03  0.39704292155E+03  0.12509001529E+03 0.  0.
          5    1    3    3  502    0  0.41605306713E+02 -0.39609283543E+02 -0.18580702894E+03  0.19452922992E+03  0.41800000000E+01 0. -1.
         -5    1    3    3    0  502 -0.78520967927E+02 -0.48173113664E+01 -0.18656252036E+03  0.20251369163E+03  0.41800000000E+01 0. -1.
        -11    1    1    2    0    0  0.21906390963E+02 -0.11875634193E+02  0.86030265858E+01  0.26361576564E+02  0.00000000000E+00 0.  1.
         11    1    1    2    0    0  0.15009270251E+02  0.56302229102E+02 -0.90060773759E+02  0.10726678034E+03  0.00000000000E+00 0. -1.
</event>
<event>
 7    1  0.2679104E-009  0.1000008E+03  0.7561462E-02  0.1280294E+00
         -1   -1    0    0    0  501 -0.00000000000E+00  0.00000000000E+00  0.45243453040E+02  0.45243453040E+02  0.00000000000E+00 0.  1.
          1   -1    0    0  501    0  0.00000000000E+00 -0.00000000000E+00 -0.36820157133E+03  0.36820157133E+03  0.00000000000E+00 0. -1.
         25    2    1    2    0    0  0.68312696198E+02  0.39749252350E+01 -0.15034154385E+03  0.20719921662E+03  0.12508601469E+03 0.  0.
          5    1    3    3  502    0  0.39344154793E+02 -0.35159909156E+02 -0.41927206069E+01  0.53096450299E+02  0.41800000000E+01 0. -1.
         -5    1    3    3    0  502  0.28968541404E+02  0.39134834391E+02 -0.14614882324E+03  0.15410276633E+03  0.41800000000E+01 0. -1.
        -11    1    1    2    0    0  0.49968323530E+01 -0.22122299863E+02 -0.62269677573E+01  0.23518920304E+02  0.00000000000E+00 0.  1.
         11    1    1    2    0    0 -0.73309528551E+02  0.18147374628E+02 -0.16638960668E+03  0.18272688744E+03  0.00000000000E+00 0. -1.
</event>
<event>
 7    1  0.2679104E-009  0.1506982E+03  0.7561462E-02  0.1199618E+00
          3   -1    0    0  501    0  0.00000000000E+00  0.00000000000E+00  0.10698072008E+04  0.10698072008E+04  0.00000000000E+00 0. -1.
         -3   -1    0    0    0  501 -0.00000000000E+00 -0.00000000000E+00 -0.32901636306E+02  0.32901636306E+02  0.00000000000E+00 0.  1.
         25    2    1    2    0    0  0.10722041706E+03 -0.80367214392E+02  0.32918240932E+03  0.37678044588E+03  0.12508932332E+03 0.  0.
          5    1    3    3  502    0  0.10293516199E+03 -0.84961957285E+02  0.16428394233E+03  0.21170939485E+03  0.41800000000E+01 0.  1.
         -5    1    3    3    0  502  0.42852550660E+01  0.45947428932E+01  0.16489846698E+03  0.16507105103E+03  0.41800000000E+01 0.  1.
        -11    1    1    2    0    0 -0.39197080376E+02  0.83475752879E+02  0.45068256436E+03  0.46002107153E+03  0.00000000000E+00 0.  1.
         11    1    1    2    0    0 -0.68023336679E+02 -0.31085384869E+01  0.25704059081E+03  0.26590731970E+03  0.00000000000E+00 0. -1.
</event>
<event>
 7    1  0.2679104E-009  0.9538851E+02  0.7561462E-02  0.1290303E+00
          1   -1    0    0  501    0  0.00000000000E+00  0.00000000000E+00  0.16663482282E+03  0.16663482282E+03  0.00000000000E+00 0. -1.
         -1   -1    0    0    0  501 -0.00000000000E+00 -0.00000000000E+00 -0.13173385589E+03  0.13173385589E+03  0.00000000000E+00 0.  1.
         25    2    1    2    0    0 -0.12662489740E+02  0.12886533051E+02 -0.79594206123E+02  0.14936194160E+03  0.12508937033E+03 0.  0.
          5    1    3    3  502    0  0.34389765322E+02  0.42108471624E+02 -0.76216969798E+02  0.93713810223E+02  0.41800000000E+01 0.  1.
         -5    1    3    3    0  502 -0.47052255061E+02 -0.29221938574E+02 -0.33772363254E+01  0.55648131375E+02  0.41800000000E+01 0.  1.
        -11    1    1    2    0    0 -0.19437333595E+02 -0.36161177815E+02  0.18276020781E+02  0.44938331676E+02  0.00000000000E+00 0.  1.
         11    1    1    2    0    0  0.32099823335E+02  0.23274644765E+02  0.96219152274E+02  0.10406840544E+03  0.00000000000E+00 0. -1.
</event>
<event>
 7    1  0.2679104E-009  0.9542282E+02  0.7561462E-02  0.1290227E+00
         -1   -1    0    0    0  501 -0.00000000000E+00  0.00000000000E+00  0.40922997141E+03  0.40922997141E+03  0.00000000000E+00 0. -1.
          1   -1    0    0  501    0  0.00000000000E+00 -0.00000000000E+00 -0.47111557744E+02  0.47111557744E+02  0.00000000000E+00 0.  1.
         25    2    1    2    0    0  0.70933058976E+01 -0.45150002690E+02  0.31682776302E+03  0.34367990104E+03  0.12508878938E+03 0.  0.
          5    1    3    3  502    0 -0.85770303119E+01 -0.78674033043E+02  0.12309496201E+03  0.14640017417E+03  0.41800000000E+01 0.  1.
         -5    1    3    3    0  502  0.15670336209E+02  0.33524030354E+02  0.19373280101E+03  0.19727972687E+03  0.41800000000E+01 0.  1.
        -11    1    1    2    0    0  0.22697171184E+02  0.37105044947E+02 -0.14106857533E+02  0.45726899848E+02  0.00000000000E+00 0.  1.
         11    1    1    2    0    0 -0.29790477082E+02  0.80449577430E+01  0.59397508175E+02  0.66934728260E+02  0.00000000000E+00 0. -1.
</event>
<event>
 7    1  0.2679104E-009  0.6314727E+02  0.7561462E-02  0.1385079E+00
          1   -1    0    0  501    0  0.00000000000E+00  0.00000000000E+00  0.74730139571E+02  0.74730139571E+02  0.00000000000E+00 0. -1.
         -1   -1    0    0    0  501 -0.00000000000E+00 -0.00000000000E+00 -0.19645932750E+03  0.19645932750E+03  0.00000000000E+00 0.  1.
         25    2    1    2    0    0  0.25928642573E+02  0.17504996479E+01 -0.12830762479E+03  0.18106768139E+03  0.12508916784E+03 0.  0.
          5    1    3    3  502    0  0.26875065702E+02  0.30212048758E+02  0.82754605883E+01  0.41484848976E+02  0.41800000000E+01 0.  1.
         -5    1    3    3    0  502 -0.94642312897E+00 -0.28461549110E+02 -0.13658308538E+03  0.13958283242E+03  0.41800000000E+01 0.  1.
        -11    1    1    2    0    0  0.12937849098E+02 -0.10916893604E+02  0.36492101952E+02  0.40227354004E+02  0.00000000000E+00 0. -1.
         11    1    1    2    0    0 -0.38866491671E+02  0.91663939561E+01 -0.29913665096E+02  0.49894431677E+02  0.00000000000E+00 0.  1.
</event>
<event>
 7    1  0.2679104E-009  0.1575238E+03  0.7561462E-02  0.1191521E+00
         -3   -1    0    0    0  501 -0.00000000000E+00  0.00000000000E+00  0.19227414732E+03  0.19227414732E+03  0.00000000000E+00 0.  1.
          3   -1    0    0  501    0  0.00000000000E+00 -0.00000000000E+00 -0.16077527177E+03  0.16077527177E+03  0.00000000000E+00 0. -1.
         25    2    1    2    0    0  0.13919501948E+03  0.12746832669E+02  0.83679429361E+01  0.18777065866E+03  0.12510021021E+03 0.  0.
          5    1    3    3  502    0  0.90442115270E+02  0.58117589203E+02  0.38879632220E+02  0.11439636616E+03  0.41800000000E+01 0. -1.
         -5    1    3    3    0  502  0.48752904210E+02 -0.45370756534E+02 -0.30511689284E+02  0.73374292503E+02  0.41800000000E+01 0. -1.
        -11    1    1    2    0    0 -0.53487583696E+02 -0.12910907570E+02  0.51131188285E+02  0.75113324778E+02  0.00000000000E+00 0.  1.
         11    1    1    2    0    0 -0.85707435784E+02  0.16407490134E+00 -0.28000255672E+02  0.90165435655E+02  0.00000000000E+00 0. -1.
</event>
<event>
 7    1  0.2679104E-009  0.1194835E+03  0.7561462E-02  0.1243952E+00
          2   -1    0    0  501    0  0.00000000000E+00  0.00000000000E+00  0.13339995973E+04  0.13339995973E+04  0.00000000000E+00 0. -1.
         -2   -1    0    0    0  501 -0.00000000000E+00 -0.00000000000E+00 -0.15022282744E+02  0.15022282744E+02  0.00000000000E+00 0.  1.
         25    2    1    2    0    0 -0.50885015537E+02 -0.20290307313E+02  0.10533231865E+04  0.10621386887E+04  0.12509147605E+03 0.  0.
          5    1    3    3  502    0  0.14434927310E+02 -0.57793234716E+02  0.54225249057E+03  0.54553062337E+03  0.41800000000E+01 0.  1.
         -5    1    3    3    0  502 -0.65319942847E+02  0.37502927403E+02  0.51107069597E+03  0.51660806534E+03  0.41800000000E+01 0.  1.
        -11    1    1    2    0    0 -0.18869913907E+02  0.27862248481E+02  0.51425764021E+02  0.61457202559E+02  0.00000000000E+00 0.  1.
         11    1    1    2    0    0  0.69754929444E+02 -0.75719411678E+01  0.21422836402E+03  0.22542598880E+03  0.00000000000E+00 0. -1.
</event>
<event>
 7    1  0.2679104E-009  0.2021942E+03  0.7561462E-02  0.1147901E+00
          2   -1    0    0  501    0  0.00000000000E+00  0.00000000000E+00  0.59181870382E+02  0.59181870382E+02  0.00000000000E+00 0. -1.
         -2   -1    0    0    0  501 -0.00000000000E+00 -0.00000000000E+00 -0.79894160575E+03  0.79894160575E+03  0.00000000000E+00 0.  1.
         25    2    1    2    0    0  0.52314674987E+01 -0.18048731804E+03 -0.28158249476E+03  0.35712582790E+03  0.12508843022E+03 0.  0.
          5    1    3    3  502    0  0.53269017413E+02 -0.14294460144E+03 -0.23535546735E+03  0.28050029538E+03  0.41800000000E+01 0.  1.
         -5    1    3    3    0  502 -0.48037549914E+02 -0.37542716591E+02 -0.46227027415E+02  0.76625532523E+02  0.41800000000E+01 0.  1.
        -11    1    1    2    0    0 -0.29360367618E+02  0.14376664568E+03 -0.41156719161E+03  0.43694213897E+03  0.00000000000E+00 0.  1.
         11    1    1    2    0    0  0.24128900119E+02  0.36720672351E+02 -0.46610048993E+02  0.64055509256E+02  0.00000000000E+00 0. -1.
</event>
<event>
 7    1  0.2679104E-009  0.1204944E+03  0.7561462E-02  0.1242284E+00
         -2   -1    0    0    0  501 -0.00000000000E+00  0.00000000000E+00  0.28636490029E+02  0.28636490029E+02  0.00000000000E+00 0.  1.
          2   -1    0    0  501    0  0.00000000000E+00 -0.00000000000E+00 -0.58681750013E+03  0.58681750013E+03  0.00000000000E+00 0. -1.
         25    2    1    2    0    0  0.22448855838E+02  0.67717864598E+02 -0.30123919211E+03  0.33388912711E+03  0.12508892047E+03 0.  0.
          5    1    3    3  502    0 -0.50059335468E+02  0.10969172603E+02 -0.12027649448E+03  0.13080583832E+03  0.41800000000E+01 0. -1.
         -5    1    3    3    0  502  0.72508191306E+02  0.56748691996E+02 -0.18096269763E+03  0.20308328878E+03  0.41800000000E+01 0. -1.
        -11    1    1    2    0    0  0.59831986030E+01  0.11648884016E+02 -0.22563128784E+01  0.13288570734E+02  0.00000000000E+00 0.  1.
         11    1    1    2    0    0 -0.28432054441E+02 -0.79366748614E+02 -0.25468550512E+03  0.26827629232E+03  0.00000000000E+00 0. -1.
</event>
<event>
 7    1  0.2679104E-009  0.9561918E+02  0.7561462E-02  0.1289788E+00
         -1   -1    0    0    0  501 -0.00000000000E+00  0.00000000000E+00  0.26274320032E+03  0.26274320032E+03  0.00000000000E+00 0.  1.
          1   -1    0    0  501    0  0.00000000000E+00 -0.00000000000E+00 -0.72341119940E+02  0.72341119940E+02  0.00000000000E+00 0. -1.
         25    2    1    2    0    0  0.29168450368E+02 -0.40803220197E+01  0.88315334810E+01  0.12880812790E+03  0.12508433277E+03 0.  0.
          5    1    3    3  502    0  0.32282450429E+02  0.57768682864E+02  0.16889746821E+01  0.66330252230E+02  0.41800000000E+01 0. -1.
         -5    1    3    3    0  502 -0.31140000612E+01 -0.61849004883E+02  0.71425587989E+01  0.62477875665E+02  0.41800000000E+01 0. -1.
        -11    1    1    2    0    0 -0.45940877682E+02  0.23702006664E+01  0.18361815673E+03  0.18929292003E+03  0.00000000000E+00 0.  1.
         11    1    1    2    0    0  0.16772427314E+02  0.17101213533E+01 -0.20476098313E+01  0.16983272331E+02  0.00000000000E+00 0. -1.
</event>
<event>
 7    1  0.2679104E-009  0.1310727E+03  0.7561462E-02  0.1225873E+00
          2   -1    0    0  501    0  0.00000000000E+00  0.00000000000E+00  0.72410034595E+03  0.72410034595E+03  0.00000000000E+00 0. -1.
         -2   -1    0    0    0  501 -0.00000000000E+00 -0.00000000000E+00 -0.37763180060E+02  0.37763180060E+02  0.00000000000E+00 0.  1.
         25    2    1    2    0    0 -0.52870024414E+02 -0.74187184306E+02  0.56262259273E+03  0.58351397891E+03  0.12508158910E+03 0.  0.
          5    1    3    3  502    0  0.28941751084E+02 -0.21206429528E+02  0.31969021879E+03  0.32172448772E+03  0.41800000000E+01 0. -1.
         -5    1    3    3    0  502 -0.81811775499E+02 -0.52980754778E+02  0.24293237395E+03  0.26178949119E+03  0.41800000000E+01 0. -1.
        -11    1    1    2    0    0 -0.53875871129E+01  0.69837762855E+02  0.67401251912E+02  0.97207345272E+02  0.00000000000E+00 0.  1.
         11    1    1    2    0    0  0.58257611527E+02  0.43494214512E+01  0.56313321241E+02  0.81142201825E+02  0.00000000000E+00 0. -1.
</event>
<event>
 7    1  0.2679104E-009  0.1107816E+03  0.7561462E-02  0.1259129E+00
          3   -1    0    0  501    0  0.00000000000E+00  0.00000000000E+00  0.41212656919E+02  0.41212656919E+02  0.00000000000E+00 0. -1.
         -3   -1    0    0    0  501 -0.00000000000E+00 -0.00000000000E+00 -0.32705491847E+03  0.32705491847E+03  0.00000000000E+00 0.  1.
         25    2    1    2    0    0 -0.18193780643E+02  0.37694321502E+02 -0.17503766489E+03  0.21917362441E+03  0.12508804091E+03 0.  0.
          5    1    3    3  502    0  0.20507979014E+02  0.68894062969E+02 -0.59786645646E+02  0.93588912341E+02  0.41800000000E+01 0. -1.
         -5    1    3    3    0  502 -0.38701759657E+02 -0.31199741467E+02 -0.11525101924E+03  0.12558471206E+03  0.41800000000E+01 0. -1.
        -11    1    1    2    0    0  0.39464507855E+02 -0.58074510593E+02 -0.75236352405E+02  0.10291066458E+03  0.00000000000E+00 0. -1.
         11    1    1    2    0    0 -0.21270727212E+02  0.20380189091E+02 -0.35568244257E+02  0.46183286404E+02  0.00000000000E+00 0.  1.
</event>
<event>
 7    1  0.3288346E-009  0.7661616E+02  0.7561462E-02  0.1338938E+00
          1   -1    0    0  501    0  0.00000000000E+00  0.00000000000E+00  0.19923390345E+03  0.19923390345E+03  0.00000000000E+00 0. -1.
         -1   -1    0    0    0  501 -0.00000000000E+00 -0.00000000000E+00 -0.84037121224E+02  0.84037121224E+02  0.00000000000E+00 0.  1.
         25    2    1    2    0    0  0.41557615562E+02  0.10767317207E+02  0.12421956866E+03  0.18145030980E+03  0.12510293024E+03 0.  0.
          5    1    3    3  502    0  0.70367163278E+02  0.28340813428E+02  0.12629145343E+03  0.14738298064E+03  0.41800000000E+01 0. -1.
         -5    1    3    3    0  502 -0.28809547717E+02 -0.17573496221E+02 -0.20718847682E+01  0.34067329152E+02  0.41800000000E+01 0. -1.
        -11    1    1    2    0    0 -0.30363250824E+02 -0.10249951857E+02 -0.49972509378E+02  0.59365311480E+02  0.00000000000E+00 0.  1.
         11    1    1    2    0    0 -0.11194364738E+02 -0.51736535043E+00  0.40949722938E+02  0.42455403396E+02  0.00000000000E+00 0. -1.
</event>
<event>
 7    1  0.2679104E-009  0.1157420E+03  0.7561462E-02  0.1250292E+00
          2   -1    0    0  501    0  0.00000000000E+00  0.00000000000E+00  0.10914103634E+04  0.10914103634E+04  0.00000000000E+00 0. -1.
         -2   -1    0    0    0  501 -0.00000000000E+00 -0.00000000000E+00 -0.16179490112E+02  0.16179490112E+02  0.00000000000E+00 0.  1.
         25    2    1    2    0    0  0.55520190257E+02 -0.19405324271E+02  0.79024186069E+03  0.80223957564E+03  0.12508828959E+03 0.  0.
          5    1    3    3  502    0  0.56826383960E+02 -0.59270926048E+02  0.32374112065E+03  0.33401806266E+03  0.41800000000E+01 0.  1.
         -5    1    3    3    0  502 -0.13061937034E+01  0.39865601777E+02  0.46650074005E+03  0.46822151297E+03  0.41800000000E+01 0.  1.
        -11    1    1    2    0    0  0.21942729411E+02 -0.12649256869E+02  0.78793471874E+02  0.82764112291E+02  0.00000000000E+00 0.  1.
         11    1    1    2    0    0 -0.77462919668E+02  0.32054581140E+02  0.20619554070E+03  0.22258616556E+03  0.00000000000E+00 0. -1.
</event>
<event>
 7    1  0.2679104E-009  0.1099852E+03  0.7561462E-02  0.1260597E+00
         -1   -1    0    0    0  501 -0.00000000000E+00  0.00000000000E+00  0.43488825514E+02  0.43488825514E+02  0.00000000000E+00 0.  1.
          1   -1    0    0  501    0  0.00000000000E+00 -0.00000000000E+00 -0.28635636920E+03  0.28635636920E+03  0.00000000000E+00 0. -1.
         25    2    1    2    0    0 -0.16326086631E+02  0.25577987556E+02 -0.11465551741E+03  0.17237771064E+03  0.12508961947E+03 0.  0.
          5    1    3    3  502    0 -0.69072581612E+02 -0.13752361916E+01 -0.57937938561E+02  0.90261785546E+02  0.41800000000E+01 0.  1.
         -5    1    3    3    0  502  0.52746494981E+02  0.26953223747E+02 -0.56717578850E+02  0.82115925093E+02  0.41800000000E+01 0.  1.
        -11    1    1    2    0    0  0.49289627815E+02 -0.30624878753E+02 -0.83752259231E+02  0.10189107682E+03  0.00000000000E+00 0. -1.
         11    1    1    2    0    0 -0.32963541184E+02  0.50468911971E+01 -0.44459767044E+02  0.55576407259E+02  0.00000000000E+00 0.  1.
</event>
<event>
 7    1  0.2902092E-009  0.9725864E+02  0.7561462E-02  0.1286169E+00
          1   -1    0    0  501    0  0.00000000000E+00  0.00000000000E+00  0.45293983799E+03  0.45293983799E+03  0.00000000000E+00 0. -1.
         -1   -1    0    0    0  501 -0.00000000000E+00 -0.00000000000E+00 -0.38228940140E+02  0.38228940140E+02  0.00000000000E+00 0.  1.
         25    2    1    2    0    0 -0.64299580385E+02  0.10625010764E+02  0.16346587495E+03  0.21590510740E+03  0.12508635512E+03 0.  0.
          5    1    3    3  502    0 -0.65987169577E+02 -0.77800610314E+01  0.17666755791E+02  0.68879768863E+02  0.41800000000E+01 0.  1.
         -5    1    3    3    0  502  0.16875891920E+01  0.18405071795E+02  0.14579911916E+03  0.14702533854E+03  0.41800000000E+01 0.  1.
        -11    1    1    2    0    0 -0.98607683795E-01  0.31848788103E+02  0.45564837299E+02  0.55592350420E+02  0.00000000000E+00 0.  1.
         11    1    1    2    0    0  0.64398188069E+02 -0.42473798866E+02  0.20568018560E+03  0.21967132031E+03  0.00000000000E+00 0. -1.
</event>
<event>
 7    1  0.2679104E-009  0.1359674E+03  0.7561462E-02  0.1218860E+00
          3   -1    0    0  501    0  0.00000000000E+00  0.00000000000E+00  0.64826709265E+03  0.64826709265E+03  0.00000000000E+00 0. -1.
         -3   -1    0    0    0  501 -0.00000000000E+00 -0.00000000000E+00 -0.77527134784E+02  0.77527134784E+02  0.00000000000E+00 0.  1.
         25    2    1    2    0    0  0.54229855487E+02  0.10684163821E+03  0.54324116761E+03  0.57018705455E+03  0.12508516340E+03 0.  0.
          5    1    3    3  502    0  0.49171843036E+02  0.12211410251E+03  0.53619260431E+03  0.55213196384E+03  0.41800000000E+01 0. -1.
         -5    1    3    3    0  502  0.50580124505E+01 -0.15272464301E+02  0.70485633023E+01  0.18055090706E+02  0.41800000000E+01 0. -1.
        -11    1    1    2    0    0 -0.16936192846E+02 -0.66678697761E+02 -0.30988680580E+02  0.75453175462E+02  0.00000000000E+00 0.  1.
         11    1    1    2    0    0 -0.37293662640E+02 -0.40162940448E+02  0.58487470829E+02  0.80153997421E+02  0.00000000000E+00 0. -1.
</event>
<event>
 7    1  0.2679104E-009  0.1031427E+03  0.7561462E-02  0.1273823E+00
         -1   -1    0    0    0  501 -0.00000000000E+00  0.00000000000E+00  0.48271918209E+02  0.48271918209E+02  0.00000000000E+00 0.  1.
          1   -1    0    0  501    0  0.00000000000E+00 -0.00000000000E+00 -0.27153656683E+03  0.27153656683E+03  0.00000000000E+00 0. -1.
         25    2    1    2    0    0 -0.28847911716E+00 -0.36091767260E+02 -0.12211477214E+03  0.17850691912E+03  0.12509997488E+03 0.  0.
          5    1    3    3  502    0  0.35100193298E+02  0.35549824156E+02 -0.44521410847E+02  0.67048057324E+02  0.41800000000E+01 0. -1.
         -5    1    3    3    0  502 -0.35388672415E+02 -0.71641591416E+02 -0.77593361293E+02  0.11145886180E+03  0.41800000000E+01 0. -1.
        -11    1    1    2    0    0  0.32332303191E+02  0.28745621674E+02 -0.99368789321E+02  0.10837824914E+03  0.00000000000E+00 0. -1.
         11    1    1    2    0    0 -0.32043824074E+02  0.73461455857E+01 -0.17810871574E+01  0.32923316779E+02  0.00000000000E+00 0.  1.
</event>
<event>
 7    1  0.2679104E-009  0.1282730E+03  0.7561462E-02  0.1230041E+00
          2   -1    0    0  501    0  0.00000000000E+00  0.00000000000E+00  0.12706794158E+03  0.12706794158E+03  0.00000000000E+00 0. -1.
         -2   -1    0    0    0  501 -0.00000000000E+00 -0.00000000000E+00 -0.25681309397E+03  0.25681309397E+03  0.00000000000E+00 0.  1.
         25    2    1    2    0    0  0.63579946827E+02  0.79396082215E+02 -0.17396614090E+03  0.23718818001E+03  0.12509143475E+03 0.  0.
          5    1    3    3  502    0  0.51327582788E+02  0.21851658808E+01 -0.14470329018E+03  0.15360927802E+03  0.41800000000E+01 0. -1.
         -5    1    3    3    0  502  0.12252364039E+02  0.77210916334E+02 -0.29262850721E+02  0.83578901991E+02  0.41800000000E+01 0. -1.
        -11    1    1    2    0    0 -0.59643626342E+02 -0.14085415435E+02  0.52557847451E+02  0.80734679165E+02  0.00000000000E+00 0.  1.
         11    1    1    2    0    0 -0.39363204853E+01 -0.65310666780E+02 -0.83368589346E+01  0.65958176378E+02  0.00000000000E+00 0. -1.
</event>
<event>
 7    1  0.2679104E-009  0.1247808E+03  0.7561462E-02  0.1235412E+00
         -2   -1    0    0    0  501 -0.00000000000E+00  0.00000000000E+00  0.18434672786E+02  0.18434672786E+02  0.00000000000E+00 0.  1.
          2   -1    0    0  501    0  0.00000000000E+00 -0.00000000000E+00 -0.90981556380E+03  0.90981556380E+03  0.00000000000E+00 0. -1.
         25    2    1    2    0    0 -0.13741385677E+02 -0.65903747476E+02 -0.59692399845E+03  0.61359378183E+03  0.12508772748E+03 0.  0.
          5    1    3    3  502    0  0.50333477357E+02 -0.60657067747E+01 -0.28734587601E+03  0.29181394175E+03  0.41800000000E+01 0. -1.
         -5    1    3    3    0  502 -0.64074863034E+02 -0.59838040701E+02 -0.30957812244E+03  0.32177984008E+03  0.41800000000E+01 0. -1.
        -11    1    1    2    0    0  0.49403800234E+02  0.21264107049E+02 -0.14347717581E+03  0.15322727468E+03  0.00000000000E+00 0.  1.
         11    1    1    2    0    0 -0.35662414557E+02  0.44639640426E+02 -0.15097971675E+03  0.16142918007E+03  0.00000000000E+00 0. -1.
</event>
<event>
 7    1  0.2679104E-009  0.1494079E+03  0.7561462E-02  0.1201202E+00
          2   -1    0    0  501    0  0.00000000000E+00  0.00000000000E+00  0.22753703878E+03  0.22753703878E+03  0.00000000000E+00 0.  1.
         -2   -1    0    0    0  501 -0.00000000000E+00 -0.00000000000E+00 -0.11777461380E+03  0.11777461380E+03  0.00000000000E+00 0. -1.
         25    2    1    2    0    0  0.11812790456E+03 -0.19152609271E+02  0.61265893419E+02  0.18363449646E+03  0.12508834604E+03 0.  0.
          5    1    3    3  502    0  0.84834717864E+02  0.47975828012E+02  0.27585608561E+02  0.10137577437E+03  0.41800000000E+01 0. -1.
         -5    1    3    3    0  502  0.33293186697E+02 -0.67128437282E+02  0.33680284858E+02  0.82258722094E+02  0.41800000000E+01 0. -1.
        -11    1    1    2    0    0 -0.22359256735E+02 -0.12170386345E+02  0.55103683057E+02  0.60699839802E+02  0.00000000000E+00 0.  1.
         11    1    1    2    0    0 -0.95768647825E+02  0.31322995616E+02 -0.66071514995E+01  0.10097731632E+03  0.00000000000E+00 0. -1.
</event>
<event>
 7    1  0.2679104E-009  0.9174078E+02  0.7561462E-02  0.1298690E+00
          2   -1    0    0  501    0  0.00000000000E+00  0.00000000000E+00  0.96576919416E+03  0.96576919416E+03  0.00000000000E+00 0. -1.
         -2   -1    0    0    0  501 -0.00000000000E+00 -0.00000000000E+00 -0.15790769676E+02  0.15790769676E+02  0.00000000000E+00 0.  1.
         25    2    1    2    0    0 -0.39625053948E+02  0.24714232642E+02  0.65442381022E+03  0.66790607930E+03  0.12508824561E+03 0.  0.
          5    1    3    3  502    0 -0.10827670954E+02  0.63532772578E+02  0.53678327237E+03  0.54065460836E+03  0.41800000000E+01 0. -1.
         -5    1    3    3    0  502 -0.28797382993E+02 -0.38818539936E+02  0.11764053786E+03  0.12725147094E+03  0.41800000000E+01 0. -1.
        -11    1    1    2    0    0  0.25372595812E+02 -0.41327014476E+02  0.28545953424E+03  0.28954936787E+03  0.00000000000E+00 0. -1.
         11    1    1    2    0    0  0.14252458136E+02  0.16612781833E+02  0.10095080025E+02  0.24104516669E+02  0.00000000000E+00 0.  1.
</event>
<event>
 7    1  0.2679104E-009  0.1003564E+03  0.7561462E-02  0.1279548E+00
          1   -1    0    0  501    0  0.00000000000E+00  0.00000000000E+00  0.65887867054E+02  0.65887867054E+02  0.00000000000E+00 0. -1.
         -1   -1    0    0    0  501 -0.00000000000E+00 -0.00000000000E+00 -0.26407123976E+03  0.26407123976E+03  0.00000000000E+00 0.  1.
         25    2    1    2    0    0  0.56185898618E+02  0.76291037116E+01 -0.17211963358E+03  0.22020005701E+03  0.12509132031E+03 0.  0.
          5    1    3    3  502    0  0.51106677240E+02  0.46365381307E+02 -0.16679023187E+03  0.18054942506E+03  0.41800000000E+01 0.  1.
         -5    1    3    3    0  502  0.50792213780E+01 -0.38736277596E+02 -0.53294017151E+01  0.39650631955E+02  0.41800000000E+01 0.  1.
        -11    1    1    2    0    0  0.13998191346E+02  0.13035388809E+02 -0.31003764600E+02  0.36429440591E+02  0.00000000000E+00 0.  1.
         11    1    1    2    0    0 -0.70184089964E+02 -0.20664492520E+02  0.49400254783E+01  0.73329609210E+02  0.00000000000E+00 0. -1.
</event>
<event>
 7    1  0.2679104E-009  0.8890912E+02  0.7561462E-02  0.1305515E+00
          2   -1    0    0  501    0  0.00000000000E+00  0.00000000000E+00  0.29415240608E+03  0.29415240608E+03  0.00000000000E+00 0. -1.
         -2   -1    0    0    0  501 -0.00000000000E+00 -0.00000000000E+00 -0.53823047814E+02  0.53823047814E+02  0.00000000000E+00 0.  1.
         25    2    1    2    0    0  0.11976211529E+02 -0.56143309432E+02  0.15636795909E+03  0.20831160186E+03  0.12508910426E+03 0.  0.
          5    1    3    3  502    0  0.32499162149E+02 -0.56741206964E+02  0.17075508170E+03  0.18289486169E+03  0.41800000000E+01 0.  1.
         -5    1    3    3    0  502 -0.20522950621E+02  0.59789753184E+00 -0.14387122611E+02  0.25416740166E+02  0.41800000000E+01 0.  1.
        -11    1    1    2    0    0  0.12011053423E+02  0.64752622337E+02  0.91818499406E+02  0.11299470933E+03  0.00000000000E+00 0. -1.
         11    1    1    2    0    0 -0.23987264951E+02 -0.86093129053E+01 -0.78571002263E+01  0.26669142703E+02  0.00000000000E+00 0.  1.
</event>
<event>
 7    1  0.2679104E-009  0.8134173E+02  0.7561462E-02  0.1325286E+00
          1   -1    0    0  501    0  0.00000000000E+00  0.00000000000E+00  0.16301417981E+03  0.16301417981E+03  0.00000000000E+00 0. -1.
         -1   -1    0    0    0  501 -0.00000000000E+00 -0.00000000000E+00 -0.83718091866E+02  0.83718091866E+02  0.00000000000E+00 0.  1.
         25    2    1    2    0    0  0.37100868888E+02 -0.23363136404E+02  0.43681593770E+02  0.13956366390E+03  0.12509046339E+03 0.  0.
          5    1    3    3  502    0 -0.21831969743E+02 -0.49470397139E+02  0.51138640621E+02  0.74542525182E+02  0.41800000000E+01 0.  1.
         -5    1    3    3    0  502  0.58932838631E+02  0.26107260736E+02 -0.74570468508E+01  0.65021138716E+02  0.41800000000E+01 0.  1.
        -11    1    1    2    0    0 -0.22982149890E+02  0.13875405621E+02  0.66607652497E+02  0.71814242779E+02  0.00000000000E+00 0. -1.
         11    1    1    2    0    0 -0.14118718998E+02  0.94877307825E+01 -0.30993158323E+02  0.35354364998E+02  0.00000000000E+00 0.  1.
</event>
<event>
 7    1  0.2679104E-009  0.1196849E+03  0.7561462E-02  0.1243618E+00
         -2   -1    0    0    0  501 -0.00000000000E+00  0.00000000000E+00  0.18196952254E+02  0.18196952254E+02  0.00000000000E+00 0. -1.
          2   -1    0    0  501    0  0.00000000000E+00 -0.00000000000E+00 -0.10474126683E+04  0.10474126683E+04  0.00000000000E+00 0.  1.
         25    2    1    2    0    0  0.22412460177E+02  0.81890767019E+02 -0.58416566366E+03  0.60341180408E+03  0.12509143297E+03 0.  0.
          5    1    3    3  502    0  0.26972832999E+02 -0.19413539490E+02 -0.29612534549E+03  0.29801361022E+03  0.41800000000E+01 0. -1.
         -5    1    3    3    0  502 -0.45603728222E+01  0.10130430651E+03 -0.28804031817E+03  0.30539819385E+03  0.41800000000E+01 0. -1.
        -11    1    1    2    0    0  0.21057800155E+02 -0.30643275020E+02 -0.54920025951E+02  0.66322322801E+02  0.00000000000E+00 0. -1.
         11    1    1    2    0    0 -0.43470260331E+02 -0.51247491999E+02 -0.39013002648E+03  0.39587549372E+03  0.00000000000E+00 0.  1.
</event>
<event>
 7    1  0.2679104E-009  0.1013764E+03  0.7561462E-02  0.1277428E+00
         -1   -1    0    0    0  501 -0.00000000000E+00  0.00000000000E+00  0.15412700628E+03  0.15412700628E+03  0.00000000000E+00 0.  1.
          1   -1    0    0  501    0  0.00000000000E+00 -0.00000000000E+00 -0.15709457610E+03  0.15709457610E+03  0.00000000000E+00 0. -1.
         25    2    1    2    0    0 -0.19973904001E+02  0.71425552745E+02  0.81548705249E+02  0.16672510182E+03  0.12508597772E+03 0.  0.
          5    1    3    3  502    0  0.24135237334E+02  0.15566692903E+02  0.90340433124E+02  0.94887817270E+02  0.41800000000E+01 0. -1.
         -5    1    3    3    0  502 -0.44109141335E+02  0.55858859841E+02 -0.87917278755E+01  0.71837284547E+02  0.41800000000E+01 0. -1.
        -11    1    1    2    0    0 -0.17509414447E+02 -0.61091645608E+02 -0.84354228122E+02  0.10561441454E+03  0.00000000000E+00 0. -1.
         11    1    1    2    0    0  0.37483318448E+02 -0.10333907137E+02 -0.16204695125E+00  0.38882066018E+02  0.00000000000E+00 0.  1.
</event>
<event>
 7    1  0.2679104E-009  0.1470753E+03  0.7561462E-02  0.1204114E+00
         -2   -1    0    0    0  501 -0.00000000000E+00  0.00000000000E+00  0.52142496703E+02  0.52142496703E+02  0.00000000000E+00 0.  1.
          2   -1    0    0  501    0  0.00000000000E+00 -0.00000000000E+00 -0.69822751762E+03  0.69822751762E+03  0.00000000000E+00 0. -1.
         25    2    1    2    0    0 -0.13644883506E+03 -0.22092921378E+02 -0.17407414798E+03  0.25505943941E+03  0.12508847617E+03 0.  0.
          5    1    3    3  502    0 -0.51905227602E+02 -0.33704721550E+02 -0.15579085688E+03  0.16768549250E+03  0.41800000000E+01 0. -1.
         -5    1    3    3    0  502 -0.84543607456E+02  0.11611800171E+02 -0.18283291105E+02  0.87373946910E+02  0.41800000000E+01 0. -1.
        -11    1    1    2    0    0  0.57672907450E+02  0.34094191298E+02 -0.16394938528E+03  0.17711007614E+03  0.00000000000E+00 0.  1.
         11    1    1    2    0    0  0.78775927609E+02 -0.12001269920E+02 -0.30806148765E+03  0.31820049878E+03  0.00000000000E+00 0. -1.
</event>
<event>
 7    1  0.2679104E-009  0.9496672E+02  0.7561462E-02  0.1291251E+00
          2   -1    0    0  501    0  0.00000000000E+00  0.00000000000E+00  0.24182320257E+03  0.24182320257E+03  0.00000000000E+00 0. -1.
         -2   -1    0    0    0  501 -0.00000000000E+00 -0.00000000000E+00 -0.49985858363E+02  0.49985858363E+02  0.00000000000E+00 0.  1.
         25    2    1    2    0    0 -0.12670914153E+02  0.12526891478E+02  0.13639754655E+03  0.18593479892E+03  0.12509989475E+03 0.  0.
          5    1    3    3  502    0 -0.50246797822E+02  0.47612170984E+02  0.50670957898E+02  0.85887588693E+02  0.41800000000E+01 0.  1.
         -5    1    3    3    0  502  0.37575883669E+02 -0.35085279506E+02  0.85726588655E+02  0.10004721023E+03  0.41800000000E+01 0.  1.
        -11    1    1    2    0    0  0.40104653738E+02 -0.10723412697E+02  0.64691931644E+02  0.76866253006E+02  0.00000000000E+00 0. -1.
         11    1    1    2    0    0 -0.27433739585E+02 -0.18034787806E+01 -0.92521339884E+01  0.29008009009E+02  0.00000000000E+00 0.  1.
</event>
<event>
 7    1  0.2679104E-009  0.3256693E+03  0.7561462E-02  0.1073069E+00
          1   -1    0    0  501    0  0.00000000000E+00  0.00000000000E+00  0.31204785798E+03  0.31204785798E+03  0.00000000000E+00 0. -1.
         -1   -1    0    0    0  501 -0.00000000000E+00 -0.00000000000E+00 -0.35688552408E+03  0.35688552408E+03  0.00000000000E+00 0.  1.
         25    2    1    2    0    0  0.20396503479E+03  0.23863936716E+03 -0.56165009812E+02  0.34256798417E+03  0.12509129657E+03 0.  0.
          5    1    3    3  502    0  0.14131655897E+02 -0.13858625887E+02 -0.12129948683E+02  0.23587565896E+02  0.41800000000E+01 0.  1.
         -5    1    3    3    0  502  0.18983337889E+03  0.25249799304E+03 -0.44035061129E+02  0.31898041827E+03  0.41800000000E+01 0.  1.
        -11    1    1    2    0    0 -0.19435684969E+03 -0.21589126212E+03  0.34464271534E+02  0.29252591013E+03  0.00000000000E+00 0. -1.
         11    1    1    2    0    0 -0.96081850955E+01 -0.22748105033E+02 -0.23136927822E+02  0.33839487769E+02  0.00000000000E+00 0.  1.
</event>
<event>
 7    1  0.2679104E-009  0.9292772E+02  0.7561462E-02  0.1295913E+00
          2   -1    0    0  501    0  0.00000000000E+00  0.00000000000E+00  0.29954140894E+03  0.29954140894E+03  0.00000000000E+00 0. -1.
         -2   -1    0    0    0  501 -0.00000000000E+00 -0.00000000000E+00 -0.47967018784E+02  0.47967018784E+02  0.00000000000E+00 0.  1.
         25    2    1    2    0    0 -0.48590924507E+02  0.10011993007E+01  0.14011828255E+03  0.19401702915E+03  0.12508954453E+03 0.  0.
          5    1    3    3  502    0 -0.18009041298E+01  0.51400624278E+02  0.19607138819E+02  0.55201265607E+02  0.41800000000E+01 0.  1.
         -5    1    3    3    0  502 -0.46790020377E+02 -0.50399424978E+02  0.12051114373E+03  0.13881576354E+03  0.41800000000E+01 0.  1.
        -11    1    1    2    0    0  0.25254560084E+02  0.21329608217E+02 -0.42801341360E+01  0.33332634758E+02  0.00000000000E+00 0.  1.
         11    1    1    2    0    0  0.23336364423E+02 -0.22330807518E+02  0.11573624175E+03  0.12015876382E+03  0.00000000000E+00 0. -1.
</event>
<event>
 7    1  0.2679104E-009  0.4208759E+03  0.7561462E-02  0.1036782E+00
          4   -1    0    0  501    0  0.00000000000E+00  0.00000000000E+00  0.20736020751E+03  0.20736020751E+03  0.00000000000E+00 0. -1.
         -4   -1    0    0    0  501 -0.00000000000E+00 -0.00000000000E+00 -0.93158314681E+03  0.93158314681E+03  0.00000000000E+00 0.  1.
         25    2    1    2    0    0 -0.39681359516E+03 -0.11254585657E+03 -0.49805699805E+03  0.65866061879E+03  0.12508172652E+03 0.  0.
          5    1    3    3  502    0 -0.67417729221E+02 -0.69730050453E+02 -0.13850405334E+03  0.16913981005E+03  0.41800000000E+01 0.  1.
         -5    1    3    3    0  502 -0.32939586594E+03 -0.42815806116E+02 -0.35955294470E+03  0.48952080875E+03  0.41800000000E+01 0.  1.
        -11    1    1    2    0    0  0.28689868589E+03  0.79947382457E+02 -0.11117231521E+03  0.31790206605E+03  0.00000000000E+00 0. -1.
         11    1    1    2    0    0  0.10991490927E+03  0.32598474112E+02 -0.11499362604E+03  0.16238066949E+03  0.00000000000E+00 0.  1.
</event>
<event>
 7    1  0.2679104E-009  0.1802723E+03  0.7561462E-02  0.1167540E+00
         -1   -1    0    0    0  501 -0.00000000000E+00  0.00000000000E+00  0.38371166150E+02  0.38371166150E+02  0.00000000000E+00 0.  1.
          1   -1    0    0  501    0  0.00000000000E+00 -0.00000000000E+00 -0.12561492632E+04  0.12561492632E+04  0.00000000000E+00 0. -1.
         25    2    1    2    0    0 -0.11181440506E+03 -0.12788775817E+03 -0.88487561677E+03  0.90967628280E+03  0.12509333504E+03 0.  0.
          5    1    3    3  502    0 -0.54282362944E+02 -0.47406993515E+01 -0.46803134040E+03  0.47121105373E+03  0.41800000000E+01 0. -1.
         -5    1    3    3    0  502 -0.57532042113E+02 -0.12314705882E+03 -0.41684427637E+03  0.43846522907E+03  0.41800000000E+01 0. -1.
        -11    1    1    2    0    0  0.65636282407E+02  0.72581413156E+02 -0.95445059692E+02  0.13669653442E+03  0.00000000000E+00 0.  1.
         11    1    1    2    0    0  0.46178122650E+02  0.55306345019E+02 -0.23745742060E+03  0.24814761214E+03  0.00000000000E+00 0. -1.
</event>
<event>
 7    1  0.2679104E-009  0.1447115E+03  0.7561462E-02  0.1207126E+00
          1   -1    0    0  501    0  0.00000000000E+00  0.00000000000E+00  0.97790781766E+02  0.97790781766E+02  0.00000000000E+00 0. -1.
         -1   -1    0    0    0  501 -0.00000000000E+00 -0.00000000000E+00 -0.23353540119E+03  0.23353540119E+03  0.00000000000E+00 0.  1.
         25    2    1    2    0    0  0.50862502967E+02  0.85367096769E+02 -0.41284018819E+02  0.16500420680E+03  0.12508989821E+03 0.  0.
          5    1    3    3  502    0  0.38520166814E+02 -0.23958887030E+02  0.44732100026E+01  0.45774594775E+02  0.41800000000E+01 0. -1.
         -5    1    3    3    0  502  0.12342336153E+02  0.10932598380E+03 -0.45757228822E+02  0.11922961203E+03  0.41800000000E+01 0. -1.
        -11    1    1    2    0    0  0.21176837204E+02 -0.48328034112E+02 -0.20416491856E+02  0.56576412531E+02  0.00000000000E+00 0. -1.
         11    1    1    2    0    0 -0.72039340171E+02 -0.37039062656E+02 -0.74044108753E+02  0.10974556363E+03  0.00000000000E+00 0.  1.
</event>
<event>
 7    1  0.3020646E-009  0.1438633E+03  0.7561462E-02  0.1208223E+00
         -2   -1    0    0    0  501 -0.00000000000E+00  0.00000000000E+00  0.46924218792E+02  0.46924218792E+02  0.00000000000E+00 0.  1.
          2   -1    0    0  501    0  0.00000000000E+00 -0.00000000000E+00 -0.57469273028E+03  0.57469273028E+03  0.00000000000E+00 0. -1.
         25    2    1    2    0    0  0.10310066653E+03  0.59024610557E+02 -0.22411326911E+03  0.28282157786E+03  0.12509050893E+03 0.  0.
          5    1    3    3  502    0 -0.82696586589E+01 -0.14558844621E+02  0.46999875657E+01  0.17886013925E+02  0.41800000000E+01 0. -1.
         -5    1    3    3    0  502  0.11137032519E+03  0.73583455177E+02 -0.22881325667E+03  0.26493556394E+03  0.41800000000E+01 0. -1.
        -11    1    1    2    0    0 -0.60958274345E+02  0.40163652899E+01 -0.20767945265E+03  0.21647816854E+03  0.00000000000E+00 0. -1.
         11    1    1    2    0    0 -0.42142392186E+02 -0.63040975847E+02 -0.95975789732E+02  0.12231720267E+03  0.00000000000E+00 0.  1.
</event>
<event>
 7    1  0.2679104E-009  0.8311087E+02  0.7561462E-02  0.1320448E+00
         -1   -1    0    0    0  501 -0.00000000000E+00  0.00000000000E+00  0.15317818704E+03  0.15317818704E+03  0.00000000000E+00 0.  1.
          1   -1    0    0  501    0  0.00000000000E+00 -0.00000000000E+00 -0.10075198253E+03  0.10075198253E+03  0.00000000000E+00 0. -1.
         25    2    1    2    0    0  0.23616535604E+01 -0.29794841728E+01  0.92392862429E+02  0.15555908205E+03  0.12509089594E+03 0.  0.
          5    1    3    3  502    0 -0.38484134782E+02 -0.36889047104E+02  0.56436873341E+01  0.53769452600E+02  0.41800000000E+01 0.  1.
         -5    1    3    3    0  502  0.40845788343E+02  0.33909562931E+02  0.86749175095E+02  0.10178962945E+03  0.41800000000E+01 0.  1.
        -11    1    1    2    0    0 -0.10995608784E+02  0.29566083593E+02  0.16326803318E+02  0.35519307681E+02  0.00000000000E+00 0.  1.
         11    1    1    2    0    0  0.86339552234E+01 -0.26586599420E+02 -0.56293461237E+02  0.62851779844E+02  0.00000000000E+00 0. -1.
</event>
<event>
 7    1  0.2679104E-009  0.1245532E+03  0.7561462E-02  0.1235769E+00
          3   -1    0    0  501    0  0.00000000000E+00  0.00000000000E+00  0.24459240777E+02  0.24459240777E+02  0.00000000000E+00 0. -1.
         -3   -1    0    0    0  501 -0.00000000000E+00 -0.00000000000E+00 -0.63769445153E+03  0.63769445153E+03  0.00000000000E+00 0.  1.
         25    2    1    2    0    0 -0.51167018733E+02 -0.38610463439E+02 -0.34705469049E+03  0.37443130887E+03  0.12507203994E+03 0.  0.
          5    1    3    3  502    0  0.30423114996E+02 -0.49252822623E+02 -0.15084600954E+03  0.16162734130E+03  0.41800000000E+01 0.  1.
         -5    1    3    3    0  502 -0.81590133730E+02  0.10642359185E+02 -0.19620868095E+03  0.21280396757E+03  0.41800000000E+01 0.  1.
        -11    1    1    2    0    0  0.10365163465E+02 -0.28394121466E+02 -0.87657497506E+02  0.92722702811E+02  0.00000000000E+00 0.  1.
         11    1    1    2    0    0  0.40801855269E+02  0.67004584905E+02 -0.17852302276E+03  0.19499968063E+03  0.00000000000E+00 0. -1.
</event>
<event>
 7    1  0.2679104E-009  0.7849857E+02  0.7561462E-02  0.1333367E+00
          1   -1    0    0  501    0  0.00000000000E+00  0.00000000000E+00  0.16538970034E+03  0.16538970034E+03  0.00000000000E+00 0. -1.
         -1   -1    0    0    0  501 -0.00000000000E+00 -0.00000000000E+00 -0.95250584832E+02  0.95250584832E+02  0.00000000000E+00 0.  1.
         25    2    1    2    0    0 -0.70165586553E+01  0.42220509302E+02  0.85916366345E+02  0.15766649271E+03  0.12508116332E+03 0.  0.
          5    1    3    3  502    0 -0.41722422372E+02 -0.96836205559E+01  0.84781220026E+02  0.95078182065E+02  0.41800000000E+01 0.  1.
         -5    1    3    3    0  502  0.34705863717E+02  0.51904129857E+02  0.11351463181E+01  0.62588310648E+02  0.41800000000E+01 0.  1.
        -11    1    1    2    0    0  0.18110325291E+02 -0.28035700254E+02 -0.52420872555E+02  0.62144446657E+02  0.00000000000E+00 0.  1.
         11    1    1    2    0    0 -0.11093766636E+02 -0.14184809048E+02  0.36643621719E+02  0.40829345801E+02  0.00000000000E+00 0. -1.
</event>
<event>
 7    1  0.2679104E-009  0.1301516E+03  0.7561462E-02  0.1227231E+00
          1   -1    0    0  501    0  0.00000000000E+00  0.00000000000E+00  0.15649135853E+03  0.15649135853E+03  0.00000000000E+00 0. -1.
         -1   -1    0    0    0  501 -0.00000000000E+00 -0.00000000000E+00 -0.22396029677E+03  0.22396029677E+03  0.00000000000E+00 0.  1.
         25    2    1    2    0    0  0.11189312215E+03  0.97432838936E+01  0.59827953264E+02  0.17843898960E+03  0.12508431817E+03 0.  0.
          5    1    3    3  502    0  0.10822127609E+02  0.22721135014E+02  0.71378411107E+02  0.75800517113E+02  0.41800000000E+01 0.  1.
         -5    1    3    3    0  502  0.10107099455E+03 -0.12977851121E+02 -0.11550457844E+02  0.10263847249E+03  0.41800000000E+01 0.  1.
        -11    1    1    2    0    0 -0.85154168076E+02  0.25200367052E+02 -0.13055127280E+03  0.15789213302E+03  0.00000000000E+00 0.  1.
         11    1    1    2    0    0 -0.26738954078E+02 -0.34943650945E+02  0.32543812922E+01  0.44120532683E+02  0.00000000000E+00 0. -1.
</event>
<event>
 7    1  0.2679104E-009  0.1383717E+03  0.7561462E-02  0.1215537E+00
         -1   -1    0    0    0  501 -0.00000000000E+00  0.00000000000E+00  0.45059719045E+02  0.45059719045E+02  0.00000000000E+00 0.  1.
          1   -1    0    0  501    0  0.00000000000E+00 -0.00000000000E+00 -0.63173795480E+03  0.63173795480E+03  0.00000000000E+00 0. -1.
         25    2    1    2    0    0 -0.56891806979E+01  0.10899007393E+03 -0.19585888926E+03  0.25674781285E+03  0.12509009516E+03 0.  0.
          5    1    3    3  502    0 -0.34597290439E+02  0.95696535611E+02 -0.19995333062E+03  0.22439609234E+03  0.41800000000E+01 0. -1.
         -5    1    3    3    0  502  0.28908109741E+02  0.13293538324E+02  0.40944413534E+01  0.32351720510E+02  0.41800000000E+01 0. -1.
        -11    1    1    2    0    0 -0.43262439420E+02 -0.53777962027E+02 -0.11136936586E+03  0.13102230160E+03  0.00000000000E+00 0.  1.
         11    1    1    2    0    0  0.48951620118E+02 -0.55212111908E+02 -0.27944998063E+03  0.28902755939E+03  0.00000000000E+00 0. -1.
</event>
<event>
 7    1  0.2679104E-009  0.9588662E+02  0.7561462E-02  0.1289192E+00
         -1   -1    0    0    0  501 -0.00000000000E+00  0.00000000000E+00  0.33891798029E+02  0.33891798029E+02  0.00000000000E+00 0. -1.
          1   -1    0    0  501    0  0.00000000000E+00 -0.00000000000E+00 -0.55050335364E+03  0.55050335364E+03  0.00000000000E+00 0.  1.
         25    2    1    2    0    0 -0.40205432542E+02  0.57286307555E+02 -0.37971794203E+03  0.40587091747E+03  0.12508912144E+03 0.  0.
          5    1    3    3  502    0  0.66750693263E+01  0.71998439093E+02 -0.11014361708E+03  0.13182344468E+03  0.41800000000E+01 0. -1.
         -5    1    3    3    0  502 -0.46880501868E+02 -0.14712131538E+02 -0.26957432495E+03  0.27404747279E+03  0.41800000000E+01 0. -1.
        -11    1    1    2    0    0  0.20965241967E+02 -0.27665614147E+02 -0.13887528055E+03  0.14314772483E+03  0.00000000000E+00 0.  1.
         11    1    1    2    0    0  0.19240190575E+02 -0.29620693408E+02  0.19816669716E+01  0.35376509372E+02  0.00000000000E+00 0. -1.
</event>
<event>
 7    1  0.2679104E-009  0.1189499E+03  0.7561462E-02  0.1244840E+00
          2   -1    0    0  501    0  0.00000000000E+00  0.00000000000E+00  0.59668682784E+03  0.59668682784E+03  0.00000000000E+00 0. -1.
         -2   -1    0    0    0  501 -0.00000000000E+00 -0.00000000000E+00 -0.28988045607E+02  0.28988045607E+02  0.00000000000E+00 0.  1.
         25    2    1    2    0    0 -0.40194208757E+02  0.65312784529E+02  0.28200637281E+03  0.31789236761E+03  0.12508648545E+03 0.  0.
          5    1    3    3  502    0  0.80096429563E+01 -0.22019025789E+02  0.62337736801E+01  0.24603337401E+02  0.41800000000E+01 0. -1.
         -5    1    3    3    0  502 -0.48203851714E+02  0.87331810317E+02  0.27577259913E+03  0.29328903021E+03  0.41800000000E+01 0. -1.
        -11    1    1    2    0    0 -0.26562308386E+02 -0.13761902089E+02  0.83823796981E+02  0.89002107370E+02  0.00000000000E+00 0. -1.
         11    1    1    2    0    0  0.66756517144E+02 -0.51550882440E+02  0.20186861244E+03  0.21878039846E+03  0.00000000000E+00 0.  1.
</event>
<event>
 7    1  0.2679104E-009  0.1249968E+03  0.7561462E-02  0.1235074E+00
          2   -1    0    0  501    0  0.00000000000E+00  0.00000000000E+00  0.95545037022E+03  0.95545037022E+03  0.00000000000E+00 0. -1.
         -2   -1    0    0    0  501 -0.00000000000E+00 -0.00000000000E+00 -0.24662620410E+02  0.24662620410E+02  0.00000000000E+00 0.  1.
         25    2    1    2    0    0 -0.94427421565E+02 -0.39675902837E+02  0.61363480303E+03  0.63457529561E+03  0.12508964426E+03 0.  0.
          5    1    3    3  502    0 -0.17992603469E+02 -0.32451289604E+02  0.36075612612E+02  0.51920537380E+02  0.41800000000E+01 0. -1.
         -5    1    3    3    0  502 -0.76434818096E+02 -0.72246132339E+01  0.57755919042E+03  0.58265475823E+03  0.41800000000E+01 0. -1.
        -11    1    1    2    0    0  0.14239250247E+02 -0.27623305914E+02  0.53652202734E+02  0.62002920378E+02  0.00000000000E+00 0.  1.
         11    1    1    2    0    0  0.80188171318E+02  0.67299208751E+02  0.26350074405E+03  0.28353477464E+03  0.00000000000E+00 0. -1.
</event>
<event>
 7    1  0.3676530E-009  0.1125754E+03  0.7561462E-02  0.1255874E+00
         -2   -1    0    0    0  501 -0.00000000000E+00  0.00000000000E+00  0.60054339221E+02  0.60054339221E+02  0.00000000000E+00 0.  1.
          2   -1    0    0  501    0  0.00000000000E+00 -0.00000000000E+00 -0.30951979458E+03  0.30951979458E+03  0.00000000000E+00 0. -1.
         25    2    1    2    0    0  0.77773815422E+01 -0.77483510394E+02 -0.10182823042E+03  0.17911007985E+03  0.12508896893E+03 0.  0.
          5    1    3    3  502    0 -0.13902079662E+02 -0.10835134221E+03 -0.78098778268E+02  0.13435093131E+03  0.41800000000E+01 0. -1.
         -5    1    3    3    0  502  0.21679461205E+02  0.30867831812E+02 -0.23729452154E+02  0.44759148545E+02  0.41800000000E+01 0. -1.
        -11    1    1    2    0    0 -0.42948312304E+01  0.37500920001E+02 -0.28826605769E+00  0.37747154509E+02  0.00000000000E+00 0.  1.
         11    1    1    2    0    0 -0.34825503117E+01  0.39982590393E+02 -0.14734895888E+03  0.15271689944E+03  0.00000000000E+00 0. -1.
</event>
<event>
 7    1  0.2679104E-009  0.8774199E+02  0.7561462E-02  0.1308414E+00
         -1   -1    0    0    0  501 -0.00000000000E+00  0.00000000000E+00  0.13615961196E+03  0.13615961196E+03  0.00000000000E+00 0.  1.
          1   -1    0    0  501    0  0.00000000000E+00 -0.00000000000E+00 -0.13021096683E+03  0.13021096683E+03  0.00000000000E+00 0. -1.
         25    2    1    2    0    0 -0.27287882587E+02 -0.35714102329E+02  0.66392044754E+02  0.14857434509E+03  0.12508519805E+03 0.  0.
          5    1    3    3  502    0  0.37353905289E+02 -0.30786928486E+02 -0.86164910473E+01  0.49344356555E+02  0.41800000000E+01 0.  1.
         -5    1    3    3    0  502 -0.64641787875E+02 -0.49271738426E+01  0.75008535801E+02  0.99229988536E+02  0.41800000000E+01 0.  1.
        -11    1    1    2    0    0  0.25022671962E+02 -0.11031490377E+01 -0.74288013361E+02  0.78396811026E+02  0.00000000000E+00 0. -1.
         11    1    1    2    0    0  0.22652106249E+01  0.36817251366E+02  0.13844613732E+02  0.39399422670E+02  0.00000000000E+00 0.  1.
</event>
<event>
 7    1  0.2679104E-009  0.1062835E+03  0.7561462E-02  0.1267611E+00
         -2   -1    0    0    0  501 -0.00000000000E+00  0.00000000000E+00  0.11557508075E+04  0.11557508075E+04  0.00000000000E+00 0.  1.
          2   -1    0    0  501    0  0.00000000000E+00 -0.00000000000E+00 -0.12280592599E+02  0.12280592599E+02  0.00000000000E+00 0. -1.
         25    2    1    2    0    0 -0.47099280420E+02 -0.42735138776E+01  0.70706464173E+03  0.71959976051E+03  0.12508718005E+03 0.  0.
          5    1    3    3  502    0 -0.33976577812E+02  0.46025887252E+02  0.57115280466E+03  0.57402594785E+03  0.41800000000E+01 0. -1.
         -5    1    3    3    0  502 -0.13122702608E+02 -0.50299401129E+02  0.13591183706E+03  0.14557381266E+03  0.41800000000E+01 0. -1.
        -11    1    1    2    0    0  0.34981762058E+02 -0.42323275709E+02  0.24235661326E+03  0.24849891617E+03  0.00000000000E+00 0.  1.
         11    1    1    2    0    0  0.12117518363E+02  0.46596789586E+02  0.19404895989E+03  0.19993272340E+03  0.00000000000E+00 0. -1.
</event>
<event>
 7    1  0.3180456E-009  0.1409076E+03  0.7561462E-02  0.1212113E+00
          2   -1    0    0  501    0  0.00000000000E+00  0.00000000000E+00  0.15604213172E+04  0.15604213172E+04  0.00000000000E+00 0. -1.
         -2   -1    0    0    0  501 -0.00000000000E+00 -0.00000000000E+00 -0.15322862936E+02  0.15322862936E+02  0.00000000000E+00 0.  1.
         25    2    1    2    0    0  0.57778318333E+01 -0.10344788890E+03  0.10188411354E+04  0.10317072029E+04  0.12509054439E+03 0.  0.
          5    1    3    3  502    0 -0.48715986292E+02 -0.81748269815E+02  0.77712135846E+03  0.78293748481E+03  0.41800000000E+01 0.  1.
         -5    1    3    3    0  502  0.54493818125E+02 -0.21699619086E+02  0.24171977695E+03  0.24876971812E+03  0.41800000000E+01 0.  1.
        -11    1    1    2    0    0 -0.19923405111E+02 -0.31960790149E+01  0.29344671056E+02  0.35612732437E+02  0.00000000000E+00 0.  1.
         11    1    1    2    0    0  0.14145573278E+02  0.10664396792E+03  0.49691264781E+03  0.50842424479E+03  0.00000000000E+00 0. -1.
</event>
<event>
 7    1  0.2679104E-009  0.1225435E+03  0.7561462E-02  0.1238959E+00
          1   -1    0    0  501    0  0.00000000000E+00  0.00000000000E+00  0.79631389602E+03  0.79631389602E+03  0.00000000000E+00 0.  1.
         -1   -1    0    0    0  501 -0.00000000000E+00 -0.00000000000E+00 -0.25609251234E+02  0.25609251234E+02  0.00000000000E+00 0. -1.
         25    2    1    2    0    0 -0.76740792227E+02 -0.12571711863E+02  0.56747199992E+03  0.58627639588E+03  0.12509334333E+03 0.  0.
          5    1    3    3  502    0 -0.21330869008E+02 -0.60321970262E+02  0.16180036182E+03  0.17404187873E+03  0.41800000000E+01 0. -1.
         -5    1    3    3    0  502 -0.55409923218E+02  0.47750258399E+02  0.40567163810E+03  0.41223451715E+03  0.41800000000E+01 0. -1.
        -11    1    1    2    0    0  0.63393003988E+02  0.41551372592E+02  0.88313488022E+02  0.11638067574E+03  0.00000000000E+00 0. -1.
         11    1    1    2    0    0  0.13347788239E+02 -0.28979660729E+02  0.11491915685E+03  0.11926607564E+03  0.00000000000E+00 0.  1.
</event>
<event>
 7    1  0.2679104E-009  0.1253566E+03  0.7561462E-02  0.1234513E+00
         -3   -1    0    0    0  501 -0.00000000000E+00  0.00000000000E+00  0.47092913125E+03  0.47092913125E+03  0.00000000000E+00 0.  1.
          3   -1    0    0  501    0  0.00000000000E+00 -0.00000000000E+00 -0.37297684354E+02  0.37297684354E+02  0.00000000000E+00 0. -1.
         25    2    1    2    0    0 -0.57849498813E+00  0.52776055639E+02  0.17076106753E+03  0.21815780208E+03  0.12509131752E+03 0.  0.
          5    1    3    3  502    0 -0.61068750788E+02  0.11279722326E+02  0.75273750290E+02  0.97674123192E+02  0.41800000000E+01 0.  1.
         -5    1    3    3    0  502  0.60490255800E+02  0.41496333313E+02  0.95487317238E+02  0.12048367889E+03  0.41800000000E+01 0.  1.
        -11    1    1    2    0    0 -0.55659328723E+01 -0.83489358488E+02  0.13848800534E+03  0.16180352348E+03  0.00000000000E+00 0.  1.
         11    1    1    2    0    0  0.61444278605E+01  0.30713302850E+02  0.12438237403E+03  0.12826549004E+03  0.00000000000E+00 0. -1.
</event>
<event>
 7    1  0.2679104E-009  0.1161650E+03  0.7561462E-02  0.1249561E+00
          2   -1    0    0  501    0  0.00000000000E+00  0.00000000000E+00  0.58688581186E+03  0.58688581186E+03  0.00000000000E+00 0. -1.
         -2   -1    0    0    0  501 -0.00000000000E+00 -0.00000000000E+00 -0.40455905923E+02  0.40455905923E+02  0.00000000000E+00 0.  1.
         25    2    1    2    0    0 -0.62813509857E+02  0.45195027885E+02  0.44855134856E+03  0.47205436422E+03  0.12509549519E+03 0.  0.
          5    1    3    3  502    0 -0.33262762968E+01  0.62702862474E+02  0.34948987823E+03  0.35511034969E+03  0.41800000000E+01 0. -1.
         -5    1    3    3    0  502 -0.59487233560E+02 -0.17507834588E+02  0.99061470337E+02  0.11694401453E+03  0.41800000000E+01 0. -1.
        -11    1    1    2    0    0  0.79960646502E+02 -0.34867518213E+02  0.43775179176E+02  0.97599770119E+02  0.00000000000E+00 0.  1.
         11    1    1    2    0    0 -0.17147136645E+02 -0.10327509672E+02  0.54103378199E+02  0.57687583444E+02  0.00000000000E+00 0. -1.
</event>
<event>
 7    1  0.2679104E-009  0.2643082E+03  0.7561462E-02  0.1104582E+00
          2   -1    0    0  501    0  0.00000000000E+00  0.00000000000E+00  0.67916589836E+03  0.67916589836E+03  0.00000000000E+00 0.  1.
         -2   -1    0    0    0  501 -0.00000000000E+00 -0.00000000000E+00 -0.10372526925E+03  0.10372526925E+03  0.00000000000E+00 0. -1.
         25    2    1    2    0    0 -0.14062061416E+03  0.19678413821E+03  0.27934414580E+03  0.39010060442E+03  0.12508867096E+03 0.  0.
          5    1    3    3  502    0 -0.41363494985E+01 -0.17124716134E+02  0.24355238695E+02  0.30348234573E+02  0.41800000000E+01 0.  1.
         -5    1    3    3    0  502 -0.13648426466E+03  0.21390885435E+03  0.25498890710E+03  0.35975236985E+03  0.41800000000E+01 0.  1.
        -11    1    1    2    0    0  0.12493636242E+03 -0.10378277928E+03  0.20631604608E+03  0.26257621903E+03  0.00000000000E+00 0.  1.
         11    1    1    2    0    0  0.15684251742E+02 -0.93001358937E+02  0.89780437222E+02  0.13021434416E+03  0.00000000000E+00 0. -1.
</event>
<event>
 7    1  0.2679104E-009  0.9113557E+02  0.7561462E-02  0.1300125E+00
         -2   -1    0    0    0  501 -0.00000000000E+00  0.00000000000E+00  0.14631716810E+02  0.14631716810E+02  0.00000000000E+00 0.  1.
          2   -1    0    0  501    0  0.00000000000E+00 -0.00000000000E+00 -0.89968839229E+03  0.89968839229E+03  0.00000000000E+00 0. -1.
         25    2    1    2    0    0 -0.38389741465E+02 -0.51462769183E+01 -0.51621944081E+03  0.53256891999E+03  0.12508751759E+03 0.  0.
          5    1    3    3  502    0  0.38710545303E+01 -0.34915702379E+02 -0.43346597193E+03  0.43490724593E+03  0.41800000000E+01 0.  1.
         -5    1    3    3    0  502 -0.42260795996E+02  0.29769425460E+02 -0.82753468874E+02  0.97661674064E+02  0.41800000000E+01 0.  1.
        -11    1    1    2    0    0 -0.28035609720E+02  0.56751299045E+01 -0.69976019623E+02  0.75596599356E+02  0.00000000000E+00 0. -1.
         11    1    1    2    0    0  0.66425351186E+02 -0.52885298623E+00 -0.29886121505E+03  0.30615458975E+03  0.00000000000E+00 0.  1.
</event>
<event>
 7    1  0.2679104E-009  0.9731905E+02  0.7561462E-02  0.1286037E+00
         -1   -1    0    0    0  501 -0.00000000000E+00  0.00000000000E+00  0.29392227928E+02  0.29392227928E+02  0.00000000000E+00 0.  1.
          1   -1    0    0  501    0  0.00000000000E+00 -0.00000000000E+00 -0.52450101890E+03  0.52450101890E+03  0.00000000000E+00 0. -1.
         25    2    1    2    0    0  0.16985766826E+02  0.53554740933E+02 -0.23381156394E+03  0.27105670934E+03  0.12508903107E+03 0.  0.
          5    1    3    3  502    0 -0.27579362736E+02  0.73675737622E+02 -0.92689709402E+02  0.12164534595E+03  0.41800000000E+01 0. -1.
         -5    1    3    3    0  502  0.44565129562E+02 -0.20120996689E+02 -0.14112185454E+03  0.14941136339E+03  0.41800000000E+01 0. -1.
        -11    1    1    2    0    0 -0.10467216604E+02  0.21607080474E+01  0.41958576410E+01  0.11482007840E+02  0.00000000000E+00 0.  1.
         11    1    1    2    0    0 -0.65185502215E+01 -0.55715448980E+02 -0.26549308466E+03  0.27135452964E+03  0.00000000000E+00 0. -1.
</event>
<event>
 7    1  0.2679104E-009  0.7611302E+02  0.7561462E-02  0.1340459E+00
         -1   -1    0    0    0  501 -0.00000000000E+00  0.00000000000E+00  0.54398448640E+02  0.54398448640E+02  0.00000000000E+00 0.  1.
          1   -1    0    0  501    0  0.00000000000E+00 -0.00000000000E+00 -0.25245406517E+03  0.25245406517E+03  0.00000000000E+00 0. -1.
         25    2    1    2    0    0 -0.50822117846E+01  0.38803043113E+02 -0.14075164634E+03  0.19233188927E+03  0.12509606169E+03 0.  0.
          5    1    3    3  502    0  0.28786911528E+02  0.46725676408E+02 -0.14680076150E+03  0.15677981722E+03  0.41800000000E+01 0.  1.
         -5    1    3    3    0  502 -0.33869123312E+02 -0.79226332944E+01  0.60491151622E+01  0.35552072042E+02  0.41800000000E+01 0.  1.
        -11    1    1    2    0    0 -0.17682141310E+02 -0.61403311127E+00  0.19154612447E+02  0.26075550540E+02  0.00000000000E+00 0.  1.
         11    1    1    2    0    0  0.22764353094E+02 -0.38189010002E+02 -0.76458582640E+02  0.88445074007E+02  0.00000000000E+00 0. -1.
</event>
<event>
 7    1  0.2914338E-009  0.9968881E+02  0.7561462E-02  0.1280952E+00
          1   -1    0    0  501    0  0.00000000000E+00  0.00000000000E+00  0.24065182218E+03  0.24065182218E+03  0.00000000000E+00 0. -1.
         -1   -1    0    0    0  501 -0.00000000000E+00 -0.00000000000E+00 -0.68102745285E+02  0.68102745285E+02  0.00000000000E+00 0.  1.
         25    2    1    2    0    0  0.44713063964E+02 -0.50540258961E+02  0.81920460815E+02  0.16405048243E+03  0.12509205819E+03 0.  0.
          5    1    3    3  502    0  0.79831389332E+02 -0.15367838618E+02  0.18703332078E+02  0.83525494415E+02  0.41800000000E+01 0.  1.
         -5    1    3    3    0  502 -0.35118325368E+02 -0.35172420343E+02  0.63217128737E+02  0.80524988018E+02  0.41800000000E+01 0.  1.
        -11    1    1    2    0    0 -0.21054402691E+02  0.30655252098E+02  0.10443207562E+03  0.11085617156E+03  0.00000000000E+00 0. -1.
         11    1    1    2    0    0 -0.23658661273E+02  0.19885006863E+02 -0.13803459543E+02  0.33847913473E+02  0.00000000000E+00 0.  1.
</event>
<event>
 7    1  0.2956899E-009  0.1178060E+03  0.7561462E-02  0.1246761E+00
          1   -1    0    0  501    0  0.00000000000E+00  0.00000000000E+00  0.11118919465E+04  0.11118919465E+04  0.00000000000E+00 0. -1.
         -1   -1    0    0    0  501 -0.00000000000E+00 -0.00000000000E+00 -0.20202302036E+02  0.20202302036E+02  0.00000000000E+00 0.  1.
         25    2    1    2    0    0 -0.22734499922E+01 -0.96125251279E+02  0.72850111357E+03  0.74539060607E+03  0.12509216858E+03 0.  0.
          5    1    3    3  502    0  0.40949311300E+02 -0.13888669239E+02  0.44300181889E+03  0.44512675180E+03  0.41800000000E+01 0.  1.
         -5    1    3    3    0  502 -0.43222761292E+02 -0.82236582040E+02  0.28549929468E+03  0.30026385427E+03  0.41800000000E+01 0.  1.
        -11    1    1    2    0    0 -0.93771625211E+01  0.19173302993E+02  0.75360036578E+01  0.22634886254E+02  0.00000000000E+00 0.  1.
         11    1    1    2    0    0  0.11650612513E+02  0.76951948285E+02  0.35565252721E+03  0.36406875618E+03  0.00000000000E+00 0. -1.
</event>
<event>
 7    1  0.2679104E-009  0.1263515E+03  0.7561462E-02  0.1232972E+00
         -3   -1    0    0    0  501 -0.00000000000E+00  0.00000000000E+00  0.27935124078E+03  0.27935124078E+03  0.00000000000E+00 0.  1.
          3   -1    0    0  501    0  0.00000000000E+00 -0.00000000000E+00 -0.96264630429E+02  0.96264630429E+02  0.00000000000E+00 0. -1.
         25    2    1    2    0    0 -0.59130183806E+02  0.65023602960E+02  0.19803038814E+03  0.25017259570E+03  0.12508335395E+03 0.  0.
          5    1    3    3  502    0  0.30052855910E+02 -0.14207042476E+02  0.43994221298E+02  0.55298988344E+02  0.41800000000E+01 0.  1.
         -5    1    3    3    0  502 -0.89183039715E+02  0.79230645437E+02  0.15403616684E+03  0.19487360736E+03  0.41800000000E+01 0.  1.
        -11    1    1    2    0    0  0.38232816700E+02 -0.68691969738E+02 -0.43515719934E+02  0.89855177150E+02  0.00000000000E+00 0. -1.
         11    1    1    2    0    0  0.20897367106E+02  0.36683667780E+01  0.28571942150E+02  0.35588098362E+02  0.00000000000E+00 0.  1.
</event>
<event>
 7    1  0.2679104E-009  0.2087395E+03  0.7561462E-02  0.1142568E+00
          2   -1    0    0  501    0  0.00000000000E+00  0.00000000000E+00  0.80477603659E+03  0.80477603659E+03  0.00000000000E+00 0. -1.
         -2   -1    0    0    0  501 -0.00000000000E+00 -0.00000000000E+00 -0.12741596076E+03  0.12741596076E+03  0.00000000000E+00 0.  1.
         25    2    1    2    0    0  0.15536436440E+03  0.11245350186E+03  0.68129267960E+03  0.71874269793E+03  0.12508986671E+03 0.  0.
          5    1    3    3  502    0 -0.19404821780E+02  0.72288794087E+01  0.33780887972E+02  0.39842497386E+02  0.41800000000E+01 0.  1.
         -5    1    3    3    0  502  0.17476918618E+03  0.10522462246E+03  0.64751179163E+03  0.67890020055E+03  0.41800000000E+01 0.  1.
        -11    1    1    2    0    0 -0.10028648320E+03 -0.64129583188E+02 -0.47543499845E+02  0.12818099130E+03  0.00000000000E+00 0.  1.
         11    1    1    2    0    0 -0.55077881198E+02 -0.48323918676E+02  0.43610896069E+02  0.85268308119E+02  0.00000000000E+00 0. -1.
</event>
<event>
 7    1  0.2679104E-009  0.8550006E+02  0.7561462E-02  0.1314130E+00
          2   -1    0    0  501    0  0.00000000000E+00  0.00000000000E+00  0.19420139019E+03  0.19420139019E+03  0.00000000000E+00 0. -1.
         -2   -1    0    0    0  501 -0.00000000000E+00 -0.00000000000E+00 -0.68346597680E+02  0.68346597680E+02  0.00000000000E+00 0.  1.
         25    2    1    2    0    0 -0.28055968005E+02 -0.36776711551E+01  0.10311385246E+03  0.16456404955E+03  0.12509275450E+03 0.  0.
          5    1    3    3  502    0  0.34742867412E+02 -0.32148241824E+02  0.98914284179E+01  0.48537501425E+02  0.41800000000E+01 0.  1.
         -5    1    3    3    0  502 -0.62798835417E+02  0.28470570669E+02  0.93222424045E+02  0.11602654812E+03  0.41800000000E+01 0.  1.
        -11    1    1    2    0    0 -0.12717502098E+02 -0.30512911766E+01 -0.28972150197E+02  0.31787272995E+02  0.00000000000E+00 0.  1.
         11    1    1    2    0    0  0.40773470102E+02  0.67289623316E+01  0.51713090245E+02  0.66196665331E+02  0.00000000000E+00 0. -1.
</event>
<event>
 7    1  0.2679104E-009  0.1152580E+03  0.7561462E-02  0.1251131E+00
          2   -1    0    0  501    0  0.00000000000E+00  0.00000000000E+00  0.12498559117E+04  0.12498559117E+04  0.00000000000E+00 0. -1.
         -2   -1    0    0    0  501 -0.00000000000E+00 -0.00000000000E+00 -0.16294109703E+02  0.16294109703E+02  0.00000000000E+00 0.  1.
         25    2    1    2    0    0 -0.52202478994E+02 -0.51821085391E+02  0.92708298949E+03  0.93837140398E+03  0.12508996239E+03 0.  0.
          5    1    3    3  502    0  0.12406950599E+01  0.37821256645E+02  0.17676779910E+03  0.18082122104E+03  0.41800000000E+01 0.  1.
         -5    1    3    3    0  502 -0.53443174054E+02 -0.89642342036E+02  0.75031519039E+03  0.75755018294E+03  0.41800000000E+01 0.  1.
        -11    1    1    2    0    0  0.31121372764E+02  0.58176762867E+02  0.29623603480E+03  0.30349442152E+03  0.00000000000E+00 0. -1.
         11    1    1    2    0    0  0.21081106230E+02 -0.63556774755E+01  0.10242777718E+02  0.24284195919E+02  0.00000000000E+00 0.  1.
</event>
<event>
 7    1  0.2679104E-009  0.1454041E+03  0.7561462E-02  0.1206237E+00
         -3   -1    0    0    0  501 -0.00000000000E+00  0.00000000000E+00  0.26318144052E+03  0.26318144052E+03  0.00000000000E+00 0.  1.
          3   -1    0    0  501    0  0.00000000000E+00 -0.00000000000E+00 -0.98935609321E+02  0.98935609321E+02  0.00000000000E+00 0. -1.
         25    2    1    2    0    0 -0.87660333955E+02  0.61574501159E+02  0.25960092032E+02  0.16673106781E+03  0.12509823841E+03 0.  0.
          5    1    3    3  502    0  0.29862170016E+02  0.30047154550E+02  0.17927680213E+01  0.42605951601E+02  0.41800000000E+01 0.  1.
         -5    1    3    3    0  502 -0.11752250397E+03  0.31527346609E+02  0.24167324010E+02  0.12412511621E+03  0.41800000000E+01 0.  1.
        -11    1    1    2    0    0  0.44262885609E+02  0.75203204417E+01  0.89996904305E+02  0.10057435581E+03  0.00000000000E+00 0.  1.
         11    1    1    2    0    0  0.43397448345E+02 -0.69094821601E+02  0.48288834866E+02  0.94811626226E+02  0.00000000000E+00 0. -1.
</event>
<event>
 7    1  0.2679104E-009  0.1127345E+03  0.7561462E-02  0.1255588E+00
          2   -1    0    0  501    0  0.00000000000E+00  0.00000000000E+00  0.50293340282E+03  0.50293340282E+03  0.00000000000E+00 0. -1.
         -2   -1    0    0    0  501 -0.00000000000E+00 -0.00000000000E+00 -0.39139945606E+02  0.39139945606E+02  0.00000000000E+00 0.  1.
         25    2    1    2    0    0  0.43454919370E+02 -0.75730549535E+02  0.22464760748E+03  0.27154452222E+03  0.12508570601E+03 0.  0.
          5    1    3    3  502    0  0.58341976035E+02 -0.79568158745E+02  0.23335331280E+03  0.25338926387E+03  0.41800000000E+01 0. -1.
         -5    1    3    3    0  502 -0.14887056665E+02  0.38376092098E+01 -0.87057053110E+01  0.18155258344E+02  0.41800000000E+01 0. -1.
        -11    1    1    2    0    0 -0.25569825418E+01  0.69342217138E+02  0.20639053908E+03  0.21774282046E+03  0.00000000000E+00 0. -1.
         11    1    1    2    0    0 -0.40897936828E+02  0.63883323967E+01  0.32755310645E+02  0.52786005751E+02  0.00000000000E+00 0.  1.
</event>
<event>
 7    1  0.2679104E-009  0.1505882E+03  0.7561462E-02  0.1199752E+00
         -2   -1    0    0    0  501 -0.00000000000E+00  0.00000000000E+00  0.18641336610E+02  0.18641336610E+02  0.00000000000E+00 0.  1.
          2   -1    0    0  501    0  0.00000000000E+00 -0.00000000000E+00 -0.16617257159E+04  0.16617257159E+04  0.00000000000E+00 0. -1.
         25    2    1    2    0    0  0.51258910906E+02 -0.94318911284E+02 -0.12798378090E+04  0.12904093545E+04  0.12509177280E+03 0.  0.
          5    1    3    3  502    0 -0.35955909739E+02 -0.84512399983E+01 -0.18163232460E+03  0.18539693806E+03  0.41800000000E+01 0. -1.
         -5    1    3    3    0  502  0.87214820646E+02 -0.85867671286E+02 -0.10982054844E+04  0.11050124164E+04  0.41800000000E+01 0. -1.
        -11    1    1    2    0    0  0.26755178407E+02  0.31869951269E+02 -0.95567214801E+02  0.10423351625E+03  0.00000000000E+00 0.  1.
         11    1    1    2    0    0 -0.78014089313E+02  0.62448960015E+02 -0.26767935545E+03  0.28572418181E+03  0.00000000000E+00 0. -1.
</event>
<event>
 7    1  0.2679104E-009  0.6273660E+02  0.7561462E-02  0.1386694E+00
          1   -1    0    0  501    0  0.00000000000E+00  0.00000000000E+00  0.12056379141E+03  0.12056379141E+03  0.00000000000E+00 0. -1.
         -1   -1    0    0    0  501 -0.00000000000E+00 -0.00000000000E+00 -0.10920656387E+03  0.10920656387E+03  0.00000000000E+00 0.  1.
         25    2    1    2    0    0 -0.31484691571E+02 -0.94905096940E+01  0.27652933591E+02  0.13226495456E+03  0.12509187780E+03 0.  0.
          5    1    3    3  502    0  0.15759077078E+02  0.18121419552E+02 -0.38959411773E+02  0.45956963810E+02  0.41800000000E+01 0.  1.
         -5    1    3    3    0  502 -0.47243768649E+02 -0.27611929246E+02  0.66612345364E+02  0.86307990753E+02  0.41800000000E+01 0.  1.
        -11    1    1    2    0    0  0.50779756799E+01 -0.11442807910E+02 -0.48983833995E+02  0.50558280061E+02  0.00000000000E+00 0.  1.
         11    1    1    2    0    0  0.26406715891E+02  0.20933317604E+02  0.32688127941E+02  0.46947120661E+02  0.00000000000E+00 0. -1.
</event>
<event>
 7    1  0.2679104E-009  0.9400025E+02  0.7561462E-02  0.1293444E+00
         -2   -1    0    0    0  501 -0.00000000000E+00  0.00000000000E+00  0.29773359958E+03  0.29773359958E+03  0.00000000000E+00 0. -1.
          2   -1    0    0  501    0  0.00000000000E+00 -0.00000000000E+00 -0.57966168446E+02  0.57966168446E+02  0.00000000000E+00 0.  1.
         25    2    1    2    0    0  0.32094613251E+02 -0.38529916814E+02  0.55642229418E+02  0.14580388144E+03  0.12509234773E+03 0.  0.
          5    1    3    3  502    0 -0.32339186609E+02 -0.37783787636E+02 -0.12987614990E+02  0.51571194884E+02  0.41800000000E+01 0.  1.
         -5    1    3    3    0  502  0.64433799859E+02 -0.74612917801E+00  0.68629844408E+02  0.94232686561E+02  0.41800000000E+01 0.  1.
        -11    1    1    2    0    0 -0.18462243180E+02 -0.11441703754E+02  0.35124404368E+01  0.22002369096E+02  0.00000000000E+00 0.  1.
         11    1    1    2    0    0 -0.13632370071E+02  0.49971620569E+02  0.18061276127E+03  0.18789351748E+03  0.00000000000E+00 0. -1.
</event>
<event>
 7    1  0.2776729E-009  0.1246650E+03  0.7561462E-02  0.1235594E+00
          3   -1    0    0  501    0  0.00000000000E+00  0.00000000000E+00  0.12516973560E+03  0.12516973560E+03  0.00000000000E+00 0. -1.
         -3   -1    0    0    0  501 -0.00000000000E+00 -0.00000000000E+00 -0.21734788843E+03  0.21734788843E+03  0.00000000000E+00 0.  1.
         25    2    1    2    0    0  0.10043976577E+03 -0.68492772676E+02 -0.25270135212E+02  0.17624961675E+03  0.12508373681E+03 0.  0.
          5    1    3    3  502    0  0.10227222354E+03 -0.66567617491E+02 -0.63551888584E+02  0.13764872084E+03  0.41800000000E+01 0.  1.
         -5    1    3    3    0  502 -0.18324577711E+01 -0.19251551851E+01  0.38281753372E+02  0.38600895912E+02  0.41800000000E+01 0.  1.
        -11    1    1    2    0    0 -0.67496303364E+02  0.38384011162E+02 -0.87613428282E+02  0.11706919362E+03  0.00000000000E+00 0.  1.
         11    1    1    2    0    0 -0.32943462404E+02  0.30108761514E+02  0.20705410664E+02  0.49198813662E+02  0.00000000000E+00 0. -1.
</event>
<event>
 7    1  0.2679104E-009  0.1367290E+03  0.7561462E-02  0.1217799E+00
          2   -1    0    0  501    0  0.00000000000E+00  0.00000000000E+00  0.11962572458E+03  0.11962572458E+03  0.00000000000E+00 0. -1.
         -2   -1    0    0    0  501 -0.00000000000E+00 -0.00000000000E+00 -0.24328950129E+03  0.24328950129E+03  0.00000000000E+00 0.  1.
         25    2    1    2    0    0  0.13366674114E+03 -0.24382512661E+02 -0.60653654414E+02  0.19439126740E+03  0.12509114452E+03 0.  0.
          5    1    3    3  502    0  0.57855877741E+02 -0.17704518549E+02  0.36594398779E+02  0.70833431289E+02  0.41800000000E+01 0.  1.
         -5    1    3    3    0  502  0.75810863398E+02 -0.66779941127E+01 -0.97248053193E+02  0.12355783611E+03  0.41800000000E+01 0.  1.
        -11    1    1    2    0    0 -0.78928377989E+02  0.21365510252E+02 -0.76599739142E+02  0.11204326806E+03  0.00000000000E+00 0.  1.
         11    1    1    2    0    0 -0.54738363151E+02  0.30170024093E+01  0.13589616848E+02  0.56480690417E+02  0.00000000000E+00 0. -1.
</event>
<event>
 7    1  0.2679104E-009  0.1036224E+03  0.7561462E-02  0.1272858E+00
          1   -1    0    0  501    0  0.00000000000E+00  0.00000000000E+00  0.19430986680E+03  0.19430986680E+03  0.00000000000E+00 0. -1.
         -1   -1    0    0    0  501 -0.00000000000E+00 -0.00000000000E+00 -0.70961967228E+02  0.70961967228E+02  0.00000000000E+00 0.  1.
         25    2    1    2    0    0 -0.40664180467E+02  0.22439661558E+02  0.57779380181E+02  0.14540266650E+03  0.12508542948E+03 0.  0.
          5    1    3    3  502    0  0.26775704651E+02  0.29137519829E+02 -0.17982003678E+02  0.43666443382E+02  0.41800000000E+01 0.  1.
         -5    1    3    3    0  502 -0.67439885119E+02 -0.66978582708E+01  0.75761383859E+02  0.10173622312E+03  0.41800000000E+01 0.  1.
        -11    1    1    2    0    0  0.32632369967E+02 -0.56125322318E+02  0.49776244256E+02  0.81808299501E+02  0.00000000000E+00 0.  1.
         11    1    1    2    0    0  0.80318105006E+01  0.33685660760E+02  0.15792275132E+02  0.38060868022E+02  0.00000000000E+00 0. -1.
</event>
<event>
 7    1  0.2679104E-009  0.1215032E+03  0.7561462E-02  0.1240638E+00
         -2   -1    0    0    0  501 -0.00000000000E+00  0.00000000000E+00  0.27819045759E+03  0.27819045759E+03  0.00000000000E+00 0.  1.
          2   -1    0    0  501    0  0.00000000000E+00 -0.00000000000E+00 -0.84586265559E+02  0.84586265559E+02  0.00000000000E+00 0. -1.
         25    2    1    2    0    0  0.92472981851E+02  0.54152931241E+02  0.14210476137E+03  0.21754206620E+03  0.12508794916E+03 0.  0.
          5    1    3    3  502    0  0.39211224521E+02  0.38991377575E+02  0.15139783307E+03  0.16123468582E+03  0.41800000000E+01 0.  1.
         -5    1    3    3    0  502  0.53261757330E+02  0.15161553666E+02 -0.92930716956E+01  0.56307380378E+02  0.41800000000E+01 0.  1.
        -11    1    1    2    0    0  0.84137096646E+01 -0.25922306850E+02 -0.25117412451E+01  0.27369058202E+02  0.00000000000E+00 0. -1.
         11    1    1    2    0    0 -0.10088669152E+03 -0.28230624390E+02  0.54011171906E+02  0.11786559875E+03  0.00000000000E+00 0.  1.
</event>
<event>
 7    1  0.2679104E-009  0.8843248E+02  0.7561462E-02  0.1306693E+00
         -1   -1    0    0    0  501 -0.00000000000E+00  0.00000000000E+00  0.54712025181E+02  0.54712025181E+02  0.00000000000E+00 0.  1.
          1   -1    0    0  501    0  0.00000000000E+00 -0.00000000000E+00 -0.32067744784E+03  0.32067744784E+03  0.00000000000E+00 0. -1.
         25    2    1    2    0    0  0.24910470116E+02  0.35675955925E+02 -0.64633056102E+02  0.14737125216E+03  0.12509016216E+03 0.  0.
          5    1    3    3  502    0  0.40968585660E+02  0.42327167062E+02  0.18854093885E+02  0.61991639264E+02  0.41800000000E+01 0. -1.
         -5    1    3    3    0  502 -0.16058115544E+02 -0.66512111367E+01 -0.83487149987E+02  0.85379612891E+02  0.41800000000E+01 0. -1.
        -11    1    1    2    0    0 -0.51986593951E+02 -0.47471080914E+02 -0.17430215377E+03  0.18798231375E+03  0.00000000000E+00 0. -1.
         11    1    1    2    0    0  0.27076123835E+02  0.11795124990E+02 -0.27030212792E+02  0.40035907121E+02  0.00000000000E+00 0.  1.
</event>
<event>
 7    1  0.2679104E-009  0.1237740E+03  0.7561462E-02  0.1236998E+00
          1   -1    0    0  501    0  0.00000000000E+00  0.00000000000E+00  0.41608401174E+03  0.41608401174E+03  0.00000000000E+00 0. -1.
         -1   -1    0    0    0  501 -0.00000000000E+00 -0.00000000000E+00 -0.44995107448E+02  0.44995107448E+02  0.00000000000E+00 0.  1.
         25    2    1    2    0    0  0.78040426394E+02 -0.28818204613E+02  0.19528873549E+03  0.24638572601E+03  0.12508972260E+03 0.  0.
          5    1    3    3  502    0  0.95597145860E+02 -0.47967876902E+02  0.96377517631E+02  0.14403412726E+03  0.41800000000E+01 0.  1.
         -5    1    3    3    0  502 -0.17556719466E+02  0.19149672289E+02  0.98911217859E+02  0.10235159874E+03  0.41800000000E+01 0.  1.
        -11    1    1    2    0    0 -0.67564398392E+02 -0.14943893325E+02  0.14346752848E+03  0.15928339400E+03  0.00000000000E+00 0.  1.
         11    1    1    2    0    0 -0.10476028002E+02  0.43762097938E+02  0.32332640321E+02  0.55409999176E+02  0.00000000000E+00 0. -1.
</event>
<event>
 7    1  0.2679104E-009  0.1194985E+03  0.7561462E-02  0.1243927E+00
          1   -1    0    0  501    0  0.00000000000E+00  0.00000000000E+00  0.68228414211E+03  0.68228414211E+03  0.00000000000E+00 0. -1.
         -1   -1    0    0    0  501 -0.00000000000E+00 -0.00000000000E+00 -0.30781556151E+02  0.30781556151E+02  0.00000000000E+00 0.  1.
         25    2    1    2    0    0 -0.84348238310E+02 -0.46234324342E+02  0.34964276308E+03  0.38360136660E+03  0.12509080153E+03 0.  0.
          5    1    3    3  502    0  0.17214384038E+02 -0.36470305244E+01  0.18250266782E+03  0.18339665212E+03  0.41800000000E+01 0.  1.
         -5    1    3    3    0  502 -0.10156262235E+03 -0.42587293818E+02  0.16714009526E+03  0.20020471447E+03  0.41800000000E+01 0.  1.
        -11    1    1    2    0    0  0.30122516809E+02 -0.10803280682E+02  0.22214788362E+02  0.38956048496E+02  0.00000000000E+00 0.  1.
         11    1    1    2    0    0  0.54225721501E+02  0.57037605024E+02  0.27964503451E+03  0.29050828317E+03  0.00000000000E+00 0. -1.
</event>
<event>
 7    1  0.2679104E-009  0.1059981E+03  0.7561462E-02  0.1268166E+00
         -2   -1    0    0    0  501 -0.00000000000E+00  0.00000000000E+00  0.56660962347E+02  0.56660962347E+02  0.00000000000E+00 0.  1.
          2   -1    0    0  501    0  0.00000000000E+00 -0.00000000000E+00 -0.25456455878E+03  0.25456455878E+03  0.00000000000E+00 0. -1.
         25    2    1    2    0    0 -0.18562861305E+02  0.21810650872E+02 -0.16753568750E+03  0.21103751906E+03  0.12509333937E+03 0.  0.
          5    1    3    3  502    0  0.53486951501E+02  0.15242812058E+02 -0.69012525683E+02  0.88732172302E+02  0.41800000000E+01 0.  1.
         -5    1    3    3    0  502 -0.72049812805E+02  0.65678388133E+01 -0.98523161817E+02  0.12230534676E+03  0.41800000000E+01 0.  1.
        -11    1    1    2    0    0  0.82495214023E+01 -0.51586654755E+02 -0.41550727990E+02  0.66751034064E+02  0.00000000000E+00 0. -1.
         11    1    1    2    0    0  0.10313339903E+02  0.29776003883E+02  0.11182819055E+02  0.33436968002E+02  0.00000000000E+00 0.  1.
</event>
<event>
 7    1  0.2679104E-009  0.1208968E+03  0.7561462E-02  0.1241625E+00
          1   -1    0    0  501    0  0.00000000000E+00  0.00000000000E+00  0.17236545914E+03  0.17236545914E+03  0.00000000000E+00 0. -1.
         -1   -1    0    0    0  501 -0.00000000000E+00 -0.00000000000E+00 -0.14450209638E+03  0.14450209638E+03  0.00000000000E+00 0.  1.
         25    2    1    2    0    0 -0.52736883940E+02  0.53552475496E+02 -0.70983389027E+02  0.16228289607E+03  0.12509216715E+03 0.  0.
          5    1    3    3  502    0 -0.93387955903E+02  0.35232423503E+02 -0.58596794388E+02  0.11581748869E+03  0.41800000000E+01 0. -1.
         -5    1    3    3    0  502  0.40651071963E+02  0.18320051993E+02 -0.12386594639E+02  0.46465407385E+02  0.41800000000E+01 0. -1.
        -11    1    1    2    0    0 -0.10263929916E+02  0.47141646494E+01 -0.10611494938E+02  0.15497594345E+02  0.00000000000E+00 0.  1.
         11    1    1    2    0    0  0.63000813856E+02 -0.58266640145E+02  0.10945824673E+03  0.13908706510E+03  0.00000000000E+00 0. -1.
</event>
<event>
 7    1  0.2679104E-009  0.3146019E+03  0.7561462E-02  0.1078161E+00
         -1   -1    0    0    0  501 -0.00000000000E+00  0.00000000000E+00  0.15610223398E+03  0.15610223398E+03  0.00000000000E+00 0.  1.
          1   -1    0    0  501    0  0.00000000000E+00 -0.00000000000E+00 -0.66767996545E+03  0.66767996545E+03  0.00000000000E+00 0. -1.
         25    2    1    2    0    0  0.13554098621E+02 -0.29683093230E+03 -0.34364611129E+03  0.47120266767E+03  0.12508792206E+03 0.  0.
          5    1    3    3  502    0  0.56211559980E+02 -0.62756439106E+02 -0.94467911448E+02  0.12664820890E+03  0.41800000000E+01 0. -1.
         -5    1    3    3    0  502 -0.42657461359E+02 -0.23407449320E+03 -0.24917819985E+03  0.34455445876E+03  0.41800000000E+01 0. -1.
        -11    1    1    2    0    0  0.30565471951E+02  0.16664220459E+03 -0.11740716713E+03  0.20612693983E+03  0.00000000000E+00 0. -1.
         11    1    1    2    0    0 -0.44119570572E+02  0.13018872771E+03 -0.50524453036E+02  0.14645259193E+03  0.00000000000E+00 0.  1.
</event>
<event>
 7    1  0.2679104E-009  0.1060527E+03  0.7561462E-02  0.1268059E+00
         -3   -1    0    0    0  501 -0.00000000000E+00  0.00000000000E+00  0.46926542917E+02  0.46926542917E+02  0.00000000000E+00 0.  1.
          3   -1    0    0  501    0  0.00000000000E+00 -0.00000000000E+00 -0.51188207395E+03  0.51188207395E+03  0.00000000000E+00 0. -1.
         25    2    1    2    0    0 -0.28277705151E+02  0.64676302691E+02 -0.98766178668E+02  0.17430992480E+03  0.12508612671E+03 0.  0.
          5    1    3    3  502    0  0.26519993223E+02 -0.90288353563E+01  0.11650872502E+02  0.30627522566E+02  0.41800000000E+01 0. -1.
         -5    1    3    3    0  502 -0.54797698374E+02  0.73705138048E+02 -0.11041705117E+03  0.14368240223E+03  0.41800000000E+01 0. -1.
        -11    1    1    2    0    0 -0.17084330509E+02 -0.30819295784E+02 -0.39465045898E+02  0.52907402027E+02  0.00000000000E+00 0.  1.
         11    1    1    2    0    0  0.45362035660E+02 -0.33857006908E+02 -0.32672430647E+03  0.33159129004E+03  0.00000000000E+00 0. -1.
</event>
<event>
 7    1  0.2679104E-009  0.8907985E+02  0.7561462E-02  0.1305095E+00
          1   -1    0    0  501    0  0.00000000000E+00  0.00000000000E+00  0.23903562413E+03  0.23903562413E+03  0.00000000000E+00 0. -1.
         -1   -1    0    0    0  501 -0.00000000000E+00 -0.00000000000E+00 -0.62099335066E+02  0.62099335066E+02  0.00000000000E+00 0.  1.
         25    2    1    2    0    0  0.48885615021E+02  0.26957449395E+02  0.99372424121E+02  0.16923011177E+03  0.12508974627E+03 0.  0.
          5    1    3    3  502    0 -0.13647975258E+02  0.33382557582E+02  0.99829877796E+02  0.10622682938E+03  0.41800000000E+01 0.  1.
         -5    1    3    3    0  502  0.62533590279E+02 -0.64251081873E+01 -0.45745367502E+00  0.63003282393E+02  0.41800000000E+01 0.  1.
        -11    1    1    2    0    0 -0.29093243867E+02 -0.43989660467E+02  0.29146571789E+01  0.52820472292E+02  0.00000000000E+00 0.  1.
         11    1    1    2    0    0 -0.19792371154E+02  0.17032211072E+02  0.74649207767E+02  0.79084375133E+02  0.00000000000E+00 0. -1.
</event>
<event>
 7    1  0.2679104E-009  0.1427910E+03  0.7561462E-02  0.1209622E+00
         -4   -1    0    0    0  501 -0.00000000000E+00  0.00000000000E+00  0.58467806009E+03  0.58467806009E+03  0.00000000000E+00 0. -1.
          4   -1    0    0  501    0  0.00000000000E+00 -0.00000000000E+00 -0.43633528229E+02  0.43633528229E+02  0.00000000000E+00 0.  1.
         25    2    1    2    0    0 -0.10568914425E+03  0.43966677586E+02  0.23546932376E+03  0.29016806365E+03  0.12509372000E+03 0.  0.
          5    1    3    3  502    0 -0.43041612916E+02  0.78354763527E+02  0.84493316200E+02  0.12307982082E+03  0.41800000000E+01 0. -1.
         -5    1    3    3    0  502 -0.62647531331E+02 -0.34388085941E+02  0.15097600756E+03  0.16708824284E+03  0.41800000000E+01 0. -1.
        -11    1    1    2    0    0  0.89149810641E+02 -0.13960423956E+02  0.12396391290E+03  0.15332851619E+03  0.00000000000E+00 0.  1.
         11    1    1    2    0    0  0.16539333606E+02 -0.30006253630E+02  0.18161129520E+03  0.18481500847E+03  0.00000000000E+00 0. -1.
</event>
<event>
 7    1  0.2679104E-009  0.1320293E+03  0.7561462E-02  0.1224475E+00
         -2   -1    0    0    0  501 -0.00000000000E+00  0.00000000000E+00  0.21806863496E+03  0.21806863496E+03  0.00000000000E+00 0. -1.
          2   -1    0    0  501    0  0.00000000000E+00 -0.00000000000E+00 -0.11720585072E+03  0.11720585072E+03  0.00000000000E+00 0.  1.
         25    2    1    2    0    0 -0.11405425457E+03  0.16220540813E+02  0.36120804391E+02  0.17384851128E+03  0.12508842247E+03 0.  0.
          5    1    3    3  502    0 -0.11123713752E+03  0.11676496977E+02  0.74773011354E+02  0.13460504067E+03  0.41800000000E+01 0. -1.
         -5    1    3    3    0  502 -0.28171170460E+01  0.45440438354E+01 -0.38652206963E+02  0.39243470616E+02  0.41800000000E+01 0. -1.
        -11    1    1    2    0    0  0.28266139669E+02 -0.46460878846E+02  0.10099936384E+02  0.55313620654E+02  0.00000000000E+00 0.  1.
         11    1    1    2    0    0  0.85788114900E+02  0.30240338033E+02  0.54642043464E+02  0.10611235374E+03  0.00000000000E+00 0. -1.
</event>
<event>
 7    1  0.2679104E-009  0.1125975E+03  0.7561462E-02  0.1255834E+00
         -2   -1    0    0    0  501 -0.00000000000E+00  0.00000000000E+00  0.26272588526E+02  0.26272588526E+02  0.00000000000E+00 0.  1.
          2   -1    0    0  501    0  0.00000000000E+00 -0.00000000000E+00 -0.90474498624E+03  0.90474498624E+03  0.00000000000E+00 0. -1.
         25    2    1    2    0    0 -0.15815117181E+02  0.74944191072E+02 -0.70127845856E+03  0.71645499721E+03  0.12509810903E+03 0.  0.
          5    1    3    3  502    0  0.31768377514E+02  0.56210096777E+02 -0.15765171178E+03  0.17041226311E+03  0.41800000000E+01 0. -1.
         -5    1    3    3    0  502 -0.47583494696E+02  0.18734094296E+02 -0.54362674677E+03  0.54604273410E+03  0.41800000000E+01 0. -1.
        -11    1    1    2    0    0 -0.27010799805E+02 -0.56363515971E+02 -0.53218715023E+02  0.82089346857E+02  0.00000000000E+00 0.  1.
         11    1    1    2    0    0  0.42825916986E+02 -0.18580675101E+02 -0.12397522413E+03  0.13247323070E+03  0.00000000000E+00 0. -1.
</event>
<event>
 7    1  0.2679104E-009  0.1176575E+03  0.7561462E-02  0.1247012E+00
          2   -1    0    0  501    0  0.00000000000E+00  0.00000000000E+00  0.88015872375E+03  0.88015872375E+03  0.00000000000E+00 0. -1.
         -2   -1    0    0    0  501 -0.00000000000E+00 -0.00000000000E+00 -0.23300974463E+02  0.23300974463E+02  0.00000000000E+00 0.  1.
         25    2    1    2    0    0  0.58932283589E+02  0.66998981214E+02  0.56040086205E+03  0.58108370293E+03  0.12508903266E+03 0.  0.
          5    1    3    3  502    0  0.26250757580E+02  0.76145214140E+02  0.15953998269E+03  0.17876709537E+03  0.41800000000E+01 0. -1.
         -5    1    3    3    0  502  0.32681526009E+02 -0.91462329252E+01  0.40086087936E+03  0.40231660757E+03  0.41800000000E+01 0. -1.
        -11    1    1    2    0    0  0.15714997648E+02 -0.36671846273E+02  0.15003746626E+03  0.15525149514E+03  0.00000000000E+00 0. -1.
         11    1    1    2    0    0 -0.74647281237E+02 -0.30327134941E+02  0.14641942097E+03  0.16712450014E+03  0.00000000000E+00 0.  1.
</event>
<event>
 7    1  0.2679104E-009  0.8750231E+02  0.7561462E-02  0.1309015E+00
         -2   -1    0    0    0  501 -0.00000000000E+00  0.00000000000E+00  0.30399370346E+02  0.30399370346E+02  0.00000000000E+00 0.  1.
          2   -1    0    0  501    0  0.00000000000E+00 -0.00000000000E+00 -0.45164099715E+03  0.45164099715E+03  0.00000000000E+00 0. -1.
         25    2    1    2    0    0  0.40658651942E+02 -0.21949218748E+01 -0.26359215934E+03  0.29459405145E+03  0.12508750947E+03 0.  0.
          5    1    3    3  502    0  0.44432975125E+02 -0.40017779199E+02 -0.51337538529E+02  0.78922285780E+02  0.41800000000E+01 0.  1.
         -5    1    3    3    0  502 -0.37743231830E+01  0.37822857324E+02 -0.21225462081E+03  0.21567176567E+03  0.41800000000E+01 0.  1.
        -11    1    1    2    0    0 -0.19428261646E+02 -0.31492012890E+02 -0.16012854886E+02  0.40318925433E+02  0.00000000000E+00 0.  1.
         11    1    1    2    0    0 -0.21230390296E+02  0.33686934765E+02 -0.14163661258E+03  0.14712739061E+03  0.00000000000E+00 0. -1.
</event>
<event>
 7    1  0.2679104E-009  0.9693399E+02  0.7561462E-02  0.1286879E+00
          1   -1    0    0  501    0  0.00000000000E+00  0.00000000000E+00  0.23305810195E+03  0.23305810195E+03  0.00000000000E+00 0. -1.
         -1   -1    0    0    0  501 -0.00000000000E+00 -0.00000000000E+00 -0.87324993369E+02  0.87324993369E+02  0.00000000000E+00 0.  1.
         25    2    1    2    0    0  0.81259267097E+02  0.91871321181E+01  0.31571952108E+02  0.15274633111E+03  0.12508869502E+03 0.  0.
          5    1    3    3  502    0  0.29014434587E+02 -0.27934373344E+02  0.67826466429E+02  0.78994104696E+02  0.41800000000E+01 0.  1.
         -5    1    3    3    0  502  0.52244832510E+02  0.37121505462E+02 -0.36254514321E+02  0.73752226410E+02  0.41800000000E+01 0.  1.
        -11    1    1    2    0    0 -0.50604962094E+02 -0.22927344851E+02  0.12118909871E+03  0.13331662679E+03  0.00000000000E+00 0. -1.
         11    1    1    2    0    0 -0.30654305003E+02  0.13740212733E+02 -0.70279422364E+01  0.34320137431E+02  0.00000000000E+00 0.  1.
</event>
<event>
 7    1  0.2679104E-009  0.1130255E+03  0.7561462E-02  0.1255068E+00
         -1   -1    0    0    0  501 -0.00000000000E+00  0.00000000000E+00  0.48800706007E+02  0.48800706007E+02  0.00000000000E+00 0.  1.
          1   -1    0    0  501    0  0.00000000000E+00 -0.00000000000E+00 -0.26298672412E+03  0.26298672412E+03  0.00000000000E+00 0. -1.
         25    2    1    2    0    0  0.33762339291E+02 -0.61165982374E+01 -0.12328541355E+03  0.17895128531E+03  0.12508781311E+03 0.  0.
          5    1    3    3  502    0  0.55375152521E+02  0.46577814198E+02 -0.65111735235E+02  0.97431569613E+02  0.41800000000E+01 0.  1.
         -5    1    3    3    0  502 -0.21612813229E+02 -0.52694412435E+02 -0.58173678319E+02  0.81519715693E+02  0.41800000000E+01 0.  1.
        -11    1    1    2    0    0 -0.21996277481E+02 -0.41740067299E+02 -0.38437890849E+02  0.60856724313E+02  0.00000000000E+00 0.  1.
         11    1    1    2    0    0 -0.11766061810E+02  0.47856665536E+02 -0.52462713713E+02  0.71979420509E+02  0.00000000000E+00 0. -1.
</event>
<event>
 7    1  0.2679104E-009  0.1254121E+03  0.7561462E-02  0.1234427E+00
         -1   -1    0    0    0  501 -0.00000000000E+00  0.00000000000E+00  0.34364276123E+02  0.34364276123E+02  0.00000000000E+00 0. -1.
          1   -1    0    0  501    0  0.00000000000E+00 -0.00000000000E+00 -0.56376839794E+03  0.56376839794E+03  0.00000000000E+00 0.  1.
         25    2    1    2    0    0 -0.49598431382E+02  0.44242216265E+02 -0.17360959826E+03  0.22406505673E+03  0.12508988346E+03 0.  0.
          5    1    3    3  502    0  0.39777679913E+02  0.10051065165E+02 -0.80679338783E+02  0.90608585888E+02  0.41800000000E+01 0.  1.
         -5    1    3    3    0  502 -0.89376111295E+02  0.34191151100E+02 -0.92930259475E+02  0.13345647084E+03  0.41800000000E+01 0.  1.
        -11    1    1    2    0    0 -0.17469902465E+02 -0.43336579900E+02 -0.17834772567E+03  0.18436693820E+03  0.00000000000E+00 0.  1.
         11    1    1    2    0    0  0.67068333847E+02 -0.90563636468E+00 -0.17744679789E+03  0.18970067913E+03  0.00000000000E+00 0. -1.
</event>
<event>
 7    1  0.2679104E-009  0.1100054E+03  0.7561462E-02  0.1260560E+00
         -1   -1    0    0    0  501 -0.00000000000E+00  0.00000000000E+00  0.51500043174E+03  0.51500043174E+03  0.00000000000E+00 0.  1.
          1   -1    0    0  501    0  0.00000000000E+00 -0.00000000000E+00 -0.40189904364E+02  0.40189904364E+02  0.00000000000E+00 0. -1.
         25    2    1    2    0    0  0.83453841558E+01  0.53524809639E+02  0.40485910709E+03  0.42719185805E+03  0.12508971302E+03 0.  0.
          5    1    3    3  502    0  0.49987874922E+02 -0.17048492429E+02  0.13107433342E+03  0.14137677325E+03  0.41800000000E+01 0.  1.
         -5    1    3    3    0  502 -0.41642490766E+02  0.70573302068E+02  0.27378477367E+03  0.28581508480E+03  0.41800000000E+01 0.  1.
        -11    1    1    2    0    0 -0.36254707821E+02 -0.20163116801E+02 -0.45458794196E+01  0.41732722629E+02  0.00000000000E+00 0.  1.
         11    1    1    2    0    0  0.27909323665E+02 -0.33361692838E+02  0.74497299702E+02  0.86265755427E+02  0.00000000000E+00 0. -1.
</event>
<event>
 7    1  0.2679104E-009  0.1783184E+03  0.7561462E-02  0.1169441E+00
          1   -1    0    0  501    0  0.00000000000E+00  0.00000000000E+00  0.75961254736E+02  0.75961254736E+02  0.00000000000E+00 0. -1.
         -1   -1    0    0    0  501 -0.00000000000E+00 -0.00000000000E+00 -0.48549281615E+03  0.48549281615E+03  0.00000000000E+00 0.  1.
         25    2    1    2    0    0 -0.12158629213E+03 -0.93730907606E+02 -0.16084656625E+03  0.25512443362E+03  0.12509256284E+03 0.  0.
          5    1    3    3  502    0 -0.60324922970E+02  0.64135551011E+01 -0.11292207556E+03  0.12825403529E+03  0.41800000000E+01 0.  1.
         -5    1    3    3    0  502 -0.61261369160E+02 -0.10014446271E+03 -0.47924490695E+02  0.12687039832E+03  0.41800000000E+01 0.  1.
        -11    1    1    2    0    0  0.66591100597E+02  0.10293549626E+03 -0.15995020873E+03  0.20152955203E+03  0.00000000000E+00 0.  1.
         11    1    1    2    0    0  0.54995191534E+02 -0.92045886515E+01 -0.88734786426E+02  0.10480008524E+03  0.00000000000E+00 0. -1.
</event>
<event>
 7    1  0.2679104E-009  0.1160229E+03  0.7561462E-02  0.1249806E+00
          3   -1    0    0  501    0  0.00000000000E+00  0.00000000000E+00  0.12832054113E+03  0.12832054113E+03  0.00000000000E+00 0. -1.
         -3   -1    0    0    0  501 -0.00000000000E+00 -0.00000000000E+00 -0.16909153590E+03  0.16909153590E+03  0.00000000000E+00 0.  1.
         25    2    1    2    0    0  0.96782794959E+02 -0.41807152936E+01 -0.44909792677E+02  0.16446483639E+03  0.12508958850E+03 0.  0.
          5    1    3    3  502    0 -0.37767906600E+01  0.10155038600E+02 -0.60508502306E+02  0.61612825028E+02  0.41800000000E+01 0. -1.
         -5    1    3    3    0  502  0.10055958562E+03 -0.14335753893E+02  0.15598709629E+02  0.10285201136E+03  0.41800000000E+01 0. -1.
        -11    1    1    2    0    0 -0.87451691542E+02 -0.22672065719E+02  0.29308670087E+02  0.94977992502E+02  0.00000000000E+00 0. -1.
         11    1    1    2    0    0 -0.93311034168E+01  0.26852781013E+02 -0.25169872179E+02  0.37969248143E+02  0.00000000000E+00 0.  1.
</event>
<event>
 7    1  0.2679104E-009  0.1160074E+03  0.7561462E-02  0.1249833E+00
          1   -1    0    0  501    0  0.00000000000E+00  0.00000000000E+00  0.29590991687E+03  0.29590991687E+03  0.00000000000E+00 0. -1.
         -1   -1    0    0    0  501 -0.00000000000E+00 -0.00000000000E+00 -0.56566039247E+02  0.56566039247E+02  0.00000000000E+00 0.  1.
         25    2    1    2    0    0  0.63150624617E+02 -0.17662110882E+02  0.96429196945E+02  0.17101486964E+03  0.12509014375E+03 0.  0.
          5    1    3    3  502    0  0.25460204386E+02 -0.59788333320E+02  0.74862054314E+01  0.65546796110E+02  0.41800000000E+01 0.  1.
         -5    1    3    3    0  502  0.37690420231E+02  0.42126222438E+02  0.88942991514E+02  0.10546807353E+03  0.41800000000E+01 0.  1.
        -11    1    1    2    0    0  0.13030183901E+02 -0.21055765524E+02  0.20372689828E+02  0.32065206145E+02  0.00000000000E+00 0.  1.
         11    1    1    2    0    0 -0.76180808517E+02  0.38717876406E+02  0.12254199085E+03  0.14939588034E+03  0.00000000000E+00 0. -1.
</event>
<event>
 7    1  0.3576081E-009  0.2781228E+03  0.7561462E-02  0.1096719E+00
         -2   -1    0    0    0  501 -0.00000000000E+00  0.00000000000E+00  0.10810299722E+03  0.10810299722E+03  0.00000000000E+00 0.  1.
          2   -1    0    0  501    0  0.00000000000E+00 -0.00000000000E+00 -0.72801227795E+03  0.72801227795E+03  0.00000000000E+00 0. -1.
         25    2    1    2    0    0 -0.98967583278E+02  0.23707543985E+03 -0.27680230388E+03  0.39782769347E+03  0.12509201229E+03 0.  0.
          5    1    3    3  502    0 -0.78782443545E+02  0.44127476426E+02 -0.10607610133E+03  0.13936828642E+03  0.41800000000E+01 0.  1.
         -5    1    3    3    0  502 -0.20185139732E+02  0.19294796342E+03 -0.17072620254E+03  0.25845940704E+03  0.41800000000E+01 0.  1.
        -11    1    1    2    0    0  0.82240300171E+02 -0.83072641321E+02 -0.16544633284E+03  0.20257596046E+03  0.00000000000E+00 0.  1.
         11    1    1    2    0    0  0.16727283107E+02 -0.15400279852E+03 -0.17766064402E+03  0.23571162124E+03  0.00000000000E+00 0. -1.
</event>
<event>
 7    1  0.2679104E-009  0.1172401E+03  0.7561462E-02  0.1247721E+00
         -1   -1    0    0    0  501 -0.00000000000E+00  0.00000000000E+00  0.42901897900E+02  0.42901897900E+02  0.00000000000E+00 0.  1.
          1   -1    0    0  501    0  0.00000000000E+00 -0.00000000000E+00 -0.36452376782E+03  0.36452376782E+03  0.00000000000E+00 0. -1.
         25    2    1    2    0    0  0.50126237496E+02 -0.33188174583E+02 -0.19406871498E+03  0.23858692916E+03  0.12508781722E+03 0.  0.
          5    1    3    3  502    0  0.68560708621E+02 -0.60434789423E+02 -0.86072247397E+02  0.12561384761E+03  0.41800000000E+01 0. -1.
         -5    1    3    3    0  502 -0.18434471124E+02  0.27246614840E+02 -0.10799646758E+03  0.11297308155E+03  0.41800000000E+01 0. -1.
        -11    1    1    2    0    0  0.18819201392E+02  0.36219423463E+02 -0.37893381418E+02  0.55694859120E+02  0.00000000000E+00 0. -1.
         11    1    1    2    0    0 -0.68945438888E+02 -0.30312488804E+01 -0.89659773526E+02  0.11314387744E+03  0.00000000000E+00 0.  1.
</event>
<event>
 7    1  0.2679104E-009  0.1053394E+03  0.7561462E-02  0.1269452E+00
         -2   -1    0    0    0  501 -0.00000000000E+00  0.00000000000E+00  0.26087129741E+02  0.26087129741E+02  0.00000000000E+00 0.  1.
          2   -1    0    0  501    0  0.00000000000E+00 -0.00000000000E+00 -0.85334988818E+03  0.85334988818E+03  0.00000000000E+00 0. -1.
         25    2    1    2    0    0  0.57878778780E+01  0.46238781207E+02 -0.71537092497E+03  0.72771865242E+03  0.12508937753E+03 0.  0.
          5    1    3    3  502    0 -0.43169016165E+02  0.40311265417E+02 -0.58951901946E+03  0.59248519710E+03  0.41800000000E+01 0. -1.
         -5    1    3    3    0  502  0.48956894043E+02  0.59275157909E+01 -0.12585190551E+03  0.13523345532E+03  0.41800000000E+01 0. -1.
        -11    1    1    2    0    0  0.84914935934E+01  0.26511112957E+02 -0.24194200414E+02  0.36882298022E+02  0.00000000000E+00 0. -1.
         11    1    1    2    0    0 -0.14279371471E+02 -0.72749894165E+02 -0.87697633055E+02  0.11483606748E+03  0.00000000000E+00 0.  1.
</event>
<event>
 7    1  0.2679104E-009  0.2084834E+03  0.7561462E-02  0.1142773E+00
          1   -1    0    0  501    0  0.00000000000E+00  0.00000000000E+00  0.50770339524E+02  0.50770339524E+02  0.00000000000E+00 0. -1.
         -1   -1    0    0    0  501 -0.00000000000E+00 -0.00000000000E+00 -0.11203175996E+04  0.11203175996E+04  0.00000000000E+00 0.  1.
         25    2    1    2    0    0  0.14298510599E+03  0.14888393404E+03 -0.66707562927E+03  0.70939998884E+03  0.12508909886E+03 0.  0.
          5    1    3    3  502    0  0.11540073983E+03  0.11894602619E+03 -0.63803444890E+03  0.65921993165E+03  0.41800000000E+01 0.  1.
         -5    1    3    3    0  502  0.27584366161E+02  0.29937907843E+02 -0.29041180367E+02  0.50180057190E+02  0.41800000000E+01 0.  1.
        -11    1    1    2    0    0 -0.53165463347E+02 -0.84190350772E+02 -0.10700178301E+03  0.14616416532E+03  0.00000000000E+00 0. -1.
         11    1    1    2    0    0 -0.89819642642E+02 -0.64693583263E+02 -0.29546984777E+03  0.31552378493E+03  0.00000000000E+00 0.  1.
</event>
<event>
 7    1  0.2679104E-009  0.1279139E+03  0.7561462E-02  0.1230584E+00
          1   -1    0    0  501    0  0.00000000000E+00  0.00000000000E+00  0.43628765151E+02  0.43628765151E+02  0.00000000000E+00 0. -1.
         -1   -1    0    0    0  501 -0.00000000000E+00 -0.00000000000E+00 -0.59688512859E+03  0.59688512859E+03  0.00000000000E+00 0.  1.
         25    2    1    2    0    0 -0.50428200189E+02  0.90876398902E+02 -0.23790980955E+03  0.28818408185E+03  0.12508982493E+03 0.  0.
          5    1    3    3  502    0 -0.12605216020E+02  0.78667582183E+02 -0.45864058920E+02  0.92024259073E+02  0.41800000000E+01 0.  1.
         -5    1    3    3    0  502 -0.37822984169E+02  0.12208816719E+02 -0.19204575063E+03  0.19615982277E+03  0.41800000000E+01 0.  1.
        -11    1    1    2    0    0 -0.23636556794E+02 -0.80454318849E+01 -0.91443643896E+01  0.26590133347E+02  0.00000000000E+00 0. -1.
         11    1    1    2    0    0  0.74064756983E+02 -0.82830967017E+02 -0.30620218950E+03  0.32573967854E+03  0.00000000000E+00 0.  1.
</event>
<event>
 7    1  0.2679104E-009  0.2187015E+03  0.7561462E-02  0.1134855E+00
         -2   -1    0    0    0  501 -0.00000000000E+00  0.00000000000E+00  0.53380341030E+02  0.53380341030E+02  0.00000000000E+00 0.  1.
          2   -1    0    0  501    0  0.00000000000E+00 -0.00000000000E+00 -0.96387941167E+03  0.96387941167E+03  0.00000000000E+00 0. -1.
         25    2    1    2    0    0 -0.11649015657E+02 -0.19531009740E+03 -0.39009870496E+03  0.45398932913E+03  0.12509027795E+03 0.  0.
          5    1    3    3  502    0  0.49907864224E+02 -0.11364923604E+03 -0.26263948753E+03  0.29052352155E+03  0.41800000000E+01 0.  1.
         -5    1    3    3    0  502 -0.61556879880E+02 -0.81660861368E+02 -0.12745921743E+03  0.16346580758E+03  0.41800000000E+01 0.  1.
        -11    1    1    2    0    0  0.10113068080E+02 -0.44817622268E+01 -0.65491712205E+02  0.66419309739E+02  0.00000000000E+00 0. -1.
         11    1    1    2    0    0  0.15359475767E+01  0.19979185963E+03 -0.45490865347E+03  0.49685111383E+03  0.00000000000E+00 0.  1.
</event>
<event>
 7    1  0.2679104E-009  0.1085089E+03  0.7561462E-02  0.1263356E+00
          2   -1    0    0  501    0  0.00000000000E+00  0.00000000000E+00  0.30495446359E+03  0.30495446359E+03  0.00000000000E+00 0. -1.
         -2   -1    0    0    0  501 -0.00000000000E+00 -0.00000000000E+00 -0.70094410267E+02  0.70094410267E+02  0.00000000000E+00 0.  1.
         25    2    1    2    0    0 -0.92643759628E+02  0.30666466974E+02  0.11867357909E+03  0.19812635457E+03  0.12508931052E+03 0.  0.
          5    1    3    3  502    0 -0.66714525558E+02 -0.84661788651E+01 -0.32023251667E+01  0.67455402982E+02  0.41800000000E+01 0.  1.
         -5    1    3    3    0  502 -0.25929234070E+02  0.39132645839E+02  0.12187590426E+03  0.13067095158E+03  0.41800000000E+01 0.  1.
        -11    1    1    2    0    0  0.33946092281E+02  0.42505907520E+01  0.10143598729E+03  0.10704982121E+03  0.00000000000E+00 0. -1.
         11    1    1    2    0    0  0.58697667347E+02 -0.34917057726E+02  0.14750486940E+02  0.69872698081E+02  0.00000000000E+00 0.  1.
</event>
<event>
 7    1  0.2679104E-009  0.1237482E+03  0.7561462E-02  0.1237039E+00
         -1   -1    0    0    0  501 -0.00000000000E+00  0.00000000000E+00  0.18002432218E+02  0.18002432218E+02  0.00000000000E+00 0.  1.
          1   -1    0    0  501    0  0.00000000000E+00 -0.00000000000E+00 -0.92000244725E+03  0.92000244725E+03  0.00000000000E+00 0. -1.
         25    2    1    2    0    0 -0.25389192104E+02  0.59843047657E+02 -0.57939240319E+03  0.59629569730E+03  0.12508876972E+03 0.  0.
          5    1    3    3  502    0 -0.31072349916E+02 -0.31050085270E+02 -0.27589566343E+03  0.27940201901E+03  0.41800000000E+01 0. -1.
         -5    1    3    3    0  502  0.56831578117E+01  0.90893132927E+02 -0.30349673976E+03  0.31689367829E+03  0.41800000000E+01 0. -1.
        -11    1    1    2    0    0  0.37655630878E+02 -0.80107450813E+02 -0.26615465481E+03  0.28048787940E+03  0.00000000000E+00 0. -1.
         11    1    1    2    0    0 -0.12266438774E+02  0.20264403156E+02 -0.56452957023E+02  0.61221302764E+02  0.00000000000E+00 0.  1.
</event>
<event>
 7    1  0.3204073E-009  0.1111937E+03  0.7561462E-02  0.1258375E+00
         -2   -1    0    0    0  501 -0.00000000000E+00  0.00000000000E+00  0.51021601682E+02  0.51021601682E+02  0.00000000000E+00 0. -1.
          2   -1    0    0  501    0  0.00000000000E+00 -0.00000000000E+00 -0.35076008464E+03  0.35076008464E+03  0.00000000000E+00 0.  1.
         25    2    1    2    0    0  0.67323193438E+02  0.32034805863E+01 -0.22329442563E+03  0.26467334388E+03  0.12509557858E+03 0.  0.
          5    1    3    3  502    0  0.26139373756E+01 -0.54688503874E+02 -0.78739184570E+02  0.95994774396E+02  0.41800000000E+01 0.  1.
         -5    1    3    3    0  502  0.64709256062E+02  0.57891984460E+02 -0.14455524106E+03  0.16867856948E+03  0.41800000000E+01 0.  1.
        -11    1    1    2    0    0 -0.11902871825E+02 -0.19445338528E+02 -0.76009769929E+02  0.79355432535E+02  0.00000000000E+00 0.  1.
         11    1    1    2    0    0 -0.55420321613E+02  0.16241857941E+02 -0.43428739778E+00  0.57752909906E+02  0.00000000000E+00 0. -1.
</event>
<event>
 7    1  0.2679104E-009  0.1556229E+03  0.7561462E-02  0.1193729E+00
         -2   -1    0    0    0  501 -0.00000000000E+00  0.00000000000E+00  0.29807385895E+02  0.29807385895E+02  0.00000000000E+00 0.  1.
          2   -1    0    0  501    0  0.00000000000E+00 -0.00000000000E+00 -0.15146522628E+04  0.15146522628E+04  0.00000000000E+00 0. -1.
         25    2    1    2    0    0  0.58306411203E+02 -0.13871056491E+03 -0.11512006495E+04  0.11677118229E+04  0.12509079726E+03 0.  0.
          5    1    3    3  502    0  0.62119491409E+02 -0.12392864840E+03 -0.58219635032E+03  0.59848742997E+03  0.41800000000E+01 0.  1.
         -5    1    3    3    0  502 -0.38130802059E+01 -0.14781916506E+02 -0.56900429914E+03  0.56922439291E+03  0.41800000000E+01 0.  1.
        -11    1    1    2    0    0 -0.41019547058E+02  0.42836332621E+02 -0.52514582530E+02  0.79217018446E+02  0.00000000000E+00 0.  1.
         11    1    1    2    0    0 -0.17286864145E+02  0.95874232286E+02 -0.28112964494E+03  0.29753080740E+03  0.00000000000E+00 0. -1.
</event>
<event>
 7    1  0.2679104E-009  0.9173608E+02  0.7561462E-02  0.1298701E+00
         -2   -1    0    0    0  501 -0.00000000000E+00  0.00000000000E+00  0.60290773002E+02  0.60290773002E+02  0.00000000000E+00 0.  1.
          2   -1    0    0  501    0  0.00000000000E+00 -0.00000000000E+00 -0.21029039951E+03  0.21029039951E+03  0.00000000000E+00 0. -1.
         25    2    1    2    0    0 -0.55304123979E+01  0.38972357095E+02 -0.89626305740E+02  0.15883706091E+03  0.12508759794E+03 0.  0.
          5    1    3    3  502    0  0.25924934631E+02 -0.17121600921E+02 -0.89029192866E+02  0.94387080875E+02  0.41800000000E+01 0.  1.
         -5    1    3    3    0  502 -0.31455347029E+02  0.56093958016E+02 -0.59711287334E+00  0.64449980034E+02  0.41800000000E+01 0.  1.
        -11    1    1    2    0    0  0.40801243932E+02 -0.31688559590E+02 -0.54779164742E+02  0.75297165984E+02  0.00000000000E+00 0. -1.
         11    1    1    2    0    0 -0.35270831534E+02 -0.72837975048E+01 -0.55941560255E+01  0.36446945618E+02  0.00000000000E+00 0.  1.
</event>
<event>
 7    1  0.2820993E-009  0.1295225E+03  0.7561462E-02  0.1228166E+00
          2   -1    0    0  501    0  0.00000000000E+00  0.00000000000E+00  0.35186182682E+03  0.35186182682E+03  0.00000000000E+00 0. -1.
         -2   -1    0    0    0  501 -0.00000000000E+00 -0.00000000000E+00 -0.57666590940E+02  0.57666590940E+02  0.00000000000E+00 0.  1.
         25    2    1    2    0    0 -0.18581425336E+02 -0.79445384036E+02  0.22290578107E+03  0.26831781230E+03  0.12510244902E+03 0.  0.
          5    1    3    3  502    0 -0.52843397086E+02 -0.27653352864E+01  0.38280264683E+02  0.65444042961E+02  0.41800000000E+01 0.  1.
         -5    1    3    3    0  502  0.34261971750E+02 -0.76680048750E+02  0.18462551639E+03  0.20287376934E+03  0.41800000000E+01 0.  1.
        -11    1    1    2    0    0 -0.13406136649E+02 -0.16196379787E+02  0.11331263520E+02  0.23883985241E+02  0.00000000000E+00 0.  1.
         11    1    1    2    0    0  0.31987561985E+02  0.95641763823E+02  0.59958191287E+02  0.11732662022E+03  0.00000000000E+00 0. -1.
</event>
<event>
 7    1  0.2679104E-009  0.9497623E+02  0.7561462E-02  0.1291230E+00
          2   -1    0    0  501    0  0.00000000000E+00  0.00000000000E+00  0.86394913508E+03  0.86394913508E+03  0.00000000000E+00 0. -1.
         -2   -1    0    0    0  501 -0.00000000000E+00 -0.00000000000E+00 -0.21153162709E+02  0.21153162709E+02  0.00000000000E+00 0.  1.
         25    2    1    2    0    0  0.75672998023E+01  0.79299503672E+02  0.44097839871E+03  0.46524735031E+03  0.12508986183E+03 0.  0.
          5    1    3    3  502    0  0.68073681330E+01  0.59794228352E+02  0.64777413285E+02  0.88517092570E+02  0.41800000000E+01 0.  1.
         -5    1    3    3    0  502  0.75993166924E+00  0.19505275320E+02  0.37620098543E+03  0.37673025774E+03  0.41800000000E+01 0.  1.
        -11    1    1    2    0    0  0.34089261467E+02 -0.35212480056E+02  0.92860122079E+02  0.10499999415E+03  0.00000000000E+00 0.  1.
         11    1    1    2    0    0 -0.41656561269E+02 -0.44087023616E+02  0.30895745158E+03  0.31485495333E+03  0.00000000000E+00 0. -1.
</event>
<event>
 7    1  0.2679104E-009  0.1116041E+03  0.7561462E-02  0.1257628E+00
          2   -1    0    0  501    0  0.00000000000E+00  0.00000000000E+00  0.16236771038E+02  0.16236771038E+02  0.00000000000E+00 0. -1.
         -2   -1    0    0    0  501 -0.00000000000E+00 -0.00000000000E+00 -0.84638055843E+03  0.84638055843E+03  0.00000000000E+00 0.  1.
         25    2    1    2    0    0  0.33978547035E+02 -0.23949259532E+02 -0.54065122759E+03  0.55648822475E+03  0.12508911105E+03 0.  0.
          5    1    3    3  502    0  0.77249025387E+02  0.36782626914E+01 -0.26587058482E+03  0.27692161673E+03  0.41800000000E+01 0.  1.
         -5    1    3    3    0  502 -0.43270478352E+02 -0.27627522224E+02 -0.27478064277E+03  0.27956660802E+03  0.41800000000E+01 0.  1.
        -11    1    1    2    0    0  0.16641964118E+02  0.38195644556E+02 -0.17866025773E+03  0.18345394497E+03  0.00000000000E+00 0.  1.
         11    1    1    2    0    0 -0.50620511154E+02 -0.14246385024E+02 -0.11083230208E+03  0.12267515975E+03  0.00000000000E+00 0. -1.
</event>
<event>
 7    1  0.2679104E-009  0.1295781E+03  0.7561462E-02  0.1228083E+00
         -2   -1    0    0    0  501 -0.00000000000E+00  0.00000000000E+00  0.28060192828E+02  0.28060192828E+02  0.00000000000E+00 0. -1.
          2   -1    0    0  501    0  0.00000000000E+00 -0.00000000000E+00 -0.12431259054E+04  0.12431259054E+04  0.00000000000E+00 0.  1.
         25    2    1    2    0    0 -0.48081731651E+02 -0.87531114897E+02 -0.10195674798E+04  0.10320556298E+04  0.12508968046E+03 0.  0.
          5    1    3    3  502    0  0.32331043199E+02  0.77725294704E+01 -0.15924791085E+03  0.16273622239E+03  0.41800000000E+01 0.  1.
         -5    1    3    3    0  502 -0.80412774850E+02 -0.95303644367E+02 -0.86031956891E+03  0.86931940737E+03  0.41800000000E+01 0.  1.
        -11    1    1    2    0    0  0.43168423336E+02  0.66526460222E+02 -0.20166217534E+03  0.21669544445E+03  0.00000000000E+00 0.  1.
         11    1    1    2    0    0  0.49133083151E+01  0.21004654675E+02  0.61639424971E+01  0.22435024041E+02  0.00000000000E+00 0. -1.
</event>
<event>
 7    1  0.2679104E-009  0.1368425E+03  0.7561462E-02  0.1217642E+00
         -2   -1    0    0    0  501 -0.00000000000E+00  0.00000000000E+00  0.17711065030E+03  0.17711065030E+03  0.00000000000E+00 0.  1.
          2   -1    0    0  501    0  0.00000000000E+00 -0.00000000000E+00 -0.14042305103E+03  0.14042305103E+03  0.00000000000E+00 0. -1.
         25    2    1    2    0    0  0.68325247353E+02 -0.90193001670E+02  0.15256102703E+02  0.16936234924E+03  0.12509092571E+03 0.  0.
          5    1    3    3  502    0  0.70112920260E+02 -0.24795870406E+02 -0.39171489538E+02  0.84157796842E+02  0.41800000000E+01 0.  1.
         -5    1    3    3    0  502 -0.17876729073E+01 -0.65397131264E+02  0.54427592241E+02  0.85204552397E+02  0.41800000000E+01 0.  1.
        -11    1    1    2    0    0  0.11844401181E+02 -0.13937475381E+01 -0.16788756831E+02  0.20593560340E+02  0.00000000000E+00 0.  1.
         11    1    1    2    0    0 -0.80169648534E+02  0.91586749208E+02  0.38220253397E+02  0.12757779174E+03  0.00000000000E+00 0. -1.
</event>
<event>
 7    1  0.2679104E-009  0.2133804E+03  0.7561462E-02  0.1138917E+00
         -2   -1    0    0    0  501 -0.00000000000E+00  0.00000000000E+00  0.81067710503E+02  0.81067710503E+02  0.00000000000E+00 0.  1.
          2   -1    0    0  501    0  0.00000000000E+00 -0.00000000000E+00 -0.71437902331E+03  0.71437902331E+03  0.00000000000E+00 0. -1.
         25    2    1    2    0    0 -0.50977135208E+02  0.19416597998E+03 -0.44842473042E+03  0.50698243199E+03  0.12508937366E+03 0.  0.
          5    1    3    3  502    0 -0.78512297290E+02  0.17572023658E+03 -0.31269305495E+03  0.36720049208E+03  0.41800000000E+01 0.  1.
         -5    1    3    3    0  502  0.27535162082E+02  0.18445743397E+02 -0.13573167547E+03  0.13978193991E+03  0.41800000000E+01 0.  1.
        -11    1    1    2    0    0  0.36163873930E+02 -0.14847188826E+03 -0.78632772889E+02  0.17185703463E+03  0.00000000000E+00 0.  1.
         11    1    1    2    0    0  0.14813261278E+02 -0.45694091722E+02 -0.10625380949E+03  0.11660726718E+03  0.00000000000E+00 0. -1.
</event>
<event>
 7    1  0.2679104E-009  0.8139866E+02  0.7561462E-02  0.1325128E+00
          2   -1    0    0  501    0  0.00000000000E+00  0.00000000000E+00  0.12144393826E+03  0.12144393826E+03  0.00000000000E+00 0. -1.
         -2   -1    0    0    0  501 -0.00000000000E+00 -0.00000000000E+00 -0.15973035349E+03  0.15973035349E+03  0.00000000000E+00 0.  1.
         25    2    1    2    0    0 -0.22264001525E+01  0.78667422286E+02  0.11307253821E+02  0.14821922454E+03  0.12509022483E+03 0.  0.
          5    1    3    3  502    0 -0.20805589977E+01  0.68573334588E+02 -0.50603852899E+02  0.85351351896E+02  0.41800000000E+01 0.  1.
         -5    1    3    3    0  502 -0.14584115482E+00  0.10094087698E+02  0.61911106720E+02  0.62867872649E+02  0.41800000000E+01 0.  1.
        -11    1    1    2    0    0  0.10875005635E+02 -0.70193078839E+02 -0.75926393912E+02  0.10397187772E+03  0.00000000000E+00 0.  1.
         11    1    1    2    0    0 -0.86486054827E+01 -0.84743434477E+01  0.26332724866E+02  0.28983189481E+02  0.00000000000E+00 0. -1.
</event>
<event>
 7    1  0.2679104E-009  0.1257619E+03  0.7561462E-02  0.1233883E+00
         -2   -1    0    0    0  501 -0.00000000000E+00  0.00000000000E+00  0.24821730844E+02  0.24821730844E+02  0.00000000000E+00 0.  1.
          2   -1    0    0  501    0  0.00000000000E+00 -0.00000000000E+00 -0.94678903988E+03  0.94678903988E+03  0.00000000000E+00 0. -1.
         25    2    1    2    0    0  0.68153160353E+02  0.67616983730E+02 -0.65946809025E+03  0.67805842210E+03  0.12509257355E+03 0.  0.
          5    1    3    3  502    0 -0.12733179361E+02  0.31129615000E+02 -0.40779183493E+02  0.53024531993E+02  0.41800000000E+01 0.  1.
         -5    1    3    3    0  502  0.80886339713E+02  0.36487368730E+02 -0.61868890676E+03  0.62503389010E+03  0.41800000000E+01 0.  1.
        -11    1    1    2    0    0 -0.84079985479E+02 -0.32326174992E+02 -0.15476047722E+03  0.17906767117E+03  0.00000000000E+00 0.  1.
         11    1    1    2    0    0  0.15926825126E+02 -0.35290808738E+02 -0.10773874156E+03  0.11448467746E+03  0.00000000000E+00 0. -1.
</event>
<event>
 7    1  0.2679104E-009  0.1393136E+03  0.7561462E-02  0.1214256E+00
          1   -1    0    0  501    0  0.00000000000E+00  0.00000000000E+00  0.59211892723E+03  0.59211892723E+03  0.00000000000E+00 0. -1.
         -1   -1    0    0    0  501 -0.00000000000E+00 -0.00000000000E+00 -0.45159041415E+02  0.45159041415E+02  0.00000000000E+00 0.  1.
         25    2    1    2    0    0  0.10562316890E+03 -0.61347379547E+02  0.28697020911E+03  0.33603533374E+03  0.12509232520E+03 0.  0.
          5    1    3    3  502    0 -0.18444133974E+02 -0.11984736501E+02  0.34979195207E+01  0.22661152398E+02  0.41800000000E+01 0. -1.
         -5    1    3    3    0  502  0.12406730287E+03 -0.49362643046E+02  0.28347228959E+03  0.31337418135E+03  0.41800000000E+01 0. -1.
        -11    1    1    2    0    0 -0.80893523440E+02  0.41390062588E+02  0.88533443837E+02  0.12686634736E+03  0.00000000000E+00 0.  1.
         11    1    1    2    0    0 -0.24729645460E+02  0.19957316959E+02  0.17145623287E+03  0.17437628754E+03  0.00000000000E+00 0. -1.
</event>
<event>
 7    1  0.2679104E-009  0.9363105E+02  0.7561462E-02  0.1294289E+00
          1   -1    0    0  501    0  0.00000000000E+00  0.00000000000E+00  0.12702635866E+03  0.12702635866E+03  0.00000000000E+00 0. -1.
         -1   -1    0    0    0  501 -0.00000000000E+00 -0.00000000000E+00 -0.10354568660E+03  0.10354568660E+03  0.00000000000E+00 0.  1.
         25    2    1    2    0    0  0.18855240126E+02 -0.20487445828E+02  0.38057764641E+02  0.13368411769E+03  0.12509114420E+03 0.  0.
          5    1    3    3  502    0 -0.17007775150E+02  0.28968367522E+02 -0.27766556910E+02  0.43782243148E+02  0.41800000000E+01 0.  1.
         -5    1    3    3    0  502  0.35863015276E+02 -0.49455813350E+02  0.65824321551E+02  0.89901874544E+02  0.41800000000E+01 0.  1.
        -11    1    1    2    0    0  0.18131799303E+02  0.44518634084E+02 -0.20736946511E+02  0.52351617714E+02  0.00000000000E+00 0. -1.
         11    1    1    2    0    0 -0.36987039429E+02 -0.24031188256E+02  0.61598539266E+01  0.44536309851E+02  0.00000000000E+00 0.  1.
</event>
<event>
 7    1  0.2679104E-009  0.7064114E+02  0.7561462E-02  0.1357926E+00
         -1   -1    0    0    0  501 -0.00000000000E+00  0.00000000000E+00  0.25823066928E+02  0.25823066928E+02  0.00000000000E+00 0.  1.
          1   -1    0    0  501    0  0.00000000000E+00 -0.00000000000E+00 -0.50419743098E+03  0.50419743098E+03  0.00000000000E+00 0. -1.
         25    2    1    2    0    0 -0.36294911144E+02 -0.55220913580E+01 -0.25751054946E+03  0.28862845226E+03  0.12508751457E+03 0.  0.
          5    1    3    3  502    0  0.26533475716E+01  0.11707034309E+02 -0.24316128952E+03  0.24349328538E+03  0.41800000000E+01 0. -1.
         -5    1    3    3    0  502 -0.38948258716E+02 -0.17229125667E+02 -0.14349259944E+02  0.45135166879E+02  0.41800000000E+01 0. -1.
        -11    1    1    2    0    0  0.53637736501E+02 -0.17978712224E+02 -0.82848124107E+02  0.10031975149E+03  0.00000000000E+00 0.  1.
         11    1    1    2    0    0 -0.17342825356E+02  0.23500803582E+02 -0.13801569048E+03  0.14107229416E+03  0.00000000000E+00 0. -1.
</event>
<event>
 7    1  0.2679104E-009  0.1134964E+03  0.7561462E-02  0.1254229E+00
          3   -1    0    0  501    0  0.00000000000E+00  0.00000000000E+00  0.72841159962E+02  0.72841159962E+02  0.00000000000E+00 0. -1.
         -3   -1    0    0    0  501 -0.00000000000E+00 -0.00000000000E+00 -0.20964459634E+03  0.20964459634E+03  0.00000000000E+00 0.  1.
         25    2    1    2    0    0  0.25641389128E+02 -0.46977731428E+02 -0.10530498848E+03  0.17205303064E+03  0.12509483070E+03 0.  0.
          5    1    3    3  502    0 -0.46912392725E+02  0.31936833284E+01 -0.29469321487E+02  0.55649667683E+02  0.41800000000E+01 0.  1.
         -5    1    3    3    0  502  0.72553781852E+02 -0.50171414757E+02 -0.75835666994E+02  0.11640336296E+03  0.41800000000E+01 0.  1.
        -11    1    1    2    0    0  0.22763622326E+02 -0.17012069580E+01 -0.34896789198E+02  0.41699670297E+02  0.00000000000E+00 0.  1.
         11    1    1    2    0    0 -0.48405011454E+02  0.48678938386E+02  0.33983412999E+01  0.68733055365E+02  0.00000000000E+00 0. -1.
</event>
<event>
 7    1  0.2679104E-009  0.1392396E+03  0.7561462E-02  0.1214356E+00
          2   -1    0    0  501    0  0.00000000000E+00  0.00000000000E+00  0.81836006306E+03  0.81836006306E+03  0.00000000000E+00 0. -1.
         -2   -1    0    0    0  501 -0.00000000000E+00 -0.00000000000E+00 -0.31419694167E+02  0.31419694167E+02  0.00000000000E+00 0.  1.
         25    2    1    2    0    0  0.10461468911E+03 -0.33631303346E+02  0.52981855218E+03  0.55536524964E+03  0.12509022556E+03 0.  0.
          5    1    3    3  502    0  0.11302416074E+03 -0.66846079266E+02  0.39919904449E+03  0.42026207150E+03  0.41800000000E+01 0. -1.
         -5    1    3    3    0  502 -0.84094716327E+01  0.33214775921E+02  0.13061950769E+03  0.13510317813E+03  0.41800000000E+01 0. -1.
        -11    1    1    2    0    0 -0.55100097999E+02  0.30480595207E+02  0.22875401125E+03  0.23726248154E+03  0.00000000000E+00 0. -1.
         11    1    1    2    0    0 -0.49514591112E+02  0.31507081392E+01  0.28367805470E+02  0.57152026053E+02  0.00000000000E+00 0.  1.
</event>
<event>
 7    1  0.2679104E-009  0.1197031E+03  0.7561462E-02  0.1243588E+00
          3   -1    0    0  501    0  0.00000000000E+00  0.00000000000E+00  0.48006914822E+03  0.48006914822E+03  0.00000000000E+00 0. -1.
         -3   -1    0    0    0  501 -0.00000000000E+00 -0.00000000000E+00 -0.48308470963E+02  0.48308470963E+02  0.00000000000E+00 0.  1.
         25    2    1    2    0    0 -0.34196291672E+02  0.10105001540E+03  0.26768307648E+03  0.31413654523E+03  0.12508815948E+03 0.  0.
          5    1    3    3  502    0 -0.26244940300E+02  0.11190222903E+03  0.12160330836E+03  0.16737903918E+03  0.41800000000E+01 0. -1.
         -5    1    3    3    0  502 -0.79513513711E+01 -0.10852213630E+02  0.14607976812E+03  0.14675750606E+03  0.41800000000E+01 0. -1.
        -11    1    1    2    0    0  0.62556936617E+01 -0.61848263101E+02  0.24886411013E+02  0.66960247946E+02  0.00000000000E+00 0.  1.
         11    1    1    2    0    0  0.27940598010E+02 -0.39201752295E+02  0.13919118976E+03  0.14728082600E+03  0.00000000000E+00 0. -1.
</event>
<event>
 7    1  0.2679104E-009  0.8809832E+02  0.7561462E-02  0.1307523E+00
         -3   -1    0    0    0  501 -0.00000000000E+00  0.00000000000E+00  0.11034314694E+03  0.11034314694E+03  0.00000000000E+00 0.  1.
          3   -1    0    0  501    0  0.00000000000E+00 -0.00000000000E+00 -0.21282175303E+03  0.21282175303E+03  0.00000000000E+00 0. -1.
         25    2    1    2    0    0  0.58434795460E+01  0.37294089280E+01  0.55846578354E+02  0.13716581481E+03  0.12509023021E+03 0.  0.
          5    1    3    3  502    0 -0.52718858715E+01 -0.56002236924E+02  0.29198885840E+01  0.56480452109E+02  0.41800000000E+01 0.  1.
         -5    1    3    3    0  502  0.11115365417E+02  0.59731645852E+02  0.52926689770E+02  0.80685362703E+02  0.41800000000E+01 0.  1.
        -11    1    1    2    0    0 -0.21774311278E+02 -0.24459057443E+02 -0.83941932230E+01  0.33805748069E+02  0.00000000000E+00 0.  1.
         11    1    1    2    0    0  0.15930831732E+02  0.20729648515E+02 -0.14993099122E+03  0.15219333709E+03  0.00000000000E+00 0. -1.
</event>
<event>
 7    1  0.2679104E-009  0.4209207E+02  0.7561462E-02  0.1493357E+00
          1   -1    0    0  501    0  0.00000000000E+00  0.00000000000E+00  0.34426907189E+03  0.34426907189E+03  0.00000000000E+00 0. -1.
         -1   -1    0    0    0  501 -0.00000000000E+00 -0.00000000000E+00 -0.77021199399E+02  0.77021199399E+02  0.00000000000E+00 0.  1.
         25    2    1    2    0    0 -0.90761358403E+01  0.20084900310E+02  0.29401697059E+03  0.32027897256E+03  0.12508741666E+03 0.  0.
          5    1    3    3  502    0 -0.14691446137E+02  0.16662341437E+02  0.30553650297E+03  0.30637150530E+03  0.41800000000E+01 0. -1.
         -5    1    3    3    0  502  0.56153102967E+01  0.34225588734E+01 -0.11519532388E+02  0.13907467253E+02  0.41800000000E+01 0. -1.
        -11    1    1    2    0    0 -0.13688912402E+02 -0.26765439599E+02 -0.55882130225E+02  0.63455398180E+02  0.00000000000E+00 0.  1.
         11    1    1    2    0    0  0.22765048242E+02  0.66805392889E+01  0.29113032131E+02  0.37555900555E+02  0.00000000000E+00 0. -1.
</event>
<event>
 7    1  0.2679104E-009  0.1334598E+03  0.7561462E-02  0.1222410E+00
          2   -1    0    0  501    0  0.00000000000E+00  0.00000000000E+00  0.20915195616E+03  0.20915195616E+03  0.00000000000E+00 0.  1.
         -2   -1    0    0    0  501 -0.00000000000E+00 -0.00000000000E+00 -0.11145692573E+03  0.11145692573E+03  0.00000000000E+00 0. -1.
         25    2    1    2    0    0  0.49729161431E+02 -0.87902044011E+02  0.90831756705E+02  0.18465614749E+03  0.12509087074E+03 0.  0.
          5    1    3    3  502    0  0.48744555993E+00 -0.10006081867E+03  0.88598621480E+02  0.13371459593E+03  0.41800000000E+01 0. -1.
         -5    1    3    3    0  502  0.49241715872E+02  0.12158774656E+02  0.22331352252E+01  0.50941551567E+02  0.41800000000E+01 0. -1.
        -11    1    1    2    0    0  0.40135615276E+01  0.49889128556E+02 -0.32098761274E+02  0.59458929519E+02  0.00000000000E+00 0.  1.
         11    1    1    2    0    0 -0.53742722959E+02  0.38012915454E+02  0.38962034998E+02  0.76493804870E+02  0.00000000000E+00 0. -1.
</event>
<event>
 7    1  0.2679104E-009  0.1037469E+03  0.7561462E-02  0.1272608E+00
          2   -1    0    0  501    0  0.00000000000E+00  0.00000000000E+00  0.47100542936E+03  0.47100542936E+03  0.00000000000E+00 0. -1.
         -2   -1    0    0    0  501 -0.00000000000E+00 -0.00000000000E+00 -0.29389525986E+02  0.29389525986E+02  0.00000000000E+00 0.  1.
         25    2    1    2    0    0 -0.17240894720E+02 -0.37139306800E+02  0.29843338291E+03  0.32616837826E+03  0.12508697127E+03 0.  0.
          5    1    3    3  502    0 -0.55153637310E+02 -0.61057170975E+02  0.22946178417E+03  0.24380337288E+03  0.41800000000E+01 0. -1.
         -5    1    3    3    0  502  0.37912742590E+02  0.23917864175E+02  0.68971598738E+02  0.82365005372E+02  0.41800000000E+01 0. -1.
        -11    1    1    2    0    0  0.41277953208E+02  0.37899535715E+02  0.41480892241E+02  0.69720216936E+02  0.00000000000E+00 0.  1.
         11    1    1    2    0    0 -0.24037058488E+02 -0.76022891469E+00  0.10170162823E+03  0.10450636015E+03  0.00000000000E+00 0. -1.
</event>
<event>
 7    1  0.2679104E-009  0.1078625E+03  0.7561462E-02  0.1264580E+00
         -2   -1    0    0    0  501 -0.00000000000E+00  0.00000000000E+00  0.74253765351E+02  0.74253765351E+02  0.00000000000E+00 0.  1.
          2   -1    0    0  501    0  0.00000000000E+00 -0.00000000000E+00 -0.34576469073E+03  0.34576469073E+03  0.00000000000E+00 0. -1.
         25    2    1    2    0    0 -0.38591776429E+02 -0.71892800275E+02 -0.33100212319E+02  0.15297490282E+03  0.12509115435E+03 0.  0.
          5    1    3    3  502    0 -0.38788634858E+02 -0.20515658801E+02 -0.74700103302E+02  0.86735392335E+02  0.41800000000E+01 0. -1.
         -5    1    3    3    0  502  0.19685842978E+00 -0.51377141474E+02  0.41599890983E+02  0.66239510484E+02  0.41800000000E+01 0. -1.
        -11    1    1    2    0    0  0.31865466122E+02 -0.13380650187E+02 -0.75799841746E+02  0.83307056961E+02  0.00000000000E+00 0. -1.
         11    1    1    2    0    0  0.67263103061E+01  0.85273450462E+02 -0.16261087131E+03  0.18373649630E+03  0.00000000000E+00 0.  1.
</event>
<event>
 7    1  0.2679104E-009  0.5923719E+02  0.7561462E-02  0.1401061E+00
         -1   -1    0    0    0  501 -0.00000000000E+00  0.00000000000E+00  0.45352151310E+02  0.45352151310E+02  0.00000000000E+00 0.  1.
          1   -1    0    0  501    0  0.00000000000E+00 -0.00000000000E+00 -0.30689597051E+03  0.30689597051E+03  0.00000000000E+00 0. -1.
         25    2    1    2    0    0  0.88094765141E+01  0.41431868558E+02 -0.18897413196E+03  0.23054974985E+03  0.12509099887E+03 0.  0.
          5    1    3    3  502    0 -0.12029869511E+02  0.50013719712E+02 -0.13178007636E+02  0.53265581806E+02  0.41800000000E+01 0.  1.
         -5    1    3    3    0  502  0.20839346025E+02 -0.85818511536E+01 -0.17579612433E+03  0.17728416805E+03  0.41800000000E+01 0.  1.
        -11    1    1    2    0    0  0.25520555867E+01 -0.14339719288E+02  0.19907600779E+02  0.24666842233E+02  0.00000000000E+00 0.  1.
         11    1    1    2    0    0 -0.11361532101E+02 -0.27092149270E+02 -0.92477288016E+02  0.97031529734E+02  0.00000000000E+00 0. -1.
</event>
<event>
 7    1  0.2679104E-009  0.1214165E+03  0.7561462E-02  0.1240778E+00
          1   -1    0    0  501    0  0.00000000000E+00  0.00000000000E+00  0.51184810108E+02  0.51184810108E+02  0.00000000000E+00 0. -1.
         -1   -1    0    0    0  501 -0.00000000000E+00 -0.00000000000E+00 -0.33468630139E+03  0.33468630139E+03  0.00000000000E+00 0.  1.
         25    2    1    2    0    0 -0.46408871210E+02 -0.55808031091E+02 -0.16140225240E+03  0.21671918888E+03  0.12509276593E+03 0.  0.
          5    1    3    3  502    0  0.31168813525E+02 -0.55404221490E+02 -0.95728352981E+02  0.11498918497E+03  0.41800000000E+01 0.  1.
         -5    1    3    3    0  502 -0.77577684735E+02 -0.40380960109E+00 -0.65673899418E+02  0.10173000391E+03  0.41800000000E+01 0.  1.
        -11    1    1    2    0    0  0.42066588263E+02 -0.32734755546E+01 -0.11575703909E+02  0.43752833180E+02  0.00000000000E+00 0. -1.
         11    1    1    2    0    0  0.43422829468E+01  0.59081506645E+02 -0.11052353497E+03  0.12539908944E+03  0.00000000000E+00 0.  1.
</event>
<event>
 7    1  0.2679104E-009  0.9910395E+02  0.7561462E-02  0.1282192E+00
          3   -1    0    0  501    0  0.00000000000E+00  0.00000000000E+00  0.17222528811E+03  0.17222528811E+03  0.00000000000E+00 0. -1.
         -3   -1    0    0    0  501 -0.00000000000E+00 -0.00000000000E+00 -0.84179410827E+02  0.84179410827E+02  0.00000000000E+00 0.  1.
         25    2    1    2    0    0  0.42444637792E+02  0.48780803742E+01  0.57657440589E+02  0.14421299995E+03  0.12509063096E+03 0.  0.
          5    1    3    3  502    0  0.62955496375E+02 -0.26350848525E+02 -0.77062571467E+01  0.68808578978E+02  0.41800000000E+01 0. -1.
         -5    1    3    3    0  502 -0.20510858583E+02  0.31228928900E+02  0.65363697736E+02  0.75404420969E+02  0.41800000000E+01 0. -1.
        -11    1    1    2    0    0  0.10074752156E+02 -0.31701651424E+02  0.40445715569E+02  0.52367463580E+02  0.00000000000E+00 0. -1.
         11    1    1    2    0    0 -0.52519389947E+02  0.26823571049E+02 -0.10057278873E+02  0.59824235412E+02  0.00000000000E+00 0.  1.
</event>
<event>
 7    1  0.2679104E-009  0.7630272E+02  0.7561462E-02  0.1339884E+00
          2   -1    0    0  501    0  0.00000000000E+00  0.00000000000E+00  0.90411071417E+03  0.90411071417E+03  0.00000000000E+00 0. -1.
         -2   -1    0    0    0  501 -0.00000000000E+00 -0.00000000000E+00 -0.14441606613E+02  0.14441606613E+02  0.00000000000E+00 0.  1.
         25    2    1    2    0    0  0.14596149295E+02  0.12360992842E+02  0.62899527005E+03  0.64159475664E+03  0.12507174051E+03 0.  0.
          5    1    3    3  502    0  0.69947417791E+01  0.35323252058E+02  0.60860653600E+03  0.60968520288E+03  0.41800000000E+01 0.  1.
         -5    1    3    3    0  502  0.76014075163E+01 -0.22962259216E+02  0.20388734050E+02  0.31909553753E+02  0.41800000000E+01 0.  1.
        -11    1    1    2    0    0  0.37423762636E+01 -0.49894284284E+02  0.11501423314E+03  0.12542614883E+03  0.00000000000E+00 0.  1.
         11    1    1    2    0    0 -0.18338525559E+02  0.37533291442E+02  0.14565960437E+03  0.15153141532E+03  0.00000000000E+00 0. -1.
</event>
<event>
 7    1  0.2679104E-009  0.9739879E+02  0.7561462E-02  0.1285863E+00
         -1   -1    0    0    0  501 -0.00000000000E+00  0.00000000000E+00  0.60739441088E+02  0.60739441088E+02  0.00000000000E+00 0.  1.
          1   -1    0    0  501    0  0.00000000000E+00 -0.00000000000E+00 -0.26266261657E+03  0.26266261657E+03  0.00000000000E+00 0. -1.
         25    2    1    2    0    0 -0.56862902021E+02  0.18310240154E+02 -0.92972813148E+02  0.16691136095E+03  0.12508718523E+03 0.  0.
          5    1    3    3  502    0 -0.66445044528E+02 -0.29625691964E+02 -0.14401534426E+02  0.74279890688E+02  0.41800000000E+01 0.  1.
         -5    1    3    3    0  502  0.95821425073E+01  0.47935932118E+02 -0.78571278722E+02  0.92631470263E+02  0.41800000000E+01 0.  1.
        -11    1    1    2    0    0  0.64665217746E+01 -0.21417518361E+02 -0.10328674903E+03  0.10568196876E+03  0.00000000000E+00 0. -1.
         11    1    1    2    0    0  0.50396380246E+02  0.31072782074E+01 -0.56636133059E+01  0.50808727946E+02  0.00000000000E+00 0.  1.
</event>
<event>
 7    1  0.2679104E-009  0.8398493E+02  0.7561462E-02  0.1318109E+00
          1   -1    0    0  501    0  0.00000000000E+00  0.00000000000E+00  0.36660533997E+02  0.36660533997E+02  0.00000000000E+00 0. -1.
         -1   -1    0    0    0  501 -0.00000000000E+00 -0.00000000000E+00 -0.47332657135E+03  0.47332657135E+03  0.00000000000E+00 0.  1.
         25    2    1    2    0    0  0.69635857658E+02 -0.17302558270E+02 -0.20544366525E+03  0.25100465076E+03  0.12509078270E+03 0.  0.
          5    1    3    3  502    0  0.39534287847E+02  0.21095415750E+02 -0.19604146806E+03  0.20114101043E+03  0.41800000000E+01 0. -1.
         -5    1    3    3    0  502  0.30101569812E+02 -0.38397974021E+02 -0.94021971921E+01  0.49863640321E+02  0.41800000000E+01 0. -1.
        -11    1    1    2    0    0 -0.22853060879E+02  0.14633706113E+02 -0.45479544093E+01  0.27515298207E+02  0.00000000000E+00 0. -1.
         11    1    1    2    0    0 -0.46782796779E+02  0.26688521575E+01 -0.22667441770E+03  0.23146715638E+03  0.00000000000E+00 0.  1.
</event>
<event>
 7    1  0.2679104E-009  0.1524127E+03  0.7561462E-02  0.1197539E+00
          2   -1    0    0  501    0  0.00000000000E+00  0.00000000000E+00  0.46779352264E+03  0.46779352264E+03  0.00000000000E+00 0. -1.
         -2   -1    0    0    0  501 -0.00000000000E+00 -0.00000000000E+00 -0.92922862465E+02  0.92922862465E+02  0.00000000000E+00 0.  1.
         25    2    1    2    0    0  0.68823039495E+01  0.11129284248E+03  0.38230165086E+03  0.41741451178E+03  0.12508740745E+03 0.  0.
          5    1    3    3  502    0 -0.50727647240E+02  0.17796400401E+02  0.87335418929E+02  0.10263992333E+03  0.41800000000E+01 0. -1.
         -5    1    3    3    0  502  0.57609951189E+02  0.93496442077E+02  0.29496623193E+03  0.31477458845E+03  0.41800000000E+01 0. -1.
        -11    1    1    2    0    0  0.19183208459E+02  0.65829818120E+01 -0.98666583887E+01  0.22553981557E+02  0.00000000000E+00 0.  1.
         11    1    1    2    0    0 -0.26065512409E+02 -0.11787582429E+03  0.24356677085E+01  0.12074789177E+03  0.00000000000E+00 0. -1.
</event>
<event>
 7    1  0.2679104E-009  0.1024318E+03  0.7561462E-02  0.1275264E+00
         -1   -1    0    0    0  501 -0.00000000000E+00  0.00000000000E+00  0.23863573620E+02  0.23863573620E+02  0.00000000000E+00 0.  1.
          1   -1    0    0  501    0  0.00000000000E+00 -0.00000000000E+00 -0.10076932161E+04  0.10076932161E+04  0.00000000000E+00 0. -1.
         25    2    1    2    0    0 -0.79285145832E+02  0.22396478686E+02 -0.77439815638E+03  0.78875073129E+03  0.12508986725E+03 0.  0.
          5    1    3    3  502    0 -0.18179307663E+02  0.20949925306E+02 -0.64470564847E+03  0.64531560663E+03  0.41800000000E+01 0. -1.
         -5    1    3    3    0  502 -0.61105838169E+02  0.14465533799E+01 -0.12969250791E+03  0.14343512465E+03  0.41800000000E+01 0. -1.
        -11    1    1    2    0    0  0.39663803797E+01 -0.38352081989E+02 -0.34729544128E+02  0.51891768148E+02  0.00000000000E+00 0.  1.
         11    1    1    2    0    0  0.75318765452E+02  0.15955603303E+02 -0.17470194193E+03  0.19091429024E+03  0.00000000000E+00 0. -1.
</event>
<event>
 7    1  0.2679104E-009  0.1332407E+03  0.7561462E-02  0.1222725E+00
          1   -1    0    0  501    0  0.00000000000E+00  0.00000000000E+00  0.62888968050E+03  0.62888968050E+03  0.00000000000E+00 0. -1.
         -1   -1    0    0    0  501 -0.00000000000E+00 -0.00000000000E+00 -0.34286657966E+02  0.34286657966E+02  0.00000000000E+00 0.  1.
         25    2    1    2    0    0 -0.49807978857E+02 -0.82410923824E+02  0.31009145539E+03  0.34796109708E+03  0.12509124369E+03 0.  0.
          5    1    3    3  502    0  0.24164975207E+02  0.11197580637E+02  0.12378872390E+03  0.12669038008E+03  0.41800000000E+01 0.  1.
         -5    1    3    3    0  502 -0.73972954064E+02 -0.93608504461E+02  0.18630273149E+03  0.22127071700E+03  0.41800000000E+01 0.  1.
        -11    1    1    2    0    0  0.60898813934E+02  0.32532749421E+02  0.23154475667E+03  0.24161957633E+03  0.00000000000E+00 0. -1.
         11    1    1    2    0    0 -0.11090835077E+02  0.49878174403E+02  0.52966810475E+02  0.73595665066E+02  0.00000000000E+00 0.  1.
</event>
<event>
 7    1  0.2679104E-009  0.1030273E+03  0.7561462E-02  0.1274056E+00
          2   -1    0    0  501    0  0.00000000000E+00  0.00000000000E+00  0.47976930089E+03  0.47976930089E+03  0.00000000000E+00 0. -1.
         -2   -1    0    0    0  501 -0.00000000000E+00 -0.00000000000E+00 -0.40441671328E+02  0.40441671328E+02  0.00000000000E+00 0.  1.
         25    2    1    2    0    0 -0.23951681549E+02 -0.63510018287E+02  0.34216927878E+03  0.37058674110E+03  0.12509001507E+03 0.  0.
          5    1    3    3  502    0 -0.52458773097E+02 -0.81006014717E+02  0.17347008269E+03  0.19855286269E+03  0.41800000000E+01 0. -1.
         -5    1    3    3    0  502  0.28507091548E+02  0.17495996429E+02  0.16869919609E+03  0.17203387841E+03  0.41800000000E+01 0. -1.
        -11    1    1    2    0    0 -0.86570183374E+01  0.14192821546E+02  0.88288075631E+02  0.89839659664E+02  0.00000000000E+00 0.  1.
         11    1    1    2    0    0  0.32608699886E+02  0.49317196741E+02  0.88702751555E+01  0.59784571455E+02  0.00000000000E+00 0. -1.
</event>
<event>
 7    1  0.2679104E-009  0.7676838E+02  0.7561462E-02  0.1338481E+00
         -2   -1    0    0    0  501 -0.00000000000E+00  0.00000000000E+00  0.23527303286E+02  0.23527303286E+02  0.00000000000E+00 0. -1.
          2   -1    0    0  501    0  0.00000000000E+00 -0.00000000000E+00 -0.54644794667E+03  0.54644794667E+03  0.00000000000E+00 0.  1.
         25    2    1    2    0    0  0.38559875381E+02  0.24557521629E+02 -0.38661432981E+03  0.40891067205E+03  0.12508941542E+03 0.  0.
          5    1    3    3  502    0  0.25601594310E+02  0.54717335149E+02 -0.79083861015E+02  0.99605009262E+02  0.41800000000E+01 0. -1.
         -5    1    3    3    0  502  0.12958281071E+02 -0.30159813520E+02 -0.30753046879E+03  0.30930566279E+03  0.41800000000E+01 0. -1.
        -11    1    1    2    0    0 -0.28014965905E+01 -0.23964495433E+02 -0.11883899706E+03  0.12126356686E+03  0.00000000000E+00 0.  1.
         11    1    1    2    0    0 -0.35758378790E+02 -0.59302619668E+00 -0.17467316515E+02  0.39801011043E+02  0.00000000000E+00 0. -1.
</event>
<event>
 7    1  0.2679104E-009  0.1759192E+03  0.7561462E-02  0.1171812E+00
          1   -1    0    0  501    0  0.00000000000E+00  0.00000000000E+00  0.28853566853E+03  0.28853566853E+03  0.00000000000E+00 0. -1.
         -1   -1    0    0    0  501 -0.00000000000E+00 -0.00000000000E+00 -0.33590911649E+03  0.33590911649E+03  0.00000000000E+00 0.  1.
         25    2    1    2    0    0  0.93890616251E+02 -0.12415995772E+03  0.22305453799E+03  0.29938573550E+03  0.12508936319E+03 0.  0.
          5    1    3    3  502    0  0.12265233717E+03 -0.99164078674E+02  0.15442100736E+03  0.22077234933E+03  0.41800000000E+01 0.  1.
         -5    1    3    3    0  502 -0.28761720918E+02 -0.24995879046E+02  0.68633530625E+02  0.78613386173E+02  0.41800000000E+01 0.  1.
        -11    1    1    2    0    0 -0.48308456089E+02  0.60284991524E+02 -0.21642965163E+03  0.22980378856E+03  0.00000000000E+00 0.  1.
         11    1    1    2    0    0 -0.45582160162E+02  0.63874966197E+02 -0.53998334315E+02  0.95255260959E+02  0.00000000000E+00 0. -1.
</event>
<event>
 7    1  0.2679104E-009  0.9413902E+02  0.7561462E-02  0.1293127E+00
         -2   -1    0    0    0  501 -0.00000000000E+00  0.00000000000E+00  0.26758530934E+02  0.26758530934E+02  0.00000000000E+00 0.  1.
          2   -1    0    0  501    0  0.00000000000E+00 -0.00000000000E+00 -0.79223627835E+03  0.79223627835E+03  0.00000000000E+00 0. -1.
         25    2    1    2    0    0  0.66078505433E+02  0.27640460746E+02 -0.59303229437E+03  0.61029774390E+03  0.12508265301E+03 0.  0.
          5    1    3    3  502    0  0.99534708318E+01  0.42415585045E+01 -0.49315540816E+03  0.49329179133E+03  0.41800000000E+01 0.  1.
         -5    1    3    3    0  502  0.56125034601E+02  0.23398902242E+02 -0.99876886212E+02  0.11700595256E+03  0.41800000000E+01 0.  1.
        -11    1    1    2    0    0 -0.23139896561E+02 -0.58460667376E+02 -0.11167092696E+03  0.12815420544E+03  0.00000000000E+00 0. -1.
         11    1    1    2    0    0 -0.42938608872E+02  0.30820206630E+02 -0.60774526082E+02  0.80542859951E+02  0.00000000000E+00 0.  1.
</event>
<event>
 7    1  0.2679104E-009  0.9836209E+02  0.7561462E-02  0.1283778E+00
         -1   -1    0    0    0  501 -0.00000000000E+00  0.00000000000E+00  0.31917675506E+02  0.31917675506E+02  0.00000000000E+00 0.  1.
          1   -1    0    0  501    0  0.00000000000E+00 -0.00000000000E+00 -0.38174961304E+03  0.38174961304E+03  0.00000000000E+00 0. -1.
         25    2    1    2    0    0 -0.29621898670E+01  0.75628607070E+01 -0.16836826694E+03  0.20990676176E+03  0.12508798460E+03 0.  0.
          5    1    3    3  502    0  0.51846867944E+02 -0.28788478568E+02 -0.80021186846E+02  0.99688198690E+02  0.41800000000E+01 0.  1.
         -5    1    3    3    0  502 -0.54809057811E+02  0.36351339275E+02 -0.88347080089E+02  0.11021856307E+03  0.41800000000E+01 0.  1.
        -11    1    1    2    0    0 -0.27028923669E+02 -0.24883993222E+02 -0.27346070231E+02  0.45799381988E+02  0.00000000000E+00 0.  1.
         11    1    1    2    0    0  0.29991113536E+02  0.17321132515E+02 -0.15411760037E+03  0.15796114480E+03  0.00000000000E+00 0. -1.
</event>
<event>
 7    1  0.2679104E-009  0.2185664E+03  0.7561462E-02  0.1134956E+00
          2   -1    0    0  501    0  0.00000000000E+00  0.00000000000E+00  0.69207972540E+03  0.69207972540E+03  0.00000000000E+00 0. -1.
         -2   -1    0    0    0  501 -0.00000000000E+00 -0.00000000000E+00 -0.11681392873E+03  0.11681392873E+03  0.00000000000E+00 0.  1.
         25    2    1    2    0    0 -0.35652629232E+02 -0.20909889617E+03  0.51095035983E+03  0.56719735112E+03  0.12509638907E+03 0.  0.
          5    1    3    3  502    0 -0.21789509875E+02 -0.13153773409E+03  0.16406334119E+03  0.21145025550E+03  0.41800000000E+01 0. -1.
         -5    1    3    3    0  502 -0.13863119357E+02 -0.77561162087E+02  0.34688701864E+03  0.35574709562E+03  0.41800000000E+01 0. -1.
        -11    1    1    2    0    0 -0.19980935608E+02  0.22363829512E+02 -0.12184590927E+02  0.32370401825E+02  0.00000000000E+00 0.  1.
         11    1    1    2    0    0  0.55633564839E+02  0.18673506666E+03  0.76500027766E+02  0.20932590118E+03  0.00000000000E+00 0. -1.
</event>
<event>
 7    1  0.2679104E-009  0.1041317E+03  0.7561462E-02  0.1271840E+00
         -1   -1    0    0    0  501 -0.00000000000E+00  0.00000000000E+00  0.35381682432E+02  0.35381682432E+02  0.00000000000E+00 0.  1.
          1   -1    0    0  501    0  0.00000000000E+00 -0.00000000000E+00 -0.47673614159E+03  0.47673614159E+03  0.00000000000E+00 0. -1.
         25    2    1    2    0    0  0.47767560310E+02 -0.14709266533E+02 -0.34165511450E+03  0.36725228945E+03  0.12509166439E+03 0.  0.
          5    1    3    3  502    0 -0.21418196306E+01 -0.61994802134E+02 -0.20498840648E+03  0.21420938839E+03  0.41800000000E+01 0. -1.
         -5    1    3    3    0  502  0.49909379941E+02  0.47285535601E+02 -0.13666670803E+03  0.15304290106E+03  0.41800000000E+01 0. -1.
        -11    1    1    2    0    0 -0.83266053217E+01 -0.21881018287E+02  0.77819567760E+01  0.24671241735E+02  0.00000000000E+00 0.  1.
         11    1    1    2    0    0 -0.39440954989E+02  0.36590284820E+02 -0.10748130143E+03  0.12019429284E+03  0.00000000000E+00 0. -1.
</event>
<event>
 7    1  0.2679104E-009  0.1711769E+03  0.7561462E-02  0.1176626E+00
         -3   -1    0    0    0  501 -0.00000000000E+00  0.00000000000E+00  0.36544089124E+03  0.36544089124E+03  0.00000000000E+00 0.  1.
          3   -1    0    0  501    0  0.00000000000E+00 -0.00000000000E+00 -0.10473637567E+03  0.10473637567E+03  0.00000000000E+00 0. -1.
         25    2    1    2    0    0 -0.16085595598E+03 -0.59955909206E+01  0.14460489454E+03  0.24993681889E+03  0.12508897723E+03 0.  0.
          5    1    3    3  502    0  0.94787909340E+01 -0.13997611341E+01  0.57649441931E+02  0.58589567022E+02  0.41800000000E+01 0.  1.
         -5    1    3    3    0  502 -0.17033474691E+03 -0.45958297865E+01  0.86955452613E+02  0.19134725187E+03  0.41800000000E+01 0.  1.
        -11    1    1    2    0    0  0.11336334011E+03 -0.14908269901E+01  0.12771681621E+03  0.17077779302E+03  0.00000000000E+00 0.  1.
         11    1    1    2    0    0  0.47492615874E+02  0.74864179107E+01 -0.11617195195E+02  0.49462655002E+02  0.00000000000E+00 0. -1.
</event>
<event>
 7    1  0.2679104E-009  0.1034551E+03  0.7561462E-02  0.1273194E+00
         -1   -1    0    0    0  501 -0.00000000000E+00  0.00000000000E+00  0.22601045927E+02  0.22601045927E+02  0.00000000000E+00 0.  1.
          1   -1    0    0  501    0  0.00000000000E+00 -0.00000000000E+00 -0.56668324556E+03  0.56668324556E+03  0.00000000000E+00 0. -1.
         25    2    1    2    0    0  0.16290841080E+01  0.19936779010E+02 -0.36446925439E+03  0.38585687772E+03  0.12509022192E+03 0.  0.
          5    1    3    3  502    0  0.19922782420E+02 -0.50037092100E+02 -0.16685343586E+03  0.17538007100E+03  0.41800000000E+01 0.  1.
         -5    1    3    3    0  502 -0.18293698312E+02  0.69973871109E+02 -0.19761581853E+03  0.21047680672E+03  0.41800000000E+01 0.  1.
        -11    1    1    2    0    0 -0.32045618605E+02 -0.34184488774E+02 -0.15461191230E+03  0.16155601001E+03  0.00000000000E+00 0. -1.
         11    1    1    2    0    0  0.30416534497E+02  0.14247709764E+02 -0.25001032946E+02  0.41871403759E+02  0.00000000000E+00 0.  1.
</event>
<event>
 7    1  0.2679104E-009  0.1530653E+03  0.7561462E-02  0.1196756E+00
         -1   -1    0    0    0  501 -0.00000000000E+00  0.00000000000E+00  0.45241966391E+03  0.45241966391E+03  0.00000000000E+00 0.  1.
          1   -1    0    0  501    0  0.00000000000E+00 -0.00000000000E+00 -0.61738872837E+02  0.61738872837E+02  0.00000000000E+00 0. -1.
         25    2    1    2    0    0  0.95036236267E+01 -0.12420541081E+03  0.17614688829E+03  0.24938514935E+03  0.12509166048E+03 0.  0.
          5    1    3    3  502    0 -0.24465270589E+02 -0.11791579876E+03  0.17752648651E+03  0.21455957419E+03  0.41800000000E+01 0.  1.
         -5    1    3    3    0  502  0.33968894216E+02 -0.62896120502E+01 -0.13795982164E+01  0.34825575160E+02  0.41800000000E+01 0.  1.
        -11    1    1    2    0    0  0.27939735281E+02  0.10519068141E+03  0.12410426640E+03  0.16506840159E+03  0.00000000000E+00 0. -1.
         11    1    1    2    0    0 -0.37443358908E+02  0.19014729394E+02  0.90429636378E+02  0.99704985812E+02  0.00000000000E+00 0.  1.
</event>
<event>
 7    1  0.2679104E-009  0.8510429E+02  0.7561462E-02  0.1315160E+00
          1   -1    0    0  501    0  0.00000000000E+00  0.00000000000E+00  0.51700630509E+03  0.51700630509E+03  0.00000000000E+00 0. -1.
         -1   -1    0    0    0  501 -0.00000000000E+00 -0.00000000000E+00 -0.28166536917E+02  0.28166536917E+02  0.00000000000E+00 0.  1.
         25    2    1    2    0    0  0.38458856010E+02  0.51886791045E+00  0.35996103242E+03  0.38301203251E+03  0.12508764668E+03 0.  0.
          5    1    3    3  502    0  0.41928181312E+02 -0.43020750987E+02  0.82702707121E+02  0.10230331162E+03  0.41800000000E+01 0.  1.
         -5    1    3    3    0  502 -0.34693253020E+01  0.43539618897E+02  0.27725832530E+03  0.28070872088E+03  0.41800000000E+01 0.  1.
        -11    1    1    2    0    0 -0.39198574854E+02 -0.21777439421E+02  0.13312089726E+03  0.14047048952E+03  0.00000000000E+00 0. -1.
         11    1    1    2    0    0  0.73971884353E+00  0.21258571510E+02 -0.42421615103E+01  0.21690319982E+02  0.00000000000E+00 0.  1.
</event>
<event>
 7    1  0.2679104E-009  0.1295120E+03  0.7561462E-02  0.1228182E+00
          1   -1    0    0  501    0  0.00000000000E+00  0.00000000000E+00  0.39383178333E+03  0.39383178333E+03  0.00000000000E+00 0. -1.
         -1   -1    0    0    0  501 -0.00000000000E+00 -0.00000000000E+00 -0.54791604999E+02  0.54791604999E+02  0.00000000000E+00 0.  1.
         25    2    1    2    0    0 -0.97355185997E+02  0.34502739421E+00  0.16045410925E+03  0.22554550738E+03  0.12508838252E+03 0.  0.
          5    1    3    3  502    0 -0.25919428771E+02 -0.36594420922E+02 -0.10796306523E+01  0.45051153512E+02  0.41800000000E+01 0.  1.
         -5    1    3    3    0  502 -0.71435757227E+02  0.36939448316E+02  0.16153373990E+03  0.18049435387E+03  0.41800000000E+01 0.  1.
        -11    1    1    2    0    0  0.74795929364E+02  0.41777606438E+02  0.10834565125E+03  0.13812523156E+03  0.00000000000E+00 0.  1.
         11    1    1    2    0    0  0.22559256633E+02 -0.42122633832E+02  0.70240417835E+02  0.84952649390E+02  0.00000000000E+00 0. -1.
</event>
<event>
 7    1  0.2679104E-009  0.1382968E+03  0.7561462E-02  0.1215639E+00
          3   -1    0    0  501    0  0.00000000000E+00  0.00000000000E+00  0.17091628693E+03  0.17091628693E+03  0.00000000000E+00 0. -1.
         -3   -1    0    0    0  501 -0.00000000000E+00 -0.00000000000E+00 -0.14722428623E+03  0.14722428623E+03  0.00000000000E+00 0.  1.
         25    2    1    2    0    0 -0.12040415217E+03 -0.34706656526E+02 -0.25627111091E+02  0.17889529670E+03  0.12508024022E+03 0.  0.
          5    1    3    3  502    0 -0.28357933960E+02  0.27555094887E+02 -0.51162825181E+02  0.64796317436E+02  0.41800000000E+01 0. -1.
         -5    1    3    3    0  502 -0.92046218207E+02 -0.62261751413E+02  0.25535714090E+02  0.11409897927E+03  0.41800000000E+01 0. -1.
        -11    1    1    2    0    0  0.73731852516E+02  0.16678562544E+02  0.47296442265E+02  0.89171262046E+02  0.00000000000E+00 0.  1.
         11    1    1    2    0    0  0.46672299651E+02  0.18028093982E+02  0.20226695173E+01  0.50074014412E+02  0.00000000000E+00 0. -1.
</event>
<event>
 7    1  0.2679104E-009  0.1267244E+03  0.7561462E-02  0.1232399E+00
          2   -1    0    0  501    0  0.00000000000E+00  0.00000000000E+00  0.83691858595E+03  0.83691858595E+03  0.00000000000E+00 0.  1.
         -2   -1    0    0    0  501 -0.00000000000E+00 -0.00000000000E+00 -0.36006695311E+02  0.36006695311E+02  0.00000000000E+00 0. -1.
         25    2    1    2    0    0  0.84761190759E+02  0.18373947650E+02  0.68587600973E+03  0.70256439018E+03  0.12509500475E+03 0.  0.
          5    1    3    3  502    0  0.10278057294E+03 -0.30492069923E+01  0.33261849709E+03  0.34817478491E+03  0.41800000000E+01 0.  1.
         -5    1    3    3    0  502 -0.18019382184E+02  0.21423154643E+02  0.35325751263E+03  0.35438960527E+03  0.41800000000E+01 0.  1.
        -11    1    1    2    0    0  0.10748508347E+02 -0.24268837800E+02  0.43214546310E+02  0.50714928104E+02  0.00000000000E+00 0.  1.
         11    1    1    2    0    0 -0.95509699106E+02  0.58948901499E+01  0.71821334598E+02  0.11964596298E+03  0.00000000000E+00 0. -1.
</event>
<event>
 7    1  0.2679104E-009  0.8685206E+02  0.7561462E-02  0.1310659E+00
          1   -1    0    0  501    0  0.00000000000E+00  0.00000000000E+00  0.73506409405E+03  0.73506409405E+03  0.00000000000E+00 0. -1.
         -1   -1    0    0    0  501 -0.00000000000E+00 -0.00000000000E+00 -0.16204979859E+02  0.16204979859E+02  0.00000000000E+00 0.  1.
         25    2    1    2    0    0 -0.10877277323E+02  0.51369940504E+01  0.41333055360E+03  0.43201169679E+03  0.12508899135E+03 0.  0.
          5    1    3    3  502    0  0.11239242210E+02 -0.40133397642E+02  0.34214600444E+03  0.34470040749E+03  0.41800000000E+01 0. -1.
         -5    1    3    3    0  502 -0.22116519533E+02  0.45270391693E+02  0.71184549158E+02  0.87311289299E+02  0.41800000000E+01 0. -1.
        -11    1    1    2    0    0 -0.85801258610E+01 -0.40229731502E+02  0.77644821605E+02  0.87867901867E+02  0.00000000000E+00 0.  1.
         11    1    1    2    0    0  0.19457403184E+02  0.35092737452E+02  0.22788373899E+03  0.23138947525E+03  0.00000000000E+00 0. -1.
</event>
<event>
 7    1  0.2679104E-009  0.3812973E+03  0.7561462E-02  0.1050455E+00
          1   -1    0    0  501    0  0.00000000000E+00  0.00000000000E+00  0.82474015899E+03  0.82474015899E+03  0.00000000000E+00 0. -1.
         -1   -1    0    0    0  501 -0.00000000000E+00 -0.00000000000E+00 -0.18639856749E+03  0.18639856749E+03  0.00000000000E+00 0.  1.
         25    2    1    2    0    0 -0.31238002257E+03 -0.20951910373E+03  0.29917250421E+03  0.49661985655E+03  0.12509021271E+03 0.  0.
          5    1    3    3  502    0 -0.79720260259E+02 -0.10302980384E+03  0.15636655559E+03  0.20356432026E+03  0.41800000000E+01 0.  1.
         -5    1    3    3    0  502 -0.23265976231E+03 -0.10648929989E+03  0.14280594861E+03  0.29305553629E+03  0.41800000000E+01 0.  1.
        -11    1    1    2    0    0  0.13433381746E+03  0.97668392724E+02  0.91465806000E+02  0.18960665368E+03  0.00000000000E+00 0.  1.
         11    1    1    2    0    0  0.17804620511E+03  0.11185071101E+03  0.24770328130E+03  0.32491221626E+03  0.00000000000E+00 0. -1.
</event>
<event>
 7    1  0.2679104E-009  0.1074480E+03  0.7561462E-02  0.1265370E+00
          1   -1    0    0  501    0  0.00000000000E+00  0.00000000000E+00  0.46207844735E+02  0.46207844735E+02  0.00000000000E+00 0. -1.
         -1   -1    0    0    0  501 -0.00000000000E+00 -0.00000000000E+00 -0.29578257255E+03  0.29578257255E+03  0.00000000000E+00 0.  1.
         25    2    1    2    0    0  0.74977302049E+00  0.44790027275E+02 -0.15514943773E+03  0.20426132027E+03  0.12507849626E+03 0.  0.
          5    1    3    3  502    0 -0.48668743047E+02  0.49087756706E+02 -0.13263592069E+03  0.14962624858E+03  0.41800000000E+01 0. -1.
         -5    1    3    3    0  502  0.49418516067E+02 -0.42977294301E+01 -0.22513517044E+02  0.54635071687E+02  0.41800000000E+01 0. -1.
        -11    1    1    2    0    0  0.39532594342E+02 -0.38335929761E+02 -0.73612135307E+02  0.91930495432E+02  0.00000000000E+00 0.  1.
         11    1    1    2    0    0 -0.40282367363E+02 -0.64540975149E+01 -0.20813154773E+02  0.45798601580E+02  0.00000000000E+00 0. -1.
</event>
<event>
 7    1  0.2679104E-009  0.8383220E+02  0.7561462E-02  0.1318515E+00
         -1   -1    0    0    0  501 -0.00000000000E+00  0.00000000000E+00  0.34558370717E+03  0.34558370717E+03  0.00000000000E+00 0.  1.
          1   -1    0    0  501    0  0.00000000000E+00 -0.00000000000E+00 -0.38186001416E+02  0.38186001416E+02  0.00000000000E+00 0. -1.
         25    2    1    2    0    0  0.10315545500E+02  0.30330825019E+02  0.14265758667E+03  0.19241806914E+03  0.12508859609E+03 0.  0.
          5    1    3    3  502    0 -0.28847141344E+02 -0.21645286814E+02  0.11672025871E+03  0.12223652154E+03  0.41800000000E+01 0.  1.
         -5    1    3    3    0  502  0.39162686844E+02  0.51976111833E+02  0.25937327965E+02  0.70181547604E+02  0.41800000000E+01 0.  1.
        -11    1    1    2    0    0 -0.26955263982E+02 -0.38979765640E+02  0.16592551670E+03  0.17256096163E+03  0.00000000000E+00 0.  1.
         11    1    1    2    0    0  0.16639718482E+02  0.86489406206E+01 -0.11853976255E+01  0.18790677810E+02  0.00000000000E+00 0. -1.
</event>
<event>
 7    1  0.2679104E-009  0.9878021E+02  0.7561462E-02  0.1282882E+00
          1   -1    0    0  501    0  0.00000000000E+00  0.00000000000E+00  0.29829498259E+03  0.29829498259E+03  0.00000000000E+00 0. -1.
         -1   -1    0    0    0  501 -0.00000000000E+00 -0.00000000000E+00 -0.64661680316E+02  0.64661680316E+02  0.00000000000E+00 0.  1.
         25    2    1    2    0    0  0.31338444540E+02 -0.56975768023E+02  0.20357656240E+03  0.24762867483E+03  0.12509279593E+03 0.  0.
          5    1    3    3  502    0  0.62992883990E+02 -0.39616618809E+02  0.19708918052E+03  0.21071117056E+03  0.41800000000E+01 0.  1.
         -5    1    3    3    0  502 -0.31654439450E+02 -0.17359149214E+02  0.64873818759E+01  0.36917504276E+02  0.41800000000E+01 0.  1.
        -11    1    1    2    0    0 -0.43441629576E+02  0.20085587092E+02  0.52047712877E+02  0.70707640356E+02  0.00000000000E+00 0.  1.
         11    1    1    2    0    0  0.12103185036E+02  0.36890180932E+02 -0.21990972997E+02  0.44620347719E+02  0.00000000000E+00 0. -1.
</event>
<event>
 7    1  0.2679104E-009  0.1388502E+03  0.7561462E-02  0.1214885E+00
          2   -1    0    0  501    0  0.00000000000E+00  0.00000000000E+00  0.14964664675E+03  0.14964664675E+03  0.00000000000E+00 0. -1.
         -2   -1    0    0    0  501 -0.00000000000E+00 -0.00000000000E+00 -0.16814412801E+03  0.16814412801E+03  0.00000000000E+00 0.  1.
         25    2    1    2    0    0 -0.10460354008E+03  0.49747257350E+02 -0.19294372979E+02  0.17156634058E+03  0.12508415640E+03 0.  0.
          5    1    3    3  502    0 -0.56850747584E+01  0.40570845515E+02  0.38655676078E+02  0.56480503485E+02  0.41800000000E+01 0. -1.
         -5    1    3    3    0  502 -0.98918465317E+02  0.91764118345E+01 -0.57950049057E+02  0.11508583710E+03  0.41800000000E+01 0. -1.
        -11    1    1    2    0    0  0.79249157611E+02  0.22056334236E+01  0.25611445294E+02  0.83314104034E+02  0.00000000000E+00 0. -1.
         11    1    1    2    0    0  0.25354382464E+02 -0.51952890774E+02 -0.24814553577E+02  0.62910330146E+02  0.00000000000E+00 0.  1.
</event>
<event>
 7    1  0.2679104E-009  0.1086160E+03  0.7561462E-02  0.1263155E+00
          2   -1    0    0  501    0  0.00000000000E+00  0.00000000000E+00  0.60309786880E+02  0.60309786880E+02  0.00000000000E+00 0. -1.
         -2   -1    0    0    0  501 -0.00000000000E+00 -0.00000000000E+00 -0.26987635991E+03  0.26987635991E+03  0.00000000000E+00 0.  1.
         25    2    1    2    0    0 -0.50248646473E+02 -0.27938731270E+02 -0.16300279154E+03  0.21336109328E+03  0.12509015507E+03 0.  0.
          5    1    3    3  502    0  0.67586586496E+01  0.40872116830E+02 -0.23993635991E+02  0.48055971211E+02  0.41800000000E+01 0. -1.
         -5    1    3    3    0  502 -0.57007305123E+02 -0.68810848101E+02 -0.13900915555E+03  0.16530512207E+03  0.41800000000E+01 0. -1.
        -11    1    1    2    0    0 -0.48344556557E+01 -0.15342570206E+02  0.16155059016E+02  0.22798077853E+02  0.00000000000E+00 0. -1.
         11    1    1    2    0    0  0.55083102129E+02  0.43281301477E+02 -0.62718840499E+02  0.94026975657E+02  0.00000000000E+00 0.  1.
</event>
<event>
 7    1  0.2679104E-009  0.5248204E+02  0.7561462E-02  0.1432396E+00
          1   -1    0    0  501    0  0.00000000000E+00  0.00000000000E+00  0.16440489732E+03  0.16440489732E+03  0.00000000000E+00 0. -1.
         -1   -1    0    0    0  501 -0.00000000000E+00 -0.00000000000E+00 -0.71756296952E+02  0.71756296952E+02  0.00000000000E+00 0.  1.
         25    2    1    2    0    0  0.24745274120E+01 -0.75615551771E+01  0.70891618814E+02  0.14400229708E+03  0.12509092511E+03 0.  0.
          5    1    3    3  502    0  0.20260799386E+02  0.42908821377E+01  0.10303326989E+03  0.10517717796E+03  0.41800000000E+01 0. -1.
         -5    1    3    3    0  502 -0.17786271974E+02 -0.11852437315E+02 -0.32141651072E+02  0.38825119120E+02  0.41800000000E+01 0. -1.
        -11    1    1    2    0    0  0.20985425116E+02 -0.17794048954E+02 -0.22832680278E+02  0.35753986269E+02  0.00000000000E+00 0.  1.
         11    1    1    2    0    0 -0.23459952528E+02  0.25355604131E+02  0.44589661830E+02  0.56404910917E+02  0.00000000000E+00 0. -1.
</event>
<event>
 7    1  0.2679104E-009  0.1221280E+03  0.7561462E-02  0.1239627E+00
         -2   -1    0    0    0  501 -0.00000000000E+00  0.00000000000E+00  0.71031477559E+02  0.71031477559E+02  0.00000000000E+00 0.  1.
          2   -1    0    0  501    0  0.00000000000E+00 -0.00000000000E+00 -0.36508697089E+03  0.36508697089E+03  0.00000000000E+00 0. -1.
         25    2    1    2    0    0 -0.68738250540E+02  0.71544661206E+02 -0.69402499007E+02  0.17409176718E+03  0.12509057077E+03 0.  0.
          5    1    3    3  502    0 -0.68450738075E+02  0.42513811007E+02 -0.10212105609E+03  0.13015033679E+03  0.41800000000E+01 0. -1.
         -5    1    3    3    0  502 -0.28751246597E+00  0.29030850199E+02  0.32718557084E+02  0.43941430386E+02  0.41800000000E+01 0. -1.
        -11    1    1    2    0    0 -0.22191761968E+02 -0.19019694292E+02 -0.39045884750E+02  0.48772986233E+02  0.00000000000E+00 0.  1.
         11    1    1    2    0    0  0.90930012508E+02 -0.52524966914E+02 -0.18560710958E+03  0.21325369504E+03  0.00000000000E+00 0. -1.
</event>
<event>
 7    1  0.2679104E-009  0.8671001E+02  0.7561462E-02  0.1311020E+00
         -1   -1    0    0    0  501 -0.00000000000E+00  0.00000000000E+00  0.28894577355E+02  0.28894577355E+02  0.00000000000E+00 0.  1.
          1   -1    0    0  501    0  0.00000000000E+00 -0.00000000000E+00 -0.42026851979E+03  0.42026851979E+03  0.00000000000E+00 0. -1.
         25    2    1    2    0    0 -0.38444816317E+01  0.15396636151E+02 -0.20957408412E+03  0.24458361836E+03  0.12509201888E+03 0.  0.
          5    1    3    3  502    0  0.32515325283E+02 -0.19017915382E+02 -0.10584266555E+02  0.39350051871E+02  0.41800000000E+01 0.  1.
         -5    1    3    3    0  502 -0.36359806915E+02  0.34414551533E+02 -0.19898981757E+03  0.20523356649E+03  0.41800000000E+01 0.  1.
        -11    1    1    2    0    0 -0.37601179236E+02  0.68853923691E+01 -0.40684930223E+02  0.55825808147E+02  0.00000000000E+00 0.  1.
         11    1    1    2    0    0  0.41445660868E+02 -0.22282028520E+02 -0.14111492809E+03  0.14875367064E+03  0.00000000000E+00 0. -1.
</event>
<event>
 7    1  0.3820647E-009  0.2493305E+03  0.7561462E-02  0.1113729E+00
         -2   -1    0    0    0  501 -0.00000000000E+00  0.00000000000E+00  0.96131333342E+02  0.96131333342E+02  0.00000000000E+00 0.  1.
          2   -1    0    0  501    0  0.00000000000E+00 -0.00000000000E+00 -0.70948597987E+03  0.70948597987E+03  0.00000000000E+00 0. -1.
         25    2    1    2    0    0  0.21029535694E+03  0.10088502154E+03 -0.24865414758E+03  0.36315065520E+03  0.12509032152E+03 0.  0.
          5    1    3    3  502    0  0.21750383635E+03  0.82320543412E+02 -0.25153850828E+03  0.34259843001E+03  0.41800000000E+01 0.  1.
         -5    1    3    3    0  502 -0.72084794115E+01  0.18564478127E+02  0.28843606970E+01  0.20552225189E+02  0.41800000000E+01 0.  1.
        -11    1    1    2    0    0 -0.10899276802E+03 -0.97121589918E+01 -0.20613992595E+03  0.23338255844E+03  0.00000000000E+00 0. -1.
         11    1    1    2    0    0 -0.10130258892E+03 -0.91172862548E+02 -0.15856057300E+03  0.20908409958E+03  0.00000000000E+00 0.  1.
</event>
<event>
 7    1  0.2679104E-009  0.8826499E+02  0.7561462E-02  0.1307109E+00
          2   -1    0    0  501    0  0.00000000000E+00  0.00000000000E+00  0.51732275984E+03  0.51732275984E+03  0.00000000000E+00 0. -1.
         -2   -1    0    0    0  501 -0.00000000000E+00 -0.00000000000E+00 -0.36948105949E+02  0.36948105949E+02  0.00000000000E+00 0.  1.
         25    2    1    2    0    0 -0.39222368385E+02  0.46872691280E+02  0.14612279157E+03  0.20182918640E+03  0.12509079462E+03 0.  0.
          5    1    3    3  502    0 -0.42616454338E+02  0.55268168546E+02  0.16570632075E+03  0.17985213307E+03  0.41800000000E+01 0. -1.
         -5    1    3    3    0  502  0.33940859526E+01 -0.83954772658E+01 -0.19583529178E+02  0.21977053330E+02  0.41800000000E+01 0. -1.
        -11    1    1    2    0    0  0.36980786466E+02 -0.66925348373E+02  0.31637559261E+03  0.32548440273E+03  0.00000000000E+00 0. -1.
         11    1    1    2    0    0  0.22415819189E+01  0.20052657092E+02  0.17876269714E+02  0.26957276659E+02  0.00000000000E+00 0.  1.
</event>
<event>
 7    1  0.2679104E-009  0.9425977E+02  0.7561462E-02  0.1292852E+00
          2   -1    0    0  501    0  0.00000000000E+00  0.00000000000E+00  0.41922059750E+03  0.41922059750E+03  0.00000000000E+00 0. -1.
         -2   -1    0    0    0  501 -0.00000000000E+00 -0.00000000000E+00 -0.29786123123E+02  0.29786123123E+02  0.00000000000E+00 0.  1.
         25    2    1    2    0    0  0.18674819677E+02  0.16559927098E+02  0.24427332169E+03  0.27557082252E+03  0.12508733932E+03 0.  0.
          5    1    3    3  502    0  0.38661412833E+02  0.57217027181E+02  0.83247162228E+02  0.10824072921E+03  0.41800000000E+01 0.  1.
         -5    1    3    3    0  502 -0.19986593157E+02 -0.40657100083E+02  0.16102615946E+03  0.16733009330E+03  0.41800000000E+01 0.  1.
        -11    1    1    2    0    0 -0.32303706592E+02 -0.37099401054E+02  0.34554519748E+02  0.60115803688E+02  0.00000000000E+00 0.  1.
         11    1    1    2    0    0  0.13628886915E+02  0.20539473956E+02  0.11060663294E+03  0.11332009442E+03  0.00000000000E+00 0. -1.
</event>
<event>
 7    1  0.2679104E-009  0.1095098E+03  0.7561462E-02  0.1261480E+00
          3   -1    0    0  501    0  0.00000000000E+00  0.00000000000E+00  0.20458454410E+03  0.20458454410E+03  0.00000000000E+00 0. -1.
         -3   -1    0    0    0  501 -0.00000000000E+00 -0.00000000000E+00 -0.91733327113E+02  0.91733327113E+02  0.00000000000E+00 0.  1.
         25    2    1    2    0    0  0.61056951933E+02 -0.32032248556E+02  0.11919074497E+03  0.18603232887E+03  0.12509027688E+03 0.  0.
          5    1    3    3  502    0  0.34280188394E+01  0.42648458069E+02  0.62629951155E+02  0.75964633024E+02  0.41800000000E+01 0.  1.
         -5    1    3    3    0  502  0.57628933093E+02 -0.74680706625E+02  0.56560793813E+02  0.11006769584E+03  0.41800000000E+01 0.  1.
        -11    1    1    2    0    0 -0.18812912012E+02 -0.10596310716E+02  0.32340537649E+02  0.38885959350E+02  0.00000000000E+00 0. -1.
         11    1    1    2    0    0 -0.42244039921E+02  0.42628559272E+02 -0.38680065631E+02  0.71399582994E+02  0.00000000000E+00 0.  1.
</event>
<event>
 7    1  0.2679104E-009  0.1239128E+03  0.7561462E-02  0.1236778E+00
         -2   -1    0    0    0  501 -0.00000000000E+00  0.00000000000E+00  0.66697875730E+02  0.66697875730E+02  0.00000000000E+00 0.  1.
          2   -1    0    0  501    0  0.00000000000E+00 -0.00000000000E+00 -0.26622786855E+03  0.26622786855E+03  0.00000000000E+00 0. -1.
         25    2    1    2    0    0 -0.41931125580E+02  0.52715740017E+02 -0.16440377631E+03  0.21728876621E+03  0.12509451513E+03 0.  0.
          5    1    3    3  502    0 -0.61517055400E+02 -0.20984740942E+02 -0.66018226417E+02  0.92739344816E+02  0.41800000000E+01 0. -1.
         -5    1    3    3    0  502  0.19585929821E+02  0.73700480959E+02 -0.98385549894E+02  0.12454942139E+03  0.41800000000E+01 0. -1.
        -11    1    1    2    0    0  0.16463443587E+02  0.21945879843E+02  0.37536678897E+01  0.27690370879E+02  0.00000000000E+00 0.  1.
         11    1    1    2    0    0  0.25467681992E+02 -0.74661619859E+02 -0.38879884397E+02  0.87946607193E+02  0.00000000000E+00 0. -1.
</event>
<event>
 7    1  0.2679104E-009  0.1016108E+03  0.7561462E-02  0.1276945E+00
          1   -1    0    0  501    0  0.00000000000E+00  0.00000000000E+00  0.11420098218E+03  0.11420098218E+03  0.00000000000E+00 0. -1.
         -1   -1    0    0    0  501 -0.00000000000E+00 -0.00000000000E+00 -0.11044722759E+03  0.11044722759E+03  0.00000000000E+00 0.  1.
         25    2    1    2    0    0  0.22914543624E+01  0.29584337415E+02  0.75184036173E+01  0.12878054965E+03  0.12508964702E+03 0.  0.
          5    1    3    3  502    0 -0.56398546604E+02  0.51758276668E+01  0.25992273583E+02  0.62455231463E+02  0.41800000000E+01 0. -1.
         -5    1    3    3    0  502  0.58690000967E+02  0.24408509748E+02 -0.18473869965E+02  0.66325318191E+02  0.41800000000E+01 0. -1.
        -11    1    1    2    0    0 -0.41110231746E+01  0.26399701276E+02 -0.24391173734E+02  0.36176982946E+02  0.00000000000E+00 0.  1.
         11    1    1    2    0    0  0.18195688122E+01 -0.55984038691E+02  0.20626524705E+02  0.59690677164E+02  0.00000000000E+00 0. -1.
</event>
<event>
 7    1  0.2679104E-009  0.1267741E+03  0.7561462E-02  0.1232322E+00
         -1   -1    0    0    0  501 -0.00000000000E+00  0.00000000000E+00  0.97551657180E+02  0.97551657180E+02  0.00000000000E+00 0.  1.
          1   -1    0    0  501    0  0.00000000000E+00 -0.00000000000E+00 -0.19122064113E+03  0.19122064113E+03  0.00000000000E+00 0. -1.
         25    2    1    2    0    0 -0.68156469048E+02 -0.19888354605E+02 -0.98346379474E+02  0.17424170884E+03  0.12508921545E+03 0.  0.
          5    1    3    3  502    0 -0.27019367578E+02  0.51112137682E+02 -0.60480843594E+02  0.83772917369E+02  0.41800000000E+01 0.  1.
         -5    1    3    3    0  502 -0.41137101470E+02 -0.71000492287E+02 -0.37865535881E+02  0.90468791469E+02  0.41800000000E+01 0.  1.
        -11    1    1    2    0    0  0.83384020080E+02  0.36378510058E+02 -0.23689973380E+01  0.91004961113E+02  0.00000000000E+00 0. -1.
         11    1    1    2    0    0 -0.15227551032E+02 -0.16490155453E+02  0.70463928626E+01  0.23525628358E+02  0.00000000000E+00 0.  1.
</event>
<event>
 7    1  0.2679104E-009  0.1088261E+03  0.7561462E-02  0.1262759E+00
         -1   -1    0    0    0  501 -0.00000000000E+00  0.00000000000E+00  0.16981437760E+02  0.16981437760E+02  0.00000000000E+00 0.  1.
          1   -1    0    0  501    0  0.00000000000E+00 -0.00000000000E+00 -0.78682560829E+03  0.78682560829E+03  0.00000000000E+00 0. -1.
         25    2    1    2    0    0 -0.38388408382E+02  0.84137615331E+01 -0.40747102100E+03  0.42804700900E+03  0.12508855932E+03 0.  0.
          5    1    3    3  502    0  0.44119040355E+02 -0.11020571632E+02 -0.16231414950E+03  0.16861583036E+03  0.41800000000E+01 0.  1.
         -5    1    3    3    0  502 -0.82507448737E+02  0.19434333165E+02 -0.24515687150E+03  0.25943117863E+03  0.41800000000E+01 0.  1.
        -11    1    1    2    0    0 -0.22696154892E+02 -0.12473833205E+02 -0.40185759030E+02  0.47808024332E+02  0.00000000000E+00 0.  1.
         11    1    1    2    0    0  0.61084563274E+02  0.40600716722E+01 -0.32218739050E+03  0.32795201272E+03  0.00000000000E+00 0. -1.
</event>
<event>
 7    1  0.2679104E-009  0.1335821E+03  0.7561462E-02  0.1222235E+00
         -1   -1    0    0    0  501 -0.00000000000E+00  0.00000000000E+00  0.19601944928E+03  0.19601944928E+03  0.00000000000E+00 0.  1.
          1   -1    0    0  501    0  0.00000000000E+00 -0.00000000000E+00 -0.14014270159E+03  0.14014270159E+03  0.00000000000E+00 0. -1.
         25    2    1    2    0    0 -0.60770449345E+02  0.92641349345E+02  0.88699232180E+02  0.18918737727E+03  0.12509533488E+03 0.  0.
          5    1    3    3  502    0  0.44303139810E+01 -0.89142492526E+01  0.65297642163E+02  0.66184182353E+02  0.41800000000E+01 0. -1.
         -5    1    3    3    0  502 -0.65200763326E+02  0.10155559860E+03  0.23401590016E+02  0.12300319492E+03  0.41800000000E+01 0. -1.
        -11    1    1    2    0    0  0.75908713819E+02 -0.51385972094E+02  0.75644880579E+00  0.91669096082E+02  0.00000000000E+00 0.  1.
         11    1    1    2    0    0 -0.15138264474E+02 -0.41255377251E+02 -0.33578933295E+02  0.55305677508E+02  0.00000000000E+00 0. -1.
</event>
<event>
 7    1  0.2679104E-009  0.1095390E+03  0.7561462E-02  0.1261426E+00
          2   -1    0    0  501    0  0.00000000000E+00  0.00000000000E+00  0.69552735647E+02  0.69552735647E+02  0.00000000000E+00 0. -1.
         -2   -1    0    0    0  501 -0.00000000000E+00 -0.00000000000E+00 -0.22698936719E+03  0.22698936719E+03  0.00000000000E+00 0.  1.
         25    2    1    2    0    0 -0.47683076959E+02 -0.54801699562E+00 -0.80861297862E+02  0.15640365588E+03  0.12509827309E+03 0.  0.
          5    1    3    3  502    0 -0.57169348530E+02  0.51340807407E+02 -0.28779793451E+02  0.82158151316E+02  0.41800000000E+01 0.  1.
         -5    1    3    3    0  502  0.94862715709E+01 -0.51888824403E+02 -0.52081504410E+02  0.74245504564E+02  0.41800000000E+01 0.  1.
        -11    1    1    2    0    0 -0.16015575810E+02 -0.16781671450E+02  0.14722246945E+02  0.27474856147E+02  0.00000000000E+00 0. -1.
         11    1    1    2    0    0  0.63698652769E+02  0.17329688446E+02 -0.91297580627E+02  0.11266359081E+03  0.00000000000E+00 0.  1.
</event>
<event>
 7    1  0.2679104E-009  0.8399097E+02  0.7561462E-02  0.1318093E+00
         -1   -1    0    0    0  501 -0.00000000000E+00  0.00000000000E+00  0.28842763387E+03  0.28842763387E+03  0.00000000000E+00 0.  1.
          1   -1    0    0  501    0  0.00000000000E+00 -0.00000000000E+00 -0.50940520387E+02  0.50940520387E+02  0.00000000000E+00 0. -1.
         25    2    1    2    0    0  0.46083310083E+02  0.10241000575E+01  0.92738239062E+02  0.16238099846E+03  0.12506993015E+03 0.  0.
          5    1    3    3  502    0  0.23522398617E+02  0.51648139551E+02  0.32021672369E+01  0.56996138735E+02  0.41800000000E+01 0.  1.
         -5    1    3    3    0  502  0.22560911466E+02 -0.50624039493E+02  0.89536071825E+02  0.10538485972E+03  0.41800000000E+01 0.  1.
        -11    1    1    2    0    0 -0.20173906695E+02  0.14902832177E+02  0.14441012002E+03  0.14657204264E+03  0.00000000000E+00 0.  1.
         11    1    1    2    0    0 -0.25909403388E+02 -0.15926932234E+02  0.33875440223E+00  0.30415113165E+02  0.00000000000E+00 0. -1.
</event>
<event>
 7    1  0.2679104E-009  0.1510088E+03  0.7561462E-02  0.1199239E+00
          2   -1    0    0  501    0  0.00000000000E+00  0.00000000000E+00  0.18101887216E+03  0.18101887216E+03  0.00000000000E+00 0. -1.
         -2   -1    0    0    0  501 -0.00000000000E+00 -0.00000000000E+00 -0.13619802265E+03  0.13619802265E+03  0.00000000000E+00 0.  1.
         25    2    1    2    0    0  0.10389541941E+03 -0.51727527521E+01 -0.18367255946E+02  0.16372342334E+03  0.12508791993E+03 0.  0.
          5    1    3    3  502    0 -0.91876872764E+01  0.39424765075E+02 -0.93602325583E+01  0.41758975709E+02  0.41800000000E+01 0. -1.
         -5    1    3    3    0  502  0.11308310669E+03 -0.44597517828E+02 -0.90070233879E+01  0.12196444763E+03  0.41800000000E+01 0. -1.
        -11    1    1    2    0    0 -0.10478112230E+03  0.34526311049E+02  0.46557685490E+02  0.11974459413E+03  0.00000000000E+00 0.  1.
         11    1    1    2    0    0  0.88570288375E+00 -0.29353558297E+02  0.16630419959E+02  0.33748877349E+02  0.00000000000E+00 0. -1.
</event>
<event>
 7    1  0.2679104E-009  0.9598947E+02  0.7561462E-02  0.1288963E+00
          2   -1    0    0  501    0  0.00000000000E+00  0.00000000000E+00  0.37900272981E+03  0.37900272981E+03  0.00000000000E+00 0. -1.
         -2   -1    0    0    0  501 -0.00000000000E+00 -0.00000000000E+00 -0.49551998690E+02  0.49551998690E+02  0.00000000000E+00 0.  1.
         25    2    1    2    0    0 -0.74513081374E+02 -0.58392222446E+01  0.12443169706E+03  0.19161751834E+03  0.12509088811E+03 0.  0.
          5    1    3    3  502    0 -0.67019891375E+02 -0.32227245272E+02  0.11547422744E+02  0.75372916553E+02  0.41800000000E+01 0.  1.
         -5    1    3    3    0  502 -0.74931899995E+01  0.26388023028E+02  0.11288427432E+03  0.11624460178E+03  0.41800000000E+01 0.  1.
        -11    1    1    2    0    0  0.41071634875E+02  0.27930248269E+02  0.18610554875E+03  0.19261945186E+03  0.00000000000E+00 0. -1.
         11    1    1    2    0    0  0.33441446500E+02 -0.22091026024E+02  0.18913485318E+02  0.44317758310E+02  0.00000000000E+00 0.  1.
</event>
<event>
 7    1  0.2679104E-009  0.7812472E+02  0.7561462E-02  0.1334459E+00
         -2   -1    0    0    0  501 -0.00000000000E+00  0.00000000000E+00  0.66246346265E+02  0.66246346265E+02  0.00000000000E+00 0. -1.
          2   -1    0    0  501    0  0.00000000000E+00 -0.00000000000E+00 -0.24116547071E+03  0.24116547071E+03  0.00000000000E+00 0.  1.
         25    2    1    2    0    0  0.44077271548E+01 -0.21566253282E+02 -0.41725511774E+02  0.13369023410E+03  0.12509008363E+03 0.  0.
          5    1    3    3  502    0  0.22725136303E+02  0.40176631453E+01  0.39804034450E+02  0.46199642809E+02  0.41800000000E+01 0. -1.
         -5    1    3    3    0  502 -0.18317409148E+02 -0.25583916427E+02 -0.81529546225E+02  0.87490591295E+02  0.41800000000E+01 0. -1.
        -11    1    1    2    0    0 -0.40145242761E+02 -0.21137536083E+02 -0.24423453458E+02  0.51526119850E+02  0.00000000000E+00 0. -1.
         11    1    1    2    0    0  0.35737515606E+02  0.42703789364E+02 -0.10877015921E+03  0.12219546302E+03  0.00000000000E+00 0.  1.
</event>
<event>
 7    1  0.2679104E-009  0.1262525E+03  0.7561462E-02  0.1233125E+00
          3   -1    0    0  501    0  0.00000000000E+00  0.00000000000E+00  0.38877477225E+03  0.38877477225E+03  0.00000000000E+00 0. -1.
         -3   -1    0    0    0  501 -0.00000000000E+00 -0.00000000000E+00 -0.44855087529E+02  0.44855087529E+02  0.00000000000E+00 0.  1.
         25    2    1    2    0    0  0.28213879145E+02  0.59216121542E+02  0.25182943470E+03  0.28873562762E+03  0.12509047305E+03 0.  0.
          5    1    3    3  502    0  0.47350778646E+02  0.91603383960E+02  0.17741245328E+03  0.20524601621E+03  0.41800000000E+01 0.  1.
         -5    1    3    3    0  502 -0.19136899501E+02 -0.32387262419E+02  0.74416981423E+02  0.83489611411E+02  0.41800000000E+01 0.  1.
        -11    1    1    2    0    0 -0.22418793537E+02  0.21183720020E+02  0.20071060273E+02  0.36799453229E+02  0.00000000000E+00 0. -1.
         11    1    1    2    0    0 -0.57950856080E+01 -0.80399841561E+02  0.72019189750E+02  0.10809477893E+03  0.00000000000E+00 0.  1.
</event>
<event>
 7    1  0.2679104E-009  0.6888559E+02  0.7561462E-02  0.1363924E+00
         -1   -1    0    0    0  501 -0.00000000000E+00  0.00000000000E+00  0.91502854748E+02  0.91502854748E+02  0.00000000000E+00 0.  1.
          1   -1    0    0  501    0  0.00000000000E+00 -0.00000000000E+00 -0.16730208728E+03  0.16730208728E+03  0.00000000000E+00 0. -1.
         25    2    1    2    0    0 -0.23119888328E+02  0.32507196418E+02 -0.64834866296E+01  0.13145668353E+03  0.12509027536E+03 0.  0.
          5    1    3    3  502    0 -0.48390048694E+02  0.33618977538E+02 -0.52338253968E+02  0.78921465342E+02  0.41800000000E+01 0. -1.
         -5    1    3    3    0  502  0.25270160367E+02 -0.11117811198E+01  0.45854767338E+02  0.52535218186E+02  0.41800000000E+01 0. -1.
        -11    1    1    2    0    0  0.28539652871E+02 -0.10518298327E+02 -0.91027611182E+02  0.95974852869E+02  0.00000000000E+00 0. -1.
         11    1    1    2    0    0 -0.54197645433E+01 -0.21988898091E+02  0.21711865280E+02  0.31373405631E+02  0.00000000000E+00 0.  1.
</event>
<event>
 7    1  0.2679104E-009  0.8614114E+02  0.7561462E-02  0.1312475E+00
          1   -1    0    0  501    0  0.00000000000E+00  0.00000000000E+00  0.49215321993E+02  0.49215321993E+02  0.00000000000E+00 0. -1.
         -1   -1    0    0    0  501 -0.00000000000E+00 -0.00000000000E+00 -0.45596974538E+03  0.45596974538E+03  0.00000000000E+00 0.  1.
         25    2    1    2    0    0 -0.33588088752E+02 -0.44375875234E+02 -0.73598554732E+02  0.15543979021E+03  0.12508958036E+03 0.  0.
          5    1    3    3  502    0 -0.13123102431E+02 -0.53544749428E+02 -0.10379145322E+03  0.11759844459E+03  0.41800000000E+01 0. -1.
         -5    1    3    3    0  502 -0.20464986321E+02  0.91688741942E+01  0.30192898489E+02  0.37841345620E+02  0.41800000000E+01 0. -1.
        -11    1    1    2    0    0  0.57111838362E+02  0.41254131862E+02 -0.30447658304E+03  0.31252144742E+03  0.00000000000E+00 0.  1.
         11    1    1    2    0    0 -0.23523749610E+02  0.31217433719E+01 -0.28679285615E+02  0.37223829744E+02  0.00000000000E+00 0. -1.
</event>
<event>
 7    1  0.2679104E-009  0.1090574E+03  0.7561462E-02  0.1262325E+00
          2   -1    0    0  501    0  0.00000000000E+00  0.00000000000E+00  0.11734546482E+04  0.11734546482E+04  0.00000000000E+00 0. -1.
         -2   -1    0    0    0  501 -0.00000000000E+00 -0.00000000000E+00 -0.16893123234E+02  0.16893123234E+02  0.00000000000E+00 0.  1.
         25    2    1    2    0    0 -0.86615897679E+02  0.93127072464E+01  0.71497785390E+03  0.73104722622E+03  0.12509066772E+03 0.  0.
          5    1    3    3  502    0 -0.48202911322E+02 -0.17462165067E+02  0.85245246624E+02  0.99562404254E+02  0.41800000000E+01 0.  1.
         -5    1    3    3    0  502 -0.38412986356E+02  0.26774872313E+02  0.62973260728E+03  0.63148482197E+03  0.41800000000E+01 0.  1.
        -11    1    1    2    0    0  0.96581893286E+02  0.10835900164E+02  0.40384221088E+03  0.41537213451E+03  0.00000000000E+00 0. -1.
         11    1    1    2    0    0 -0.99659956076E+01 -0.20148607411E+02  0.37741460154E+02  0.43928410666E+02  0.00000000000E+00 0.  1.
</event>
<event>
 7    1  0.2679104E-009  0.2459816E+03  0.7561462E-02  0.1115871E+00
          2   -1    0    0  501    0  0.00000000000E+00  0.00000000000E+00  0.17249447045E+04  0.17249447045E+04  0.00000000000E+00 0. -1.
         -2   -1    0    0    0  501 -0.00000000000E+00 -0.00000000000E+00 -0.48189713414E+02  0.48189713414E+02  0.00000000000E+00 0.  1.
         25    2    1    2    0    0  0.22533324586E+02  0.22379414895E+03  0.12961258979E+04  0.13214320328E+04  0.12509477364E+03 0.  0.
          5    1    3    3  502    0 -0.46380263959E+02  0.65395233288E+02  0.53123682209E+03  0.53726873998E+03  0.41800000000E+01 0.  1.
         -5    1    3    3    0  502  0.68913588545E+02  0.15839891566E+03  0.76488907579E+03  0.78416329284E+03  0.41800000000E+01 0.  1.
        -11    1    1    2    0    0 -0.52514584177E+02 -0.16010388142E+03  0.22688482989E+03  0.28260884705E+03  0.00000000000E+00 0.  1.
         11    1    1    2    0    0  0.29981259591E+02 -0.63690267530E+02  0.15374426332E+03  0.16909353805E+03  0.00000000000E+00 0. -1.
</event>
<event>
 7    1  0.2679104E-009  0.1050589E+03  0.7561462E-02  0.1270004E+00
         -2   -1    0    0    0  501 -0.00000000000E+00  0.00000000000E+00  0.52402351283E+02  0.52402351283E+02  0.00000000000E+00 0.  1.
          2   -1    0    0  501    0  0.00000000000E+00 -0.00000000000E+00 -0.26253110890E+03  0.26253110890E+03  0.00000000000E+00 0. -1.
         25    2    1    2    0    0 -0.21331976984E+02 -0.40770078797E+01 -0.12463238466E+03  0.17791052499E+03  0.12508896179E+03 0.  0.
          5    1    3    3  502    0 -0.59237347843E+02  0.27885012969E+02 -0.32532594183E+02  0.73228952007E+02  0.41800000000E+01 0. -1.
         -5    1    3    3    0  502  0.37905370859E+02 -0.31962020849E+02 -0.92099790474E+02  0.10468157298E+03  0.41800000000E+01 0. -1.
        -11    1    1    2    0    0 -0.20731742496E+02  0.36275292352E+02 -0.70592555711E+01  0.42373754511E+02  0.00000000000E+00 0.  1.
         11    1    1    2    0    0  0.42063719480E+02 -0.32198284472E+02 -0.78437117389E+02  0.94649180682E+02  0.00000000000E+00 0. -1.
</event>
<event>
 7    1  0.2679104E-009  0.7093048E+02  0.7561462E-02  0.1356957E+00
         -2   -1    0    0    0  501 -0.00000000000E+00  0.00000000000E+00  0.32771486457E+02  0.32771486457E+02  0.00000000000E+00 0.  1.
          2   -1    0    0  501    0  0.00000000000E+00 -0.00000000000E+00 -0.40615934591E+03  0.40615934591E+03  0.00000000000E+00 0. -1.
         25    2    1    2    0    0 -0.23319303012E+02 -0.35787777910E+02 -0.20817601893E+03  0.24658592155E+03  0.12507120735E+03 0.  0.
          5    1    3    3  502    0 -0.23640436502E+02 -0.13604564968E+02 -0.21957041971E+03  0.22129752832E+03  0.41800000000E+01 0.  1.
         -5    1    3    3    0  502  0.32113348938E+00 -0.22183212942E+02  0.11394400782E+02  0.25288393233E+02  0.41800000000E+01 0.  1.
        -11    1    1    2    0    0 -0.14366359149E+02  0.49535074832E+02 -0.56664647115E+02  0.76622438923E+02  0.00000000000E+00 0.  1.
         11    1    1    2    0    0  0.37685662161E+02 -0.13747296922E+02 -0.10854719341E+03  0.11572247189E+03  0.00000000000E+00 0. -1.
</event>
<event>
 7    1  0.2679104E-009  0.6601286E+02  0.7561462E-02  0.1374202E+00
         -1   -1    0    0    0  501 -0.00000000000E+00  0.00000000000E+00  0.76605423007E+02  0.76605423007E+02  0.00000000000E+00 0.  1.
          1   -1    0    0  501    0  0.00000000000E+00 -0.00000000000E+00 -0.19520134797E+03  0.19520134797E+03  0.00000000000E+00 0. -1.
         25    2    1    2    0    0  0.30091205525E+02 -0.35801856810E+02 -0.10451612298E+03  0.16958273049E+03  0.12508968349E+03 0.  0.
          5    1    3    3  502    0 -0.53551653183E+01 -0.11956574362E+02 -0.12233582997E+03  0.12310631649E+03  0.41800000000E+01 0. -1.
         -5    1    3    3    0  502  0.35446370843E+02 -0.23845282447E+02  0.17819706988E+02  0.46476413998E+02  0.41800000000E+01 0. -1.
        -11    1    1    2    0    0 -0.41077171274E+02  0.34947567709E+01  0.26649514263E+02  0.49089142743E+02  0.00000000000E+00 0.  1.
         11    1    1    2    0    0  0.10985965749E+02  0.32307100039E+02 -0.40729316240E+02  0.53134897739E+02  0.00000000000E+00 0. -1.
</event>
<event>
 7    1  0.2679104E-009  0.1019134E+03  0.7561462E-02  0.1276323E+00
          2   -1    0    0  501    0  0.00000000000E+00  0.00000000000E+00  0.11183742787E+04  0.11183742787E+04  0.00000000000E+00 0. -1.
         -2   -1    0    0    0  501 -0.00000000000E+00 -0.00000000000E+00 -0.30314262786E+02  0.30314262786E+02  0.00000000000E+00 0.  1.
         25    2    1    2    0    0  0.50173525106E+02 -0.12048968779E+02  0.10017697521E+04  0.10108674059E+04  0.12509083016E+03 0.  0.
          5    1    3    3  502    0  0.67032888050E+02 -0.40844492531E+02  0.90525988781E+03  0.90866639507E+03  0.41800000000E+01 0. -1.
         -5    1    3    3    0  502 -0.16859362944E+02  0.28795523752E+02  0.96509864334E+02  0.10220101086E+03  0.41800000000E+01 0. -1.
        -11    1    1    2    0    0 -0.38311514870E+02  0.43506670765E+02  0.16369455220E+02  0.60237543417E+02  0.00000000000E+00 0.  1.
         11    1    1    2    0    0 -0.11862010236E+02 -0.31457701986E+02  0.69920808555E+02  0.77583592145E+02  0.00000000000E+00 0. -1.
</event>
<event>
 7    1  0.2679104E-009  0.9087809E+02  0.7561462E-02  0.1300739E+00
         -1   -1    0    0    0  501 -0.00000000000E+00  0.00000000000E+00  0.40352563409E+02  0.40352563409E+02  0.00000000000E+00 0.  1.
          1   -1    0    0  501    0  0.00000000000E+00 -0.00000000000E+00 -0.33831959743E+03  0.33831959743E+03  0.00000000000E+00 0. -1.
         25    2    1    2    0    0  0.10983929801E+02  0.22742043725E+02 -0.22815245752E+03  0.26141666328E+03  0.12508909107E+03 0.  0.
          5    1    3    3  502    0  0.17905995881E+02 -0.50412521757E+02 -0.10588285628E+03  0.11870424884E+03  0.41800000000E+01 0.  1.
         -5    1    3    3    0  502 -0.69220660803E+01  0.73154565482E+02 -0.12226960123E+03  0.14271241444E+03  0.41800000000E+01 0.  1.
        -11    1    1    2    0    0  0.42117451015E+01  0.14060966432E+02 -0.75607926771E+02  0.77019531059E+02  0.00000000000E+00 0. -1.
         11    1    1    2    0    0 -0.15195674903E+02 -0.36803010157E+02  0.57933502713E+01  0.40235966495E+02  0.00000000000E+00 0.  1.
</event>
<event>
 7    1  0.2679104E-009  0.1563998E+03  0.7561462E-02  0.1192822E+00
         -2   -1    0    0    0  501 -0.00000000000E+00  0.00000000000E+00  0.33933002512E+02  0.33933002512E+02  0.00000000000E+00 0. -1.
          2   -1    0    0  501    0  0.00000000000E+00 -0.00000000000E+00 -0.85611630028E+03  0.85611630028E+03  0.00000000000E+00 0.  1.
         25    2    1    2    0    0  0.16527750564E+02  0.10742895765E+03 -0.27437460243E+03  0.32053638378E+03  0.12509197971E+03 0.  0.
          5    1    3    3  502    0 -0.52512049570E+02  0.25734598079E+02 -0.10077839851E+03  0.11659135000E+03  0.41800000000E+01 0. -1.
         -5    1    3    3    0  502  0.69039800135E+02  0.81694359574E+02 -0.17359620392E+03  0.20394503378E+03  0.41800000000E+01 0. -1.
        -11    1    1    2    0    0  0.41958054862E+02 -0.41894283212E+02 -0.31818864216E+03  0.32366591006E+03  0.00000000000E+00 0. -1.
         11    1    1    2    0    0 -0.58485805426E+02 -0.65534674440E+02 -0.22962005317E+03  0.24584700895E+03  0.00000000000E+00 0.  1.
</event>
<event>
 7    1  0.2679104E-009  0.1059002E+03  0.7561462E-02  0.1268356E+00
         -2   -1    0    0    0  501 -0.00000000000E+00  0.00000000000E+00  0.54561881180E+02  0.54561881180E+02  0.00000000000E+00 0.  1.
          2   -1    0    0  501    0  0.00000000000E+00 -0.00000000000E+00 -0.30709924895E+03  0.30709924895E+03  0.00000000000E+00 0. -1.
         25    2    1    2    0    0 -0.68253826894E+02 -0.18401857013E+02 -0.14441509891E+03  0.20370754606E+03  0.12507529852E+03 0.  0.
          5    1    3    3  502    0  0.15808567287E+02 -0.26026556907E+01  0.15260404354E+02  0.22517481151E+02  0.41800000000E+01 0. -1.
         -5    1    3    3    0  502 -0.84062394181E+02 -0.15799201322E+02 -0.15967550327E+03  0.18119006491E+03  0.41800000000E+01 0. -1.
        -11    1    1    2    0    0  0.83847802247E+02  0.31167939206E+02 -0.10436158775E+03  0.13745266594E+03  0.00000000000E+00 0.  1.
         11    1    1    2    0    0 -0.15593975352E+02 -0.12766082193E+02 -0.37606811057E+01  0.20500918131E+02  0.00000000000E+00 0. -1.
</event>
<event>
 7    1  0.2679104E-009  0.1066037E+03  0.7561462E-02  0.1266992E+00
          1   -1    0    0  501    0  0.00000000000E+00  0.00000000000E+00  0.50681814847E+03  0.50681814847E+03  0.00000000000E+00 0. -1.
         -1   -1    0    0    0  501 -0.00000000000E+00 -0.00000000000E+00 -0.49861411593E+02  0.49861411593E+02  0.00000000000E+00 0.  1.
         25    2    1    2    0    0 -0.52816161048E+01 -0.33903961138E+02  0.43834460474E+03  0.45713245413E+03  0.12508682611E+03 0.  0.
          5    1    3    3  502    0  0.14267459708E+02  0.45203198419E+02  0.14205162631E+03  0.14980996793E+03  0.41800000000E+01 0.  1.
         -5    1    3    3    0  502 -0.19549075813E+02 -0.79107159556E+02  0.29629297843E+03  0.30732248620E+03  0.41800000000E+01 0.  1.
        -11    1    1    2    0    0  0.12113241611E+02 -0.23383520716E+02  0.30858752335E+02  0.40568242001E+02  0.00000000000E+00 0. -1.
         11    1    1    2    0    0 -0.68316255066E+01  0.57287481854E+02 -0.12246620197E+02  0.58978863930E+02  0.00000000000E+00 0.  1.
</event>
<event>
 7    1  0.2679104E-009  0.1230017E+03  0.7561462E-02  0.1238226E+00
          1   -1    0    0  501    0  0.00000000000E+00  0.00000000000E+00  0.46983274390E+02  0.46983274390E+02  0.00000000000E+00 0. -1.
         -1   -1    0    0    0  501 -0.00000000000E+00 -0.00000000000E+00 -0.41704217696E+03  0.41704217696E+03  0.00000000000E+00 0.  1.
         25    2    1    2    0    0  0.83719363286E+02  0.29482993410E+02 -0.21561841862E+03  0.26460552970E+03  0.12508639098E+03 0.  0.
          5    1    3    3  502    0  0.51560424369E+02  0.78277066561E+02 -0.14683954714E+03  0.17425585074E+03  0.41800000000E+01 0.  1.
         -5    1    3    3    0  502  0.32158938917E+02 -0.48794073151E+02 -0.68778871473E+02  0.90349678959E+02  0.41800000000E+01 0.  1.
        -11    1    1    2    0    0 -0.29940089533E+02  0.40499225237E+01  0.23507864304E+01  0.30304076138E+02  0.00000000000E+00 0. -1.
         11    1    1    2    0    0 -0.53779273753E+02 -0.33532915933E+02 -0.15679127038E+03  0.16911584551E+03  0.00000000000E+00 0.  1.
</event>
<event>
 7    1  0.2679104E-009  0.1036378E+03  0.7561462E-02  0.1272827E+00
         -1   -1    0    0    0  501 -0.00000000000E+00  0.00000000000E+00  0.23364418056E+03  0.23364418056E+03  0.00000000000E+00 0.  1.
          1   -1    0    0  501    0  0.00000000000E+00 -0.00000000000E+00 -0.71446163911E+02  0.71446163911E+02  0.00000000000E+00 0. -1.
         25    2    1    2    0    0 -0.59642924799E+02  0.69831394885E+01  0.45493082618E+02  0.14602025660E+03  0.12508497934E+03 0.  0.
          5    1    3    3  502    0 -0.20931939891E+02 -0.38894361168E+02  0.68488656872E+02  0.81603222720E+02  0.41800000000E+01 0.  1.
         -5    1    3    3    0  502 -0.38710984908E+02  0.45877500656E+02 -0.22995574254E+02  0.64417033883E+02  0.41800000000E+01 0.  1.
        -11    1    1    2    0    0  0.80727437948E+02 -0.10337697922E+02  0.68603651284E+02  0.10644363863E+03  0.00000000000E+00 0. -1.
         11    1    1    2    0    0 -0.21084513150E+02  0.33545584335E+01  0.48101282752E+02  0.52626449238E+02  0.00000000000E+00 0.  1.
</event>
<event>
 7    1  0.2679104E-009  0.8104902E+02  0.7561462E-02  0.1326101E+00
         -1   -1    0    0    0  501 -0.00000000000E+00  0.00000000000E+00  0.29637319189E+02  0.29637319189E+02  0.00000000000E+00 0.  1.
          1   -1    0    0  501    0  0.00000000000E+00 -0.00000000000E+00 -0.84365077702E+03  0.84365077702E+03  0.00000000000E+00 0. -1.
         25    2    1    2    0    0 -0.49906392082E+02  0.23172488350E+02 -0.71883503033E+03  0.73170935722E+03  0.12508865025E+03 0.  0.
          5    1    3    3  502    0 -0.49389930928E+02  0.17748983886E+02 -0.10155307921E+03  0.11438921279E+03  0.41800000000E+01 0.  1.
         -5    1    3    3    0  502 -0.51646115393E+00  0.54235044643E+01 -0.61728195112E+03  0.61732014443E+03  0.41800000000E+01 0.  1.
        -11    1    1    2    0    0 -0.21425938844E+02 -0.22747207783E+02 -0.16357127681E+02  0.35271262285E+02  0.00000000000E+00 0.  1.
         11    1    1    2    0    0  0.71332330925E+02 -0.42528056727E+00 -0.78821299818E+02  0.10630747671E+03  0.00000000000E+00 0. -1.
</event>
<event>
 7    1  0.2679104E-009  0.1404432E+03  0.7561462E-02  0.1212734E+00
          3   -1    0    0  501    0  0.00000000000E+00  0.00000000000E+00  0.18133604042E+03  0.18133604042E+03  0.00000000000E+00 0. -1.
         -3   -1    0    0    0  501 -0.00000000000E+00 -0.00000000000E+00 -0.17499846145E+03  0.17499846145E+03  0.00000000000E+00 0.  1.
         25    2    1    2    0    0  0.34664960481E+02 -0.12946005365E+03  0.46793668550E+02  0.18920636656E+03  0.12509131366E+03 0.  0.
          5    1    3    3  502    0  0.45739342384E+02 -0.12113431397E+03 -0.10632168432E+02  0.12998509480E+03  0.41800000000E+01 0.  1.
         -5    1    3    3    0  502 -0.11074381903E+02 -0.83257396782E+01  0.57425836983E+02  0.59221271760E+02  0.41800000000E+01 0.  1.
        -11    1    1    2    0    0 -0.12871070032E+02  0.96479464530E+02  0.15557820371E+02  0.98569758519E+02  0.00000000000E+00 0. -1.
         11    1    1    2    0    0 -0.21793890449E+02  0.32980589122E+02 -0.56013909951E+02  0.68558376788E+02  0.00000000000E+00 0.  1.
</event>
<event>
 7    1  0.2679104E-009  0.9282605E+02  0.7561462E-02  0.1296149E+00
         -4   -1    0    0    0  501 -0.00000000000E+00  0.00000000000E+00  0.34109866230E+02  0.34109866230E+02  0.00000000000E+00 0. -1.
          4   -1    0    0  501    0  0.00000000000E+00 -0.00000000000E+00 -0.37096710086E+03  0.37096710086E+03  0.00000000000E+00 0.  1.
         25    2    1    2    0    0 -0.14583666712E+01 -0.26739434801E+02 -0.19513958724E+03  0.23332804571E+03  0.12508155019E+03 0.  0.
          5    1    3    3  502    0 -0.50451957224E+02 -0.36893551636E+02 -0.16060449004E+03  0.17238854011E+03  0.41800000000E+01 0.  1.
         -5    1    3    3    0  502  0.48993590553E+02  0.10154116834E+02 -0.34535097209E+02  0.60939505604E+02  0.41800000000E+01 0.  1.
        -11    1    1    2    0    0 -0.32095971961E+02  0.41772242172E+01 -0.12300910321E+03  0.12719606948E+03  0.00000000000E+00 0.  1.
         11    1    1    2    0    0  0.33554338632E+02  0.22562210584E+02 -0.18708544176E+02  0.44552851903E+02  0.00000000000E+00 0. -1.
</event>
<event>
 7    1  0.2679104E-009  0.7218036E+02  0.7561462E-02  0.1352832E+00
          1   -1    0    0  501    0  0.00000000000E+00  0.00000000000E+00  0.75029550138E+03  0.75029550138E+03  0.00000000000E+00 0. -1.
         -1   -1    0    0    0  501 -0.00000000000E+00 -0.00000000000E+00 -0.25308044664E+02  0.25308044664E+02  0.00000000000E+00 0.  1.
         25    2    1    2    0    0  0.13661976702E+02  0.42596737880E+02  0.60400744019E+03  0.61844424908E+03  0.12508864748E+03 0.  0.
          5    1    3    3  502    0  0.42440007114E+01  0.24478181068E+02  0.15523484273E+02  0.29591280040E+02  0.41800000000E+01 0.  1.
         -5    1    3    3    0  502  0.94179759903E+01  0.18118556812E+02  0.58848395592E+03  0.58885296904E+03  0.41800000000E+01 0.  1.
        -11    1    1    2    0    0 -0.27637210229E+02 -0.65726497920E+02  0.10063232702E+03  0.12333147676E+03  0.00000000000E+00 0.  1.
         11    1    1    2    0    0  0.13975233527E+02  0.23129760039E+02  0.20347689500E+02  0.33827820202E+02  0.00000000000E+00 0. -1.
</event>
<event>
 7    1  0.2679104E-009  0.1196105E+03  0.7561462E-02  0.1243741E+00
         -2   -1    0    0    0  501 -0.00000000000E+00  0.00000000000E+00  0.20573933117E+02  0.20573933117E+02  0.00000000000E+00 0.  1.
          2   -1    0    0  501    0  0.00000000000E+00 -0.00000000000E+00 -0.15173712205E+04  0.15173712205E+04  0.00000000000E+00 0. -1.
         25    2    1    2    0    0  0.96221968942E+02 -0.65185847454E+02 -0.11375597876E+04  0.11503027520E+04  0.12508512677E+03 0.  0.
          5    1    3    3  502    0  0.35886780769E+02 -0.46181761526E+02 -0.15531957644E+03  0.16601885241E+03  0.41800000000E+01 0. -1.
         -5    1    3    3    0  502  0.60335188173E+02 -0.19004085928E+02 -0.98224021116E+03  0.98428389961E+03  0.41800000000E+01 0. -1.
        -11    1    1    2    0    0 -0.55937449106E+02  0.46690904281E+02 -0.95063409122E+02  0.11977516649E+03  0.00000000000E+00 0.  1.
         11    1    1    2    0    0 -0.40284519836E+02  0.18494943173E+02 -0.26417409062E+03  0.26786723506E+03  0.00000000000E+00 0. -1.
</event>
<event>
 7    1  0.2679104E-009  0.9338989E+02  0.7561462E-02  0.1294844E+00
         -1   -1    0    0    0  501 -0.00000000000E+00  0.00000000000E+00  0.14714106790E+03  0.14714106790E+03  0.00000000000E+00 0.  1.
          1   -1    0    0  501    0  0.00000000000E+00 -0.00000000000E+00 -0.16071704189E+03  0.16071704189E+03  0.00000000000E+00 0. -1.
         25    2    1    2    0    0 -0.83317072387E+02  0.35226518401E+02  0.54059580183E+02  0.16356139563E+03  0.12508896746E+03 0.  0.
          5    1    3    3  502    0 -0.61826298879E+02  0.29156971443E+02 -0.31250867504E+02  0.75277548689E+02  0.41800000000E+01 0.  1.
         -5    1    3    3    0  502 -0.21490773508E+02  0.60695469588E+01  0.85310447687E+02  0.88283846942E+02  0.41800000000E+01 0.  1.
        -11    1    1    2    0    0  0.14669686193E+02  0.56042810344E+01  0.20193146456E+02  0.25580672835E+02  0.00000000000E+00 0.  1.
         11    1    1    2    0    0  0.68647386195E+02 -0.40830799436E+02 -0.87828700627E+02  0.11871604132E+03  0.00000000000E+00 0. -1.
</event>
<event>
 7    1  0.2679104E-009  0.9038566E+02  0.7561462E-02  0.1301920E+00
          2   -1    0    0  501    0  0.00000000000E+00  0.00000000000E+00  0.69615770441E+03  0.69615770441E+03  0.00000000000E+00 0.  1.
         -2   -1    0    0    0  501 -0.00000000000E+00 -0.00000000000E+00 -0.19212757748E+02  0.19212757748E+02  0.00000000000E+00 0. -1.
         25    2    1    2    0    0  0.18983371764E+02 -0.26118191093E+02  0.48088719384E+03  0.49793980710E+03  0.12509608301E+03 0.  0.
          5    1    3    3  502    0 -0.48789994557E+02 -0.24461737598E+02  0.29492023020E+03  0.29995708819E+03  0.41800000000E+01 0. -1.
         -5    1    3    3    0  502  0.67773366321E+02 -0.16564534953E+01  0.18596696364E+03  0.19798271891E+03  0.41800000000E+01 0. -1.
        -11    1    1    2    0    0 -0.18105003823E+02 -0.10866231138E+02  0.35640493377E+01  0.21414214678E+02  0.00000000000E+00 0. -1.
         11    1    1    2    0    0 -0.87836794069E+00  0.36984422231E+02  0.19249370349E+03  0.19601644038E+03  0.00000000000E+00 0.  1.
</event>
<event>
 7    1  0.2679104E-009  0.1181580E+03  0.7561462E-02  0.1246167E+00
         -1   -1    0    0    0  501 -0.00000000000E+00  0.00000000000E+00  0.19735014136E+03  0.19735014136E+03  0.00000000000E+00 0.  1.
          1   -1    0    0  501    0  0.00000000000E+00 -0.00000000000E+00 -0.11913019606E+03  0.11913019606E+03  0.00000000000E+00 0. -1.
         25    2    1    2    0    0  0.73043459198E+02 -0.78289709900E+02  0.25164969181E+02  0.16657059452E+03  0.12509141328E+03 0.  0.
          5    1    3    3  502    0  0.72262892177E+02 -0.81958060937E+02  0.64423114627E+02  0.12691280249E+03  0.41800000000E+01 0.  1.
         -5    1    3    3    0  502  0.78056702056E+00  0.36683510372E+01 -0.39258145446E+02  0.39657792022E+02  0.41800000000E+01 0.  1.
        -11    1    1    2    0    0 -0.42116705643E+02  0.57634209583E+01  0.56835748181E+02  0.70974193807E+02  0.00000000000E+00 0.  1.
         11    1    1    2    0    0 -0.30926753555E+02  0.72526288942E+02 -0.37807720633E+01  0.78935549092E+02  0.00000000000E+00 0. -1.
</event>
<event>
 7    1  0.2679104E-009  0.1433102E+03  0.7561462E-02  0.1208943E+00
         -1   -1    0    0    0  501 -0.00000000000E+00  0.00000000000E+00  0.16635159253E+02  0.16635159253E+02  0.00000000000E+00 0.  1.
          1   -1    0    0  501    0  0.00000000000E+00 -0.00000000000E+00 -0.14360291276E+04  0.14360291276E+04  0.00000000000E+00 0. -1.
         25    2    1    2    0    0  0.32352968068E+02  0.64889568693E+02 -0.86187754146E+03  0.87392063389E+03  0.12508799785E+03 0.  0.
          5    1    3    3  502    0  0.67085105382E+02  0.75900900954E+02 -0.73116129051E+03  0.73815693675E+03  0.41800000000E+01 0. -1.
         -5    1    3    3    0  502 -0.34732137314E+02 -0.11011332261E+02 -0.13071625095E+03  0.13576369714E+03  0.41800000000E+01 0. -1.
        -11    1    1    2    0    0 -0.64835352507E+02 -0.87558910473E+02 -0.32233868905E+03  0.34025345876E+03  0.00000000000E+00 0.  1.
         11    1    1    2    0    0  0.32482384439E+02  0.22669341780E+02 -0.23517773782E+03  0.23849019419E+03  0.00000000000E+00 0. -1.
</event>
<event>
 7    1  0.2679104E-009  0.9580881E+02  0.7561462E-02  0.1289365E+00
         -2   -1    0    0    0  501 -0.00000000000E+00  0.00000000000E+00  0.52289263082E+02  0.52289263082E+02  0.00000000000E+00 0.  1.
          2   -1    0    0  501    0  0.00000000000E+00 -0.00000000000E+00 -0.25746625261E+03  0.25746625261E+03  0.00000000000E+00 0. -1.
         25    2    1    2    0    0 -0.28339255084E+02 -0.11610492019E+02 -0.15789031968E+03  0.20375233439E+03  0.12509094218E+03 0.  0.
          5    1    3    3  502    0  0.23979149579E+01  0.46261106360E+02 -0.19227678697E+02  0.50329076942E+02  0.41800000000E+01 0.  1.
         -5    1    3    3    0  502 -0.30737170042E+02 -0.57871598379E+02 -0.13866264098E+03  0.15342325745E+03  0.41800000000E+01 0.  1.
        -11    1    1    2    0    0  0.46953440905E+02  0.27979176881E+02 -0.57374079312E+02  0.79241686811E+02  0.00000000000E+00 0. -1.
         11    1    1    2    0    0 -0.18614185821E+02 -0.16368684862E+02  0.10087409462E+02  0.26761494494E+02  0.00000000000E+00 0.  1.
</event>
<event>
 7    1  0.2679104E-009  0.1033242E+03  0.7561462E-02  0.1273457E+00
          2   -1    0    0  501    0  0.00000000000E+00  0.00000000000E+00  0.10226826657E+03  0.10226826657E+03  0.00000000000E+00 0. -1.
         -2   -1    0    0    0  501 -0.00000000000E+00 -0.00000000000E+00 -0.16694159935E+03  0.16694159935E+03  0.00000000000E+00 0.  1.
         25    2    1    2    0    0 -0.46391499324E+02  0.30142890972E+02 -0.85599027818E+02  0.16135351717E+03  0.12508796447E+03 0.  0.
          5    1    3    3  502    0 -0.61822347831E+02  0.57450378797E+02 -0.17542539389E+02  0.86300416010E+02  0.41800000000E+01 0. -1.
         -5    1    3    3    0  502  0.15430848507E+02 -0.27307487825E+02 -0.68056488428E+02  0.75053101163E+02  0.41800000000E+01 0. -1.
        -11    1    1    2    0    0  0.63963422759E+02 -0.11684913342E+02 -0.12102886360E+02  0.66138767066E+02  0.00000000000E+00 0.  1.
         11    1    1    2    0    0 -0.17571923435E+02 -0.18457977630E+02  0.33028581404E+02  0.41717581677E+02  0.00000000000E+00 0. -1.
</event>
<event>
 7    1  0.2679104E-009  0.1656803E+03  0.7561462E-02  0.1182429E+00
          2   -1    0    0  501    0  0.00000000000E+00  0.00000000000E+00  0.95491439391E+03  0.95491439391E+03  0.00000000000E+00 0. -1.
         -2   -1    0    0    0  501 -0.00000000000E+00 -0.00000000000E+00 -0.34702389894E+02  0.34702389894E+02  0.00000000000E+00 0.  1.
         25    2    1    2    0    0  0.85713215980E+02  0.10990112556E+03  0.70701674587E+03  0.73139616562E+03  0.12507061741E+03 0.  0.
          5    1    3    3  502    0  0.11452230535E+03  0.10773972893E+03  0.56998554183E+03  0.59129028227E+03  0.41800000000E+01 0.  1.
         -5    1    3    3    0  502 -0.28809089375E+02  0.21613966269E+01  0.13703120404E+03  0.14010588335E+03  0.41800000000E+01 0.  1.
        -11    1    1    2    0    0 -0.51237991562E+02 -0.33939236857E+02  0.77160749035E+02  0.98645753935E+02  0.00000000000E+00 0. -1.
         11    1    1    2    0    0 -0.34475224418E+02 -0.75961888700E+02  0.13603450911E+03  0.15957486425E+03  0.00000000000E+00 0.  1.
</event>
<event>
 7    1  0.2679104E-009  0.3105583E+03  0.7561462E-02  0.1080079E+00
          1   -1    0    0  501    0  0.00000000000E+00  0.00000000000E+00  0.27756555114E+03  0.27756555114E+03  0.00000000000E+00 0. -1.
         -1   -1    0    0    0  501 -0.00000000000E+00 -0.00000000000E+00 -0.41842860872E+03  0.41842860872E+03  0.00000000000E+00 0.  1.
         25    2    1    2    0    0 -0.28777044639E+03  0.11109110329E+03 -0.16921445642E+03  0.37340806806E+03  0.12508792902E+03 0.  0.
          5    1    3    3  502    0 -0.27892342125E+03  0.11269911848E+03 -0.12115841770E+03  0.32433963805E+03  0.41800000000E+01 0. -1.
         -5    1    3    3    0  502 -0.88470251354E+01 -0.16080151877E+01 -0.48056038717E+02  0.49068430011E+02  0.41800000000E+01 0. -1.
        -11    1    1    2    0    0  0.17998621411E+03 -0.51641175594E+02  0.57902308465E+02  0.19599623877E+03  0.00000000000E+00 0.  1.
         11    1    1    2    0    0  0.10778423228E+03 -0.59449927699E+02 -0.29550909617E+02  0.12658985303E+03  0.00000000000E+00 0. -1.
</event>
<event>
 7    1  0.2679104E-009  0.1039459E+03  0.7561462E-02  0.1272210E+00
         -1   -1    0    0    0  501 -0.00000000000E+00  0.00000000000E+00  0.17554696480E+03  0.17554696480E+03  0.00000000000E+00 0.  1.
          1   -1    0    0  501    0  0.00000000000E+00 -0.00000000000E+00 -0.11278074804E+03  0.11278074804E+03  0.00000000000E+00 0. -1.
         25    2    1    2    0    0  0.24716903895E+02  0.76786257502E+02  0.72533743626E+02  0.16557542913E+03  0.12508806533E+03 0.  0.
          5    1    3    3  502    0  0.33081873359E+02  0.48588921896E+01 -0.26466318437E+02  0.42848075684E+02  0.41800000000E+01 0.  1.
         -5    1    3    3    0  502 -0.83649694632E+01  0.71927365313E+02  0.99000062063E+02  0.12272735344E+03  0.41800000000E+01 0.  1.
        -11    1    1    2    0    0 -0.72544713723E+01  0.10435599485E+02  0.24361117719E+02  0.27477138643E+02  0.00000000000E+00 0.  1.
         11    1    1    2    0    0 -0.17462432523E+02 -0.87221856987E+02 -0.34128644593E+02  0.95275145068E+02  0.00000000000E+00 0. -1.
</event>
<event>
 7    1  0.2679104E-009  0.3431705E+03  0.7561462E-02  0.1065454E+00
          2   -1    0    0  501    0  0.00000000000E+00  0.00000000000E+00  0.51510386012E+03  0.51510386012E+03  0.00000000000E+00 0.  1.
         -2   -1    0    0    0  501 -0.00000000000E+00 -0.00000000000E+00 -0.24693432567E+03  0.24693432567E+03  0.00000000000E+00 0. -1.
         25    2    1    2    0    0 -0.38347844972E+02 -0.33134404588E+03  0.20232697785E+03  0.40968617746E+03  0.12508846500E+03 0.  0.
          5    1    3    3  502    0 -0.51852521355E+02 -0.74534109997E+02  0.93539173106E+02  0.13042648055E+03  0.41800000000E+01 0.  1.
         -5    1    3    3    0  502  0.13504676384E+02 -0.25680993589E+03  0.10878780474E+03  0.27925969690E+03  0.41800000000E+01 0.  1.
        -11    1    1    2    0    0  0.50501218210E+02  0.19748795588E+03  0.76029117942E+02  0.21755985965E+03  0.00000000000E+00 0.  1.
         11    1    1    2    0    0 -0.12153373238E+02  0.13385609001E+03 -0.10186561346E+02  0.13479214868E+03  0.00000000000E+00 0. -1.
</event>
<event>
 7    1  0.2679104E-009  0.2671767E+03  0.7561462E-02  0.1102906E+00
         -2   -1    0    0    0  501 -0.00000000000E+00  0.00000000000E+00  0.46713815932E+03  0.46713815932E+03  0.00000000000E+00 0. -1.
          2   -1    0    0  501    0  0.00000000000E+00 -0.00000000000E+00 -0.18415754963E+03  0.18415754963E+03  0.00000000000E+00 0.  1.
         25    2    1    2    0    0  0.21468164934E+03  0.12954644602E+03  0.27624702348E+02  0.28156787341E+03  0.12508737314E+03 0.  0.
          5    1    3    3  502    0  0.19661414285E+03  0.14991775488E+03  0.74053668500E+01  0.24739597058E+03  0.41800000000E+01 0. -1.
         -5    1    3    3    0  502  0.18067506483E+02 -0.20371308863E+02  0.20219335498E+02  0.34171902834E+02  0.41800000000E+01 0. -1.
        -11    1    1    2    0    0 -0.62742060985E+02 -0.47900104577E+01  0.27190455088E+02  0.68548021596E+02  0.00000000000E+00 0.  1.
         11    1    1    2    0    0 -0.15193958835E+03 -0.12475643556E+03  0.22816545226E+03  0.30117981394E+03  0.00000000000E+00 0. -1.
</event>
<event>
 7    1  0.2679104E-009  0.8600768E+02  0.7561462E-02  0.1312818E+00
         -1   -1    0    0    0  501 -0.00000000000E+00  0.00000000000E+00  0.29657904146E+02  0.29657904146E+02  0.00000000000E+00 0.  1.
          1   -1    0    0  501    0  0.00000000000E+00 -0.00000000000E+00 -0.58942901568E+03  0.58942901568E+03  0.00000000000E+00 0. -1.
         25    2    1    2    0    0  0.35424572140E+01  0.14406059056E+02 -0.48196728380E+03  0.49815499957E+03  0.12508340177E+03 0.  0.
          5    1    3    3  502    0  0.29670553401E+02 -0.20085231126E+02 -0.39249821489E+02  0.53308340205E+02  0.41800000000E+01 0. -1.
         -5    1    3    3    0  502 -0.26128096187E+02  0.34491290181E+02 -0.44271746231E+03  0.44484665936E+03  0.41800000000E+01 0. -1.
        -11    1    1    2    0    0 -0.33950853522E+02  0.25384500638E+02 -0.32748817243E+02  0.53567885514E+02  0.00000000000E+00 0. -1.
         11    1    1    2    0    0  0.30408396308E+02 -0.39790559694E+02 -0.45055010485E+02  0.67364034741E+02  0.00000000000E+00 0.  1.
</event>
<event>
 7    1  0.2679104E-009  0.5912190E+02  0.7561462E-02  0.1401554E+00
          3   -1    0    0  501    0  0.00000000000E+00  0.00000000000E+00  0.41937361209E+03  0.41937361209E+03  0.00000000000E+00 0. -1.
         -3   -1    0    0    0  501 -0.00000000000E+00 -0.00000000000E+00 -0.28409563701E+02  0.28409563701E+02  0.00000000000E+00 0.  1.
         25    2    1    2    0    0 -0.19240156954E+02  0.10641596392E+01  0.26923675067E+03  0.29750183706E+03  0.12509036362E+03 0.  0.
          5    1    3    3  502    0 -0.16474388451E+01  0.26467061342E+02  0.38556421712E+00  0.26848472035E+02  0.41800000000E+01 0. -1.
         -5    1    3    3    0  502 -0.17592718109E+02 -0.25402901703E+02  0.26885118645E+03  0.27065336503E+03  0.41800000000E+01 0. -1.
        -11    1    1    2    0    0 -0.61294435629E+01  0.23870454915E+02  0.12656190550E+01  0.24677327404E+02  0.00000000000E+00 0.  1.
         11    1    1    2    0    0  0.25369600517E+02 -0.24934614554E+02  0.12046167867E+03  0.12560401132E+03  0.00000000000E+00 0. -1.
</event>
<event>
 7    1  0.2679104E-009  0.1531754E+03  0.7561462E-02  0.1196625E+00
          2   -1    0    0  501    0  0.00000000000E+00  0.00000000000E+00  0.80404275532E+03  0.80404275532E+03  0.00000000000E+00 0. -1.
         -2   -1    0    0    0  501 -0.00000000000E+00 -0.00000000000E+00 -0.38070345500E+02  0.38070345500E+02  0.00000000000E+00 0.  1.
         25    2    1    2    0    0 -0.11468270509E+03  0.76938222895E+02  0.40539709436E+03  0.44616765664E+03  0.12508861151E+03 0.  0.
          5    1    3    3  502    0  0.74808424639E+01  0.39415010860E+01 -0.57642979793E+01  0.11054318883E+02  0.41800000000E+01 0. -1.
         -5    1    3    3    0  502 -0.12216354755E+03  0.72996721809E+02  0.41116139234E+03  0.43511333776E+03  0.41800000000E+01 0. -1.
        -11    1    1    2    0    0  0.72103632493E+02 -0.67063573722E+01  0.10540553967E+03  0.12788368481E+03  0.00000000000E+00 0.  1.
         11    1    1    2    0    0  0.42579072594E+02 -0.70231865522E+02  0.25516977578E+03  0.26806175936E+03  0.00000000000E+00 0. -1.
</event>
<event>
 7    1  0.2679104E-009  0.9376120E+02  0.7561462E-02  0.1293991E+00
          2   -1    0    0  501    0  0.00000000000E+00  0.00000000000E+00  0.27639953892E+03  0.27639953892E+03  0.00000000000E+00 0.  1.
         -2   -1    0    0    0  501 -0.00000000000E+00 -0.00000000000E+00 -0.53730550864E+02  0.53730550864E+02  0.00000000000E+00 0. -1.
         25    2    1    2    0    0 -0.49252859048E+02  0.20015333614E+02  0.10123703254E+03  0.16947903949E+03  0.12509096835E+03 0.  0.
          5    1    3    3  502    0 -0.20740452479E+01  0.44259267794E+02  0.10707129289E+03  0.11595222555E+03  0.41800000000E+01 0.  1.
         -5    1    3    3    0  502 -0.47178813800E+02 -0.24243934180E+02 -0.58342603507E+01  0.53526813934E+02  0.41800000000E+01 0.  1.
        -11    1    1    2    0    0  0.46323359434E+02 -0.45042574725E+02  0.41379559145E+02  0.76726495307E+02  0.00000000000E+00 0. -1.
         11    1    1    2    0    0  0.29294996135E+01  0.25027241111E+02  0.80052396373E+02  0.83924554993E+02  0.00000000000E+00 0.  1.
</event>
<event>
 7    1  0.2679104E-009  0.8375301E+02  0.7561462E-02  0.1318726E+00
          3   -1    0    0  501    0  0.00000000000E+00  0.00000000000E+00  0.51206138163E+02  0.51206138163E+02  0.00000000000E+00 0. -1.
         -3   -1    0    0    0  501 -0.00000000000E+00 -0.00000000000E+00 -0.32684303044E+03  0.32684303044E+03  0.00000000000E+00 0.  1.
         25    2    1    2    0    0  0.28238554190E+02  0.75540488340E+01 -0.59354300495E+02  0.14150864764E+03  0.12508910733E+03 0.  0.
          5    1    3    3  502    0  0.45840580822E+02  0.32130543526E+02  0.17513847662E+02  0.58804234009E+02  0.41800000000E+01 0. -1.
         -5    1    3    3    0  502 -0.17602026633E+02 -0.24576494692E+02 -0.76868148156E+02  0.82704413630E+02  0.41800000000E+01 0. -1.
        -11    1    1    2    0    0 -0.41199304072E+02  0.23339497751E+02 -0.18407516965E+03  0.19006783760E+03  0.00000000000E+00 0.  1.
         11    1    1    2    0    0  0.12960749883E+02 -0.30893546585E+02 -0.32207422139E+02  0.46472683363E+02  0.00000000000E+00 0. -1.
</event>
<event>
 7    1  0.2679104E-009  0.8096051E+02  0.7561462E-02  0.1326348E+00
         -2   -1    0    0    0  501 -0.00000000000E+00  0.00000000000E+00  0.21128146588E+03  0.21128146588E+03  0.00000000000E+00 0.  1.
          2   -1    0    0  501    0  0.00000000000E+00 -0.00000000000E+00 -0.98540061642E+02  0.98540061642E+02  0.00000000000E+00 0. -1.
         25    2    1    2    0    0  0.12053128679E+02  0.50113235071E+01  0.16130202247E+03  0.20453702031E+03  0.12508660580E+03 0.  0.
          5    1    3    3  502    0 -0.35530052832E+00 -0.41275944048E+02  0.14930193907E+03  0.15495925660E+03  0.41800000000E+01 0.  1.
         -5    1    3    3    0  502  0.12408429207E+02  0.46287267555E+02  0.12000083400E+02  0.49577763712E+02  0.41800000000E+01 0.  1.
        -11    1    1    2    0    0  0.29745171305E+02 -0.67232791713E+01  0.11070612271E+02  0.32442813609E+02  0.00000000000E+00 0.  1.
         11    1    1    2    0    0 -0.41798299984E+02  0.17119556642E+01 -0.59631230510E+02  0.72841693596E+02  0.00000000000E+00 0. -1.
</event>
<event>
 7    1  0.2679104E-009  0.6385332E+02  0.7561462E-02  0.1382337E+00
          2   -1    0    0  501    0  0.00000000000E+00  0.00000000000E+00  0.36925952779E+03  0.36925952779E+03  0.00000000000E+00 0. -1.
         -2   -1    0    0    0  501 -0.00000000000E+00 -0.00000000000E+00 -0.46146692555E+02  0.46146692555E+02  0.00000000000E+00 0.  1.
         25    2    1    2    0    0  0.33564754900E+01  0.25461668070E+02  0.27950817710E+03  0.30729793181E+03  0.12509050867E+03 0.  0.
          5    1    3    3  502    0  0.21612519725E+02  0.45540018821E+02  0.35609799911E+02  0.61858908596E+02  0.41800000000E+01 0. -1.
         -5    1    3    3    0  502 -0.18256044235E+02 -0.20078350751E+02  0.24389837719E+03  0.24543902321E+03  0.41800000000E+01 0. -1.
        -11    1    1    2    0    0 -0.79902340270E+01  0.10620027171E+02 -0.26208578714E+02  0.29385683847E+02  0.00000000000E+00 0.  1.
         11    1    1    2    0    0  0.46337585369E+01 -0.36081695241E+02  0.69813236852E+02  0.78722604692E+02  0.00000000000E+00 0. -1.
</event>
<event>
 7    1  0.2679104E-009  0.3791291E+03  0.7561462E-02  0.1051256E+00
         -4   -1    0    0    0  501 -0.00000000000E+00  0.00000000000E+00  0.43911707185E+03  0.43911707185E+03  0.00000000000E+00 0.  1.
          4   -1    0    0  501    0  0.00000000000E+00 -0.00000000000E+00 -0.32852974993E+03  0.32852974993E+03  0.00000000000E+00 0. -1.
         25    2    1    2    0    0  0.32395061907E+03  0.16426471789E+03  0.73961841240E+02  0.39120805616E+03  0.12508592290E+03 0.  0.
          5    1    3    3  502    0  0.14715089932E+03  0.14389919351E+03  0.32263174054E+02  0.20837166281E+03  0.41800000000E+01 0.  1.
         -5    1    3    3    0  502  0.17679971975E+03  0.20365524377E+02  0.41698667186E+02  0.18283639335E+03  0.41800000000E+01 0.  1.
        -11    1    1    2    0    0 -0.23134553585E+03 -0.16074710892E+03  0.21364446911E+02  0.28251872429E+03  0.00000000000E+00 0.  1.
         11    1    1    2    0    0 -0.92605083217E+02 -0.35176089687E+01  0.15261033778E+02  0.93920041325E+02  0.00000000000E+00 0. -1.
</event>
<event>
 7    1  0.2679104E-009  0.3074168E+03  0.7561462E-02  0.1081591E+00
          2   -1    0    0  501    0  0.00000000000E+00  0.00000000000E+00  0.25786630307E+04  0.25786630307E+04  0.00000000000E+00 0. -1.
         -2   -1    0    0    0  501 -0.00000000000E+00 -0.00000000000E+00 -0.40595933177E+02  0.40595933177E+02  0.00000000000E+00 0.  1.
         25    2    1    2    0    0  0.22333276125E+03  0.19192328943E+03  0.16005292738E+04  0.16321929952E+04  0.12509174987E+03 0.  0.
          5    1    3    3  502    0  0.12644457264E+03  0.18288686389E+03  0.10891154504E+04  0.11115870509E+04  0.41800000000E+01 0.  1.
         -5    1    3    3    0  502  0.96888188612E+02  0.90364255394E+01  0.51141382343E+03  0.52060594433E+03  0.41800000000E+01 0.  1.
        -11    1    1    2    0    0 -0.13593048883E+03 -0.10473355264E+03  0.39507769315E+03  0.43073495153E+03  0.00000000000E+00 0.  1.
         11    1    1    2    0    0 -0.87402272419E+02 -0.87189736784E+02  0.54246013054E+03  0.55633101716E+03  0.00000000000E+00 0. -1.
</event>
<event>
 7    1  0.2679104E-009  0.1122884E+03  0.7561462E-02  0.1256390E+00
          1   -1    0    0  501    0  0.00000000000E+00  0.00000000000E+00  0.33019668033E+03  0.33019668033E+03  0.00000000000E+00 0. -1.
         -1   -1    0    0    0  501 -0.00000000000E+00 -0.00000000000E+00 -0.52280733754E+02  0.52280733754E+02  0.00000000000E+00 0.  1.
         25    2    1    2    0    0 -0.71645259885E+02 -0.13124377442E+02  0.16917255373E+03  0.22264678465E+03  0.12508775013E+03 0.  0.
          5    1    3    3  502    0 -0.21576791465E+02  0.36200238859E+02  0.33334105535E+01  0.42480574965E+02  0.41800000000E+01 0.  1.
         -5    1    3    3    0  502 -0.50068468420E+02 -0.49324616301E+02  0.16583914318E+03  0.18016620969E+03  0.41800000000E+01 0.  1.
        -11    1    1    2    0    0  0.80005704395E+02 -0.15938568772E+02  0.98513515962E+02  0.12790568219E+03  0.00000000000E+00 0.  1.
         11    1    1    2    0    0 -0.83604445096E+01  0.29062946214E+02  0.10229876879E+02  0.31924947236E+02  0.00000000000E+00 0. -1.
</event>
<event>
 7    1  0.2679104E-009  0.1184292E+03  0.7561462E-02  0.1245711E+00
          3   -1    0    0  501    0  0.00000000000E+00  0.00000000000E+00  0.23421260136E+03  0.23421260136E+03  0.00000000000E+00 0. -1.
         -3   -1    0    0    0  501 -0.00000000000E+00 -0.00000000000E+00 -0.10072262153E+03  0.10072262153E+03  0.00000000000E+00 0.  1.
         25    2    1    2    0    0  0.81721490210E+02 -0.22416625535E+02  0.14896171566E+03  0.21217282649E+03  0.12508720360E+03 0.  0.
          5    1    3    3  502    0  0.10848617478E+03 -0.43294142554E+02  0.11608889976E+03  0.16473535731E+03  0.41800000000E+01 0. -1.
         -5    1    3    3    0  502 -0.26764684575E+02  0.20877517019E+02  0.32872815899E+02  0.47437469182E+02  0.41800000000E+01 0. -1.
        -11    1    1    2    0    0 -0.68883117443E+02  0.13627123870E+02 -0.49118420060E+02  0.85692482534E+02  0.00000000000E+00 0.  1.
         11    1    1    2    0    0 -0.12838372767E+02  0.87895016653E+01  0.33646684229E+02  0.37069913872E+02  0.00000000000E+00 0. -1.
</event>
<event>
 7    1  0.2679104E-009  0.9058904E+02  0.7561462E-02  0.1301431E+00
          2   -1    0    0  501    0  0.00000000000E+00  0.00000000000E+00  0.18888042479E+03  0.18888042479E+03  0.00000000000E+00 0. -1.
         -2   -1    0    0    0  501 -0.00000000000E+00 -0.00000000000E+00 -0.10484095145E+03  0.10484095145E+03  0.00000000000E+00 0.  1.
         25    2    1    2    0    0 -0.11856076218E+02  0.71224098299E+00  0.15486973276E+03  0.19943201029E+03  0.12508964294E+03 0.  0.
          5    1    3    3  502    0 -0.15306556662E+02  0.59252282271E+02  0.49707452910E+02  0.78952054476E+02  0.41800000000E+01 0.  1.
         -5    1    3    3    0  502  0.34504804438E+01 -0.58540041288E+02  0.10516227985E+03  0.12047995581E+03  0.41800000000E+01 0.  1.
        -11    1    1    2    0    0  0.31915979784E+02  0.15287627073E+02 -0.49908698559E+02  0.61181855962E+02  0.00000000000E+00 0.  1.
         11    1    1    2    0    0 -0.20059903566E+02 -0.15999868056E+02 -0.20921560865E+02  0.33107509993E+02  0.00000000000E+00 0. -1.
</event>
<event>
 7    1  0.2679104E-009  0.1694196E+03  0.7561462E-02  0.1178454E+00
         -2   -1    0    0    0  501 -0.00000000000E+00  0.00000000000E+00  0.33053828135E+02  0.33053828135E+02  0.00000000000E+00 0.  1.
          2   -1    0    0  501    0  0.00000000000E+00 -0.00000000000E+00 -0.96062225075E+03  0.96062225075E+03  0.00000000000E+00 0. -1.
         25    2    1    2    0    0 -0.12136524491E+03  0.63110773664E+02 -0.60092385812E+03  0.62886083361E+03  0.12507586643E+03 0.  0.
          5    1    3    3  502    0 -0.20645624791E+02  0.76724275141E+02 -0.20027094733E+03  0.21549659153E+03  0.41800000000E+01 0. -1.
         -5    1    3    3    0  502 -0.10071962012E+03 -0.13613501477E+02 -0.40065291079E+03  0.41336424208E+03  0.41800000000E+01 0. -1.
        -11    1    1    2    0    0  0.39294302917E+02 -0.64436899090E+02 -0.11242694006E+03  0.13541038755E+03  0.00000000000E+00 0.  1.
         11    1    1    2    0    0  0.82070941994E+02  0.13261254254E+01 -0.21421762443E+03  0.22940485772E+03  0.00000000000E+00 0. -1.
</event>
<event>
 7    1  0.2679104E-009  0.1188248E+03  0.7561462E-02  0.1245048E+00
         -1   -1    0    0    0  501 -0.00000000000E+00  0.00000000000E+00  0.72233541267E+03  0.72233541267E+03  0.00000000000E+00 0.  1.
          1   -1    0    0  501    0  0.00000000000E+00 -0.00000000000E+00 -0.22037874355E+02  0.22037874355E+02  0.00000000000E+00 0. -1.
         25    2    1    2    0    0 -0.48483774280E+02 -0.39471405003E+02  0.33725478627E+03  0.36509269471E+03  0.12507284552E+03 0.  0.
          5    1    3    3  502    0  0.34361665125E+02  0.33880381166E+01  0.37559368228E+02  0.51189660813E+02  0.41800000000E+01 0.  1.
         -5    1    3    3    0  502 -0.82845439405E+02 -0.42859443120E+02  0.29969541804E+03  0.31390303390E+03  0.41800000000E+01 0.  1.
        -11    1    1    2    0    0 -0.24711854977E+02 -0.29705906158E+01  0.71497602049E+02  0.75706058435E+02  0.00000000000E+00 0.  1.
         11    1    1    2    0    0  0.73195629256E+02  0.42441995619E+02  0.29154514999E+03  0.30357453388E+03  0.00000000000E+00 0. -1.
</event>
<event>
 7    1  0.2679104E-009  0.3799095E+03  0.7561462E-02  0.1050967E+00
         -2   -1    0    0    0  501 -0.00000000000E+00  0.00000000000E+00  0.15562845032E+03  0.15562845032E+03  0.00000000000E+00 0.  1.
          2   -1    0    0  501    0  0.00000000000E+00 -0.00000000000E+00 -0.11734933220E+04  0.11734933220E+04  0.00000000000E+00 0. -1.
         25    2    1    2    0    0  0.47465543613E+02 -0.36809385442E+03 -0.79266572012E+03  0.88414516972E+03  0.12509066224E+03 0.  0.
          5    1    3    3  502    0  0.64657809771E+02 -0.36483888401E+03 -0.72601684556E+03  0.81511102071E+03  0.41800000000E+01 0. -1.
         -5    1    3    3    0  502 -0.17192266158E+02 -0.32549704130E+01 -0.66648874564E+02  0.69034149004E+02  0.41800000000E+01 0. -1.
        -11    1    1    2    0    0 -0.45169394449E+02  0.32468006033E+03 -0.23113398393E+03  0.40109890837E+03  0.00000000000E+00 0. -1.
         11    1    1    2    0    0 -0.22961491635E+01  0.43413794099E+02  0.59348323494E+01  0.43877694266E+02  0.00000000000E+00 0.  1.
</event>
<event>
 7    1  0.5232625E-009  0.1265647E+03  0.7561462E-02  0.1232644E+00
         -2   -1    0    0    0  501 -0.00000000000E+00  0.00000000000E+00  0.46390256581E+02  0.46390256581E+02  0.00000000000E+00 0.  1.
          2   -1    0    0  501    0  0.00000000000E+00 -0.00000000000E+00 -0.43646659202E+03  0.43646659202E+03  0.00000000000E+00 0. -1.
         25    2    1    2    0    0 -0.91177755543E+02  0.34991291097E+01 -0.22496217652E+03  0.27309150388E+03  0.12508141995E+03 0.  0.
          5    1    3    3  502    0 -0.10063619270E+03 -0.37336970577E+02 -0.19035812508E+03  0.21857580113E+03  0.41800000000E+01 0. -1.
         -5    1    3    3    0  502  0.94584371565E+01  0.40836099687E+02 -0.34604051436E+02  0.54515702755E+02  0.41800000000E+01 0. -1.
        -11    1    1    2    0    0  0.42364260714E+02  0.22828054801E+02 -0.14154935584E+03  0.14950608954E+03  0.00000000000E+00 0. -1.
         11    1    1    2    0    0  0.48813494829E+02 -0.26327183911E+02 -0.23564803079E+02  0.60259255175E+02  0.00000000000E+00 0.  1.
</event>
<event>
 7    1  0.2679104E-009  0.1186271E+03  0.7561462E-02  0.1245379E+00
          4   -1    0    0  501    0  0.00000000000E+00  0.00000000000E+00  0.31409214050E+02  0.31409214050E+02  0.00000000000E+00 0. -1.
         -4   -1    0    0    0  501 -0.00000000000E+00 -0.00000000000E+00 -0.56340292516E+03  0.56340292516E+03  0.00000000000E+00 0.  1.
         25    2    1    2    0    0 -0.74303408846E+02 -0.16615339617E+02 -0.29934427632E+03  0.33324375901E+03  0.12508933239E+03 0.  0.
          5    1    3    3  502    0 -0.82617197709E+02 -0.41311629831E+02 -0.29134643416E+03  0.30566725244E+03  0.41800000000E+01 0. -1.
         -5    1    3    3    0  502  0.83137888633E+01  0.24696290214E+02 -0.79978421609E+01  0.27576506574E+02  0.41800000000E+01 0. -1.
        -11    1    1    2    0    0  0.48538092571E+02  0.54246511949E+02 -0.16015925452E+03  0.17592503317E+03  0.00000000000E+00 0. -1.
         11    1    1    2    0    0  0.25765316275E+02 -0.37631172332E+02 -0.72490180272E+02  0.85643347025E+02  0.00000000000E+00 0.  1.
</event>
<event>
 7    1  0.2679104E-009  0.6754001E+02  0.7561462E-02  0.1368664E+00
         -3   -1    0    0    0  501 -0.00000000000E+00  0.00000000000E+00  0.73086523132E+02  0.73086523132E+02  0.00000000000E+00 0.  1.
          3   -1    0    0  501    0  0.00000000000E+00 -0.00000000000E+00 -0.22087759850E+03  0.22087759850E+03  0.00000000000E+00 0. -1.
         25    2    1    2    0    0 -0.24425274742E+01 -0.31955008997E+02 -0.31024554714E+02  0.13279618825E+03  0.12508083817E+03 0.  0.
          5    1    3    3  502    0 -0.78881886040E+01 -0.99410057168E+01  0.48338426736E+02  0.50151002118E+02  0.41800000000E+01 0. -1.
         -5    1    3    3    0  502  0.54456611298E+01 -0.22014003280E+02 -0.79362981450E+02  0.82645186128E+02  0.41800000000E+01 0. -1.
        -11    1    1    2    0    0 -0.12629720740E+02  0.62944413128E+02 -0.36577385111E+02  0.73887848064E+02  0.00000000000E+00 0. -1.
         11    1    1    2    0    0  0.15072248214E+02 -0.30989404131E+02 -0.80189135548E+02  0.87280085326E+02  0.00000000000E+00 0.  1.
</event>
<event>
 7    1  0.2679104E-009  0.9149908E+02  0.7561462E-02  0.1299262E+00
         -2   -1    0    0    0  501 -0.00000000000E+00  0.00000000000E+00  0.11033704672E+03  0.11033704672E+03  0.00000000000E+00 0.  1.
          2   -1    0    0  501    0  0.00000000000E+00 -0.00000000000E+00 -0.12165234973E+03  0.12165234973E+03  0.00000000000E+00 0. -1.
         25    2    1    2    0    0 -0.13725770615E+02  0.15743541693E+02  0.28040227676E+02  0.12988433835E+03  0.12508969221E+03 0.  0.
          5    1    3    3  502    0  0.16145839402E+02 -0.32286324634E+02 -0.31182522912E+02  0.47884413158E+02  0.41800000000E+01 0.  1.
         -5    1    3    3    0  502 -0.29871610017E+02  0.48029866327E+02  0.59222750588E+02  0.81999925192E+02  0.41800000000E+01 0.  1.
        -11    1    1    2    0    0  0.20291523933E+02  0.34093624052E+02 -0.24623014736E+01  0.39751529192E+02  0.00000000000E+00 0. -1.
         11    1    1    2    0    0 -0.65657533187E+01 -0.49837165745E+02 -0.36893229213E+02  0.62353528913E+02  0.00000000000E+00 0.  1.
</event>
<event>
 7    1  0.3563739E-009  0.2062926E+03  0.7561462E-02  0.1144536E+00
          2   -1    0    0  501    0  0.00000000000E+00  0.00000000000E+00  0.40916415852E+03  0.40916415852E+03  0.00000000000E+00 0. -1.
         -2   -1    0    0    0  501 -0.00000000000E+00 -0.00000000000E+00 -0.13145564506E+03  0.13145564506E+03  0.00000000000E+00 0.  1.
         25    2    1    2    0    0 -0.18885385413E+02  0.19781088949E+03  0.87261725655E+02  0.25049545809E+03  0.12509020736E+03 0.  0.
          5    1    3    3  502    0  0.69179142724E+01  0.10542632100E+03 -0.18840927541E+02  0.10740120878E+03  0.41800000000E+01 0.  1.
         -5    1    3    3    0  502 -0.25803299686E+02  0.92384568490E+02  0.10610265320E+03  0.14309424931E+03  0.41800000000E+01 0.  1.
        -11    1    1    2    0    0 -0.26528485089E+02 -0.90631676961E+02  0.47285100579E+02  0.10561127841E+03  0.00000000000E+00 0.  1.
         11    1    1    2    0    0  0.45413870502E+02 -0.10717921253E+03  0.14316168722E+03  0.18451306707E+03  0.00000000000E+00 0. -1.
</event>
<event>
 7    1  0.2679104E-009  0.1142552E+03  0.7561462E-02  0.1252887E+00
         -2   -1    0    0    0  501 -0.00000000000E+00  0.00000000000E+00  0.50033857336E+02  0.50033857336E+02  0.00000000000E+00 0.  1.
          2   -1    0    0  501    0  0.00000000000E+00 -0.00000000000E+00 -0.43741090611E+03  0.43741090611E+03  0.00000000000E+00 0. -1.
         25    2    1    2    0    0 -0.16636110560E+02  0.43700154990E+02 -0.35414262082E+03  0.37848556997E+03  0.12509143484E+03 0.  0.
          5    1    3    3  502    0 -0.66346360372E+02  0.31861646257E+02 -0.13923223094E+03  0.15754393219E+03  0.41800000000E+01 0. -1.
         -5    1    3    3    0  502  0.49710249812E+02  0.11838508734E+02 -0.21491038988E+03  0.22094163778E+03  0.41800000000E+01 0. -1.
        -11    1    1    2    0    0  0.46036690227E+02  0.53368855792E+01 -0.11154152579E+02  0.47668378560E+02  0.00000000000E+00 0.  1.
         11    1    1    2    0    0 -0.29400579667E+02 -0.49037040570E+02 -0.22080275370E+02  0.61290814916E+02  0.00000000000E+00 0. -1.
</event>
<event>
 7    1  0.2679104E-009  0.7499180E+02  0.7561462E-02  0.1343896E+00
          2   -1    0    0  501    0  0.00000000000E+00  0.00000000000E+00  0.35276934451E+03  0.35276934451E+03  0.00000000000E+00 0. -1.
         -2   -1    0    0    0  501 -0.00000000000E+00 -0.00000000000E+00 -0.39419805213E+02  0.39419805213E+02  0.00000000000E+00 0.  1.
         25    2    1    2    0    0 -0.35299598416E+02 -0.30719893269E+02  0.17641790956E+03  0.22126688375E+03  0.12508389800E+03 0.  0.
          5    1    3    3  502    0 -0.37540945803E+02  0.19278535733E+02  0.50698619114E+01  0.42710191425E+02  0.41800000000E+01 0.  1.
         -5    1    3    3    0  502  0.22413473865E+01 -0.49998429002E+02  0.17134804765E+03  0.17855669233E+03  0.41800000000E+01 0.  1.
        -11    1    1    2    0    0  0.24753629928E+02 -0.12564253993E+00 -0.50351968521E+01  0.25260862773E+02  0.00000000000E+00 0.  1.
         11    1    1    2    0    0  0.10545968488E+02  0.30845535809E+02  0.14196682659E+03  0.14566140320E+03  0.00000000000E+00 0. -1.
</event>
<event>
 7    1  0.2679104E-009  0.1235123E+03  0.7561462E-02  0.1237413E+00
         -2   -1    0    0    0  501 -0.00000000000E+00  0.00000000000E+00  0.17666848012E+02  0.17666848012E+02  0.00000000000E+00 0.  1.
          2   -1    0    0  501    0  0.00000000000E+00 -0.00000000000E+00 -0.90883885081E+03  0.90883885081E+03  0.00000000000E+00 0. -1.
         25    2    1    2    0    0 -0.10019060372E+02  0.60710665815E+02 -0.58834886047E+03  0.60463858212E+03  0.12508903575E+03 0.  0.
          5    1    3    3  502    0 -0.11658691104E+02 -0.37576493833E+02 -0.21074889040E+03  0.21443060689E+03  0.41800000000E+01 0.  1.
         -5    1    3    3    0  502  0.16396307325E+01  0.98287159648E+02 -0.37759997007E+03  0.39020797523E+03  0.41800000000E+01 0.  1.
        -11    1    1    2    0    0  0.49934516031E+02 -0.40696144363E+02 -0.17969758931E+03  0.19089488118E+03  0.00000000000E+00 0.  1.
         11    1    1    2    0    0 -0.39915455659E+02 -0.20014521452E+02 -0.12312555302E+03  0.13097223552E+03  0.00000000000E+00 0. -1.
</event>
<event>
 7    1  0.2679104E-009  0.9992047E+02  0.7561462E-02  0.1280463E+00
         -2   -1    0    0    0  501 -0.00000000000E+00  0.00000000000E+00  0.37543830086E+02  0.37543830086E+02  0.00000000000E+00 0.  1.
          2   -1    0    0  501    0  0.00000000000E+00 -0.00000000000E+00 -0.52701938017E+03  0.52701938017E+03  0.00000000000E+00 0. -1.
         25    2    1    2    0    0 -0.80544057248E+02 -0.28356136341E+02 -0.32346172047E+03  0.35716399444E+03  0.12508884317E+03 0.  0.
          5    1    3    3  502    0 -0.18616271890E+02 -0.10682105768E+02 -0.27646708662E+03  0.27733048038E+03  0.41800000000E+01 0.  1.
         -5    1    3    3    0  502 -0.61927785358E+02 -0.17674030573E+02 -0.46994633854E+02  0.79833514059E+02  0.41800000000E+01 0.  1.
        -11    1    1    2    0    0  0.21995428249E+01 -0.20822009174E+02 -0.47195048149E+01  0.21463172654E+02  0.00000000000E+00 0.  1.
         11    1    1    2    0    0  0.78344514423E+02  0.49178145515E+02 -0.16129432480E+03  0.18593604316E+03  0.00000000000E+00 0. -1.
</event>
<event>
 7    1  0.2679104E-009  0.1162450E+03  0.7561462E-02  0.1249423E+00
         -2   -1    0    0    0  501 -0.00000000000E+00  0.00000000000E+00  0.46570607482E+02  0.46570607482E+02  0.00000000000E+00 0.  1.
          2   -1    0    0  501    0  0.00000000000E+00 -0.00000000000E+00 -0.38405707267E+03  0.38405707267E+03  0.00000000000E+00 0. -1.
         25    2    1    2    0    0 -0.29688046727E+02 -0.51372357057E+02 -0.26580230397E+03  0.29969771699E+03  0.12508939837E+03 0.  0.
          5    1    3    3  502    0  0.72780931836E+01  0.31243408454E+02 -0.14572058668E+03  0.14926849298E+03  0.41800000000E+01 0. -1.
         -5    1    3    3    0  502 -0.36966139911E+02 -0.82615765512E+02 -0.12008171729E+03  0.15042922402E+03  0.41800000000E+01 0. -1.
        -11    1    1    2    0    0 -0.28540511922E+02  0.41662730198E+02 -0.34565079725E+02  0.61197129382E+02  0.00000000000E+00 0. -1.
         11    1    1    2    0    0  0.58228558649E+02  0.97096268596E+01 -0.37119081495E+02  0.69732833781E+02  0.00000000000E+00 0.  1.
</event>
<event>
 7    1  0.2679104E-009  0.1025915E+03  0.7561462E-02  0.1274939E+00
         -1   -1    0    0    0  501 -0.00000000000E+00  0.00000000000E+00  0.61084884952E+02  0.61084884952E+02  0.00000000000E+00 0.  1.
          1   -1    0    0  501    0  0.00000000000E+00 -0.00000000000E+00 -0.22204194575E+03  0.22204194575E+03  0.00000000000E+00 0. -1.
         25    2    1    2    0    0 -0.22704837208E+02  0.13120738535E+02 -0.54273726562E+02  0.13885256536E+03  0.12508690618E+03 0.  0.
          5    1    3    3  502    0 -0.42329334225E+02  0.51875760715E+02 -0.65534305819E+02  0.93782113033E+02  0.41800000000E+01 0. -1.
         -5    1    3    3    0  502  0.19624497017E+02 -0.38755022180E+02  0.11260579257E+02  0.45070452323E+02  0.41800000000E+01 0. -1.
        -11    1    1    2    0    0 -0.76958803109E+01 -0.47756250984E+02 -0.37769964755E+02  0.61371461767E+02  0.00000000000E+00 0.  1.
         11    1    1    2    0    0  0.30400717519E+02  0.34635512449E+02 -0.68913369481E+02  0.82902803581E+02  0.00000000000E+00 0. -1.
</event>
<event>
 7    1  0.2679104E-009  0.7933181E+02  0.7561462E-02  0.1330958E+00
          2   -1    0    0  501    0  0.00000000000E+00  0.00000000000E+00  0.58636952162E+03  0.58636952162E+03  0.00000000000E+00 0. -1.
         -2   -1    0    0    0  501 -0.00000000000E+00 -0.00000000000E+00 -0.50856423294E+02  0.50856423294E+02  0.00000000000E+00 0.  1.
         25    2    1    2    0    0  0.78725842430E+01 -0.26999547009E+02  0.52606103601E+03  0.54145953910E+03  0.12508903129E+03 0.  0.
          5    1    3    3  502    0  0.80588562161E+01  0.22895883831E+02  0.16965467797E+02  0.29907627079E+02  0.41800000000E+01 0. -1.
         -5    1    3    3    0  502 -0.18627197308E+00 -0.49895430840E+02  0.50909556822E+03  0.51155191202E+03  0.41800000000E+01 0. -1.
        -11    1    1    2    0    0 -0.12722794658E+01  0.55091455472E+02 -0.15900776364E+02  0.57354353366E+02  0.00000000000E+00 0. -1.
         11    1    1    2    0    0 -0.66003047773E+01 -0.28091908463E+02  0.25352838680E+02  0.38412052450E+02  0.00000000000E+00 0.  1.
</event>
<event>
 7    1  0.2679104E-009  0.2574864E+03  0.7561462E-02  0.1108663E+00
          2   -1    0    0  501    0  0.00000000000E+00  0.00000000000E+00  0.11332374794E+04  0.11332374794E+04  0.00000000000E+00 0. -1.
         -2   -1    0    0    0  501 -0.00000000000E+00 -0.00000000000E+00 -0.64695268071E+02  0.64695268071E+02  0.00000000000E+00 0.  1.
         25    2    1    2    0    0  0.11495019541E+03 -0.21111877543E+03  0.41539224366E+03  0.49596602095E+03  0.12508754164E+03 0.  0.
          5    1    3    3  502    0  0.10760222671E+03 -0.82268978920E+02  0.26579958648E+03  0.29835099574E+03  0.41800000000E+01 0.  1.
         -5    1    3    3    0  502  0.73479687070E+01 -0.12884979652E+03  0.14959265718E+03  0.19761502521E+03  0.41800000000E+01 0.  1.
        -11    1    1    2    0    0 -0.52015576775E+02  0.33440701359E+02  0.99924885562E+02  0.11751120580E+03  0.00000000000E+00 0.  1.
         11    1    1    2    0    0 -0.62934618639E+02  0.17767807408E+03  0.55322508213E+03  0.58445552074E+03  0.00000000000E+00 0. -1.
</event>
<event>
 7    1  0.2679104E-009  0.7016559E+02  0.7561462E-02  0.1359531E+00
         -1   -1    0    0    0  501 -0.00000000000E+00  0.00000000000E+00  0.44365679019E+03  0.44365679019E+03  0.00000000000E+00 0.  1.
          1   -1    0    0  501    0  0.00000000000E+00 -0.00000000000E+00 -0.27294082506E+02  0.27294082506E+02  0.00000000000E+00 0. -1.
         25    2    1    2    0    0  0.20076635421E+01 -0.14836893220E+02  0.28403807881E+03  0.31072394039E+03  0.12509025862E+03 0.  0.
          5    1    3    3  502    0  0.18764539377E+02  0.16237496660E+02  0.27204207119E+03  0.27320345008E+03  0.41800000000E+01 0.  1.
         -5    1    3    3    0  502 -0.16756875835E+02 -0.31074389881E+02  0.11996007615E+02  0.37520490307E+02  0.41800000000E+01 0.  1.
        -11    1    1    2    0    0 -0.39981536109E+02  0.10885836743E+02  0.10611213922E+03  0.11391580558E+03  0.00000000000E+00 0.  1.
         11    1    1    2    0    0  0.37973872567E+02  0.39510564776E+01  0.26212489655E+02  0.46311126729E+02  0.00000000000E+00 0. -1.
</event>
<event>
 7    1  0.2679104E-009  0.1142554E+03  0.7561462E-02  0.1252886E+00
          1   -1    0    0  501    0  0.00000000000E+00  0.00000000000E+00  0.13778131959E+03  0.13778131959E+03  0.00000000000E+00 0. -1.
         -1   -1    0    0    0  501 -0.00000000000E+00 -0.00000000000E+00 -0.95716777524E+02  0.95716777524E+02  0.00000000000E+00 0.  1.
         25    2    1    2    0    0 -0.13866575221E+02  0.34586307041E+02  0.31446557888E+02  0.13425576694E+03  0.12508889003E+03 0.  0.
          5    1    3    3  502    0  0.36743060578E+02  0.61993954938E+02  0.24002092677E+02  0.76071517682E+02  0.41800000000E+01 0.  1.
         -5    1    3    3    0  502 -0.50609635800E+02 -0.27407647896E+02  0.74444652109E+01  0.58184249254E+02  0.41800000000E+01 0.  1.
        -11    1    1    2    0    0 -0.33315845652E+02 -0.38927179793E+02  0.71504475493E+01  0.51733932755E+02  0.00000000000E+00 0.  1.
         11    1    1    2    0    0  0.47182420873E+02  0.43408727514E+01  0.34675366307E+01  0.47508397425E+02  0.00000000000E+00 0. -1.
</event>
<event>
 7    1  0.2679104E-009  0.2844479E+03  0.7561462E-02  0.1093284E+00
          4   -1    0    0  501    0  0.00000000000E+00  0.00000000000E+00  0.35653559158E+03  0.35653559158E+03  0.00000000000E+00 0. -1.
         -4   -1    0    0    0  501 -0.00000000000E+00 -0.00000000000E+00 -0.23938191049E+03  0.23938191049E+03  0.00000000000E+00 0.  1.
         25    2    1    2    0    0 -0.99474350614E+02 -0.25165497228E+03  0.51961875964E+02  0.30261074292E+03  0.12509138131E+03 0.  0.
          5    1    3    3  502    0 -0.11959441110E+03 -0.25005421046E+03  0.44922433008E+02  0.28082989286E+03  0.41800000000E+01 0.  1.
         -5    1    3    3    0  502  0.20120060491E+02 -0.16007618225E+01  0.70394429566E+01  0.21780850068E+02  0.41800000000E+01 0.  1.
        -11    1    1    2    0    0  0.34741636712E+02  0.10929567197E+03  0.74311262190E+02  0.13665536550E+03  0.00000000000E+00 0.  1.
         11    1    1    2    0    0  0.64732713902E+02  0.14235930031E+03 -0.91194570698E+01  0.15665139365E+03  0.00000000000E+00 0. -1.
</event>
<event>
 7    1  0.2679104E-009  0.8496552E+02  0.7561462E-02  0.1315523E+00
         -1   -1    0    0    0  501 -0.00000000000E+00  0.00000000000E+00  0.37498966138E+03  0.37498966138E+03  0.00000000000E+00 0.  1.
          1   -1    0    0  501    0  0.00000000000E+00 -0.00000000000E+00 -0.46484912014E+02  0.46484912014E+02  0.00000000000E+00 0. -1.
         25    2    1    2    0    0 -0.15973886648E+02  0.72870911405E+02  0.19228111027E+03  0.24121573365E+03  0.12509064718E+03 0.  0.
          5    1    3    3  502    0 -0.11001969310E+02  0.52584529607E+02  0.65671862565E+01  0.54284218867E+02  0.41800000000E+01 0.  1.
         -5    1    3    3    0  502 -0.49719173375E+01  0.20286381798E+02  0.18571392401E+03  0.18693151479E+03  0.41800000000E+01 0.  1.
        -11    1    1    2    0    0  0.15390522176E+02  0.55207573892E+01 -0.63609629925E+01  0.17544480192E+02  0.00000000000E+00 0. -1.
         11    1    1    2    0    0  0.58336447154E+00 -0.78391668794E+02  0.14258460209E+03  0.16271435955E+03  0.00000000000E+00 0.  1.
</event>
<event>
 7    1  0.2679104E-009  0.1495258E+03  0.7561462E-02  0.1201057E+00
          2   -1    0    0  501    0  0.00000000000E+00  0.00000000000E+00  0.82046584340E+03  0.82046584340E+03  0.00000000000E+00 0.  1.
         -2   -1    0    0    0  501 -0.00000000000E+00 -0.00000000000E+00 -0.27653253409E+02  0.27653253409E+02  0.00000000000E+00 0. -1.
         25    2    1    2    0    0 -0.64010435687E+02 -0.81966914692E+02  0.38826511252E+03  0.42096666078E+03  0.12508885205E+03 0.  0.
          5    1    3    3  502    0  0.35826109212E+02 -0.63147380472E+01  0.72092428967E+02  0.80858992896E+02  0.41800000000E+01 0.  1.
         -5    1    3    3    0  502 -0.99836544899E+02 -0.75652176645E+02  0.31617268355E+03  0.34010766788E+03  0.41800000000E+01 0.  1.
        -11    1    1    2    0    0  0.33125538474E+02  0.97182187078E+02  0.30038445847E+03  0.31744684858E+03  0.00000000000E+00 0.  1.
         11    1    1    2    0    0  0.30884897213E+02 -0.15215272386E+02  0.10416301901E+03  0.10970558745E+03  0.00000000000E+00 0. -1.
</event>
<event>
 7    1  0.2679104E-009  0.1094758E+03  0.7561462E-02  0.1261544E+00
         -3   -1    0    0    0  501 -0.00000000000E+00  0.00000000000E+00  0.13082672100E+03  0.13082672100E+03  0.00000000000E+00 0.  1.
          3   -1    0    0  501    0  0.00000000000E+00 -0.00000000000E+00 -0.11668822832E+03  0.11668822832E+03  0.00000000000E+00 0. -1.
         25    2    1    2    0    0  0.32059614710E+02  0.19732547128E+02  0.52152996310E+02  0.14065898683E+03  0.12509125965E+03 0.  0.
          5    1    3    3  502    0  0.39906539324E+02  0.68813995175E+02  0.40818917173E+02  0.89507285804E+02  0.41800000000E+01 0.  1.
         -5    1    3    3    0  502 -0.78469246143E+01 -0.49081448048E+02  0.11334079137E+02  0.51151701030E+02  0.41800000000E+01 0.  1.
        -11    1    1    2    0    0  0.27540776925E+02 -0.78819790175E+01  0.89977525134E+01  0.30026314079E+02  0.00000000000E+00 0.  1.
         11    1    1    2    0    0 -0.59600391635E+02 -0.11850568110E+02 -0.47012256138E+02  0.76829648410E+02  0.00000000000E+00 0. -1.
</event>
<event>
 7    1  0.2679104E-009  0.1419209E+03  0.7561462E-02  0.1210767E+00
         -1   -1    0    0    0  501 -0.00000000000E+00  0.00000000000E+00  0.10264095921E+02  0.10264095921E+02  0.00000000000E+00 0.  1.
          1   -1    0    0  501    0  0.00000000000E+00 -0.00000000000E+00 -0.25725441411E+04  0.25725441411E+04  0.00000000000E+00 0. -1.
         25    2    1    2    0    0  0.55821406633E+02  0.91804350216E+02 -0.18413626122E+04  0.18487316520E+04  0.12509349899E+03 0.  0.
          5    1    3    3  502    0 -0.17266392998E+02  0.65284998669E+02 -0.13043567093E+04  0.13061103157E+04  0.41800000000E+01 0. -1.
         -5    1    3    3    0  502  0.73087799631E+02  0.26519351547E+02 -0.53700590286E+03  0.54262133626E+03  0.41800000000E+01 0. -1.
        -11    1    1    2    0    0  0.17767016398E+02 -0.51368109460E+02 -0.29303826873E+03  0.29803653548E+03  0.00000000000E+00 0.  1.
         11    1    1    2    0    0 -0.73588423031E+02 -0.40436240756E+02 -0.42787916428E+03  0.43604004953E+03  0.00000000000E+00 0. -1.
</event>
<event>
 7    1  0.2950193E-009  0.1242209E+03  0.7561462E-02  0.1236292E+00
          2   -1    0    0  501    0  0.00000000000E+00  0.00000000000E+00  0.29140654808E+03  0.29140654808E+03  0.00000000000E+00 0. -1.
         -2   -1    0    0    0  501 -0.00000000000E+00 -0.00000000000E+00 -0.67350277973E+02  0.67350277973E+02  0.00000000000E+00 0.  1.
         25    2    1    2    0    0 -0.41606311480E+02  0.46566573025E+02  0.42454518238E+02  0.14611373987E+03  0.12508920010E+03 0.  0.
          5    1    3    3  502    0 -0.38842930608E+02 -0.38171418849E+02  0.11938118361E+02  0.55909047078E+02  0.41800000000E+01 0. -1.
         -5    1    3    3    0  502 -0.27633808715E+01  0.84737991874E+02  0.30516399877E+02  0.90204692794E+02  0.41800000000E+01 0. -1.
        -11    1    1    2    0    0  0.46410330063E+02  0.13768873021E+02  0.62611383432E+02  0.79143451631E+02  0.00000000000E+00 0.  1.
         11    1    1    2    0    0 -0.48040185836E+01 -0.60335446046E+02  0.11899036844E+03  0.13349963455E+03  0.00000000000E+00 0. -1.
</event>
<event>
 7    1  0.2843677E-009  0.1403273E+03  0.7561462E-02  0.1212889E+00
          1   -1    0    0  501    0  0.00000000000E+00  0.00000000000E+00  0.66809719233E+03  0.66809719233E+03  0.00000000000E+00 0. -1.
         -1   -1    0    0    0  501 -0.00000000000E+00 -0.00000000000E+00 -0.40160379253E+02  0.40160379253E+02  0.00000000000E+00 0.  1.
         25    2    1    2    0    0  0.40699690669E+02  0.11332021242E+03  0.28974071158E+03  0.33778301437E+03  0.12509895878E+03 0.  0.
          5    1    3    3  502    0 -0.12291967976E+02  0.83618946225E+02  0.70182701532E+02  0.10993773073E+03  0.41800000000E+01 0.  1.
         -5    1    3    3    0  502  0.52991658645E+02  0.29701266195E+02  0.21955801005E+03  0.22784528364E+03  0.41800000000E+01 0.  1.
        -11    1    1    2    0    0 -0.45116618415E+02 -0.36061963334E+02  0.67024602301E+02  0.88477521271E+02  0.00000000000E+00 0.  1.
         11    1    1    2    0    0  0.44169277455E+01 -0.77258249087E+02  0.27117149919E+03  0.28199703593E+03  0.00000000000E+00 0. -1.
</event>
<event>
 7    1  0.2679104E-009  0.5637580E+02  0.7561462E-02  0.1413702E+00
          3   -1    0    0  501    0  0.00000000000E+00  0.00000000000E+00  0.11446266747E+03  0.11446266747E+03  0.00000000000E+00 0. -1.
         -3   -1    0    0    0  501 -0.00000000000E+00 -0.00000000000E+00 -0.11320442292E+03  0.11320442292E+03  0.00000000000E+00 0.  1.
         25    2    1    2    0    0  0.75393099359E+01 -0.14811931336E+02 -0.30714744248E+02  0.12987786062E+03  0.12509447894E+03 0.  0.
          5    1    3    3  502    0 -0.31245191588E+01 -0.22283436896E+02 -0.77670020738E+02  0.80971715440E+02  0.41800000000E+01 0. -1.
         -5    1    3    3    0  502  0.10663829095E+02  0.74715055603E+01  0.46955276490E+02  0.48906145181E+02  0.41800000000E+01 0. -1.
        -11    1    1    2    0    0 -0.30647739812E+02 -0.18387089445E+02 -0.12321332513E+02  0.37804553281E+02  0.00000000000E+00 0.  1.
         11    1    1    2    0    0  0.23108429876E+02  0.33199020781E+02  0.44294321313E+02  0.59984676483E+02  0.00000000000E+00 0. -1.
</event>
<event>
 7    1  0.2862139E-009  0.1719551E+03  0.7561462E-02  0.1175824E+00
         -1   -1    0    0    0  501 -0.00000000000E+00  0.00000000000E+00  0.43413203379E+02  0.43413203379E+02  0.00000000000E+00 0.  1.
          1   -1    0    0  501    0  0.00000000000E+00 -0.00000000000E+00 -0.79735720420E+03  0.79735720420E+03  0.00000000000E+00 0. -1.
         25    2    1    2    0    0 -0.13873862271E+03 -0.59137964546E+02 -0.41499177126E+03  0.45892379525E+03  0.12508866995E+03 0.  0.
          5    1    3    3  502    0  0.14595467278E+02  0.14344758373E+02 -0.20219035468E+02  0.29070286429E+02  0.41800000000E+01 0.  1.
         -5    1    3    3    0  502 -0.15333408999E+03 -0.73482722919E+02 -0.39477273579E+03  0.42985350882E+03  0.41800000000E+01 0.  1.
        -11    1    1    2    0    0  0.33638218492E+02  0.29635910045E+01 -0.15531551587E+02  0.37169096164E+02  0.00000000000E+00 0. -1.
         11    1    1    2    0    0  0.10510040422E+03  0.56174373541E+02 -0.32342067798E+03  0.34467751617E+03  0.00000000000E+00 0.  1.
</event>
<event>
 7    1  0.2679104E-009  0.1299657E+03  0.7561462E-02  0.1227507E+00
         -2   -1    0    0    0  501 -0.00000000000E+00  0.00000000000E+00  0.33058940847E+02  0.33058940847E+02  0.00000000000E+00 0.  1.
          2   -1    0    0  501    0  0.00000000000E+00 -0.00000000000E+00 -0.64710455377E+03  0.64710455377E+03  0.00000000000E+00 0. -1.
         25    2    1    2    0    0 -0.45293790256E+02 -0.78156923926E+02 -0.24382587459E+03  0.28854376238E+03  0.12508562465E+03 0.  0.
          5    1    3    3  502    0 -0.51163356821E+02  0.79155358397E+01 -0.35198699808E+02  0.62743650333E+02  0.41800000000E+01 0.  1.
         -5    1    3    3    0  502  0.58695665649E+01 -0.86072459766E+02 -0.20862717478E+03  0.22580011205E+03  0.41800000000E+01 0.  1.
        -11    1    1    2    0    0 -0.86146560084E+01  0.65733922328E+02 -0.14084261950E+03  0.15566568122E+03  0.00000000000E+00 0.  1.
         11    1    1    2    0    0  0.53908446265E+02  0.12423001598E+02 -0.22937711883E+03  0.23595405102E+03  0.00000000000E+00 0. -1.
</event>
<event>
 7    1  0.2679104E-009  0.3015186E+03  0.7561462E-02  0.1084484E+00
          1   -1    0    0  501    0  0.00000000000E+00  0.00000000000E+00  0.35935364072E+03  0.35935364072E+03  0.00000000000E+00 0. -1.
         -1   -1    0    0    0  501 -0.00000000000E+00 -0.00000000000E+00 -0.26736409280E+03  0.26736409280E+03  0.00000000000E+00 0.  1.
         25    2    1    2    0    0  0.57591137541E+02  0.28151136135E+03  0.87113409747E+02  0.32527118989E+03  0.12508882894E+03 0.  0.
          5    1    3    3  502    0  0.29738077596E+00  0.22858978675E+03  0.34794958888E+02  0.23126076322E+03  0.41800000000E+01 0.  1.
         -5    1    3    3    0  502  0.57293756765E+02  0.52921574595E+02  0.52318450860E+02  0.94010426668E+02  0.41800000000E+01 0.  1.
        -11    1    1    2    0    0  0.10800306251E+02 -0.12542911350E+03 -0.25236856596E+02  0.12839785068E+03  0.00000000000E+00 0. -1.
         11    1    1    2    0    0 -0.68391443792E+02 -0.15608224784E+03  0.30112994767E+02  0.17304869294E+03  0.00000000000E+00 0.  1.
</event>
<event>
 7    1  0.2679104E-009  0.1082263E+03  0.7561462E-02  0.1263890E+00
         -2   -1    0    0    0  501 -0.00000000000E+00  0.00000000000E+00  0.44147010230E+02  0.44147010230E+02  0.00000000000E+00 0.  1.
          2   -1    0    0  501    0  0.00000000000E+00 -0.00000000000E+00 -0.44509447586E+03  0.44509447586E+03  0.00000000000E+00 0. -1.
         25    2    1    2    0    0 -0.82770465661E+02  0.19566063952E+02 -0.20801073228E+03  0.25719628182E+03  0.12509069428E+03 0.  0.
          5    1    3    3  502    0 -0.97115187048E+02  0.14932017443E+02 -0.21763888851E+03  0.23882730768E+03  0.41800000000E+01 0.  1.
         -5    1    3    3    0  502  0.14344721387E+02  0.46340465091E+01  0.96281562312E+01  0.18368974145E+02  0.41800000000E+01 0.  1.
        -11    1    1    2    0    0  0.43156724073E+02 -0.39154567442E+02 -0.34849925499E+02  0.67897719340E+02  0.00000000000E+00 0.  1.
         11    1    1    2    0    0  0.39613741588E+02  0.19588503490E+02 -0.15808680785E+03  0.16414748493E+03  0.00000000000E+00 0. -1.
</event>
<event>
 7    1  0.3011747E-009  0.1655915E+03  0.7561462E-02  0.1182525E+00
         -2   -1    0    0    0  501 -0.00000000000E+00  0.00000000000E+00  0.50843397211E+02  0.50843397211E+02  0.00000000000E+00 0.  1.
          2   -1    0    0  501    0  0.00000000000E+00 -0.00000000000E+00 -0.75995907469E+03  0.75995907469E+03  0.00000000000E+00 0. -1.
         25    2    1    2    0    0 -0.33655719911E+02 -0.14884916837E+03 -0.25054290232E+03  0.31892122655E+03  0.12510084105E+03 0.  0.
          5    1    3    3  502    0  0.25708423804E+01 -0.35936394537E+02 -0.17395291825E+03  0.17769390493E+03  0.41800000000E+01 0. -1.
         -5    1    3    3    0  502 -0.36226562291E+02 -0.11291277383E+03 -0.76589984071E+02  0.14122732161E+03  0.41800000000E+01 0. -1.
        -11    1    1    2    0    0 -0.30362432175E+02  0.49388897834E+02 -0.12067478279E+03  0.13387883970E+03  0.00000000000E+00 0.  1.
         11    1    1    2    0    0  0.64018152085E+02  0.99460270535E+02 -0.33789799236E+03  0.35800240565E+03  0.00000000000E+00 0. -1.
</event>
<event>
 7    1  0.2679104E-009  0.9354816E+02  0.7561462E-02  0.1294480E+00
         -1   -1    0    0    0  501 -0.00000000000E+00  0.00000000000E+00  0.11608459524E+03  0.11608459524E+03  0.00000000000E+00 0.  1.
          1   -1    0    0  501    0  0.00000000000E+00 -0.00000000000E+00 -0.12428771205E+03  0.12428771205E+03  0.00000000000E+00 0. -1.
         25    2    1    2    0    0  0.19145214135E+02  0.22624928727E+02 -0.38875987145E+02  0.13430246838E+03  0.12508950400E+03 0.  0.
          5    1    3    3  502    0 -0.50824834265E+02  0.10828804093E+02  0.22499441336E+01  0.52182002882E+02  0.41800000000E+01 0.  1.
         -5    1    3    3    0  502  0.69970048400E+02  0.11796124634E+02 -0.41125931279E+02  0.82120465494E+02  0.41800000000E+01 0.  1.
        -11    1    1    2    0    0 -0.11510641929E+02 -0.41740540370E+02  0.57673525501E+02  0.72117980641E+02  0.00000000000E+00 0.  1.
         11    1    1    2    0    0 -0.76345722058E+01  0.19115611643E+02 -0.27000655163E+02  0.33951858277E+02  0.00000000000E+00 0. -1.
</event>
<event>
 7    1  0.2683439E-009  0.1189381E+03  0.7561462E-02  0.1244859E+00
         -2   -1    0    0    0  501 -0.00000000000E+00  0.00000000000E+00  0.27138913966E+02  0.27138913966E+02  0.00000000000E+00 0.  1.
          2   -1    0    0  501    0  0.00000000000E+00 -0.00000000000E+00 -0.70899583152E+03  0.70899583152E+03  0.00000000000E+00 0. -1.
         25    2    1    2    0    0 -0.69695897585E+02 -0.11537209382E+02 -0.50486253428E+03  0.52490434672E+03  0.12509104421E+03 0.  0.
          5    1    3    3  502    0 -0.83382522568E+02 -0.53511407788E+02 -0.35971948436E+03  0.37313763635E+03  0.41800000000E+01 0.  1.
         -5    1    3    3    0  502  0.13686624982E+02  0.41974198406E+02 -0.14514304993E+03  0.15176671037E+03  0.41800000000E+01 0.  1.
        -11    1    1    2    0    0  0.77602530379E+01 -0.22424372255E+02 -0.36002348259E+01  0.24000743510E+02  0.00000000000E+00 0.  1.
         11    1    1    2    0    0  0.61935644547E+02  0.33961581636E+02 -0.17339414844E+03  0.18722965526E+03  0.00000000000E+00 0. -1.
</event>
<event>
 7    1  0.2679104E-009  0.1740557E+03  0.7561462E-02  0.1173683E+00
          2   -1    0    0  501    0  0.00000000000E+00  0.00000000000E+00  0.41333199503E+03  0.41333199503E+03  0.00000000000E+00 0.  1.
         -2   -1    0    0    0  501 -0.00000000000E+00 -0.00000000000E+00 -0.12213743850E+03  0.12213743850E+03  0.00000000000E+00 0. -1.
         25    2    1    2    0    0  0.96103068329E+02 -0.14236487244E+03  0.26491362489E+03  0.33960347875E+03  0.12509091687E+03 0.  0.
          5    1    3    3  502    0  0.90564998553E+02 -0.11285339760E+03  0.11015970116E+03  0.18190805500E+03  0.41800000000E+01 0. -1.
         -5    1    3    3    0  502  0.55380697759E+01 -0.29511474835E+02  0.15475392373E+03  0.15769542376E+03  0.41800000000E+01 0. -1.
        -11    1    1    2    0    0 -0.29849353592E+02  0.62534732640E+02  0.54722675193E+02  0.88295797615E+02  0.00000000000E+00 0.  1.
         11    1    1    2    0    0 -0.66253714737E+02  0.79830139799E+02 -0.28441743551E+02  0.10757015717E+03  0.00000000000E+00 0. -1.
</event>
<event>
 7    1  0.2679104E-009  0.1357937E+03  0.7561462E-02  0.1219104E+00
          2   -1    0    0  501    0  0.00000000000E+00  0.00000000000E+00  0.51717555017E+02  0.51717555017E+02  0.00000000000E+00 0. -1.
         -2   -1    0    0    0  501 -0.00000000000E+00 -0.00000000000E+00 -0.51361715695E+03  0.51361715695E+03  0.00000000000E+00 0.  1.
         25    2    1    2    0    0  0.99422893168E+01  0.11948652562E+03 -0.21567065592E+03  0.27665388703E+03  0.12509061701E+03 0.  0.
          5    1    3    3  502    0 -0.34868984404E+02  0.88090433640E+02 -0.61550963913E+02  0.11305646435E+03  0.41800000000E+01 0.  1.
         -5    1    3    3    0  502  0.44811273721E+02  0.31396091977E+02 -0.15411969201E+03  0.16359742269E+03  0.41800000000E+01 0.  1.
        -11    1    1    2    0    0  0.68905010368E+01 -0.26437728556E+02 -0.15464908219E+03  0.15704385094E+03  0.00000000000E+00 0.  1.
         11    1    1    2    0    0 -0.16832790354E+02 -0.93048797060E+02 -0.91579863822E+02  0.13163697400E+03  0.00000000000E+00 0. -1.
</event>
<event>
 7    1  0.2679104E-009  0.1107319E+03  0.7561462E-02  0.1259220E+00
          1   -1    0    0  501    0  0.00000000000E+00  0.00000000000E+00  0.58771390080E+03  0.58771390080E+03  0.00000000000E+00 0. -1.
         -1   -1    0    0    0  501 -0.00000000000E+00 -0.00000000000E+00 -0.22504809386E+02  0.22504809386E+02  0.00000000000E+00 0.  1.
         25    2    1    2    0    0 -0.37523614026E+01  0.32405948708E+02  0.36637367560E+03  0.38851084264E+03  0.12508708544E+03 0.  0.
          5    1    3    3  502    0  0.59985325290E+02  0.91770132418E+01  0.15646348167E+03  0.16787123136E+03  0.41800000000E+01 0.  1.
         -5    1    3    3    0  502 -0.63737686692E+02  0.23228935467E+02  0.20991019393E+03  0.22063961127E+03  0.41800000000E+01 0.  1.
        -11    1    1    2    0    0 -0.31589239478E+01 -0.62100739578E+02  0.16412223092E+03  0.17550665896E+03  0.00000000000E+00 0. -1.
         11    1    1    2    0    0  0.69112853504E+01  0.29694790869E+02  0.34713184895E+02  0.46201208594E+02  0.00000000000E+00 0.  1.
</event>
<event>
 7    1  0.2679104E-009  0.1564785E+03  0.7561462E-02  0.1192731E+00
          2   -1    0    0  501    0  0.00000000000E+00  0.00000000000E+00  0.52467252559E+03  0.52467252559E+03  0.00000000000E+00 0. -1.
         -2   -1    0    0    0  501 -0.00000000000E+00 -0.00000000000E+00 -0.61578542680E+02  0.61578542680E+02  0.00000000000E+00 0.  1.
         25    2    1    2    0    0 -0.13649395928E+03 -0.17337899069E+02  0.30863136807E+03  0.36032168553E+03  0.12508873669E+03 0.  0.
          5    1    3    3  502    0 -0.63819221058E+02  0.45996272245E+02  0.80546198640E+02  0.11266637720E+03  0.41800000000E+01 0.  1.
         -5    1    3    3    0  502 -0.72674738224E+02 -0.63334171314E+02  0.22808516943E+03  0.24765530833E+03  0.41800000000E+01 0.  1.
        -11    1    1    2    0    0  0.19839001724E+02  0.68139057870E+00  0.88881627179E+02  0.91071367248E+02  0.00000000000E+00 0. -1.
         11    1    1    2    0    0  0.11665495756E+03  0.16656508491E+02  0.65580987664E+02  0.13485801549E+03  0.00000000000E+00 0.  1.
</event>
<event>
 7    1  0.2679104E-009  0.1248446E+03  0.7561462E-02  0.1235312E+00
         -1   -1    0    0    0  501 -0.00000000000E+00  0.00000000000E+00  0.17434759365E+02  0.17434759365E+02  0.00000000000E+00 0.  1.
          1   -1    0    0  501    0  0.00000000000E+00 -0.00000000000E+00 -0.11365259784E+04  0.11365259784E+04  0.00000000000E+00 0. -1.
         25    2    1    2    0    0 -0.53180959391E+02  0.67314450171E+02 -0.72338828295E+03  0.73911974824E+03  0.12509174509E+03 0.  0.
          5    1    3    3  502    0 -0.18601570237E+02 -0.24553064767E+02 -0.52019372079E+02  0.60599990728E+02  0.41800000000E+01 0. -1.
         -5    1    3    3    0  502 -0.34579389154E+02  0.91867514938E+02 -0.67136891087E+03  0.67851975751E+03  0.41800000000E+01 0. -1.
        -11    1    1    2    0    0  0.69423542511E+02 -0.22964023923E+02 -0.18539000785E+03  0.19928981324E+03  0.00000000000E+00 0.  1.
         11    1    1    2    0    0 -0.16242583121E+02 -0.44350426248E+02 -0.21031292822E+03  0.21555117627E+03  0.00000000000E+00 0. -1.
</event>
<event>
 7    1  0.2679104E-009  0.1380138E+03  0.7561462E-02  0.1216027E+00
          2   -1    0    0  501    0  0.00000000000E+00  0.00000000000E+00  0.19574589033E+04  0.19574589033E+04  0.00000000000E+00 0. -1.
         -2   -1    0    0    0  501 -0.00000000000E+00 -0.00000000000E+00 -0.16324631443E+02  0.16324631443E+02  0.00000000000E+00 0.  1.
         25    2    1    2    0    0 -0.26909086089E+02 -0.93796997506E+02  0.15760880554E+04  0.15840526116E+04  0.12508853875E+03 0.  0.
          5    1    3    3  502    0 -0.65097271798E+02 -0.44323996049E+02  0.12162015409E+04  0.12187558952E+04  0.41800000000E+01 0. -1.
         -5    1    3    3    0  502  0.38188185709E+02 -0.49473001457E+02  0.35988651445E+03  0.36529671650E+03  0.41800000000E+01 0. -1.
        -11    1    1    2    0    0  0.44955751895E+02  0.65487700839E+01  0.15624600077E+03  0.16271668253E+03  0.00000000000E+00 0.  1.
         11    1    1    2    0    0 -0.18046665806E+02  0.87248227422E+02  0.20880021570E+03  0.22701424055E+03  0.00000000000E+00 0. -1.
</event>
<event>
 7    1  0.3231355E-009  0.1054411E+03  0.7561462E-02  0.1269253E+00
          1   -1    0    0  501    0  0.00000000000E+00  0.00000000000E+00  0.15885557291E+04  0.15885557291E+04  0.00000000000E+00 0. -1.
         -1   -1    0    0    0  501 -0.00000000000E+00 -0.00000000000E+00 -0.98336177276E+01  0.98336177276E+01  0.00000000000E+00 0.  1.
         25    2    1    2    0    0 -0.26354260576E+02 -0.22113683963E+02  0.12194172067E+04  0.12262990145E+04  0.12508951572E+03 0.  0.
          5    1    3    3  502    0 -0.43609225710E+02  0.41143393048E+02  0.73386873185E+03  0.73632556070E+03  0.41800000000E+01 0. -1.
         -5    1    3    3    0  502  0.17254965134E+02 -0.63257077011E+02  0.48554847483E+03  0.48997345379E+03  0.41800000000E+01 0. -1.
        -11    1    1    2    0    0 -0.27315810651E+02  0.14338601563E+02  0.55634389527E+02  0.63615519367E+02  0.00000000000E+00 0.  1.
         11    1    1    2    0    0  0.53670071226E+02  0.77750824008E+01  0.30367051522E+03  0.30847481302E+03  0.00000000000E+00 0. -1.
</event>
<event>
 7    1  0.2679104E-009  0.8107185E+02  0.7561462E-02  0.1326037E+00
          3   -1    0    0  501    0  0.00000000000E+00  0.00000000000E+00  0.20551854448E+02  0.20551854448E+02  0.00000000000E+00 0. -1.
         -3   -1    0    0    0  501 -0.00000000000E+00 -0.00000000000E+00 -0.65905987514E+03  0.65905987514E+03  0.00000000000E+00 0.  1.
         25    2    1    2    0    0  0.26247555676E+02  0.32380463031E+02 -0.32750180090E+03  0.35304499621E+03  0.12508361680E+03 0.  0.
          5    1    3    3  502    0 -0.16653655604E+02  0.17568598859E+02 -0.23093246511E+01  0.24673980044E+02  0.41800000000E+01 0. -1.
         -5    1    3    3    0  502  0.42901211280E+02  0.14811864172E+02 -0.32519247625E+03  0.32837101617E+03  0.41800000000E+01 0. -1.
        -11    1    1    2    0    0 -0.52033485972E+02 -0.18903500267E+01 -0.11089524888E+03  0.12251046205E+03  0.00000000000E+00 0. -1.
         11    1    1    2    0    0  0.25785930296E+02 -0.30490113004E+02 -0.20011097091E+03  0.20405627133E+03  0.00000000000E+00 0.  1.
</event>
<event>
 7    1  0.2679104E-009  0.7023839E+02  0.7561462E-02  0.1359284E+00
          2   -1    0    0  501    0  0.00000000000E+00  0.00000000000E+00  0.41440866294E+03  0.41440866294E+03  0.00000000000E+00 0. -1.
         -2   -1    0    0    0  501 -0.00000000000E+00 -0.00000000000E+00 -0.34318460522E+02  0.34318460522E+02  0.00000000000E+00 0.  1.
         25    2    1    2    0    0 -0.23005650296E+02 -0.27881907213E+02  0.26857156546E+03  0.29846385400E+03  0.12507328122E+03 0.  0.
          5    1    3    3  502    0 -0.95829263959E+01  0.61614614183E+01  0.26046855672E+03  0.26075110263E+03  0.41800000000E+01 0. -1.
         -5    1    3    3    0  502 -0.13422723900E+02 -0.34043368631E+02  0.81030087372E+01  0.37712751361E+02  0.41800000000E+01 0. -1.
        -11    1    1    2    0    0 -0.11993037854E+02 -0.25211332598E+02  0.84734737114E+01  0.29176086185E+02  0.00000000000E+00 0. -1.
         11    1    1    2    0    0  0.34998688149E+02  0.53093239811E+02  0.10304516324E+03  0.12108718328E+03  0.00000000000E+00 0.  1.
</event>
<event>
 7    1  0.2679104E-009  0.8675292E+02  0.7561462E-02  0.1310911E+00
         -1   -1    0    0    0  501 -0.00000000000E+00  0.00000000000E+00  0.21239311689E+02  0.21239311689E+02  0.00000000000E+00 0.  1.
          1   -1    0    0  501    0  0.00000000000E+00 -0.00000000000E+00 -0.72099401153E+03  0.72099401153E+03  0.00000000000E+00 0. -1.
         25    2    1    2    0    0  0.49369552502E+02 -0.28772144428E+02 -0.44871028901E+03  0.46931232168E+03  0.12509173758E+03 0.  0.
          5    1    3    3  502    0  0.52686336021E+02 -0.94901842257E+01 -0.61736265113E+02  0.81821466805E+02  0.41800000000E+01 0. -1.
         -5    1    3    3    0  502 -0.33167835191E+01 -0.19281960202E+02 -0.38697402390E+03  0.38749085488E+03  0.41800000000E+01 0. -1.
        -11    1    1    2    0    0  0.36769678938E+01  0.44360381724E+02 -0.16289255775E+03  0.16886488365E+03  0.00000000000E+00 0. -1.
         11    1    1    2    0    0 -0.53046520396E+02 -0.15588237297E+02 -0.88151853076E+02  0.10405611788E+03  0.00000000000E+00 0.  1.
</event>
<event>
 7    1  0.2679104E-009  0.8271294E+02  0.7561462E-02  0.1321524E+00
         -1   -1    0    0    0  501 -0.00000000000E+00  0.00000000000E+00  0.41163981018E+02  0.41163981018E+02  0.00000000000E+00 0.  1.
          1   -1    0    0  501    0  0.00000000000E+00 -0.00000000000E+00 -0.29202569562E+03  0.29202569562E+03  0.00000000000E+00 0. -1.
         25    2    1    2    0    0  0.57205773994E+01  0.71412485095E+01 -0.16903587003E+03  0.21048645358E+03  0.12509076443E+03 0.  0.
          5    1    3    3  502    0 -0.47478091566E+02 -0.31536131311E+02 -0.58420294927E+02  0.81725761032E+02  0.41800000000E+01 0.  1.
         -5    1    3    3    0  502  0.53198668966E+02  0.38677379821E+02 -0.11061557510E+03  0.12876069254E+03  0.41800000000E+01 0.  1.
        -11    1    1    2    0    0  0.17070892646E+02 -0.93641308803E+01  0.14127007606E+02  0.24055657688E+02  0.00000000000E+00 0.  1.
         11    1    1    2    0    0 -0.22791470046E+02  0.22228823708E+01 -0.95952852180E+02  0.98647565375E+02  0.00000000000E+00 0. -1.
</event>
<event>
 7    1  0.2679104E-009  0.1064708E+03  0.7561462E-02  0.1267249E+00
          3   -1    0    0  501    0  0.00000000000E+00  0.00000000000E+00  0.13505894941E+03  0.13505894941E+03  0.00000000000E+00 0. -1.
         -3   -1    0    0    0  501 -0.00000000000E+00 -0.00000000000E+00 -0.17425130453E+03  0.17425130453E+03  0.00000000000E+00 0.  1.
         25    2    1    2    0    0 -0.50984572247E+02 -0.28502999916E+02  0.69827137221E+02  0.15470826385E+03  0.12508784993E+03 0.  0.
          5    1    3    3  502    0 -0.68369895237E+02  0.28981156147E+02  0.21249080445E+02  0.77352089863E+02  0.41800000000E+01 0.  1.
         -5    1    3    3    0  502  0.17385322990E+02 -0.57484156063E+02  0.48578056776E+02  0.77356173987E+02  0.41800000000E+01 0.  1.
        -11    1    1    2    0    0  0.39064444805E+02 -0.80774847308E+01 -0.10906195798E+03  0.11612832250E+03  0.00000000000E+00 0.  1.
         11    1    1    2    0    0  0.11920127442E+02  0.36580484647E+02  0.42465634080E-01  0.38473667600E+02  0.00000000000E+00 0. -1.
</event>
<event>
 7    1  0.2679104E-009  0.1067794E+03  0.7561462E-02  0.1266653E+00
          1   -1    0    0  501    0  0.00000000000E+00  0.00000000000E+00  0.47888802451E+02  0.47888802451E+02  0.00000000000E+00 0. -1.
         -1   -1    0    0    0  501 -0.00000000000E+00 -0.00000000000E+00 -0.52021208818E+03  0.52021208818E+03  0.00000000000E+00 0.  1.
         25    2    1    2    0    0 -0.62128295574E+02 -0.65156797750E+02 -0.38272732748E+03  0.41259333763E+03  0.12509085358E+03 0.  0.
          5    1    3    3  502    0 -0.56567216681E+02 -0.75869984491E+01 -0.32767411314E+03  0.33263374659E+03  0.41800000000E+01 0.  1.
         -5    1    3    3    0  502 -0.55610788924E+01 -0.57569799301E+02 -0.55053214348E+02  0.79959591044E+02  0.41800000000E+01 0.  1.
        -11    1    1    2    0    0  0.44799753299E+02  0.67337228528E+02 -0.10478069738E+03  0.13236432596E+03  0.00000000000E+00 0.  1.
         11    1    1    2    0    0  0.17328542274E+02 -0.21804307785E+01  0.15184739133E+02  0.23143227050E+02  0.00000000000E+00 0. -1.
</event>
<event>
 7    1  0.2679104E-009  0.1549958E+03  0.7561462E-02  0.1194465E+00
         -3   -1    0    0    0  501 -0.00000000000E+00  0.00000000000E+00  0.41956380366E+03  0.41956380366E+03  0.00000000000E+00 0.  1.
          3   -1    0    0  501    0  0.00000000000E+00 -0.00000000000E+00 -0.86064570650E+02  0.86064570650E+02  0.00000000000E+00 0. -1.
         25    2    1    2    0    0 -0.14038936014E+03 -0.40796296598E+02  0.11045809711E+03  0.22186110941E+03  0.12509136818E+03 0.  0.
          5    1    3    3  502    0 -0.37478506998E+02 -0.11471308046E+02  0.10775475390E+03  0.11473791345E+03  0.41800000000E+01 0.  1.
         -5    1    3    3    0  502 -0.10291085314E+03 -0.29324988552E+02  0.27033432143E+01  0.10712319596E+03  0.41800000000E+01 0.  1.
        -11    1    1    2    0    0  0.89938680286E+02  0.61496629983E+02  0.19268381967E+03  0.22135459352E+03  0.00000000000E+00 0.  1.
         11    1    1    2    0    0  0.50450679853E+02 -0.20700333386E+02  0.30357316225E+02  0.62412671376E+02  0.00000000000E+00 0. -1.
</event>
<event>
 7    1  0.2679104E-009  0.1596957E+03  0.7561462E-02  0.1189041E+00
         -2   -1    0    0    0  501 -0.00000000000E+00  0.00000000000E+00  0.12597788001E+03  0.12597788001E+03  0.00000000000E+00 0.  1.
          2   -1    0    0  501    0  0.00000000000E+00 -0.00000000000E+00 -0.27016139836E+03  0.27016139836E+03  0.00000000000E+00 0. -1.
         25    2    1    2    0    0 -0.11664330005E+03  0.59998603403E+02  0.71013177636E+00  0.18125400767E+03  0.12508804560E+03 0.  0.
          5    1    3    3  502    0 -0.13099204090E+03  0.74945127821E+02 -0.19232743189E+02  0.15219414500E+03  0.41800000000E+01 0. -1.
         -5    1    3    3    0  502  0.14348740852E+02 -0.14946524418E+02  0.19942874966E+02  0.29059862665E+02  0.41800000000E+01 0. -1.
        -11    1    1    2    0    0  0.11487477095E+03 -0.32030337314E+02 -0.78377436299E+02  0.14270661523E+03  0.00000000000E+00 0.  1.
         11    1    1    2    0    0  0.17685290937E+01 -0.27968266090E+02 -0.66516213832E+02  0.72178655472E+02  0.00000000000E+00 0. -1.
</event>
<event>
 7    1  0.2794815E-009  0.9311636E+02  0.7561462E-02  0.1295476E+00
          2   -1    0    0  501    0  0.00000000000E+00  0.00000000000E+00  0.96985902663E+03  0.96985902663E+03  0.00000000000E+00 0. -1.
         -2   -1    0    0    0  501 -0.00000000000E+00 -0.00000000000E+00 -0.21906591005E+02  0.21906591005E+02  0.00000000000E+00 0.  1.
         25    2    1    2    0    0 -0.20794205539E+02  0.77127515565E+02  0.70568972559E+03  0.72112901637E+03  0.12509203332E+03 0.  0.
          5    1    3    3  502    0 -0.27439158956E+02  0.14999312848E+02  0.57849249430E+03  0.57935215991E+03  0.41800000000E+01 0.  1.
         -5    1    3    3    0  502  0.66449534162E+01  0.62128202716E+02  0.12719723129E+03  0.14177685646E+03  0.41800000000E+01 0.  1.
        -11    1    1    2    0    0 -0.14663905212E+02 -0.19493062123E+02  0.63429179852E+01  0.25204011497E+02  0.00000000000E+00 0.  1.
         11    1    1    2    0    0  0.35458110751E+02 -0.57634453442E+02  0.23591979204E+03  0.24543258977E+03  0.00000000000E+00 0. -1.
</event>
<event>
 7    1  0.2679104E-009  0.1106471E+03  0.7561462E-02  0.1259376E+00
         -1   -1    0    0    0  501 -0.00000000000E+00  0.00000000000E+00  0.13043228418E+02  0.13043228418E+02  0.00000000000E+00 0.  1.
          1   -1    0    0  501    0  0.00000000000E+00 -0.00000000000E+00 -0.18597676961E+04  0.18597676961E+04  0.00000000000E+00 0. -1.
         25    2    1    2    0    0  0.64736845442E+02 -0.17428430883E+02 -0.15140767341E+04  0.15207137273E+04  0.12508906467E+03 0.  0.
          5    1    3    3  502    0  0.84301892036E+02 -0.22824343570E+02 -0.59373194631E+03  0.60013569810E+03  0.41800000000E+01 0.  1.
         -5    1    3    3    0  502 -0.19565046593E+02  0.53959126869E+01 -0.92034478781E+03  0.92057802916E+03  0.41800000000E+01 0.  1.
        -11    1    1    2    0    0 -0.87351688431E+02  0.53937186814E+01 -0.28309342644E+03  0.29631283767E+03  0.00000000000E+00 0.  1.
         11    1    1    2    0    0  0.22614842989E+02  0.12034712202E+02 -0.49554307134E+02  0.55784359606E+02  0.00000000000E+00 0. -1.
</event>
<event>
 7    1  0.2679104E-009  0.8634791E+02  0.7561462E-02  0.1311945E+00
          2   -1    0    0  501    0  0.00000000000E+00  0.00000000000E+00  0.11446777543E+03  0.11446777543E+03  0.00000000000E+00 0.  1.
         -2   -1    0    0    0  501 -0.00000000000E+00 -0.00000000000E+00 -0.14785329286E+03  0.14785329286E+03  0.00000000000E+00 0. -1.
         25    2    1    2    0    0 -0.26852186702E+02 -0.71118386012E+01  0.47975129303E+02  0.13682317132E+03  0.12508936406E+03 0.  0.
          5    1    3    3  502    0 -0.80717121248E+01  0.46907190298E+02 -0.16489353992E+02  0.50545110874E+02  0.41800000000E+01 0.  1.
         -5    1    3    3    0  502 -0.18780474577E+02 -0.54019028899E+02  0.64464483295E+02  0.86278060450E+02  0.41800000000E+01 0.  1.
        -11    1    1    2    0    0 -0.13849765048E+02 -0.15682630649E+02  0.97925059895E+01  0.23100953865E+02  0.00000000000E+00 0.  1.
         11    1    1    2    0    0  0.40701951749E+02  0.22794469250E+02 -0.91153152719E+02  0.10239694309E+03  0.00000000000E+00 0. -1.
</event>
<event>
 7    1  0.2679104E-009  0.6528229E+02  0.7561462E-02  0.1376913E+00
          2   -1    0    0  501    0  0.00000000000E+00  0.00000000000E+00  0.13868732956E+03  0.13868732956E+03  0.00000000000E+00 0.  1.
         -2   -1    0    0    0  501 -0.00000000000E+00 -0.00000000000E+00 -0.78349977880E+02  0.78349977880E+02  0.00000000000E+00 0. -1.
         25    2    1    2    0    0 -0.14288280294E+02  0.17351903343E+02  0.46559387012E+02  0.13534041741E+03  0.12507601113E+03 0.  0.
          5    1    3    3  502    0 -0.38581299772E+02  0.38530871977E+02 -0.22408126588E+02  0.59099418986E+02  0.41800000000E+01 0. -1.
         -5    1    3    3    0  502  0.24293019478E+02 -0.21178968633E+02  0.68967513600E+02  0.76240998419E+02  0.41800000000E+01 0. -1.
        -11    1    1    2    0    0  0.28953983617E+00  0.11398359453E+02  0.39213324819E+02  0.40837375955E+02  0.00000000000E+00 0.  1.
         11    1    1    2    0    0  0.13998740458E+02 -0.28750262797E+02 -0.25435360147E+02  0.40859514083E+02  0.00000000000E+00 0. -1.
</event>
<event>
 7    1  0.2679104E-009  0.1116354E+03  0.7561462E-02  0.1257571E+00
          2   -1    0    0  501    0  0.00000000000E+00  0.00000000000E+00  0.47489656179E+03  0.47489656179E+03  0.00000000000E+00 0. -1.
         -2   -1    0    0    0  501 -0.00000000000E+00 -0.00000000000E+00 -0.46623775703E+02  0.46623775703E+02  0.00000000000E+00 0.  1.
         25    2    1    2    0    0 -0.11480801599E+02 -0.23504561088E+02  0.60274839533E+02  0.14129774502E+03  0.12509086006E+03 0.  0.
          5    1    3    3  502    0  0.43953916540E+02 -0.49540259378E+02  0.33281545737E+02  0.74238250014E+02  0.41800000000E+01 0. -1.
         -5    1    3    3    0  502 -0.55434718139E+02  0.26035698291E+02  0.26993293796E+02  0.67059495007E+02  0.41800000000E+01 0. -1.
        -11    1    1    2    0    0 -0.13668138475E+01 -0.35302962048E+02  0.14520086319E+03  0.14943713722E+03  0.00000000000E+00 0. -1.
         11    1    1    2    0    0  0.12847615447E+02  0.58807523136E+02  0.22279708336E+03  0.23078545525E+03  0.00000000000E+00 0.  1.
</event>
<event>
 7    1  0.2679104E-009  0.2048885E+03  0.7561462E-02  0.1145679E+00
          1   -1    0    0  501    0  0.00000000000E+00  0.00000000000E+00  0.16484043575E+04  0.16484043575E+04  0.00000000000E+00 0. -1.
         -1   -1    0    0    0  501 -0.00000000000E+00 -0.00000000000E+00 -0.31205707004E+02  0.31205707004E+02  0.00000000000E+00 0.  1.
         25    2    1    2    0    0 -0.96049363548E+02  0.14616996368E+03  0.48831452687E+03  0.53356358809E+03  0.12509151398E+03 0.  0.
          5    1    3    3  502    0 -0.94713141937E+02  0.16655027300E+03  0.46064288960E+03  0.49891774555E+03  0.41800000000E+01 0.  1.
         -5    1    3    3    0  502 -0.13362216115E+01 -0.20380309319E+02  0.27671637270E+02  0.34645842540E+02  0.41800000000E+01 0.  1.
        -11    1    1    2    0    0 -0.16236869290E+02 -0.38219806284E+02  0.21258080721E+03  0.21659868215E+03  0.00000000000E+00 0.  1.
         11    1    1    2    0    0  0.11228623284E+03 -0.10795015739E+03  0.91630331637E+03  0.92944779421E+03  0.00000000000E+00 0. -1.
</event>
<event>
 7    1  0.2679104E-009  0.1095586E+03  0.7561462E-02  0.1261390E+00
          1   -1    0    0  501    0  0.00000000000E+00  0.00000000000E+00  0.92923041386E+02  0.92923041386E+02  0.00000000000E+00 0. -1.
         -1   -1    0    0    0  501 -0.00000000000E+00 -0.00000000000E+00 -0.23297001221E+03  0.23297001221E+03  0.00000000000E+00 0.  1.
         25    2    1    2    0    0 -0.97838801318E+02 -0.25312873282E+00 -0.98101226319E+02  0.18667364430E+03  0.12510277277E+03 0.  0.
          5    1    3    3  502    0 -0.42932644622E+01  0.17217662718E+02 -0.89154870842E+02  0.90999689143E+02  0.41800000000E+01 0. -1.
         -5    1    3    3    0  502 -0.93545536856E+02 -0.17470791451E+02 -0.89463554774E+01  0.95673955160E+02  0.41800000000E+01 0. -1.
        -11    1    1    2    0    0  0.46755708806E+02  0.20014854943E+02 -0.62622858953E+02  0.80674117212E+02  0.00000000000E+00 0.  1.
         11    1    1    2    0    0  0.51083092512E+02 -0.19761726210E+02  0.20677114446E+02  0.58545292084E+02  0.00000000000E+00 0. -1.
</event>
<event>
 7    1  0.2679104E-009  0.7067299E+02  0.7561462E-02  0.1357819E+00
          1   -1    0    0  501    0  0.00000000000E+00  0.00000000000E+00  0.58225630845E+03  0.58225630845E+03  0.00000000000E+00 0. -1.
         -1   -1    0    0    0  501 -0.00000000000E+00 -0.00000000000E+00 -0.19479886203E+02  0.19479886203E+02  0.00000000000E+00 0.  1.
         25    2    1    2    0    0  0.14698710651E+02  0.16190741465E+02  0.30870987788E+03  0.33380853181E+03  0.12509258573E+03 0.  0.
          5    1    3    3  502    0 -0.81097499912E+00  0.35659831767E+02  0.14842824489E+02  0.38859530632E+02  0.41800000000E+01 0.  1.
         -5    1    3    3    0  502  0.15509685650E+02 -0.19469090302E+02  0.29386705339E+03  0.29494900118E+03  0.41800000000E+01 0.  1.
        -11    1    1    2    0    0  0.30778764307E+02  0.28071803037E+01  0.14477243222E+03  0.14803469095E+03  0.00000000000E+00 0. -1.
         11    1    1    2    0    0 -0.45477474958E+02 -0.18997921769E+02  0.10929411215E+03  0.11989297190E+03  0.00000000000E+00 0.  1.
</event>
<event>
 7    1  0.2679104E-009  0.1631882E+03  0.7561462E-02  0.1185144E+00
         -1   -1    0    0    0  501 -0.00000000000E+00  0.00000000000E+00  0.58085758460E+02  0.58085758460E+02  0.00000000000E+00 0.  1.
          1   -1    0    0  501    0  0.00000000000E+00 -0.00000000000E+00 -0.66247655479E+03  0.66247655479E+03  0.00000000000E+00 0. -1.
         25    2    1    2    0    0 -0.80802817656E+02  0.13150916467E+03 -0.22111302057E+03  0.29725911286E+03  0.12509299174E+03 0.  0.
          5    1    3    3  502    0  0.55262906476E+01 -0.54410869708E+01  0.11089231970E+02  0.14162936893E+02  0.41800000000E+01 0.  1.
         -5    1    3    3    0  502 -0.86329108303E+02  0.13695025164E+03 -0.23220225254E+03  0.28309617597E+03  0.41800000000E+01 0.  1.
        -11    1    1    2    0    0  0.50632462650E+02 -0.99467051003E+02 -0.15607394552E+03  0.19187604587E+03  0.00000000000E+00 0.  1.
         11    1    1    2    0    0  0.30170355006E+02 -0.32042113669E+02 -0.22720383025E+03  0.23142715452E+03  0.00000000000E+00 0. -1.
</event>
<event>
 7    1  0.2679104E-009  0.1323512E+03  0.7561462E-02  0.1224008E+00
         -1   -1    0    0    0  501 -0.00000000000E+00  0.00000000000E+00  0.49157450563E+03  0.49157450563E+03  0.00000000000E+00 0. -1.
          1   -1    0    0  501    0  0.00000000000E+00 -0.00000000000E+00 -0.57850730108E+02  0.57850730108E+02  0.00000000000E+00 0.  1.
         25    2    1    2    0    0 -0.82203704881E+02 -0.66980002668E+01  0.39052795126E+03  0.41828434352E+03  0.12508956398E+03 0.  0.
          5    1    3    3  502    0 -0.75967185121E+02  0.50993202910E+02  0.24475939787E+03  0.26133494830E+03  0.41800000000E+01 0. -1.
         -5    1    3    3    0  502 -0.62365197599E+01 -0.57691203176E+02  0.14576855339E+03  0.15694939522E+03  0.41800000000E+01 0. -1.
        -11    1    1    2    0    0  0.95750398840E+02 -0.65660045647E+01  0.14965510557E+02  0.97135049288E+02  0.00000000000E+00 0.  1.
         11    1    1    2    0    0 -0.13546693959E+02  0.13264004832E+02  0.28230313703E+02  0.34005842926E+02  0.00000000000E+00 0. -1.
</event>
<event>
 7    1  0.2679104E-009  0.1386260E+03  0.7561462E-02  0.1215190E+00
          2   -1    0    0  501    0  0.00000000000E+00  0.00000000000E+00  0.89219691431E+03  0.89219691431E+03  0.00000000000E+00 0.  1.
         -2   -1    0    0    0  501 -0.00000000000E+00 -0.00000000000E+00 -0.34646143300E+02  0.34646143300E+02  0.00000000000E+00 0. -1.
         25    2    1    2    0    0 -0.56739265115E+02 -0.10614156757E+03  0.63973371486E+03  0.66286639109E+03  0.12508896810E+03 0.  0.
          5    1    3    3  502    0  0.16515450719E+02 -0.63671930033E+02  0.12613793816E+03  0.14232050671E+03  0.41800000000E+01 0.  1.
         -5    1    3    3    0  502 -0.73254715834E+02 -0.42469637533E+02  0.51359577670E+03  0.52054588439E+03  0.41800000000E+01 0.  1.
        -11    1    1    2    0    0  0.24411587940E+01  0.43887317351E+02  0.15237784608E+03  0.15859086940E+03  0.00000000000E+00 0.  1.
         11    1    1    2    0    0  0.54298106321E+02  0.62254250215E+02  0.65439210067E+02  0.10538579712E+03  0.00000000000E+00 0. -1.
</event>
<event>
 7    1  0.2679104E-009  0.9241296E+02  0.7561462E-02  0.1297111E+00
         -2   -1    0    0    0  501 -0.00000000000E+00  0.00000000000E+00  0.47467452610E+03  0.47467452610E+03  0.00000000000E+00 0.  1.
          2   -1    0    0  501    0  0.00000000000E+00 -0.00000000000E+00 -0.28087340545E+02  0.28087340545E+02  0.00000000000E+00 0. -1.
         25    2    1    2    0    0  0.10883780271E+02  0.38991600218E+02  0.25705651933E+03  0.28872902153E+03  0.12509033607E+03 0.  0.
          5    1    3    3  502    0 -0.32217581669E+01 -0.22024590940E+02 -0.14669953356E+01  0.22695523944E+02  0.41800000000E+01 0.  1.
         -5    1    3    3    0  502  0.14105538438E+02  0.61016191159E+02  0.25852351467E+03  0.26603349758E+03  0.41800000000E+01 0.  1.
        -11    1    1    2    0    0  0.40007180884E+02 -0.11788477541E+02  0.77097285612E+02  0.87655770909E+02  0.00000000000E+00 0. -1.
         11    1    1    2    0    0 -0.50890961154E+02 -0.27203122677E+02  0.11243338060E+03  0.12637707421E+03  0.00000000000E+00 0.  1.
</event>
<event>
 7    1  0.2679104E-009  0.3200642E+03  0.7561462E-02  0.1075620E+00
          2   -1    0    0  501    0  0.00000000000E+00  0.00000000000E+00  0.91195159195E+03  0.91195159195E+03  0.00000000000E+00 0. -1.
         -2   -1    0    0    0  501 -0.00000000000E+00 -0.00000000000E+00 -0.11734917700E+03  0.11734917700E+03  0.00000000000E+00 0.  1.
         25    2    1    2    0    0  0.27775543266E+03 -0.13358477340E+03  0.39478005830E+03  0.51622836325E+03  0.12508979389E+03 0.  0.
          5    1    3    3  502    0  0.19384517301E+02  0.21397782185E+02  0.53715978599E+02  0.61126944552E+02  0.41800000000E+01 0.  1.
         -5    1    3    3    0  502  0.25837091536E+03 -0.15498255559E+03  0.34106407970E+03  0.45510141870E+03  0.41800000000E+01 0.  1.
        -11    1    1    2    0    0 -0.78897873754E+02  0.53135923220E+02  0.19262818123E+03  0.21483462715E+03  0.00000000000E+00 0.  1.
         11    1    1    2    0    0 -0.19885755890E+03  0.80448850183E+02  0.20719417542E+03  0.29823777855E+03  0.00000000000E+00 0. -1.
</event>
<event>
 7    1  0.2679104E-009  0.9915848E+02  0.7561462E-02  0.1282076E+00
          2   -1    0    0  501    0  0.00000000000E+00  0.00000000000E+00  0.33118724565E+03  0.33118724565E+03  0.00000000000E+00 0. -1.
         -2   -1    0    0    0  501 -0.00000000000E+00 -0.00000000000E+00 -0.37798691404E+02  0.37798691404E+02  0.00000000000E+00 0.  1.
         25    2    1    2    0    0 -0.13438179644E+02 -0.18644327694E+02  0.15860212685E+03  0.20329888466E+03  0.12509039225E+03 0.  0.
          5    1    3    3  502    0 -0.59648210316E+01  0.44214330591E+02  0.12220173487E+03  0.13015845160E+03  0.41800000000E+01 0. -1.
         -5    1    3    3    0  502 -0.74733586120E+01 -0.62858658285E+02  0.36400391985E+02  0.73140433052E+02  0.41800000000E+01 0. -1.
        -11    1    1    2    0    0 -0.35424051516E+02  0.20941909738E+02  0.91662573839E+02  0.10047613872E+03  0.00000000000E+00 0. -1.
         11    1    1    2    0    0  0.48862231160E+02 -0.22975820446E+01  0.43123853551E+02  0.65210913674E+02  0.00000000000E+00 0.  1.
</event>
<event>
 7    1  0.2679104E-009  0.1112068E+03  0.7561462E-02  0.1258351E+00
          1   -1    0    0  501    0  0.00000000000E+00  0.00000000000E+00  0.19435641908E+03  0.19435641908E+03  0.00000000000E+00 0. -1.
         -1   -1    0    0    0  501 -0.00000000000E+00 -0.00000000000E+00 -0.10146118853E+03  0.10146118853E+03  0.00000000000E+00 0.  1.
         25    2    1    2    0    0  0.37818491452E+02 -0.38903805490E+02  0.12395266727E+03  0.18427097117E+03  0.12509109767E+03 0.  0.
          5    1    3    3  502    0 -0.27647575052E+02 -0.55143824762E+02  0.30494898747E+02  0.68939401399E+02  0.41800000000E+01 0.  1.
         -5    1    3    3    0  502  0.65466066504E+02  0.16240019272E+02  0.93457768519E+02  0.11533156977E+03  0.41800000000E+01 0.  1.
        -11    1    1    2    0    0 -0.50211228384E+02 -0.20149362733E+01 -0.44088382108E+02  0.66850675845E+02  0.00000000000E+00 0.  1.
         11    1    1    2    0    0  0.12392736932E+02  0.40918741764E+02  0.13030945393E+02  0.44695960601E+02  0.00000000000E+00 0. -1.
</event>
<event>
 7    1  0.2690836E-009  0.2072427E+03  0.7561462E-02  0.1143768E+00
          2   -1    0    0  501    0  0.00000000000E+00  0.00000000000E+00  0.12869553503E+04  0.12869553503E+04  0.00000000000E+00 0. -1.
         -2   -1    0    0    0  501 -0.00000000000E+00 -0.00000000000E+00 -0.37352654706E+02  0.37352654706E+02  0.00000000000E+00 0.  1.
         25    2    1    2    0    0 -0.62552789422E+01  0.18882721085E+03  0.71216311767E+03  0.74734096685E+03  0.12508944996E+03 0.  0.
          5    1    3    3  502    0 -0.63150598040E+02  0.12297720642E+03  0.39938007540E+03  0.42265033818E+03  0.41800000000E+01 0. -1.
         -5    1    3    3    0  502  0.56895319098E+02  0.65850004425E+02  0.31278304226E+03  0.32469062867E+03  0.41800000000E+01 0. -1.
        -11    1    1    2    0    0 -0.15615704372E+00 -0.97977610340E+02  0.15145924751E+03  0.18038719514E+03  0.00000000000E+00 0.  1.
         11    1    1    2    0    0  0.64114359860E+01 -0.90849600506E+02  0.38598033043E+03  0.39657984304E+03  0.00000000000E+00 0. -1.
</event>
<event>
 7    1  0.2679104E-009  0.9728174E+02  0.7561462E-02  0.1286118E+00
          2   -1    0    0  501    0  0.00000000000E+00  0.00000000000E+00  0.49003407676E+03  0.49003407676E+03  0.00000000000E+00 0. -1.
         -2   -1    0    0    0  501 -0.00000000000E+00 -0.00000000000E+00 -0.30691943428E+02  0.30691943428E+02  0.00000000000E+00 0.  1.
         25    2    1    2    0    0 -0.32670555239E+02 -0.37456936892E+02  0.31053281627E+03  0.33845011219E+03  0.12508981237E+03 0.  0.
          5    1    3    3  502    0 -0.96383871646E+01 -0.69480149042E+02  0.89014365430E+02  0.11340819755E+03  0.41800000000E+01 0.  1.
         -5    1    3    3    0  502 -0.23032168074E+02  0.32023212150E+02  0.22151845084E+03  0.22504191464E+03  0.41800000000E+01 0.  1.
        -11    1    1    2    0    0 -0.19930298159E+02 -0.20825477405E+00 -0.87175263045E-01  0.19931576814E+02  0.00000000000E+00 0.  1.
         11    1    1    2    0    0  0.52600853398E+02  0.37665191666E+02  0.14889649233E+03  0.16234433119E+03  0.00000000000E+00 0. -1.
</event>
<event>
 7    1  0.2679104E-009  0.1467255E+03  0.7561462E-02  0.1204555E+00
          2   -1    0    0  501    0  0.00000000000E+00  0.00000000000E+00  0.13172683574E+04  0.13172683574E+04  0.00000000000E+00 0.  1.
         -2   -1    0    0    0  501 -0.00000000000E+00 -0.00000000000E+00 -0.22146990884E+02  0.22146990884E+02  0.00000000000E+00 0. -1.
         25    2    1    2    0    0  0.26943024329E+02  0.96342089156E+02  0.10205539469E+04  0.10330465524E+04  0.12508835283E+03 0.  0.
          5    1    3    3  502    0 -0.34669093199E+02  0.88782110563E+02  0.70419564907E+03  0.71062873130E+03  0.41800000000E+01 0. -1.
         -5    1    3    3    0  502  0.61612117528E+02  0.75599785928E+01  0.31635829787E+03  0.32241782106E+03  0.41800000000E+01 0. -1.
        -11    1    1    2    0    0 -0.59063711576E+02 -0.80972301042E+02  0.19766473375E+03  0.22162216164E+03  0.00000000000E+00 0.  1.
         11    1    1    2    0    0  0.32120687247E+02 -0.15369788114E+02  0.76902685792E+02  0.84746634257E+02  0.00000000000E+00 0. -1.
</event>
<event>
 7    1  0.2679104E-009  0.1413151E+03  0.7561462E-02  0.1211570E+00
         -2   -1    0    0    0  501 -0.00000000000E+00  0.00000000000E+00  0.44172649711E+02  0.44172649711E+02  0.00000000000E+00 0.  1.
          2   -1    0    0  501    0  0.00000000000E+00 -0.00000000000E+00 -0.48599776028E+03  0.48599776028E+03  0.00000000000E+00 0. -1.
         25    2    1    2    0    0 -0.13558382402E+02  0.91803730152E+02 -0.30371867188E+03  0.34133041068E+03  0.12509861311E+03 0.  0.
          5    1    3    3  502    0  0.55051215556E+02  0.28228008793E+02 -0.12769388790E+03  0.14195301414E+03  0.41800000000E+01 0.  1.
         -5    1    3    3    0  502 -0.68609597957E+02  0.63575721360E+02 -0.17602478398E+03  0.19937739655E+03  0.41800000000E+01 0.  1.
        -11    1    1    2    0    0 -0.13856194942E+02  0.12795411798E+02 -0.10523065592E+02  0.21597490845E+02  0.00000000000E+00 0. -1.
         11    1    1    2    0    0  0.27414577343E+02 -0.10459914195E+03 -0.12758337309E+03  0.16724250847E+03  0.00000000000E+00 0.  1.
</event>
<event>
 7    1  0.2679104E-009  0.2571852E+03  0.7561462E-02  0.1108846E+00
          2   -1    0    0  501    0  0.00000000000E+00  0.00000000000E+00  0.62553917906E+03  0.62553917906E+03  0.00000000000E+00 0. -1.
         -2   -1    0    0    0  501 -0.00000000000E+00 -0.00000000000E+00 -0.11363187078E+03  0.11363187078E+03  0.00000000000E+00 0.  1.
         25    2    1    2    0    0  0.13777350569E+03 -0.19746246722E+03  0.22423890294E+03  0.35199415163E+03  0.12507530677E+03 0.  0.
          5    1    3    3  502    0  0.52822861042E+01 -0.11052211429E+03  0.71147200123E+02  0.13161472858E+03  0.41800000000E+01 0.  1.
         -5    1    3    3    0  502  0.13249121959E+03 -0.86940352925E+02  0.15309170282E+03  0.22037942305E+03  0.41800000000E+01 0.  1.
        -11    1    1    2    0    0 -0.53527587801E+02  0.41031424704E+02  0.14280861150E+03  0.15793378356E+03  0.00000000000E+00 0.  1.
         11    1    1    2    0    0 -0.84245917891E+02  0.15643104251E+03  0.14485979384E+03  0.22924311465E+03  0.00000000000E+00 0. -1.
</event>
<event>
 7    1  0.2679104E-009  0.1115441E+03  0.7561462E-02  0.1257737E+00
         -2   -1    0    0    0  501 -0.00000000000E+00  0.00000000000E+00  0.20748517542E+03  0.20748517542E+03  0.00000000000E+00 0.  1.
          2   -1    0    0  501    0  0.00000000000E+00 -0.00000000000E+00 -0.80026178879E+02  0.80026178879E+02  0.00000000000E+00 0. -1.
         25    2    1    2    0    0  0.51928233354E+02  0.36953131042E+02  0.57895222649E+02  0.15185862017E+03  0.12508840234E+03 0.  0.
          5    1    3    3  502    0 -0.38988991220E+02  0.26990491578E+01  0.12654396788E+01  0.39325564717E+02  0.41800000000E+01 0. -1.
         -5    1    3    3    0  502  0.90917224574E+02  0.34254081884E+02  0.56629782970E+02  0.11253305545E+03  0.41800000000E+01 0. -1.
        -11    1    1    2    0    0 -0.10887222653E+00  0.13919404358E+02  0.60958291724E+02  0.62527394003E+02  0.00000000000E+00 0.  1.
         11    1    1    2    0    0 -0.51819361128E+02 -0.50872535400E+02  0.86054821699E+01  0.73125340129E+02  0.00000000000E+00 0. -1.
</event>
<event>
 7    1  0.2679104E-009  0.1879242E+03  0.7561462E-02  0.1160347E+00
         -2   -1    0    0    0  501 -0.00000000000E+00  0.00000000000E+00  0.41333927270E+02  0.41333927270E+02  0.00000000000E+00 0.  1.
          2   -1    0    0  501    0  0.00000000000E+00 -0.00000000000E+00 -0.96863474132E+03  0.96863474132E+03  0.00000000000E+00 0. -1.
         25    2    1    2    0    0 -0.10302308529E+03  0.13306114562E+03 -0.50890256243E+03  0.55040665947E+03  0.12508656268E+03 0.  0.
          5    1    3    3  502    0  0.15175989867E+02  0.69795439092E+02 -0.12889095300E+03  0.14741799128E+03  0.41800000000E+01 0.  1.
         -5    1    3    3    0  502 -0.11819907516E+03  0.63265706532E+02 -0.38001160942E+03  0.40298866819E+03  0.41800000000E+01 0.  1.
        -11    1    1    2    0    0  0.35645024649E+02 -0.66541215179E+02 -0.29220548516E+03  0.30179851997E+03  0.00000000000E+00 0. -1.
         11    1    1    2    0    0  0.67378060642E+02 -0.66519930444E+02 -0.12619276647E+03  0.15776348916E+03  0.00000000000E+00 0.  1.
</event>
<event>
 7    1  0.2679104E-009  0.1580545E+03  0.7561462E-02  0.1190911E+00
          2   -1    0    0  501    0  0.00000000000E+00  0.00000000000E+00  0.27706858719E+03  0.27706858719E+03  0.00000000000E+00 0.  1.
         -2   -1    0    0    0  501 -0.00000000000E+00 -0.00000000000E+00 -0.11468313532E+03  0.11468313532E+03  0.00000000000E+00 0. -1.
         25    2    1    2    0    0 -0.11628437440E+03  0.71087924621E+02  0.48936905273E+02  0.19135774668E+03  0.12508963890E+03 0.  0.
          5    1    3    3  502    0 -0.49921207407E+02  0.70836011742E+02 -0.26577255893E+02  0.90739685029E+02  0.41800000000E+01 0.  1.
         -5    1    3    3    0  502 -0.66363166997E+02  0.25191287998E+00  0.75514161165E+02  0.10061806165E+03  0.41800000000E+01 0.  1.
        -11    1    1    2    0    0  0.52225146652E+02  0.16110946277E+02  0.22717090115E+02  0.59186947176E+02  0.00000000000E+00 0. -1.
         11    1    1    2    0    0  0.64059227751E+02 -0.87198870899E+02  0.90731456479E+02  0.14120702865E+03  0.00000000000E+00 0.  1.
</event>
<event>
 7    1  0.2679104E-009  0.8444501E+02  0.7561462E-02  0.1316890E+00
         -2   -1    0    0    0  501 -0.00000000000E+00  0.00000000000E+00  0.16774658854E+02  0.16774658854E+02  0.00000000000E+00 0. -1.
          2   -1    0    0  501    0  0.00000000000E+00 -0.00000000000E+00 -0.81821827658E+03  0.81821827658E+03  0.00000000000E+00 0.  1.
         25    2    1    2    0    0 -0.32860640614E+02  0.37736834931E+02 -0.47623101195E+03  0.49492378504E+03  0.12509870439E+03 0.  0.
          5    1    3    3  502    0 -0.43390138610E+02  0.42523064975E+02 -0.47854966739E+03  0.48240871856E+03  0.41800000000E+01 0.  1.
         -5    1    3    3    0  502  0.10529497997E+02 -0.47862300437E+01  0.23186554318E+01  0.12515066484E+02  0.41800000000E+01 0.  1.
        -11    1    1    2    0    0  0.49144487628E+02 -0.53768481182E+02 -0.20147305837E+03  0.21423730647E+03  0.00000000000E+00 0. -1.
         11    1    1    2    0    0 -0.16283847014E+02  0.16031646251E+02 -0.12373954740E+03  0.12583184393E+03  0.00000000000E+00 0.  1.
</event>
<event>
 7    1  0.2679104E-009  0.7814525E+02  0.7561462E-02  0.1334399E+00
          2   -1    0    0  501    0  0.00000000000E+00  0.00000000000E+00  0.70180355657E+03  0.70180355657E+03  0.00000000000E+00 0.  1.
         -2   -1    0    0    0  501 -0.00000000000E+00 -0.00000000000E+00 -0.20647804793E+02  0.20647804793E+02  0.00000000000E+00 0. -1.
         25    2    1    2    0    0  0.18731139487E+02 -0.47030909128E+02  0.34320208967E+03  0.36877851385E+03  0.12508859232E+03 0.  0.
          5    1    3    3  502    0  0.46677050188E+01 -0.70343852671E+01  0.32024642747E+03  0.32038495088E+03  0.41800000000E+01 0. -1.
         -5    1    3    3    0  502  0.14063434468E+02 -0.39996523861E+02  0.22955662199E+02  0.48393562971E+02  0.41800000000E+01 0. -1.
        -11    1    1    2    0    0 -0.11611647908E+02  0.74751210634E+02  0.24556281844E+03  0.25695071835E+03  0.00000000000E+00 0. -1.
         11    1    1    2    0    0 -0.71194915787E+01 -0.27720301506E+02  0.92390843670E+02  0.96722129164E+02  0.00000000000E+00 0.  1.
</event>
<event>
 7    1  0.2679104E-009  0.1690020E+03  0.7561462E-02  0.1178893E+00
          1   -1    0    0  501    0  0.00000000000E+00  0.00000000000E+00  0.17739019687E+03  0.17739019687E+03  0.00000000000E+00 0.  1.
         -1   -1    0    0    0  501 -0.00000000000E+00 -0.00000000000E+00 -0.18014100726E+03  0.18014100726E+03  0.00000000000E+00 0. -1.
         25    2    1    2    0    0  0.13880193625E+03  0.21301235256E+02  0.25759521102E+02  0.18981732715E+03  0.12508934658E+03 0.  0.
          5    1    3    3  502    0 -0.11531510294E+02 -0.16321027642E+02 -0.19589731747E+02  0.28294551823E+02  0.41800000000E+01 0. -1.
         -5    1    3    3    0  502  0.15033344654E+03  0.37622262898E+02  0.45349252848E+02  0.16152277533E+03  0.41800000000E+01 0. -1.
        -11    1    1    2    0    0 -0.66580764482E+02  0.30948261119E+02  0.21358790179E+01  0.73453080565E+02  0.00000000000E+00 0.  1.
         11    1    1    2    0    0 -0.72221171767E+02 -0.52249496376E+02 -0.30646210511E+02  0.94260796419E+02  0.00000000000E+00 0. -1.
</event>
<event>
 7    1  0.2679104E-009  0.1097304E+03  0.7561462E-02  0.1261070E+00
          1   -1    0    0  501    0  0.00000000000E+00  0.00000000000E+00  0.14340484439E+04  0.14340484439E+04  0.00000000000E+00 0. -1.
         -1   -1    0    0    0  501 -0.00000000000E+00 -0.00000000000E+00 -0.22183224815E+02  0.22183224815E+02  0.00000000000E+00 0.  1.
         25    2    1    2    0    0 -0.73958328283E+02  0.79085968095E+02  0.11173211361E+04  0.11295037463E+04  0.12509103551E+03 0.  0.
          5    1    3    3  502    0 -0.10318921278E+02  0.17209856910E+02  0.79199586822E+03  0.79226105987E+03  0.41800000000E+01 0. -1.
         -5    1    3    3    0  502 -0.63639407005E+02  0.61876111185E+02  0.32532526784E+03  0.33724268643E+03  0.41800000000E+01 0. -1.
        -11    1    1    2    0    0  0.59736453586E+01 -0.17060426905E+02 -0.68932710245E-01  0.18076154369E+02  0.00000000000E+00 0.  1.
         11    1    1    2    0    0  0.67984682924E+02 -0.62025541190E+02  0.29461301573E+03  0.30865176803E+03  0.00000000000E+00 0. -1.
</event>
<event>
 7    1  0.2679104E-009  0.2013785E+03  0.7561462E-02  0.1148581E+00
         -2   -1    0    0    0  501 -0.00000000000E+00  0.00000000000E+00  0.79434710765E+03  0.79434710765E+03  0.00000000000E+00 0.  1.
          2   -1    0    0  501    0  0.00000000000E+00 -0.00000000000E+00 -0.76663657003E+02  0.76663657003E+02  0.00000000000E+00 0. -1.
         25    2    1    2    0    0  0.19426548281E+03 -0.59951292221E+00  0.55783160916E+03  0.60379235023E+03  0.12509860430E+03 0.  0.
          5    1    3    3  502    0  0.50084596913E+02 -0.30290044147E+02  0.31002741900E+03  0.31553197391E+03  0.41800000000E+01 0.  1.
         -5    1    3    3    0  502  0.14418088590E+03  0.29690531225E+02  0.24780419015E+03  0.28826037633E+03  0.41800000000E+01 0.  1.
        -11    1    1    2    0    0 -0.13661124239E+03 -0.14029086560E+02  0.15567423632E+03  0.20759073840E+03  0.00000000000E+00 0.  1.
         11    1    1    2    0    0 -0.57654240429E+02  0.14628599482E+02  0.41776051710E+01  0.59627676017E+02  0.00000000000E+00 0. -1.
</event>
<event>
 7    1  0.2679104E-009  0.1057606E+03  0.7561462E-02  0.1268628E+00
         -1   -1    0    0    0  501 -0.00000000000E+00  0.00000000000E+00  0.38466505965E+02  0.38466505965E+02  0.00000000000E+00 0.  1.
          1   -1    0    0  501    0  0.00000000000E+00 -0.00000000000E+00 -0.55093850351E+03  0.55093850351E+03  0.00000000000E+00 0. -1.
         25    2    1    2    0    0  0.64113619195E+02  0.27623325329E+02 -0.41692861946E+03  0.44085289461E+03  0.12509275237E+03 0.  0.
          5    1    3    3  502    0  0.12209077875E+02  0.71837539076E+02 -0.25145294649E+03  0.26183153038E+03  0.41800000000E+01 0.  1.
         -5    1    3    3    0  502  0.51904541320E+02 -0.44214213747E+02 -0.16547567297E+03  0.17902136424E+03  0.41800000000E+01 0.  1.
        -11    1    1    2    0    0 -0.40987745661E+02 -0.13641441229E+02  0.58742511136E+01  0.43595768594E+02  0.00000000000E+00 0.  1.
         11    1    1    2    0    0 -0.23125873535E+02 -0.13981884100E+02 -0.10141762920E+03  0.10495634627E+03  0.00000000000E+00 0. -1.
</event>
<event>
 7    1  0.2679104E-009  0.1109326E+03  0.7561462E-02  0.1258853E+00
          2   -1    0    0  501    0  0.00000000000E+00  0.00000000000E+00  0.61747879856E+03  0.61747879856E+03  0.00000000000E+00 0. -1.
         -2   -1    0    0    0  501 -0.00000000000E+00 -0.00000000000E+00 -0.24444293168E+02  0.24444293168E+02  0.00000000000E+00 0.  1.
         25    2    1    2    0    0 -0.19258212694E+02  0.46679339002E+02  0.41743133708E+03  0.43868744123E+03  0.12509160833E+03 0.  0.
          5    1    3    3  502    0 -0.64592530249E+02  0.16674735721E+02  0.32121500223E+03  0.32809570529E+03  0.41800000000E+01 0.  1.
         -5    1    3    3    0  502  0.45334317555E+02  0.30004603281E+02  0.96216334852E+02  0.11059173594E+03  0.41800000000E+01 0.  1.
        -11    1    1    2    0    0  0.53926523544E+02 -0.23684913150E+02  0.83601190647E+02  0.10226536134E+03  0.00000000000E+00 0.  1.
         11    1    1    2    0    0 -0.34668310850E+02 -0.22994425852E+02  0.92001977665E+02  0.10097028915E+03  0.00000000000E+00 0. -1.
</event>
<event>
 7    1  0.2679104E-009  0.1091172E+03  0.7561462E-02  0.1262214E+00
         -2   -1    0    0    0  501 -0.00000000000E+00  0.00000000000E+00  0.28890086332E+02  0.28890086332E+02  0.00000000000E+00 0.  1.
          2   -1    0    0  501    0  0.00000000000E+00 -0.00000000000E+00 -0.43809707923E+03  0.43809707923E+03  0.00000000000E+00 0. -1.
         25    2    1    2    0    0 -0.32724610381E+02 -0.24641785097E+01 -0.23192344564E+03  0.26554321103E+03  0.12509092689E+03 0.  0.
          5    1    3    3  502    0 -0.78270515185E+02  0.63653378520E+01 -0.17593577663E+03  0.19271134105E+03  0.41800000000E+01 0.  1.
         -5    1    3    3    0  502  0.45545904804E+02 -0.88295163617E+01 -0.55987669011E+02  0.72831869981E+02  0.41800000000E+01 0.  1.
        -11    1    1    2    0    0  0.40883862473E+02  0.38443567927E+02 -0.12900456526E+03  0.14068253617E+03  0.00000000000E+00 0. -1.
         11    1    1    2    0    0 -0.81592520923E+01 -0.35979389417E+02 -0.48278981993E+02  0.60761418349E+02  0.00000000000E+00 0.  1.
</event>
<event>
 7    1  0.2679104E-009  0.1217228E+03  0.7561462E-02  0.1240282E+00
          1   -1    0    0  501    0  0.00000000000E+00  0.00000000000E+00  0.26279576308E+03  0.26279576308E+03  0.00000000000E+00 0. -1.
         -1   -1    0    0    0  501 -0.00000000000E+00 -0.00000000000E+00 -0.78485202336E+02  0.78485202336E+02  0.00000000000E+00 0.  1.
         25    2    1    2    0    0 -0.37440475214E+01  0.90210448507E+02  0.13302666841E+03  0.20370507896E+03  0.12509085408E+03 0.  0.
          5    1    3    3  502    0 -0.39087039025E+02 -0.13707016316E+02  0.20318925881E+02  0.46325047922E+02  0.41800000000E+01 0. -1.
         -5    1    3    3    0  502  0.35342991503E+02  0.10391746482E+03  0.11270774253E+03  0.15738003104E+03  0.41800000000E+01 0. -1.
        -11    1    1    2    0    0 -0.32060421924E+01 -0.76802959025E+02 -0.71692324347E+01  0.77203439789E+02  0.00000000000E+00 0.  1.
         11    1    1    2    0    0  0.69500897137E+01 -0.13407489482E+02  0.58453124772E+02  0.60372446669E+02  0.00000000000E+00 0. -1.
</event>
<event>
 7    1  0.2679104E-009  0.1480700E+03  0.7561462E-02  0.1202865E+00
          2   -1    0    0  501    0  0.00000000000E+00  0.00000000000E+00  0.71006386490E+03  0.71006386490E+03  0.00000000000E+00 0.  1.
         -2   -1    0    0    0  501 -0.00000000000E+00 -0.00000000000E+00 -0.34141236070E+02  0.34141236070E+02  0.00000000000E+00 0. -1.
         25    2    1    2    0    0  0.26886802149E+02  0.10699831841E+03  0.34607948844E+03  0.38417458803E+03  0.12509021343E+03 0.  0.
          5    1    3    3  502    0 -0.14468363088E+02 -0.22983063424E+02  0.88650429408E+02  0.92811237300E+02  0.41800000000E+01 0.  1.
         -5    1    3    3    0  502  0.41355165237E+02  0.12998138183E+03  0.25742905903E+03  0.29136335073E+03  0.41800000000E+01 0.  1.
        -11    1    1    2    0    0  0.24170262034E+02 -0.20221548169E+02  0.15587027700E+03  0.15902407311E+03  0.00000000000E+00 0.  1.
         11    1    1    2    0    0 -0.51057064183E+02 -0.86776770239E+02  0.17397286339E+03  0.20100643983E+03  0.00000000000E+00 0. -1.
</event>
<event>
 7    1  0.2679104E-009  0.1368601E+03  0.7561462E-02  0.1217617E+00
         -1   -1    0    0    0  501 -0.00000000000E+00  0.00000000000E+00  0.58778308070E+02  0.58778308070E+02  0.00000000000E+00 0.  1.
          1   -1    0    0  501    0  0.00000000000E+00 -0.00000000000E+00 -0.43609936692E+03  0.43609936692E+03  0.00000000000E+00 0. -1.
         25    2    1    2    0    0 -0.10712330989E+03 -0.33625120433E+02 -0.25697748825E+03  0.30706787932E+03  0.12508877167E+03 0.  0.
          5    1    3    3  502    0 -0.10096468650E+03  0.25122604106E+01 -0.24980486278E+03  0.26948120758E+03  0.41800000000E+01 0. -1.
         -5    1    3    3    0  502 -0.61586233959E+01 -0.36137380843E+02 -0.71726254714E+01  0.37586671740E+02  0.41800000000E+01 0. -1.
        -11    1    1    2    0    0  0.16859595375E+02  0.41836094569E+02 -0.12238114724E+02  0.46736240937E+02  0.00000000000E+00 0.  1.
         11    1    1    2    0    0  0.90263714516E+02 -0.82109741362E+01 -0.10810545588E+03  0.14107355474E+03  0.00000000000E+00 0. -1.
</event>
<event>
 7    1  0.2679104E-009  0.1528023E+03  0.7561462E-02  0.1197071E+00
         -2   -1    0    0    0  501 -0.00000000000E+00  0.00000000000E+00  0.65978600207E+02  0.65978600207E+02  0.00000000000E+00 0. -1.
          2   -1    0    0  501    0  0.00000000000E+00 -0.00000000000E+00 -0.42620959972E+03  0.42620959972E+03  0.00000000000E+00 0.  1.
         25    2    1    2    0    0  0.88698847618E+02  0.85051824173E+02 -0.13724719693E+03  0.22267801355E+03  0.12508959304E+03 0.  0.
          5    1    3    3  502    0  0.99656217281E+02  0.96521059249E+02 -0.14812683867E+03  0.20299435770E+03  0.41800000000E+01 0.  1.
         -5    1    3    3    0  502 -0.10957369663E+02 -0.11469235076E+02  0.10879641740E+02  0.19683655848E+02  0.41800000000E+01 0.  1.
        -11    1    1    2    0    0  0.14409746752E+02 -0.30543889889E+02 -0.38099697094E+02  0.50913229417E+02  0.00000000000E+00 0. -1.
         11    1    1    2    0    0 -0.10310859437E+03 -0.54507934283E+02 -0.18488410549E+03  0.21859695696E+03  0.00000000000E+00 0.  1.
</event>
<event>
 7    1  0.2679104E-009  0.3585824E+03  0.7561462E-02  0.1059147E+00
          2   -1    0    0  501    0  0.00000000000E+00  0.00000000000E+00  0.13165127841E+04  0.13165127841E+04  0.00000000000E+00 0.  1.
         -2   -1    0    0    0  501 -0.00000000000E+00 -0.00000000000E+00 -0.10463873745E+03  0.10463873745E+03  0.00000000000E+00 0. -1.
         25    2    1    2    0    0  0.29241400455E+03  0.19827776560E+03  0.66846119409E+03  0.76636120751E+03  0.12509640276E+03 0.  0.
          5    1    3    3  502    0  0.19801748611E+03  0.12389375330E+03  0.30937389137E+03  0.38767288269E+03  0.41800000000E+01 0. -1.
         -5    1    3    3    0  502  0.94396518440E+02  0.74384012303E+02  0.35908730272E+03  0.37868832482E+03  0.41800000000E+01 0. -1.
        -11    1    1    2    0    0 -0.11626982075E+03 -0.30901882619E+02  0.21336233015E+03  0.24494301683E+03  0.00000000000E+00 0. -1.
         11    1    1    2    0    0 -0.17614418380E+03 -0.16737588298E+03  0.33005052241E+03  0.40984729722E+03  0.00000000000E+00 0.  1.
</event>
<event>
 7    1  0.2679104E-009  0.1417105E+03  0.7561462E-02  0.1211046E+00
          3   -1    0    0  501    0  0.00000000000E+00  0.00000000000E+00  0.16679125386E+03  0.16679125386E+03  0.00000000000E+00 0. -1.
         -3   -1    0    0    0  501 -0.00000000000E+00 -0.00000000000E+00 -0.15187041954E+03  0.15187041954E+03  0.00000000000E+00 0.  1.
         25    2    1    2    0    0 -0.11442702622E+03  0.36659730613E+01 -0.75301891277E+01  0.16973842989E+03  0.12508975637E+03 0.  0.
          5    1    3    3  502    0 -0.13931696949E+03  0.15920499084E+02  0.14071921267E+01  0.14029302502E+03  0.41800000000E+01 0. -1.
         -5    1    3    3    0  502  0.24889943278E+02 -0.12254526022E+02 -0.89373812543E+01  0.29445404872E+02  0.41800000000E+01 0. -1.
        -11    1    1    2    0    0  0.67699987272E+02  0.35730017422E+01  0.58436036768E+02  0.89503212296E+02  0.00000000000E+00 0. -1.
         11    1    1    2    0    0  0.46727038944E+02 -0.72389748036E+01 -0.35985013321E+02  0.59420031205E+02  0.00000000000E+00 0.  1.
</event>
<event>
 7    1  0.2679104E-009  0.5761573E+02  0.7561462E-02  0.1408119E+00
         -1   -1    0    0    0  501 -0.00000000000E+00  0.00000000000E+00  0.21187450888E+02  0.21187450888E+02  0.00000000000E+00 0.  1.
          1   -1    0    0  501    0  0.00000000000E+00 -0.00000000000E+00 -0.10252020798E+04  0.10252020798E+04  0.00000000000E+00 0. -1.
         25    2    1    2    0    0  0.44401225105E+02  0.14634636689E+01 -0.86663321754E+03  0.87674057508E+03  0.12508913515E+03 0.  0.
          5    1    3    3  502    0  0.45194699526E+02 -0.20693765222E+01 -0.86937957119E+03  0.87056599657E+03  0.41800000000E+01 0. -1.
         -5    1    3    3    0  502 -0.79347442103E+00  0.35328401911E+01  0.27463536458E+01  0.61745785136E+01  0.41800000000E+01 0. -1.
        -11    1    1    2    0    0 -0.27356795226E+02 -0.23737275811E+02 -0.13688689227E+03  0.14159757690E+03  0.00000000000E+00 0. -1.
         11    1    1    2    0    0 -0.17044429879E+02  0.22273812143E+02 -0.49451908247E+00  0.28051378689E+02  0.00000000000E+00 0.  1.
</event>
<event>
 7    1  0.2679104E-009  0.1039355E+03  0.7561462E-02  0.1272231E+00
          1   -1    0    0  501    0  0.00000000000E+00  0.00000000000E+00  0.88795857227E+03  0.88795857227E+03  0.00000000000E+00 0. -1.
         -1   -1    0    0    0  501 -0.00000000000E+00 -0.00000000000E+00 -0.27084243277E+02  0.27084243277E+02  0.00000000000E+00 0.  1.
         25    2    1    2    0    0 -0.15392023394E+02  0.16974610754E+02  0.78228629809E+03  0.79255516433E+03  0.12508710778E+03 0.  0.
          5    1    3    3  502    0 -0.36827759871E+02 -0.39182746070E+02  0.19949993217E+03  0.20666220463E+03  0.41800000000E+01 0. -1.
         -5    1    3    3    0  502  0.21435736477E+02  0.56157356824E+02  0.58278636593E+03  0.58589295971E+03  0.41800000000E+01 0. -1.
        -11    1    1    2    0    0 -0.35321061289E+02 -0.23682959429E+02  0.40333195874E+02  0.58610806404E+02  0.00000000000E+00 0.  1.
         11    1    1    2    0    0  0.50713084683E+02  0.67083486746E+01  0.38254835027E+02  0.63876844810E+02  0.00000000000E+00 0. -1.
</event>
<event>
 7    1  0.2679104E-009  0.1144819E+03  0.7561462E-02  0.1252488E+00
         -2   -1    0    0    0  501 -0.00000000000E+00  0.00000000000E+00  0.26594491236E+02  0.26594491236E+02  0.00000000000E+00 0.  1.
          2   -1    0    0  501    0  0.00000000000E+00 -0.00000000000E+00 -0.63685934531E+03  0.63685934531E+03  0.00000000000E+00 0. -1.
         25    2    1    2    0    0 -0.20965795855E+02  0.58292799054E+02 -0.43110281626E+03  0.45313908453E+03  0.12509107373E+03 0.  0.
          5    1    3    3  502    0  0.99732110540E+01  0.80049582925E+02 -0.38489154329E+03  0.39327645894E+03  0.41800000000E+01 0.  1.
         -5    1    3    3    0  502 -0.30939006909E+02 -0.21756783871E+02 -0.46211272975E+02  0.59862625593E+02  0.41800000000E+01 0.  1.
        -11    1    1    2    0    0  0.56365847151E+02 -0.25450338819E+02 -0.98757101438E+02  0.11652378965E+03  0.00000000000E+00 0. -1.
         11    1    1    2    0    0 -0.35400051296E+02 -0.32842460235E+02 -0.80404936374E+02  0.93790962354E+02  0.00000000000E+00 0.  1.
</event>
<event>
 7    1  0.2679104E-009  0.7067040E+02  0.7561462E-02  0.1357828E+00
          1   -1    0    0  501    0  0.00000000000E+00  0.00000000000E+00  0.21786486674E+03  0.21786486674E+03  0.00000000000E+00 0. -1.
         -1   -1    0    0    0  501 -0.00000000000E+00 -0.00000000000E+00 -0.68027827467E+02  0.68027827467E+02  0.00000000000E+00 0.  1.
         25    2    1    2    0    0  0.63477907024E+01 -0.44162794664E+02  0.43487214385E+02  0.13974571123E+03  0.12508828527E+03 0.  0.
          5    1    3    3  502    0 -0.19009327136E+02 -0.42558839607E+02  0.81412823345E+02  0.93904896314E+02  0.41800000000E+01 0. -1.
         -5    1    3    3    0  502  0.25357117838E+02 -0.16039550578E+01 -0.37925608960E+02  0.45840814913E+02  0.41800000000E+01 0. -1.
        -11    1    1    2    0    0 -0.29542641438E+02  0.25353593992E+02  0.35435306224E+01  0.39091290599E+02  0.00000000000E+00 0.  1.
         11    1    1    2    0    0  0.23194850736E+02  0.18809200672E+02  0.10280629427E+03  0.10705569238E+03  0.00000000000E+00 0. -1.
</event>
<event>
 7    1  0.2679104E-009  0.9538812E+02  0.7561462E-02  0.1290304E+00
          2   -1    0    0  501    0  0.00000000000E+00  0.00000000000E+00  0.95424409401E+02  0.95424409401E+02  0.00000000000E+00 0. -1.
         -2   -1    0    0    0  501 -0.00000000000E+00 -0.00000000000E+00 -0.20431417447E+03  0.20431417447E+03  0.00000000000E+00 0.  1.
         25    2    1    2    0    0  0.81705576711E+02 -0.30679961840E+02 -0.62165596712E+02  0.16471183564E+03  0.12509342932E+03 0.  0.
          5    1    3    3  502    0  0.74423075086E+02 -0.15453799127E+02 -0.98466258260E+02  0.12446160222E+03  0.41800000000E+01 0. -1.
         -5    1    3    3    0  502  0.72825016250E+01 -0.15226162713E+02  0.36300661548E+02  0.40250233412E+02  0.41800000000E+01 0. -1.
        -11    1    1    2    0    0 -0.43109655226E+02 -0.65886222628E+01  0.21182512654E+02  0.48482483015E+02  0.00000000000E+00 0. -1.
         11    1    1    2    0    0 -0.38595921485E+02  0.37268584103E+02 -0.67906681011E+02  0.86544265219E+02  0.00000000000E+00 0.  1.
</event>
<event>
 7    1  0.2679104E-009  0.9969975E+02  0.7561462E-02  0.1280929E+00
         -2   -1    0    0    0  501 -0.00000000000E+00  0.00000000000E+00  0.11279612149E+03  0.11279612149E+03  0.00000000000E+00 0. -1.
          2   -1    0    0  501    0  0.00000000000E+00 -0.00000000000E+00 -0.11210972861E+03  0.11210972861E+03  0.00000000000E+00 0.  1.
         25    2    1    2    0    0  0.85434287548E+01 -0.31388828052E+02 -0.93630907745E+01  0.12958979504E+03  0.12509036257E+03 0.  0.
          5    1    3    3  502    0  0.50859955116E+02  0.13994266267E+02 -0.33778199965E+02  0.62777493703E+02  0.41800000000E+01 0. -1.
         -5    1    3    3    0  502 -0.42316526361E+02 -0.45383094319E+02  0.24415109190E+02  0.66812301337E+02  0.41800000000E+01 0. -1.
        -11    1    1    2    0    0 -0.40887493207E+02  0.32034100781E+02 -0.15375802213E+02  0.54169973300E+02  0.00000000000E+00 0.  1.
         11    1    1    2    0    0  0.32344064453E+02 -0.64527272937E+00  0.25425285870E+02  0.41146081755E+02  0.00000000000E+00 0. -1.
</event>
<event>
 7    1  0.2679104E-009  0.1604410E+03  0.7561462E-02  0.1188200E+00
         -1   -1    0    0    0  501 -0.00000000000E+00  0.00000000000E+00  0.75187409367E+03  0.75187409367E+03  0.00000000000E+00 0.  1.
          1   -1    0    0  501    0  0.00000000000E+00 -0.00000000000E+00 -0.43959344513E+02  0.43959344513E+02  0.00000000000E+00 0. -1.
         25    2    1    2    0    0 -0.13351222039E+03  0.45996027926E+02  0.43263641866E+03  0.47197786532E+03  0.12509071517E+03 0.  0.
          5    1    3    3  502    0 -0.28422678517E+02  0.51181472878E+02  0.28289025463E+03  0.28891479779E+03  0.41800000000E+01 0.  1.
         -5    1    3    3    0  502 -0.10508954187E+03 -0.51854449514E+01  0.14974616403E+03  0.18306306753E+03  0.41800000000E+01 0.  1.
        -11    1    1    2    0    0  0.13303412937E+03 -0.24358433777E+02  0.26937748104E+03  0.30142269351E+03  0.00000000000E+00 0.  1.
         11    1    1    2    0    0  0.47809102201E+00 -0.21637594149E+02  0.59008494530E+01  0.22432879348E+02  0.00000000000E+00 0. -1.
</event>
<event>
 7    1  0.2679104E-009  0.6940759E+02  0.7561462E-02  0.1362119E+00
         -1   -1    0    0    0  501 -0.00000000000E+00  0.00000000000E+00  0.22565138347E+03  0.22565138347E+03  0.00000000000E+00 0.  1.
          1   -1    0    0  501    0  0.00000000000E+00 -0.00000000000E+00 -0.59364153524E+02  0.59364153524E+02  0.00000000000E+00 0. -1.
         25    2    1    2    0    0  0.92192512202E+01  0.31872305525E+02  0.12379749547E+03  0.17909120321E+03  0.12508797197E+03 0.  0.
          5    1    3    3  502    0  0.53990205418E+00 -0.74041768292E+01 -0.24206294075E+02  0.25661847198E+02  0.41800000000E+01 0. -1.
         -5    1    3    3    0  502  0.86793491660E+01  0.39276482355E+02  0.14800378954E+03  0.15342935602E+03  0.41800000000E+01 0. -1.
        -11    1    1    2    0    0  0.66943998252E+01 -0.58474296710E+02  0.46038234376E+02  0.74723338986E+02  0.00000000000E+00 0.  1.
         11    1    1    2    0    0 -0.15913651045E+02  0.26601991185E+02 -0.35484998980E+01  0.31200994794E+02  0.00000000000E+00 0. -1.
</event>
<event>
 7    1  0.2679104E-009  0.1172866E+03  0.7561462E-02  0.1247642E+00
         -2   -1    0    0    0  501 -0.00000000000E+00  0.00000000000E+00  0.51269524813E+02  0.51269524813E+02  0.00000000000E+00 0. -1.
          2   -1    0    0  501    0  0.00000000000E+00 -0.00000000000E+00 -0.28672071941E+03  0.28672071941E+03  0.00000000000E+00 0.  1.
         25    2    1    2    0    0  0.58673320319E+02 -0.14300754362E+02 -0.14231316635E+03  0.19886469270E+03  0.12508820327E+03 0.  0.
          5    1    3    3  502    0  0.82540058991E+02 -0.44354546345E+02 -0.12569777125E+03  0.15683618593E+03  0.41800000000E+01 0. -1.
         -5    1    3    3    0  502 -0.23866738672E+02  0.30053791983E+02 -0.16615395092E+02  0.42028506772E+02  0.41800000000E+01 0. -1.
        -11    1    1    2    0    0  0.29565550268E+01  0.36535192153E+02 -0.43765009222E+02  0.57087104634E+02  0.00000000000E+00 0.  1.
         11    1    1    2    0    0 -0.61629875346E+02 -0.22234437791E+02 -0.49373019027E+02  0.82038446882E+02  0.00000000000E+00 0. -1.
</event>
<event>
 7    1  0.2679104E-009  0.1533760E+03  0.7561462E-02  0.1196385E+00
         -4   -1    0    0    0  501 -0.00000000000E+00  0.00000000000E+00  0.88152626431E+02  0.88152626431E+02  0.00000000000E+00 0.  1.
          4   -1    0    0  501    0  0.00000000000E+00 -0.00000000000E+00 -0.41107048669E+03  0.41107048669E+03  0.00000000000E+00 0. -1.
         25    2    1    2    0    0  0.38804485936E+02  0.13239628905E+03 -0.73614256501E+02  0.20025398694E+03  0.12509210624E+03 0.  0.
          5    1    3    3  502    0  0.59484532262E+01 -0.10710844445E+02  0.21615819885E+02  0.25195681253E+02  0.41800000000E+01 0.  1.
         -5    1    3    3    0  502  0.32856032710E+02  0.14310713349E+03 -0.95230076385E+02  0.17505830569E+03  0.41800000000E+01 0.  1.
        -11    1    1    2    0    0 -0.51176627395E+02 -0.11025855532E+03 -0.13404382372E+03  0.18095232215E+03  0.00000000000E+00 0.  1.
         11    1    1    2    0    0  0.12372141459E+02 -0.22137733725E+02 -0.11525978004E+03  0.11801680403E+03  0.00000000000E+00 0. -1.
</event>
<event>
 7    1  0.2679104E-009  0.1206780E+03  0.7561462E-02  0.1241983E+00
          3   -1    0    0  501    0  0.00000000000E+00  0.00000000000E+00  0.13871761123E+03  0.13871761123E+03  0.00000000000E+00 0. -1.
         -3   -1    0    0    0  501 -0.00000000000E+00 -0.00000000000E+00 -0.20490971941E+03  0.20490971941E+03  0.00000000000E+00 0.  1.
         25    2    1    2    0    0 -0.81818283535E+02 -0.53877248558E+01 -0.13592328011E+03  0.20209789595E+03  0.12508062348E+03 0.  0.
          5    1    3    3  502    0 -0.60667436871E+02  0.57116724481E+02 -0.74462824226E+02  0.11182594826E+03  0.41800000000E+01 0. -1.
         -5    1    3    3    0  502 -0.21150846663E+02 -0.62504449337E+02 -0.61460455888E+02  0.90271947688E+02  0.41800000000E+01 0. -1.
        -11    1    1    2    0    0  0.23887665045E+02  0.21006101285E+02  0.74833516634E+02  0.81313787541E+02  0.00000000000E+00 0. -1.
         11    1    1    2    0    0  0.57930618490E+02 -0.15618376430E+02 -0.51023447065E+01  0.60215647156E+02  0.00000000000E+00 0.  1.
</event>
<event>
 7    1  0.2679104E-009  0.1062504E+03  0.7561462E-02  0.1267675E+00
          2   -1    0    0  501    0  0.00000000000E+00  0.00000000000E+00  0.51369944710E+03  0.51369944710E+03  0.00000000000E+00 0. -1.
         -2   -1    0    0    0  501 -0.00000000000E+00 -0.00000000000E+00 -0.35450315373E+02  0.35450315373E+02  0.00000000000E+00 0.  1.
         25    2    1    2    0    0 -0.71961652685E+02  0.77695457516E+01  0.34648578194E+03  0.37542235455E+03  0.12510276540E+03 0.  0.
          5    1    3    3  502    0 -0.61676737472E+02 -0.33090383048E+02  0.83434705286E+02  0.10898539279E+03  0.41800000000E+01 0.  1.
         -5    1    3    3    0  502 -0.10284915213E+02  0.40859928800E+02  0.26305107666E+03  0.26643696176E+03  0.41800000000E+01 0.  1.
        -11    1    1    2    0    0  0.51934356963E+02 -0.37596927857E+02  0.40977440289E+02  0.76091110060E+02  0.00000000000E+00 0.  1.
         11    1    1    2    0    0  0.20027295722E+02  0.29827382106E+02  0.90785909490E+02  0.97636297857E+02  0.00000000000E+00 0. -1.
</event>
<event>
 7    1  0.2679104E-009  0.1107804E+03  0.7561462E-02  0.1259131E+00
          2   -1    0    0  501    0  0.00000000000E+00  0.00000000000E+00  0.22032698364E+03  0.22032698364E+03  0.00000000000E+00 0. -1.
         -2   -1    0    0    0  501 -0.00000000000E+00 -0.00000000000E+00 -0.58109365372E+02  0.58109365372E+02  0.00000000000E+00 0.  1.
         25    2    1    2    0    0  0.12728734325E+02 -0.26221670167E+02  0.11214571192E+03  0.17051176320E+03  0.12509198225E+03 0.  0.
          5    1    3    3  502    0  0.83715692747E+01 -0.76019502106E+02  0.53981228604E+02  0.93704286530E+02  0.41800000000E+01 0.  1.
         -5    1    3    3    0  502  0.43571650504E+01  0.49797831939E+02  0.58164483316E+02  0.76807476670E+02  0.41800000000E+01 0.  1.
        -11    1    1    2    0    0  0.35302864935E+02  0.30405428871E+02  0.31584135362E+02  0.56288009238E+02  0.00000000000E+00 0.  1.
         11    1    1    2    0    0 -0.48031599260E+02 -0.41837587039E+01  0.18487770989E+02  0.51636576576E+02  0.00000000000E+00 0. -1.
</event>
<event>
 7    1  0.2679104E-009  0.1121030E+03  0.7561462E-02  0.1256724E+00
          1   -1    0    0  501    0  0.00000000000E+00  0.00000000000E+00  0.63748607316E+03  0.63748607316E+03  0.00000000000E+00 0. -1.
         -1   -1    0    0    0  501 -0.00000000000E+00 -0.00000000000E+00 -0.25308166581E+02  0.25308166581E+02  0.00000000000E+00 0.  1.
         25    2    1    2    0    0 -0.11385586495E+02  0.57343161599E+02  0.25747048895E+03  0.29215850105E+03  0.12509063631E+03 0.  0.
          5    1    3    3  502    0 -0.11790385677E+02  0.86751710015E+02  0.24451453837E+03  0.25974931041E+03  0.41800000000E+01 0. -1.
         -5    1    3    3    0  502  0.40479918272E+00 -0.29408548416E+02  0.12955950580E+02  0.32409190637E+02  0.41800000000E+01 0. -1.
        -11    1    1    2    0    0 -0.22767714387E+02  0.14714222758E+02  0.73458560024E+02  0.78300940036E+02  0.00000000000E+00 0.  1.
         11    1    1    2    0    0  0.34153300881E+02 -0.72057384357E+02  0.28124885760E+03  0.29233479865E+03  0.00000000000E+00 0. -1.
</event>
<event>
 7    1  0.2679104E-009  0.7235832E+02  0.7561462E-02  0.1352252E+00
          4   -1    0    0  501    0  0.00000000000E+00  0.00000000000E+00  0.16159376471E+03  0.16159376471E+03  0.00000000000E+00 0. -1.
         -4   -1    0    0    0  501 -0.00000000000E+00 -0.00000000000E+00 -0.92624164841E+02  0.92624164841E+02  0.00000000000E+00 0.  1.
         25    2    1    2    0    0 -0.13198107926E+02  0.47921654830E+02  0.69754489991E+02  0.15160547182E+03  0.12509138723E+03 0.  0.
          5    1    3    3  502    0  0.17300853530E+02  0.58964493101E+02 -0.12712221305E+02  0.62890412227E+02  0.41800000000E+01 0. -1.
         -5    1    3    3    0  502 -0.30498961456E+02 -0.11042838272E+02  0.82466711296E+02  0.88715059595E+02  0.41800000000E+01 0. -1.
        -11    1    1    2    0    0  0.10636352961E+02 -0.22701797388E+02 -0.45076849286E+02  0.51579317080E+02  0.00000000000E+00 0.  1.
         11    1    1    2    0    0  0.25617549650E+01 -0.25219857442E+02  0.44291959161E+02  0.51033140646E+02  0.00000000000E+00 0. -1.
</event>
<event>
 7    1  0.2679104E-009  0.1745521E+03  0.7561462E-02  0.1173182E+00
          1   -1    0    0  501    0  0.00000000000E+00  0.00000000000E+00  0.69731879575E+03  0.69731879575E+03  0.00000000000E+00 0. -1.
         -1   -1    0    0    0  501 -0.00000000000E+00 -0.00000000000E+00 -0.61013562001E+02  0.61013562001E+02  0.00000000000E+00 0.  1.
         25    2    1    2    0    0 -0.16446488317E+03 -0.80355425002E+01  0.43966066502E+03  0.48586400728E+03  0.12509622483E+03 0.  0.
          5    1    3    3  502    0 -0.73274002482E+02  0.12523450507E+02  0.62317984483E+02  0.97092326382E+02  0.41800000000E+01 0. -1.
         -5    1    3    3    0  502 -0.91190880688E+02 -0.20558993007E+02  0.37734268053E+03  0.38877168089E+03  0.41800000000E+01 0. -1.
        -11    1    1    2    0    0  0.78951620735E+02 -0.33795721693E+02  0.55613410488E+02  0.10231500695E+03  0.00000000000E+00 0.  1.
         11    1    1    2    0    0  0.85513262435E+02  0.41831264193E+02  0.14103115825E+03  0.17015334353E+03  0.00000000000E+00 0. -1.
</event>
<event>
 7    1  0.2679104E-009  0.1470100E+03  0.7561462E-02  0.1204196E+00
          1   -1    0    0  501    0  0.00000000000E+00  0.00000000000E+00  0.10598389695E+04  0.10598389695E+04  0.00000000000E+00 0. -1.
         -1   -1    0    0    0  501 -0.00000000000E+00 -0.00000000000E+00 -0.26567469036E+02  0.26567469036E+02  0.00000000000E+00 0.  1.
         25    2    1    2    0    0 -0.54140933927E+02 -0.10578822701E+03  0.40137720975E+03  0.43689230016E+03  0.12509527463E+03 0.  0.
          5    1    3    3  502    0 -0.17116910252E+02  0.27988110490E+02  0.92475908530E+02  0.98211959577E+02  0.41800000000E+01 0. -1.
         -5    1    3    3    0  502 -0.37024023675E+02 -0.13377633750E+03  0.30890130122E+03  0.33868034059E+03  0.41800000000E+01 0. -1.
        -11    1    1    2    0    0 -0.12006059542E+01  0.19705511843E+02  0.16676518633E+02  0.25842889261E+02  0.00000000000E+00 0.  1.
         11    1    1    2    0    0  0.55341539881E+02  0.86082715163E+02  0.61521777211E+03  0.62367124914E+03  0.00000000000E+00 0. -1.
</event>
<event>
 7    1  0.2679104E-009  0.1465954E+03  0.7561462E-02  0.1204720E+00
          1   -1    0    0  501    0  0.00000000000E+00  0.00000000000E+00  0.15232998248E+03  0.15232998248E+03  0.00000000000E+00 0. -1.
         -1   -1    0    0    0  501 -0.00000000000E+00 -0.00000000000E+00 -0.30688092703E+03  0.30688092703E+03  0.00000000000E+00 0.  1.
         25    2    1    2    0    0  0.11900634039E+03 -0.21210107497E+02  0.65794717451E+02  0.18598064167E+03  0.12508987376E+03 0.  0.
          5    1    3    3  502    0  0.10129174262E+03 -0.67456053081E+02  0.32076947646E+02  0.12592354502E+03  0.41800000000E+01 0. -1.
         -5    1    3    3    0  502  0.17714597772E+02  0.46245945584E+02  0.33717769805E+02  0.60057096648E+02  0.41800000000E+01 0. -1.
        -11    1    1    2    0    0 -0.10734663807E+03  0.23378487852E+02 -0.23194062325E+03  0.25664432024E+03  0.00000000000E+00 0.  1.
         11    1    1    2    0    0 -0.11659702320E+02 -0.21683803553E+01  0.11594961246E+02  0.16585947602E+02  0.00000000000E+00 0. -1.
</event>
<event>
 7    1  0.2679104E-009  0.8128268E+02  0.7561462E-02  0.1325450E+00
          1   -1    0    0  501    0  0.00000000000E+00  0.00000000000E+00  0.16735588953E+03  0.16735588953E+03  0.00000000000E+00 0. -1.
         -1   -1    0    0    0  501 -0.00000000000E+00 -0.00000000000E+00 -0.87837332698E+02  0.87837332698E+02  0.00000000000E+00 0.  1.
         25    2    1    2    0    0 -0.13606278406E+02 -0.42442986577E+02  0.76521988758E+02  0.15326603148E+03  0.12509326009E+03 0.  0.
          5    1    3    3  502    0  0.16802647887E+02 -0.69969153714E+02  0.84715455288E+02  0.11123035652E+03  0.41800000000E+01 0. -1.
         -5    1    3    3    0  502 -0.30408926292E+02  0.27526167137E+02 -0.81934665299E+01  0.42035674959E+02  0.41800000000E+01 0. -1.
        -11    1    1    2    0    0  0.18069123799E+02  0.22691631266E+02 -0.42886207169E+02  0.51774802073E+02  0.00000000000E+00 0.  1.
         11    1    1    2    0    0 -0.44628453931E+01  0.19751355311E+02  0.45882775247E+02  0.50152388676E+02  0.00000000000E+00 0. -1.
</event>
<event>
 7    1  0.3007540E-009  0.1375107E+03  0.7561462E-02  0.1216718E+00
         -1   -1    0    0    0  501 -0.00000000000E+00  0.00000000000E+00  0.31666837553E+02  0.31666837553E+02  0.00000000000E+00 0.  1.
          1   -1    0    0  501    0  0.00000000000E+00 -0.00000000000E+00 -0.91230362469E+03  0.91230362469E+03  0.00000000000E+00 0. -1.
         25    2    1    2    0    0 -0.10255122369E+03 -0.68509844723E+02 -0.34977807442E+03  0.39141089024E+03  0.12508969324E+03 0.  0.
          5    1    3    3  502    0 -0.10123980602E+03 -0.62374686418E+02 -0.14986593705E+03  0.19135665998E+03  0.41800000000E+01 0. -1.
         -5    1    3    3    0  502 -0.13114176748E+01 -0.61351583044E+01 -0.19991213736E+03  0.20005423027E+03  0.41800000000E+01 0. -1.
        -11    1    1    2    0    0  0.43460127983E+02  0.77374638680E+02 -0.38163369287E+03  0.39181614689E+03  0.00000000000E+00 0. -1.
         11    1    1    2    0    0  0.59091095710E+02 -0.88647939569E+01 -0.14922501986E+03  0.16074342511E+03  0.00000000000E+00 0.  1.
</event>
<event>
 7    1  0.2679104E-009  0.1408258E+03  0.7561462E-02  0.1212222E+00
          3   -1    0    0  501    0  0.00000000000E+00  0.00000000000E+00  0.16072210378E+03  0.16072210378E+03  0.00000000000E+00 0. -1.
         -3   -1    0    0    0  501 -0.00000000000E+00 -0.00000000000E+00 -0.20166685501E+03  0.20166685501E+03  0.00000000000E+00 0.  1.
         25    2    1    2    0    0 -0.21325291194E+02 -0.12724947092E+03 -0.84925407027E+02  0.19876451456E+03  0.12509121311E+03 0.  0.
          5    1    3    3  502    0  0.21513514106E+02 -0.92331032250E+01  0.23048450658E+02  0.33117743916E+02  0.41800000000E+01 0. -1.
         -5    1    3    3    0  502 -0.42838805300E+02 -0.11801636769E+03 -0.10797385768E+03  0.16564677065E+03  0.41800000000E+01 0. -1.
        -11    1    1    2    0    0 -0.59127865520E+01  0.49807985282E+02  0.61828092769E+02  0.79614756786E+02  0.00000000000E+00 0. -1.
         11    1    1    2    0    0  0.27238077746E+02  0.77441485635E+02 -0.17847436971E+02  0.84009687436E+02  0.00000000000E+00 0.  1.
</event>
<event>
 7    1  0.2679104E-009  0.2252335E+03  0.7561462E-02  0.1130040E+00
          2   -1    0    0  501    0  0.00000000000E+00  0.00000000000E+00  0.12860448313E+04  0.12860448313E+04  0.00000000000E+00 0. -1.
         -2   -1    0    0    0  501 -0.00000000000E+00 -0.00000000000E+00 -0.45694899122E+02  0.45694899122E+02  0.00000000000E+00 0.  1.
         25    2    1    2    0    0  0.18982204197E+03 -0.98571317844E+02  0.71394008342E+03  0.75571484401E+03  0.12508305409E+03 0.  0.
          5    1    3    3  502    0  0.82884197839E+02  0.33014202155E+01  0.13748043530E+03  0.16062077112E+03  0.41800000000E+01 0.  1.
         -5    1    3    3    0  502  0.10693784414E+03 -0.10187273806E+03  0.57645964813E+03  0.59509407289E+03  0.41800000000E+01 0.  1.
        -11    1    1    2    0    0 -0.41095779634E+02 -0.24509928096E+00  0.19790540536E+03  0.20212736739E+03  0.00000000000E+00 0.  1.
         11    1    1    2    0    0 -0.14872626234E+03  0.98816417125E+02  0.32850444344E+03  0.37389751906E+03  0.00000000000E+00 0. -1.
</event>
<event>
 7    1  0.2679104E-009  0.1331509E+03  0.7561462E-02  0.1222854E+00
          3   -1    0    0  501    0  0.00000000000E+00  0.00000000000E+00  0.27037596743E+03  0.27037596743E+03  0.00000000000E+00 0. -1.
         -3   -1    0    0    0  501 -0.00000000000E+00 -0.00000000000E+00 -0.86306618817E+02  0.86306618817E+02  0.00000000000E+00 0.  1.
         25    2    1    2    0    0 -0.29162268753E+02  0.91103104672E+02  0.42986985245E+02  0.16322359188E+03  0.12507536307E+03 0.  0.
          5    1    3    3  502    0 -0.51354612211E+02  0.11130481244E+03  0.49444442891E+02  0.13224327129E+03  0.41800000000E+01 0.  1.
         -5    1    3    3    0  502  0.22192343459E+02 -0.20201707767E+02 -0.64574576451E+01  0.30980320594E+02  0.41800000000E+01 0.  1.
        -11    1    1    2    0    0 -0.17694102925E+02 -0.41501940885E+02  0.10918292553E+03  0.11813722361E+03  0.00000000000E+00 0. -1.
         11    1    1    2    0    0  0.46856371678E+02 -0.49601163787E+02  0.31899437844E+02  0.75321770762E+02  0.00000000000E+00 0.  1.
</event>
<event>
 7    1  0.2679104E-009  0.8635706E+02  0.7561462E-02  0.1311921E+00
          2   -1    0    0  501    0  0.00000000000E+00  0.00000000000E+00  0.32529708791E+03  0.32529708791E+03  0.00000000000E+00 0. -1.
         -2   -1    0    0    0  501 -0.00000000000E+00 -0.00000000000E+00 -0.43038196211E+02  0.43038196211E+02  0.00000000000E+00 0.  1.
         25    2    1    2    0    0  0.16870585635E+02  0.33439852505E+02  0.20361069064E+03  0.24188608364E+03  0.12509485890E+03 0.  0.
          5    1    3    3  502    0 -0.29051497354E+02  0.30610997371E+00 -0.11733511829E+01  0.29375710287E+02  0.41800000000E+01 0.  1.
         -5    1    3    3    0  502  0.45922082989E+02  0.33133742531E+02  0.20478404182E+03  0.21251037336E+03  0.41800000000E+01 0.  1.
        -11    1    1    2    0    0 -0.16796483788E+02  0.23915655495E+02  0.14416703484E+00  0.29225010343E+02  0.00000000000E+00 0.  1.
         11    1    1    2    0    0 -0.74101846582E-01 -0.57355508000E+02  0.78504034031E+02  0.97224190138E+02  0.00000000000E+00 0. -1.
</event>
<event>
 7    1  0.2679104E-009  0.1049588E+03  0.7561462E-02  0.1270201E+00
          1   -1    0    0  501    0  0.00000000000E+00  0.00000000000E+00  0.71855752411E+03  0.71855752411E+03  0.00000000000E+00 0. -1.
         -1   -1    0    0    0  501 -0.00000000000E+00 -0.00000000000E+00 -0.10782670690E+03  0.10782670690E+03  0.00000000000E+00 0.  1.
         25    2    1    2    0    0  0.44425613014E+02  0.26006361904E+02  0.68448069742E+03  0.69771751679E+03  0.12508374053E+03 0.  0.
          5    1    3    3  502    0  0.83257078135E+02  0.24596967588E+02  0.33627955074E+03  0.34733004551E+03  0.41800000000E+01 0.  1.
         -5    1    3    3    0  502 -0.38831465121E+02  0.14093943167E+01  0.34820114669E+03  0.35038747128E+03  0.41800000000E+01 0.  1.
        -11    1    1    2    0    0  0.51972059409E+01  0.17296983227E+02 -0.58279153763E+02  0.61013575061E+02  0.00000000000E+00 0.  1.
         11    1    1    2    0    0 -0.49622818955E+02 -0.43303345132E+02 -0.15470726442E+02  0.67653139153E+02  0.00000000000E+00 0. -1.
</event>
<event>
 7    1  0.2679104E-009  0.1145678E+03  0.7561462E-02  0.1252337E+00
         -3   -1    0    0    0  501 -0.00000000000E+00  0.00000000000E+00  0.35738418555E+02  0.35738418555E+02  0.00000000000E+00 0.  1.
          3   -1    0    0  501    0  0.00000000000E+00 -0.00000000000E+00 -0.42143552148E+03  0.42143552148E+03  0.00000000000E+00 0. -1.
         25    2    1    2    0    0  0.26323995889E+02 -0.38951635266E+02 -0.28041139164E+03  0.31061852728E+03  0.12507253207E+03 0.  0.
          5    1    3    3  502    0  0.39981205730E+02  0.36904570665E+02 -0.14223171210E+03  0.15234098751E+03  0.41800000000E+01 0.  1.
         -5    1    3    3    0  502 -0.13657209842E+02 -0.75856205930E+02 -0.13817967953E+03  0.15827753977E+03  0.41800000000E+01 0.  1.
        -11    1    1    2    0    0 -0.19362684154E+02 -0.25796574323E+02 -0.56972147645E+02  0.65469094936E+02  0.00000000000E+00 0. -1.
         11    1    1    2    0    0 -0.69613117345E+01  0.64748209588E+02 -0.48313563642E+02  0.81086317821E+02  0.00000000000E+00 0.  1.
</event>
<event>
 7    1  0.2679104E-009  0.1179608E+03  0.7561462E-02  0.1246500E+00
         -2   -1    0    0    0  501 -0.00000000000E+00  0.00000000000E+00  0.13809246806E+03  0.13809246806E+03  0.00000000000E+00 0. -1.
          2   -1    0    0  501    0  0.00000000000E+00 -0.00000000000E+00 -0.12880697047E+03  0.12880697047E+03  0.00000000000E+00 0.  1.
         25    2    1    2    0    0  0.38593236533E+02  0.51459837672E+02 -0.39018315717E+02  0.14597232560E+03  0.12509171867E+03 0.  0.
          5    1    3    3  502    0  0.73763310722E+02  0.54502807821E+02  0.18221765762E+01  0.91827963042E+02  0.41800000000E+01 0.  1.
         -5    1    3    3    0  502 -0.35170074189E+02 -0.30429701487E+01 -0.40840492294E+02  0.54144362555E+02  0.41800000000E+01 0.  1.
        -11    1    1    2    0    0 -0.67069087614E+02 -0.34545836640E+02  0.44498755570E+02  0.87588906773E+02  0.00000000000E+00 0. -1.
         11    1    1    2    0    0  0.28475851080E+02 -0.16914001032E+02  0.38050577295E+01  0.33338206160E+02  0.00000000000E+00 0.  1.
</event>
<event>
 7    1  0.2679104E-009  0.1813822E+03  0.7561462E-02  0.1166472E+00
          2   -1    0    0  501    0  0.00000000000E+00  0.00000000000E+00  0.31335360283E+02  0.31335360283E+02  0.00000000000E+00 0.  1.
         -2   -1    0    0    0  501 -0.00000000000E+00 -0.00000000000E+00 -0.12279579858E+04  0.12279579858E+04  0.00000000000E+00 0. -1.
         25    2    1    2    0    0 -0.11621102749E+03  0.10483027106E+03 -0.78185942759E+03  0.80712181304E+03  0.12508824060E+03 0.  0.
          5    1    3    3  502    0 -0.63271957769E+02 -0.19650366961E+01 -0.13255558356E+03  0.14695460912E+03  0.41800000000E+01 0. -1.
         -5    1    3    3    0  502 -0.52939069723E+02  0.10679530775E+03 -0.64930384402E+03  0.66016720391E+03  0.41800000000E+01 0. -1.
        -11    1    1    2    0    0  0.23966148604E+02  0.15419973651E+02 -0.68738096028E+02  0.74411542867E+02  0.00000000000E+00 0.  1.
         11    1    1    2    0    0  0.92244878888E+02 -0.12025024471E+03 -0.34602510193E+03  0.37775999020E+03  0.00000000000E+00 0. -1.
</event>
<event>
 7    1  0.2679104E-009  0.1291377E+03  0.7561462E-02  0.1228741E+00
         -3   -1    0    0    0  501 -0.00000000000E+00  0.00000000000E+00  0.13160122840E+03  0.13160122840E+03  0.00000000000E+00 0.  1.
          3   -1    0    0  501    0  0.00000000000E+00 -0.00000000000E+00 -0.16448204039E+03  0.16448204039E+03  0.00000000000E+00 0. -1.
         25    2    1    2    0    0  0.51003383505E+02 -0.86003637460E+02 -0.37542958912E+02  0.16448308912E+03  0.12508893658E+03 0.  0.
          5    1    3    3  502    0  0.83606614258E+02 -0.62447382054E+02 -0.57680294668E+02  0.11930729343E+03  0.41800000000E+01 0. -1.
         -5    1    3    3    0  502 -0.32603230753E+02 -0.23556255406E+02  0.20137335756E+02  0.45175795683E+02  0.41800000000E+01 0. -1.
        -11    1    1    2    0    0  0.94516970325E+01  0.28254601463E+02 -0.28902685514E+02  0.41509303904E+02  0.00000000000E+00 0. -1.
         11    1    1    2    0    0 -0.60455080538E+02  0.57749035998E+02  0.33564832431E+02  0.90090875773E+02  0.00000000000E+00 0.  1.
</event>
<event>
 7    1  0.2679104E-009  0.1141126E+03  0.7561462E-02  0.1253138E+00
          2   -1    0    0  501    0  0.00000000000E+00  0.00000000000E+00  0.52455735385E+02  0.52455735385E+02  0.00000000000E+00 0. -1.
         -2   -1    0    0    0  501 -0.00000000000E+00 -0.00000000000E+00 -0.28513859271E+03  0.28513859271E+03  0.00000000000E+00 0.  1.
         25    2    1    2    0    0 -0.24513078968E+02 -0.43201210738E+02 -0.91648270426E+02  0.16283203918E+03  0.12509049469E+03 0.  0.
          5    1    3    3  502    0  0.36891408234E+02  0.20577074814E+02 -0.47863305632E+02  0.63974685896E+02  0.41800000000E+01 0.  1.
         -5    1    3    3    0  502 -0.61404487202E+02 -0.63778285552E+02 -0.43784964794E+02  0.98857353285E+02  0.41800000000E+01 0.  1.
        -11    1    1    2    0    0  0.51809357606E+02  0.77243262225E+01 -0.45997553426E+02  0.69711187569E+02  0.00000000000E+00 0. -1.
         11    1    1    2    0    0 -0.27296278638E+02  0.35476884516E+02 -0.95037033472E+02  0.10505110134E+03  0.00000000000E+00 0.  1.
</event>
<event>
 7    1  0.2679104E-009  0.1502736E+03  0.7561462E-02  0.1200137E+00
          1   -1    0    0  501    0  0.00000000000E+00  0.00000000000E+00  0.89433044366E+03  0.89433044366E+03  0.00000000000E+00 0. -1.
         -1   -1    0    0    0  501 -0.00000000000E+00 -0.00000000000E+00 -0.39288172062E+02  0.39288172062E+02  0.00000000000E+00 0.  1.
         25    2    1    2    0    0 -0.12800615529E+03 -0.43731413889E+02  0.27577189422E+03  0.33165693786E+03  0.12509266338E+03 0.  0.
          5    1    3    3  502    0 -0.86736280419E+02 -0.66960294565E+02  0.96116384656E+02  0.14581733501E+03  0.41800000000E+01 0. -1.
         -5    1    3    3    0  502 -0.41269874872E+02  0.23228880676E+02  0.17965550957E+03  0.18583960285E+03  0.41800000000E+01 0. -1.
        -11    1    1    2    0    0  0.88389775566E+02  0.59246209719E+01  0.48428807412E+03  0.49232386931E+03  0.00000000000E+00 0. -1.
         11    1    1    2    0    0  0.39616379726E+02  0.37806792917E+02  0.94982303253E+02  0.10963780855E+03  0.00000000000E+00 0.  1.
</event>
<event>
 7    1  0.2679104E-009  0.9246945E+02  0.7561462E-02  0.1296979E+00
          2   -1    0    0  501    0  0.00000000000E+00  0.00000000000E+00  0.60358023395E+03  0.60358023395E+03  0.00000000000E+00 0. -1.
         -2   -1    0    0    0  501 -0.00000000000E+00 -0.00000000000E+00 -0.24248878572E+02  0.24248878572E+02  0.00000000000E+00 0.  1.
         25    2    1    2    0    0  0.36169537988E+02 -0.18240187808E+02  0.41307491339E+03  0.43349752074E+03  0.12509307128E+03 0.  0.
          5    1    3    3  502    0 -0.21219240687E+02  0.69073309118E+01  0.32241591939E+03  0.32321427084E+03  0.41800000000E+01 0.  1.
         -5    1    3    3    0  502  0.57388778674E+02 -0.25147518720E+02  0.90658993999E+02  0.11028324990E+03  0.41800000000E+01 0.  1.
        -11    1    1    2    0    0  0.23632797447E+02  0.30306894429E+02  0.79131424643E+02  0.87970445782E+02  0.00000000000E+00 0.  1.
         11    1    1    2    0    0 -0.59802335434E+02 -0.12066706620E+02  0.87125017345E+02  0.10636114600E+03  0.00000000000E+00 0. -1.
</event>
<event>
 7    1  0.2679104E-009  0.1009509E+03  0.7561462E-02  0.1278309E+00
         -2   -1    0    0    0  501 -0.00000000000E+00  0.00000000000E+00  0.58263438061E+02  0.58263438061E+02  0.00000000000E+00 0.  1.
          2   -1    0    0  501    0  0.00000000000E+00 -0.00000000000E+00 -0.27306767567E+03  0.27306767567E+03  0.00000000000E+00 0. -1.
         25    2    1    2    0    0 -0.54277367728E+02  0.94120911452E+01 -0.68367626440E+02  0.15283294522E+03  0.12509658946E+03 0.  0.
          5    1    3    3  502    0 -0.83661572856E+02  0.30561127995E+02 -0.18496980494E+02  0.91065097620E+02  0.41800000000E+01 0. -1.
         -5    1    3    3    0  502  0.29384205128E+02 -0.21149036850E+02 -0.49870645946E+02  0.61767847605E+02  0.41800000000E+01 0. -1.
        -11    1    1    2    0    0  0.42003455474E+02  0.18425728435E+02 -0.22891569281E+02  0.51262283253E+02  0.00000000000E+00 0.  1.
         11    1    1    2    0    0  0.12273912254E+02 -0.27837819580E+02 -0.12354504189E+03  0.12723588526E+03  0.00000000000E+00 0. -1.
</event>
<event>
 7    1  0.2679104E-009  0.1078014E+03  0.7561462E-02  0.1264696E+00
         -2   -1    0    0    0  501 -0.00000000000E+00  0.00000000000E+00  0.51350979413E+02  0.51350979413E+02  0.00000000000E+00 0. -1.
          2   -1    0    0  501    0  0.00000000000E+00 -0.00000000000E+00 -0.42151380952E+03  0.42151380952E+03  0.00000000000E+00 0.  1.
         25    2    1    2    0    0  0.41383299568E+02  0.10322052626E+02 -0.58064987949E+02  0.14435443607E+03  0.12509012005E+03 0.  0.
          5    1    3    3  502    0 -0.32767503030E+02  0.26906558634E+02 -0.53122245782E+02  0.68096384260E+02  0.41800000000E+01 0.  1.
         -5    1    3    3    0  502  0.74150802598E+02 -0.16584506008E+02 -0.49427421678E+01  0.76258051808E+02  0.41800000000E+01 0.  1.
        -11    1    1    2    0    0 -0.46774446612E+02  0.30424689173E+02 -0.23034294480E+03  0.23700502693E+03  0.00000000000E+00 0.  1.
         11    1    1    2    0    0  0.53911470444E+01 -0.40746741799E+02 -0.81754897354E+02  0.91505325938E+02  0.00000000000E+00 0. -1.
</event>
<event>
 7    1  0.2679104E-009  0.1664948E+03  0.7561462E-02  0.1181553E+00
          2   -1    0    0  501    0  0.00000000000E+00  0.00000000000E+00  0.27872321941E+03  0.27872321941E+03  0.00000000000E+00 0.  1.
         -2   -1    0    0    0  501 -0.00000000000E+00 -0.00000000000E+00 -0.12285803999E+03  0.12285803999E+03  0.00000000000E+00 0. -1.
         25    2    1    2    0    0 -0.11712888019E+03 -0.50572853383E+02 -0.20502189844E+01  0.17868388853E+03  0.12508773140E+03 0.  0.
          5    1    3    3  502    0  0.24925763074E+02  0.23004328900E+01  0.82918915238E+01  0.26698567777E+02  0.41800000000E+01 0. -1.
         -5    1    3    3    0  502 -0.14205464327E+03 -0.52873286273E+02 -0.10342110508E+02  0.15198532075E+03  0.41800000000E+01 0. -1.
        -11    1    1    2    0    0  0.62943424001E+02 -0.20868520898E+02  0.81637577797E+02  0.10517634667E+03  0.00000000000E+00 0.  1.
         11    1    1    2    0    0  0.54185456191E+02  0.71441374280E+02  0.76277820612E+02  0.11772102420E+03  0.00000000000E+00 0. -1.
</event>
<event>
 7    1  0.2679104E-009  0.1784425E+03  0.7561462E-02  0.1169319E+00
          2   -1    0    0  501    0  0.00000000000E+00  0.00000000000E+00  0.23836862084E+03  0.23836862084E+03  0.00000000000E+00 0. -1.
         -2   -1    0    0    0  501 -0.00000000000E+00 -0.00000000000E+00 -0.15960343944E+03  0.15960343944E+03  0.00000000000E+00 0.  1.
         25    2    1    2    0    0  0.63108211385E+02 -0.15087491080E+03  0.43398747523E+02  0.21041947805E+03  0.12508805060E+03 0.  0.
          5    1    3    3  502    0 -0.69249349269E+01 -0.64821558257E+02  0.70519981138E+02  0.96126631473E+02  0.41800000000E+01 0.  1.
         -5    1    3    3    0  502  0.70033146312E+02 -0.86053352540E+02 -0.27121233615E+02  0.11429284658E+03  0.41800000000E+01 0.  1.
        -11    1    1    2    0    0 -0.25371653303E+02  0.13852058574E+03  0.42736821668E+02  0.14716694395E+03  0.00000000000E+00 0.  1.
         11    1    1    2    0    0 -0.37736558082E+02  0.12354325057E+02 -0.73703877848E+01  0.40385638284E+02  0.00000000000E+00 0. -1.
</event>
<event>
 7    1  0.2679104E-009  0.7538730E+02  0.7561462E-02  0.1342676E+00
          2   -1    0    0  501    0  0.00000000000E+00  0.00000000000E+00  0.29347687416E+03  0.29347687416E+03  0.00000000000E+00 0. -1.
         -2   -1    0    0    0  501 -0.00000000000E+00 -0.00000000000E+00 -0.95900182331E+02  0.95900182331E+02  0.00000000000E+00 0.  1.
         25    2    1    2    0    0 -0.25481378853E+00  0.23876137808E+02  0.24908410434E+03  0.27975237620E+03  0.12509342936E+03 0.  0.
          5    1    3    3  502    0  0.31491432061E+02 -0.16068854509E+00  0.23525928668E+03  0.23739448284E+03  0.41800000000E+01 0.  1.
         -5    1    3    3    0  502 -0.31746245849E+02  0.24036826353E+02  0.13824817661E+02  0.42357893361E+02  0.41800000000E+01 0.  1.
        -11    1    1    2    0    0  0.37713585293E+02 -0.99447465386E+01  0.61354731215E+01  0.39482357197E+02  0.00000000000E+00 0. -1.
         11    1    1    2    0    0 -0.37458771505E+02 -0.13931391269E+02 -0.57642885631E+02  0.70142323095E+02  0.00000000000E+00 0.  1.
</event>
<event>
 7    1  0.2679104E-009  0.1136871E+03  0.7561462E-02  0.1253890E+00
          2   -1    0    0  501    0  0.00000000000E+00  0.00000000000E+00  0.32008649978E+03  0.32008649978E+03  0.00000000000E+00 0. -1.
         -2   -1    0    0    0  501 -0.00000000000E+00 -0.00000000000E+00 -0.65380686915E+02  0.65380686915E+02  0.00000000000E+00 0.  1.
         25    2    1    2    0    0 -0.15892138985E+02 -0.64040825247E+02  0.23454882854E+03  0.27388927987E+03  0.12509355411E+03 0.  0.
          5    1    3    3  502    0 -0.30935099810E+02 -0.98629894296E+02  0.16918196609E+03  0.19830493312E+03  0.41800000000E+01 0.  1.
         -5    1    3    3    0  502  0.15042960825E+02  0.34589069049E+02  0.65366862450E+02  0.75584346756E+02  0.41800000000E+01 0.  1.
        -11    1    1    2    0    0  0.13458509828E+02 -0.68076947741E+01  0.35918481442E+02  0.38956559192E+02  0.00000000000E+00 0. -1.
         11    1    1    2    0    0  0.24336291570E+01  0.70848520021E+02 -0.15761497116E+02  0.72621347629E+02  0.00000000000E+00 0.  1.
</event>
<event>
 7    1  0.2952711E-009  0.1151426E+03  0.7561462E-02  0.1251332E+00
          3   -1    0    0  501    0  0.00000000000E+00  0.00000000000E+00  0.31480714173E+03  0.31480714173E+03  0.00000000000E+00 0. -1.
         -3   -1    0    0    0  501 -0.00000000000E+00 -0.00000000000E+00 -0.62546540117E+02  0.62546540117E+02  0.00000000000E+00 0.  1.
         25    2    1    2    0    0 -0.54964540906E+02  0.69922675713E+02  0.13195771784E+03  0.20241280341E+03  0.12509125610E+03 0.  0.
          5    1    3    3  502    0  0.30471316664E+02  0.16194828267E+02  0.83362935450E+02  0.90319571570E+02  0.41800000000E+01 0. -1.
         -5    1    3    3    0  502 -0.85435857570E+02  0.53727847446E+02  0.48594782385E+02  0.11209323184E+03  0.41800000000E+01 0. -1.
        -11    1    1    2    0    0  0.34181215592E+02 -0.18098567279E+02  0.11200069906E+03  0.11849080229E+03  0.00000000000E+00 0. -1.
         11    1    1    2    0    0  0.20783325314E+02 -0.51824108434E+02  0.83021847198E+01  0.56450076149E+02  0.00000000000E+00 0.  1.
</event>
<event>
 7    1  0.2679104E-009  0.1150981E+03  0.7561462E-02  0.1251410E+00
         -1   -1    0    0    0  501 -0.00000000000E+00  0.00000000000E+00  0.19762156405E+03  0.19762156405E+03  0.00000000000E+00 0.  1.
          1   -1    0    0  501    0  0.00000000000E+00 -0.00000000000E+00 -0.14550427098E+03  0.14550427098E+03  0.00000000000E+00 0. -1.
         25    2    1    2    0    0 -0.87371570777E+02 -0.68964197932E+02  0.95865900434E+02  0.19294446948E+03  0.12508974962E+03 0.  0.
          5    1    3    3  502    0 -0.62058627348E+02 -0.39617001682E+02 -0.15149380532E+02  0.75284501599E+02  0.41800000000E+01 0. -1.
         -5    1    3    3    0  502 -0.25312943429E+02 -0.29347196251E+02  0.11101528097E+03  0.11765996788E+03  0.41800000000E+01 0. -1.
        -11    1    1    2    0    0  0.78015318695E+02  0.73400152293E+02 -0.19658219587E+01  0.10713466649E+03  0.00000000000E+00 0.  1.
         11    1    1    2    0    0  0.93562520824E+01 -0.44359543605E+01 -0.41782785401E+02  0.43046699061E+02  0.00000000000E+00 0. -1.
</event>
<event>
 7    1  0.2679104E-009  0.1340235E+03  0.7561462E-02  0.1221605E+00
          1   -1    0    0  501    0  0.00000000000E+00  0.00000000000E+00  0.76457592786E+03  0.76457592786E+03  0.00000000000E+00 0. -1.
         -1   -1    0    0    0  501 -0.00000000000E+00 -0.00000000000E+00 -0.29141680865E+02  0.29141680865E+02  0.00000000000E+00 0.  1.
         25    2    1    2    0    0 -0.33309825308E+02  0.96989338616E+02  0.38555121716E+03  0.41810675935E+03  0.12508814849E+03 0.  0.
          5    1    3    3  502    0  0.37025364424E+02  0.30185094516E+01  0.48880389894E+02  0.61536606392E+02  0.41800000000E+01 0.  1.
         -5    1    3    3    0  502 -0.70335189733E+02  0.93970829164E+02  0.33667082726E+03  0.35657015295E+03  0.41800000000E+01 0.  1.
        -11    1    1    2    0    0  0.37210709647E+02 -0.34950270577E+02  0.26792900287E+03  0.27274916847E+03  0.00000000000E+00 0. -1.
         11    1    1    2    0    0 -0.39008843390E+01 -0.62039068038E+02  0.81954026972E+02  0.10286168090E+03  0.00000000000E+00 0.  1.
</event>
<event>
 7    1  0.2679104E-009  0.8828154E+02  0.7561462E-02  0.1307067E+00
          1   -1    0    0  501    0  0.00000000000E+00  0.00000000000E+00  0.76115824251E+02  0.76115824251E+02  0.00000000000E+00 0. -1.
         -1   -1    0    0    0  501 -0.00000000000E+00 -0.00000000000E+00 -0.16686807894E+03  0.16686807894E+03  0.00000000000E+00 0.  1.
         25    2    1    2    0    0 -0.14600220201E+02 -0.28551378583E+02 -0.63248414828E+02  0.14379130523E+03  0.12508888773E+03 0.  0.
          5    1    3    3  502    0 -0.60018890512E+02 -0.50324477756E+02 -0.41900926593E+02  0.88926825700E+02  0.41800000000E+01 0. -1.
         -5    1    3    3    0  502  0.45418670312E+02  0.21773099173E+02 -0.21347488234E+02  0.54864479533E+02  0.41800000000E+01 0. -1.
        -11    1    1    2    0    0  0.23545035600E+01  0.34071742347E+02 -0.57188373616E+02  0.66610339966E+02  0.00000000000E+00 0.  1.
         11    1    1    2    0    0  0.12245716641E+02 -0.55203637644E+01  0.29684533750E+02  0.32582257996E+02  0.00000000000E+00 0. -1.
</event>
<event>
 7    1  0.2679104E-009  0.2059114E+03  0.7561462E-02  0.1144845E+00
          1   -1    0    0  501    0  0.00000000000E+00  0.00000000000E+00  0.85646897123E+03  0.85646897123E+03  0.00000000000E+00 0. -1.
         -1   -1    0    0    0  501 -0.00000000000E+00 -0.00000000000E+00 -0.66972534265E+02  0.66972534265E+02  0.00000000000E+00 0.  1.
         25    2    1    2    0    0  0.17932506819E+03  0.80003268423E+02  0.24871837297E+03  0.34068622011E+03  0.12509303930E+03 0.  0.
          5    1    3    3  502    0  0.49576394607E+02  0.35918003863E+02  0.56529985103E+01  0.61622647589E+02  0.41800000000E+01 0. -1.
         -5    1    3    3    0  502  0.12974867358E+03  0.44085264560E+02  0.24306537446E+03  0.27906357252E+03  0.41800000000E+01 0. -1.
        -11    1    1    2    0    0 -0.38809478496E+02  0.17253802045E+02  0.15711118976E+03  0.16275071507E+03  0.00000000000E+00 0. -1.
         11    1    1    2    0    0 -0.14051558969E+03 -0.97257070468E+02  0.38366687423E+03  0.42000457032E+03  0.00000000000E+00 0.  1.
</event>
<event>
 7    1  0.2679104E-009  0.8692759E+02  0.7561462E-02  0.1310467E+00
         -2   -1    0    0    0  501 -0.00000000000E+00  0.00000000000E+00  0.13224685836E+03  0.13224685836E+03  0.00000000000E+00 0.  1.
          2   -1    0    0  501    0  0.00000000000E+00 -0.00000000000E+00 -0.62717580688E+02  0.62717580688E+02  0.00000000000E+00 0. -1.
         25    2    1    2    0    0 -0.32567132910E+02 -0.28384801681E+02  0.52694726876E+02  0.14245168782E+03  0.12509769786E+03 0.  0.
          5    1    3    3  502    0  0.22295331011E+02 -0.57959726130E+02  0.50155013084E+02  0.79933781191E+02  0.41800000000E+01 0.  1.
         -5    1    3    3    0  502 -0.54862463921E+02  0.29574924449E+02  0.25397137913E+01  0.62517906633E+02  0.41800000000E+01 0.  1.
        -11    1    1    2    0    0  0.21699546309E+02  0.34814893000E+01  0.11568377433E+02  0.24835829646E+02  0.00000000000E+00 0.  1.
         11    1    1    2    0    0  0.10867586601E+02  0.24903312381E+02  0.52661733617E+01  0.27676921577E+02  0.00000000000E+00 0. -1.
</event>
<event>
 7    1  0.2679104E-009  0.1998650E+03  0.7561462E-02  0.1149853E+00
          2   -1    0    0  501    0  0.00000000000E+00  0.00000000000E+00  0.57156028415E+02  0.57156028415E+02  0.00000000000E+00 0.  1.
         -2   -1    0    0    0  501 -0.00000000000E+00 -0.00000000000E+00 -0.10395133492E+04  0.10395133492E+04  0.00000000000E+00 0. -1.
         25    2    1    2    0    0  0.59543078489E+02 -0.17959087266E+03 -0.26165446274E+03  0.34627869427E+03  0.12509043328E+03 0.  0.
          5    1    3    3  502    0  0.36049242305E+02 -0.17211901433E+03 -0.14792941887E+03  0.22983709085E+03  0.41800000000E+01 0.  1.
         -5    1    3    3    0  502  0.23493836185E+02 -0.74718583363E+01 -0.11372504387E+03  0.11644160342E+03  0.41800000000E+01 0.  1.
        -11    1    1    2    0    0 -0.55738356798E+02  0.71477289930E+02 -0.21641755525E+03  0.23463232005E+03  0.00000000000E+00 0.  1.
         11    1    1    2    0    0 -0.38047216910E+01  0.10811358273E+03 -0.50428530280E+03  0.51575836329E+03  0.00000000000E+00 0. -1.
</event>
<event>
 7    1  0.2679104E-009  0.1100620E+03  0.7561462E-02  0.1260455E+00
         -2   -1    0    0    0  501 -0.00000000000E+00  0.00000000000E+00  0.24083220629E+03  0.24083220629E+03  0.00000000000E+00 0.  1.
          2   -1    0    0  501    0  0.00000000000E+00 -0.00000000000E+00 -0.70320432848E+02  0.70320432848E+02  0.00000000000E+00 0. -1.
         25    2    1    2    0    0  0.51447716386E+02  0.17944328540E+02  0.40983969656E+02  0.14245759443E+03  0.12508242880E+03 0.  0.
          5    1    3    3  502    0  0.37243551540E+02 -0.49622173831E+02  0.25041581051E+00  0.62185025329E+02  0.41800000000E+01 0. -1.
         -5    1    3    3    0  502  0.14204164846E+02  0.67566502371E+02  0.40733553846E+02  0.80272569104E+02  0.41800000000E+01 0. -1.
        -11    1    1    2    0    0 -0.50499276080E+02 -0.41396627604E+02  0.12971435493E+03  0.14522283408E+03  0.00000000000E+00 0.  1.
         11    1    1    2    0    0 -0.94844030606E+00  0.23452299064E+02 -0.18655114928E+00  0.23472210627E+02  0.00000000000E+00 0. -1.
</event>
<event>
 7    1  0.2679104E-009  0.1340844E+03  0.7561462E-02  0.1221518E+00
          1   -1    0    0  501    0  0.00000000000E+00  0.00000000000E+00  0.12174249827E+03  0.12174249827E+03  0.00000000000E+00 0. -1.
         -1   -1    0    0    0  501 -0.00000000000E+00 -0.00000000000E+00 -0.21830745098E+03  0.21830745098E+03  0.00000000000E+00 0.  1.
         25    2    1    2    0    0 -0.96716755294E+02  0.32816840794E+02 -0.11944595957E+03  0.20086444101E+03  0.12509240828E+03 0.  0.
          5    1    3    3  502    0 -0.36653025161E+02  0.60880762474E+02 -0.11375573142E+03  0.13419295929E+03  0.41800000000E+01 0.  1.
         -5    1    3    3    0  502 -0.60063730134E+02 -0.28063921680E+02 -0.56902281536E+01  0.66671481715E+02  0.41800000000E+01 0. -1.
        -11    1    1    2    0    0  0.34529497751E+02 -0.54651688456E+02 -0.10191000918E+02  0.65444249294E+02  0.00000000000E+00 0.  1.
         11    1    1    2    0    0  0.62187257543E+02  0.21834847661E+02  0.33072007783E+02  0.73741258953E+02  0.00000000000E+00 0. -1.
</event>
<event>
 7    1  0.2679104E-009  0.3174578E+03  0.7561462E-02  0.1076825E+00
         -1   -1    0    0    0  501 -0.00000000000E+00  0.00000000000E+00  0.23629042625E+03  0.23629042625E+03  0.00000000000E+00 0.  1.
          1   -1    0    0  501    0  0.00000000000E+00 -0.00000000000E+00 -0.49132445873E+03  0.49132445873E+03  0.00000000000E+00 0. -1.
         25    2    1    2    0    0 -0.25920605870E+03 -0.14882032192E+03  0.12165707547E+00  0.32400958818E+03  0.12508768663E+03 0.  0.
          5    1    3    3  502    0 -0.22239961832E+03 -0.16960998351E+03 -0.11526362988E+02  0.27996333006E+03  0.41800000000E+01 0.  1.
         -5    1    3    3    0  502 -0.36806440389E+02  0.20789661589E+02  0.11648020063E+02  0.44046258122E+02  0.41800000000E+01 0.  1.
        -11    1    1    2    0    0  0.18391476074E+03  0.15012750169E+03 -0.19255161090E+03  0.30567798226E+03  0.00000000000E+00 0.  1.
         11    1    1    2    0    0  0.75291297967E+02 -0.13071797695E+01 -0.62604078655E+02  0.97927314539E+02  0.00000000000E+00 0. -1.
</event>
<event>
 7    1  0.2679104E-009  0.1335715E+03  0.7561462E-02  0.1222250E+00
          1   -1    0    0  501    0  0.00000000000E+00  0.00000000000E+00  0.49294652598E+03  0.49294652598E+03  0.00000000000E+00 0. -1.
         -1   -1    0    0    0  501 -0.00000000000E+00 -0.00000000000E+00 -0.43847872231E+02  0.43847872231E+02  0.00000000000E+00 0.  1.
         25    2    1    2    0    0  0.77512067340E+02 -0.11562629825E+01  0.13485249236E+03  0.19960355506E+03  0.12508767712E+03 0.  0.
          5    1    3    3  502    0  0.67355060210E+01  0.55558355108E+02  0.45947512083E+02  0.72530987380E+02  0.41800000000E+01 0.  1.
         -5    1    3    3    0  502  0.70776561319E+02 -0.56714618091E+02  0.88904980280E+02  0.12707256768E+03  0.41800000000E+01 0.  1.
        -11    1    1    2    0    0 -0.63595515507E+02  0.42577498585E+02  0.16915950076E+03  0.18566682438E+03  0.00000000000E+00 0.  1.
         11    1    1    2    0    0 -0.13916551833E+02 -0.41421235602E+02  0.14508666063E+03  0.15152401878E+03  0.00000000000E+00 0. -1.
</event>
<event>
 7    1  0.2679104E-009  0.1042649E+03  0.7561462E-02  0.1271575E+00
          2   -1    0    0  501    0  0.00000000000E+00  0.00000000000E+00  0.26811552631E+03  0.26811552631E+03  0.00000000000E+00 0. -1.
         -2   -1    0    0    0  501 -0.00000000000E+00 -0.00000000000E+00 -0.52585155621E+02  0.52585155621E+02  0.00000000000E+00 0.  1.
         25    2    1    2    0    0  0.44151829866E+02 -0.16228544331E+02  0.99354341360E+02  0.16652632978E+03  0.12508790361E+03 0.  0.
          5    1    3    3  502    0 -0.84085238894E+01 -0.52619955025E+02  0.66851806785E+01  0.53867680306E+02  0.41800000000E+01 0. -1.
         -5    1    3    3    0  502  0.52560353755E+02  0.36391410694E+02  0.92669160682E+02  0.11265864947E+03  0.41800000000E+01 0. -1.
        -11    1    1    2    0    0 -0.84778953204E+01 -0.30822431991E+02  0.11461502678E+02  0.33959727127E+02  0.00000000000E+00 0.  1.
         11    1    1    2    0    0 -0.35673934546E+02  0.47050976321E+02  0.10471452665E+03  0.12021462503E+03  0.00000000000E+00 0. -1.
</event>
<event>
 7    1  0.2679104E-009  0.7179290E+02  0.7561462E-02  0.1354100E+00
         -4   -1    0    0    0  501 -0.00000000000E+00  0.00000000000E+00  0.24273944062E+02  0.24273944062E+02  0.00000000000E+00 0.  1.
          4   -1    0    0  501    0  0.00000000000E+00 -0.00000000000E+00 -0.42623585889E+03  0.42623585889E+03  0.00000000000E+00 0. -1.
         25    2    1    2    0    0 -0.14811814044E+02 -0.83000788192E+01 -0.22697789420E+03  0.25972655670E+03  0.12510251259E+03 0.  0.
          5    1    3    3  502    0  0.16023043946E+02  0.37838200608E+02 -0.18622347759E+03  0.19074884893E+03  0.41800000000E+01 0. -1.
         -5    1    3    3    0  502 -0.30834857990E+02 -0.46138279427E+02 -0.40754416610E+02  0.68977707768E+02  0.41800000000E+01 0. -1.
        -11    1    1    2    0    0  0.30000653918E+02  0.93035436903E+01 -0.17252861561E+03  0.17536452995E+03  0.00000000000E+00 0. -1.
         11    1    1    2    0    0 -0.15188839874E+02 -0.10034648711E+01 -0.24554050111E+01  0.15418716296E+02  0.00000000000E+00 0.  1.
</event>
<event>
 7    1  0.2679104E-009  0.2563540E+03  0.7561462E-02  0.1109354E+00
         -2   -1    0    0    0  501 -0.00000000000E+00  0.00000000000E+00  0.10397063341E+03  0.10397063341E+03  0.00000000000E+00 0.  1.
          2   -1    0    0  501    0  0.00000000000E+00 -0.00000000000E+00 -0.82552688010E+03  0.82552688010E+03  0.00000000000E+00 0. -1.
         25    2    1    2    0    0  0.23447954663E+03 -0.47439230921E+02 -0.16326717874E+03  0.31549079859E+03  0.12508850436E+03 0.  0.
          5    1    3    3  502    0  0.11956292929E+03 -0.84713862258E+02 -0.11059249760E+03  0.18362980543E+03  0.41800000000E+01 0. -1.
         -5    1    3    3    0  502  0.11491661734E+03  0.37274631337E+02 -0.52674681146E+02  0.13186099316E+03  0.41800000000E+01 0. -1.
        -11    1    1    2    0    0 -0.16426686377E+03  0.58051696039E+02 -0.46639463205E+03  0.49787303075E+03  0.00000000000E+00 0.  1.
         11    1    1    2    0    0 -0.70212682859E+02 -0.10612465118E+02 -0.91894435899E+02  0.11613368417E+03  0.00000000000E+00 0. -1.
</event>
<event>
 7    1  0.2679104E-009  0.1088876E+03  0.7561462E-02  0.1262644E+00
          1   -1    0    0  501    0  0.00000000000E+00  0.00000000000E+00  0.92975839902E+02  0.92975839902E+02  0.00000000000E+00 0. -1.
         -1   -1    0    0    0  501 -0.00000000000E+00 -0.00000000000E+00 -0.16491185630E+03  0.16491185630E+03  0.00000000000E+00 0.  1.
         25    2    1    2    0    0  0.56937235448E+02  0.45262334681E+01 -0.20537581964E+02  0.13903795073E+03  0.12508966344E+03 0.  0.
          5    1    3    3  502    0  0.75088839009E+02  0.46203825570E+02  0.16527404899E+01  0.88279845900E+02  0.41800000000E+01 0.  1.
         -5    1    3    3    0  502 -0.18151603561E+02 -0.41677592102E+02 -0.22190322453E+02  0.50758104829E+02  0.41800000000E+01 0.  1.
        -11    1    1    2    0    0 -0.15001229772E+02 -0.30880036698E+02  0.13775311099E+02  0.36991522773E+02  0.00000000000E+00 0. -1.
         11    1    1    2    0    0 -0.41936005676E+02  0.26353803230E+02 -0.65173745537E+02  0.81858222703E+02  0.00000000000E+00 0.  1.
</event>
<event>
 7    1  0.2679104E-009  0.1140230E+03  0.7561462E-02  0.1253296E+00
         -2   -1    0    0    0  501 -0.00000000000E+00  0.00000000000E+00  0.37406529680E+02  0.37406529680E+02  0.00000000000E+00 0.  1.
          2   -1    0    0  501    0  0.00000000000E+00 -0.00000000000E+00 -0.40330154566E+03  0.40330154566E+03  0.00000000000E+00 0. -1.
         25    2    1    2    0    0  0.21289054031E+02 -0.50506372511E+02 -0.23195515288E+03  0.26917301507E+03  0.12508717602E+03 0.  0.
          5    1    3    3  502    0  0.49032417002E+02 -0.79975519216E+02 -0.18152576679E+03  0.20437548287E+03  0.41800000000E+01 0.  1.
         -5    1    3    3    0  502 -0.27743362971E+02  0.29469146705E+02 -0.50429386094E+02  0.64797532193E+02  0.41800000000E+01 0.  1.
        -11    1    1    2    0    0  0.28448211233E+02  0.23235237453E+02 -0.14836889450E+02  0.39614520954E+02  0.00000000000E+00 0.  1.
         11    1    1    2    0    0 -0.49737265264E+02  0.27271135058E+02 -0.11910297365E+03  0.13192053932E+03  0.00000000000E+00 0. -1.
</event>
<event>
 7    1  0.2679104E-009  0.2635056E+03  0.7561462E-02  0.1105055E+00
         -2   -1    0    0    0  501 -0.00000000000E+00  0.00000000000E+00  0.35893575230E+02  0.35893575230E+02  0.00000000000E+00 0.  1.
          2   -1    0    0  501    0  0.00000000000E+00 -0.00000000000E+00 -0.20789414859E+04  0.20789414859E+04  0.00000000000E+00 0. -1.
         25    2    1    2    0    0 -0.14242600234E+03 -0.20221782241E+03 -0.11961728164E+04  0.12278656409E+04  0.12508961387E+03 0.  0.
          5    1    3    3  502    0 -0.45268258369E+01 -0.11235592204E+03 -0.48644137747E+03  0.49928652244E+03  0.41800000000E+01 0.  1.
         -5    1    3    3    0  502 -0.13789917650E+03 -0.89861900364E+02 -0.70973143890E+03  0.72857911841E+03  0.41800000000E+01 0.  1.
        -11    1    1    2    0    0  0.89066705040E+02  0.95888948137E+02 -0.29999186791E+03  0.32729602676E+03  0.00000000000E+00 0.  1.
         11    1    1    2    0    0  0.53359297301E+02  0.10632887427E+03 -0.54688322633E+03  0.55967339347E+03  0.00000000000E+00 0. -1.
</event>
<event>
 7    1  0.2679104E-009  0.1116780E+03  0.7561462E-02  0.1257494E+00
          1   -1    0    0  501    0  0.00000000000E+00  0.00000000000E+00  0.40058710862E+03  0.40058710862E+03  0.00000000000E+00 0. -1.
         -1   -1    0    0    0  501 -0.00000000000E+00 -0.00000000000E+00 -0.37065435907E+02  0.37065435907E+02  0.00000000000E+00 0.  1.
         25    2    1    2    0    0  0.54715225219E+02 -0.36688032057E+01  0.18335586954E+03  0.22863505859E+03  0.12508956446E+03 0.  0.
          5    1    3    3  502    0  0.20272821202E+02 -0.58396673225E+02  0.47339929987E+02  0.77972431631E+02  0.41800000000E+01 0.  1.
         -5    1    3    3    0  502  0.34442404017E+02  0.54727870019E+02  0.13601593955E+03  0.15066262696E+03  0.41800000000E+01 0.  1.
        -11    1    1    2    0    0 -0.25606052964E+02 -0.37968992983E+02  0.43294758331E+02  0.63021825389E+02  0.00000000000E+00 0.  1.
         11    1    1    2    0    0 -0.29109172255E+02  0.41637796188E+02  0.13687104484E+03  0.14599566054E+03  0.00000000000E+00 0. -1.
</event>
<event>
 7    1  0.2679104E-009  0.8475492E+02  0.7561462E-02  0.1316075E+00
         -2   -1    0    0    0  501 -0.00000000000E+00  0.00000000000E+00  0.28034565330E+02  0.28034565330E+02  0.00000000000E+00 0.  1.
          2   -1    0    0  501    0  0.00000000000E+00 -0.00000000000E+00 -0.58567675495E+03  0.58567675495E+03  0.00000000000E+00 0. -1.
         25    2    1    2    0    0  0.41589653631E+02  0.50067729244E+02 -0.25421385538E+03  0.29070545842E+03  0.12509397462E+03 0.  0.
          5    1    3    3  502    0  0.13819399253E+02 -0.12132203177E+02  0.74587183291E+01  0.20279818262E+02  0.41800000000E+01 0. -1.
         -5    1    3    3    0  502  0.27770254378E+02  0.62199932420E+02 -0.26167257371E+03  0.27042564015E+03  0.41800000000E+01 0. -1.
        -11    1    1    2    0    0 -0.20049086267E+02  0.71356004834E+01 -0.10429871119E+02  0.23699469740E+02  0.00000000000E+00 0.  1.
         11    1    1    2    0    0 -0.21540567364E+02 -0.57203329727E+02 -0.29299846312E+03  0.29930639212E+03  0.00000000000E+00 0. -1.
</event>
<event>
 7    1  0.2679104E-009  0.7741964E+02  0.7561462E-02  0.1336538E+00
         -4   -1    0    0    0  501 -0.00000000000E+00  0.00000000000E+00  0.13697422574E+03  0.13697422574E+03  0.00000000000E+00 0.  1.
          4   -1    0    0  501    0  0.00000000000E+00 -0.00000000000E+00 -0.16830622408E+03  0.16830622408E+03  0.00000000000E+00 0. -1.
         25    2    1    2    0    0  0.26003191840E+02  0.25338803897E+02  0.83468301383E+02  0.15470157619E+03  0.12508956539E+03 0.  0.
          5    1    3    3  502    0 -0.23717307083E+02  0.39135394715E+02  0.91426921938E+02  0.10232518864E+03  0.41800000000E+01 0.  1.
         -5    1    3    3    0  502  0.49720498924E+02 -0.13796590818E+02 -0.79586205547E+01  0.52376387548E+02  0.41800000000E+01 0.  1.
        -11    1    1    2    0    0 -0.36285465107E+02 -0.83066256793E+01 -0.12340915171E+03  0.12890094543E+03  0.00000000000E+00 0. -1.
         11    1    1    2    0    0  0.10282273266E+02 -0.17032178218E+02  0.86088519916E+01  0.21677928199E+02  0.00000000000E+00 0.  1.
</event>
<event>
 7    1  0.2679104E-009  0.1103500E+03  0.7561462E-02  0.1259923E+00
          2   -1    0    0  501    0  0.00000000000E+00  0.00000000000E+00  0.66446585104E+02  0.66446585104E+02  0.00000000000E+00 0. -1.
         -2   -1    0    0    0  501 -0.00000000000E+00 -0.00000000000E+00 -0.23765703999E+03  0.23765703999E+03  0.00000000000E+00 0.  1.
         25    2    1    2    0    0 -0.15051735164E+02  0.52422614058E+02 -0.64744454697E+02  0.15104409993E+03  0.12509112883E+03 0.  0.
          5    1    3    3  502    0 -0.23952635301E+01 -0.38002960025E+02  0.12163887221E+01  0.38326417254E+02  0.41800000000E+01 0. -1.
         -5    1    3    3    0  502 -0.12656471634E+02  0.90425574083E+02 -0.65960843419E+02  0.11271768267E+03  0.41800000000E+01 0. -1.
        -11    1    1    2    0    0  0.34233728239E+02 -0.61022113554E+02 -0.11132180128E+03  0.13148456157E+03  0.00000000000E+00 0.  1.
         11    1    1    2    0    0 -0.19181993075E+02  0.85994994956E+01  0.48558010914E+01  0.21574963595E+02  0.00000000000E+00 0. -1.
</event>
<event>
 7    1  0.2679104E-009  0.1069461E+03  0.7561462E-02  0.1266332E+00
          2   -1    0    0  501    0  0.00000000000E+00  0.00000000000E+00  0.91134581212E+03  0.91134581212E+03  0.00000000000E+00 0. -1.
         -2   -1    0    0    0  501 -0.00000000000E+00 -0.00000000000E+00 -0.14279345304E+02  0.14279345304E+02  0.00000000000E+00 0.  1.
         25    2    1    2    0    0 -0.11893888438E+02 -0.29800725509E+02  0.57524615697E+03  0.58956354117E+03  0.12508988825E+03 0.  0.
          5    1    3    3  502    0 -0.21927304029E+02  0.44489217981E+02  0.15929790549E+03  0.16689335599E+03  0.41800000000E+01 0. -1.
         -5    1    3    3    0  502  0.10033415591E+02 -0.74289943490E+02  0.41594825147E+03  0.42267018518E+03  0.41800000000E+01 0. -1.
        -11    1    1    2    0    0  0.47770296378E+02  0.20433178839E+02  0.24879057051E+03  0.25415795086E+03  0.00000000000E+00 0.  1.
         11    1    1    2    0    0 -0.35876407940E+02  0.93675466702E+01  0.73029739344E+02  0.81903665400E+02  0.00000000000E+00 0. -1.
</event>
<event>
 7    1  0.2679104E-009  0.2377017E+03  0.7561462E-02  0.1121333E+00
          2   -1    0    0  501    0  0.00000000000E+00  0.00000000000E+00  0.68344343458E+03  0.68344343458E+03  0.00000000000E+00 0. -1.
         -2   -1    0    0    0  501 -0.00000000000E+00 -0.00000000000E+00 -0.10139238076E+03  0.10139238076E+03  0.00000000000E+00 0.  1.
         25    2    1    2    0    0  0.17213674117E+03 -0.14211502983E+03  0.42819153173E+03  0.49881967833E+03  0.12508135068E+03 0.  0.
          5    1    3    3  502    0 -0.14585265343E+02 -0.24929274708E+02  0.21654102561E+02  0.36339665110E+02  0.41800000000E+01 0.  1.
         -5    1    3    3    0  502  0.18672200651E+03 -0.11718575512E+03  0.40653742916E+03  0.46248001322E+03  0.41800000000E+01 0.  1.
        -11    1    1    2    0    0 -0.14844544906E+03  0.10548347565E+03  0.77161763600E+02  0.19777955593E+03  0.00000000000E+00 0.  1.
         11    1    1    2    0    0 -0.23691292112E+02  0.36631554174E+02  0.76697758497E+02  0.88236581085E+02  0.00000000000E+00 0. -1.
</event>
<event>
 7    1  0.2679104E-009  0.5165178E+02  0.7561462E-02  0.1436631E+00
         -3   -1    0    0    0  501 -0.00000000000E+00  0.00000000000E+00  0.43994511618E+03  0.43994511618E+03  0.00000000000E+00 0.  1.
          3   -1    0    0  501    0  0.00000000000E+00 -0.00000000000E+00 -0.27596243573E+02  0.27596243573E+02  0.00000000000E+00 0. -1.
         25    2    1    2    0    0  0.14111322614E+02  0.12313209365E+02  0.24168548276E+03  0.27277919193E+03  0.12508345383E+03 0.  0.
          5    1    3    3  502    0 -0.99377939036E+00  0.59830098780E+01  0.25256841759E+03  0.25267580408E+03  0.41800000000E+01 0.  1.
         -5    1    3    3    0  502  0.15105102005E+02  0.63301994866E+01 -0.10882934834E+02  0.20103387842E+02  0.41800000000E+01 0.  1.
        -11    1    1    2    0    0  0.31041436548E+02  0.33975471028E+01  0.12430998081E+03  0.12817209305E+03  0.00000000000E+00 0.  1.
         11    1    1    2    0    0 -0.45152759163E+02 -0.15710756467E+02  0.46353409045E+02  0.66590074778E+02  0.00000000000E+00 0. -1.
</event>
<event>
 7    1  0.2679104E-009  0.6300355E+02  0.7561462E-02  0.1385643E+00
          2   -1    0    0  501    0  0.00000000000E+00  0.00000000000E+00  0.45674327661E+03  0.45674327661E+03  0.00000000000E+00 0. -1.
         -2   -1    0    0    0  501 -0.00000000000E+00 -0.00000000000E+00 -0.26075797973E+02  0.26075797973E+02  0.00000000000E+00 0.  1.
         25    2    1    2    0    0  0.21724067806E+01  0.91856812610E+01  0.27674086747E+03  0.30384527657E+03  0.12508936117E+03 0.  0.
          5    1    3    3  502    0  0.25846682997E+02 -0.14090341541E+02  0.51197307922E+01  0.30170727370E+02  0.41800000000E+01 0.  1.
         -5    1    3    3    0  502 -0.23674276216E+02  0.23276022802E+02  0.27162113667E+03  0.27367454920E+03  0.41800000000E+01 0.  1.
        -11    1    1    2    0    0  0.72373918301E+01  0.25689461178E+02  0.68890942973E+01  0.27564249969E+02  0.00000000000E+00 0.  1.
         11    1    1    2    0    0 -0.94097986107E+01 -0.34875142439E+02  0.14703751687E+03  0.15140954804E+03  0.00000000000E+00 0. -1.
</event>
<event>
 7    1  0.2679104E-009  0.9353055E+02  0.7561462E-02  0.1294520E+00
         -1   -1    0    0    0  501 -0.00000000000E+00  0.00000000000E+00  0.39620982103E+03  0.39620982103E+03  0.00000000000E+00 0.  1.
          1   -1    0    0  501    0  0.00000000000E+00 -0.00000000000E+00 -0.31323965600E+02  0.31323965600E+02  0.00000000000E+00 0. -1.
         25    2    1    2    0    0  0.20856251507E+02 -0.13694856428E+02  0.23662640557E+03  0.26881762784E+03  0.12509328082E+03 0.  0.
          5    1    3    3  502    0 -0.68122911280E+01 -0.56686306123E+02  0.19353412308E+03  0.20182337280E+03  0.41800000000E+01 0.  1.
         -5    1    3    3    0  502  0.27668542635E+02  0.42991449695E+02  0.43092282492E+02  0.66994255043E+02  0.41800000000E+01 0.  1.
        -11    1    1    2    0    0 -0.36916585325E+02  0.35647110767E+02  0.36406278710E+02  0.62920329844E+02  0.00000000000E+00 0. -1.
         11    1    1    2    0    0  0.16060333819E+02 -0.21952254339E+02  0.91853171148E+02  0.95795828943E+02  0.00000000000E+00 0.  1.
</event>
<event>
 7    1  0.2679104E-009  0.1660761E+03  0.7561462E-02  0.1182003E+00
         -2   -1    0    0    0  501 -0.00000000000E+00  0.00000000000E+00  0.13627345078E+03  0.13627345078E+03  0.00000000000E+00 0.  1.
          2   -1    0    0  501    0  0.00000000000E+00 -0.00000000000E+00 -0.34891218108E+03  0.34891218108E+03  0.00000000000E+00 0. -1.
         25    2    1    2    0    0 -0.14338913364E+03  0.76231671881E+01 -0.24849977900E+03  0.31307897442E+03  0.12509095785E+03 0.  0.
          5    1    3    3  502    0 -0.16329526445E+03 -0.65184189216E+01 -0.22991160508E+03  0.28210751803E+03  0.41800000000E+01 0.  1.
         -5    1    3    3    0  502  0.19906130807E+02  0.14141586110E+02 -0.18588173913E+02  0.30971456388E+02  0.41800000000E+01 0.  1.
        -11    1    1    2    0    0  0.17370913549E+02  0.21506932618E+01  0.42061346122E+02  0.45557995529E+02  0.00000000000E+00 0.  1.
         11    1    1    2    0    0  0.12601822009E+03 -0.97738604499E+01 -0.62002974246E+01  0.12654866191E+03  0.00000000000E+00 0. -1.
</event>
<event>
 7    1  0.2679104E-009  0.8300973E+02  0.7561462E-02  0.1320721E+00
          2   -1    0    0  501    0  0.00000000000E+00  0.00000000000E+00  0.15944925000E+03  0.15944925000E+03  0.00000000000E+00 0.  1.
         -2   -1    0    0    0  501 -0.00000000000E+00 -0.00000000000E+00 -0.13805807804E+03  0.13805807804E+03  0.00000000000E+00 0. -1.
         25    2    1    2    0    0 -0.85280301780E+01 -0.76843558632E+02  0.77044507079E+02  0.16601552584E+03  0.12509052301E+03 0.  0.
          5    1    3    3  502    0 -0.13790106022E+02 -0.10498437348E+02  0.95238982043E+02  0.96893345031E+02  0.41800000000E+01 0. -1.
         -5    1    3    3    0  502  0.52620758436E+01 -0.66345121284E+02 -0.18194474964E+02  0.69122180808E+02  0.41800000000E+01 0. -1.
        -11    1    1    2    0    0  0.15879690442E+02  0.28660767575E+02  0.22243706701E+02  0.39602861694E+02  0.00000000000E+00 0.  1.
         11    1    1    2    0    0 -0.73516602637E+01  0.48182791057E+02 -0.77897041827E+02  0.91888940510E+02  0.00000000000E+00 0. -1.
</event>
<event>
 7    1  0.2679104E-009  0.1150333E+03  0.7561462E-02  0.1251523E+00
         -2   -1    0    0    0  501 -0.00000000000E+00  0.00000000000E+00  0.28015729895E+03  0.28015729895E+03  0.00000000000E+00 0. -1.
          2   -1    0    0  501    0  0.00000000000E+00 -0.00000000000E+00 -0.69688842347E+02  0.69688842347E+02  0.00000000000E+00 0.  1.
         25    2    1    2    0    0  0.50905257591E+02  0.58423812679E+02  0.17321853943E+03  0.22728052082E+03  0.12508831121E+03 0.  0.
          5    1    3    3  502    0 -0.31268070547E+02  0.56424307683E+02  0.70387053713E+02  0.95567800350E+02  0.41800000000E+01 0. -1.
         -5    1    3    3    0  502  0.82173328139E+02  0.19995049952E+01  0.10283148572E+03  0.13171272047E+03  0.41800000000E+01 0. -1.
        -11    1    1    2    0    0 -0.48245501660E+02 -0.35147181752E+02 -0.18172012413E+02  0.62395311127E+02  0.00000000000E+00 0.  1.
         11    1    1    2    0    0 -0.26597559315E+01 -0.23276630926E+02  0.55421929579E+02  0.60170309349E+02  0.00000000000E+00 0. -1.
</event>
<event>
 7    1  0.2679104E-009  0.1409889E+03  0.7561462E-02  0.1212004E+00
         -1   -1    0    0    0  501 -0.00000000000E+00  0.00000000000E+00  0.17110925044E+02  0.17110925044E+02  0.00000000000E+00 0.  1.
          1   -1    0    0  501    0  0.00000000000E+00 -0.00000000000E+00 -0.13504710269E+04  0.13504710269E+04  0.00000000000E+00 0. -1.
         25    2    1    2    0    0  0.60823635106E+02  0.69280420624E+02 -0.95757832506E+03  0.97010529421E+03  0.12509493173E+03 0.  0.
          5    1    3    3  502    0  0.11668627829E+02 -0.36466464864E+02 -0.21734434358E+03  0.22073059602E+03  0.41800000000E+01 0.  1.
         -5    1    3    3    0  502  0.49155007277E+02  0.10574688549E+03 -0.74023398149E+03  0.74937469818E+03  0.41800000000E+01 0.  1.
        -11    1    1    2    0    0 -0.74868461019E+02 -0.79652278237E+02 -0.34701846117E+03  0.36382905914E+03  0.00000000000E+00 0.  1.
         11    1    1    2    0    0  0.14044825914E+02  0.10371857613E+02 -0.28763315584E+02  0.33647598557E+02  0.00000000000E+00 0. -1.
</event>
<event>
 7    1  0.2679104E-009  0.1241668E+03  0.7561462E-02  0.1236377E+00
          2   -1    0    0  501    0  0.00000000000E+00  0.00000000000E+00  0.69950211861E+03  0.69950211861E+03  0.00000000000E+00 0. -1.
         -2   -1    0    0    0  501 -0.00000000000E+00 -0.00000000000E+00 -0.25484454638E+02  0.25484454638E+02  0.00000000000E+00 0.  1.
         25    2    1    2    0    0 -0.41783249478E+02 -0.44342802717E+02  0.24883883459E+03  0.28509882589E+03  0.12509376818E+03 0.  0.
          5    1    3    3  502    0 -0.47971052106E+02 -0.83335442083E+02  0.14607424692E+03  0.17493191750E+03  0.41800000000E+01 0. -1.
         -5    1    3    3    0  502  0.61878026273E+01  0.38992639365E+02  0.10276458767E+03  0.11016690839E+03  0.41800000000E+01 0. -1.
        -11    1    1    2    0    0 -0.30730474648E+02  0.14294336230E+02  0.14618277264E+03  0.15006029834E+03  0.00000000000E+00 0.  1.
         11    1    1    2    0    0  0.72513724127E+02  0.30048466487E+02  0.27899605674E+03  0.28982744901E+03  0.00000000000E+00 0. -1.
</event>
<event>
 7    1  0.2679104E-009  0.1595519E+03  0.7561462E-02  0.1189204E+00
          2   -1    0    0  501    0  0.00000000000E+00  0.00000000000E+00  0.29039671738E+02  0.29039671738E+02  0.00000000000E+00 0. -1.
         -2   -1    0    0    0  501 -0.00000000000E+00 -0.00000000000E+00 -0.11680254214E+04  0.11680254214E+04  0.00000000000E+00 0.  1.
         25    2    1    2    0    0  0.12685999606E+03  0.53137013131E+02 -0.80035036285E+03  0.82165979176E+03  0.12508840597E+03 0.  0.
          5    1    3    3  502    0  0.14370063081E+03  0.47579631433E+02 -0.77904575538E+03  0.79362677248E+03  0.41800000000E+01 0.  1.
         -5    1    3    3    0  502 -0.16840634751E+02  0.55573816985E+01 -0.21304607472E+02  0.28033019276E+02  0.41800000000E+01 0.  1.
        -11    1    1    2    0    0 -0.96397061996E+01 -0.27939466780E+02 -0.22044840320E+02  0.36871570678E+02  0.00000000000E+00 0.  1.
         11    1    1    2    0    0 -0.11722028986E+03 -0.25197546352E+02 -0.31659054648E+03  0.33853373069E+03  0.00000000000E+00 0. -1.
</event>
<event>
 7    1  0.2679104E-009  0.2902959E+03  0.7561462E-02  0.1090195E+00
         -1   -1    0    0    0  501 -0.00000000000E+00  0.00000000000E+00  0.76010988159E+02  0.76010988159E+02  0.00000000000E+00 0.  1.
          1   -1    0    0  501    0  0.00000000000E+00 -0.00000000000E+00 -0.13971690811E+04  0.13971690811E+04  0.00000000000E+00 0. -1.
         25    2    1    2    0    0  0.24864536970E+03 -0.13482986529E+03 -0.40268365558E+03  0.50774538487E+03  0.12509051501E+03 0.  0.
          5    1    3    3  502    0  0.13245732034E+03 -0.65473948734E+02 -0.31071309103E+03  0.34408120701E+03  0.41800000000E+01 0. -1.
         -5    1    3    3    0  502  0.11618804936E+03 -0.69355916554E+02 -0.91970564543E+02  0.16366417787E+03  0.41800000000E+01 0. -1.
        -11    1    1    2    0    0 -0.19622831662E+03  0.58424771035E+02 -0.62503192391E+03  0.65771111593E+03  0.00000000000E+00 0.  1.
         11    1    1    2    0    0 -0.52417053082E+02  0.76405094253E+02 -0.29344251349E+03  0.30772356849E+03  0.00000000000E+00 0. -1.
</event>
<event>
 7    1  0.2679104E-009  0.1283358E+03  0.7561462E-02  0.1229946E+00
          2   -1    0    0  501    0  0.00000000000E+00  0.00000000000E+00  0.18023947347E+03  0.18023947347E+03  0.00000000000E+00 0. -1.
         -2   -1    0    0    0  501 -0.00000000000E+00 -0.00000000000E+00 -0.13921409147E+03  0.13921409147E+03  0.00000000000E+00 0.  1.
         25    2    1    2    0    0  0.73497610389E+02 -0.85018102015E+02 -0.47571219237E+01  0.16822644610E+03  0.12509008975E+03 0.  0.
          5    1    3    3  502    0  0.27266605150E+02  0.16848487993E+02 -0.39476322688E+02  0.51021483289E+02  0.41800000000E+01 0. -1.
         -5    1    3    3    0  502  0.46231005239E+02 -0.10186659001E+03  0.34719200764E+02  0.11720496281E+03  0.41800000000E+01 0. -1.
        -11    1    1    2    0    0 -0.23235503154E+02  0.25371313661E+02 -0.27620977553E+02  0.44119276566E+02  0.00000000000E+00 0.  1.
         11    1    1    2    0    0 -0.50262107235E+02  0.59646788354E+02  0.73403481476E+02  0.10710784228E+03  0.00000000000E+00 0. -1.
</event>
<event>
 7    1  0.3191213E-009  0.8984793E+02  0.7561462E-02  0.1303220E+00
         -1   -1    0    0    0  501 -0.00000000000E+00  0.00000000000E+00  0.12125746433E+03  0.12125746433E+03  0.00000000000E+00 0.  1.
          1   -1    0    0  501    0  0.00000000000E+00 -0.00000000000E+00 -0.13754297372E+03  0.13754297372E+03  0.00000000000E+00 0. -1.
         25    2    1    2    0    0 -0.33683825737E+02  0.31486217166E+02 -0.61327239877E+02  0.14674269026E+03  0.12508558992E+03 0.  0.
          5    1    3    3  502    0  0.37730359735E+02 -0.22104388882E+02 -0.19854652527E+02  0.48206469282E+02  0.41800000000E+01 0. -1.
         -5    1    3    3    0  502 -0.71414185472E+02  0.53590606048E+02 -0.41472587350E+02  0.98536220979E+02  0.41800000000E+01 0. -1.
        -11    1    1    2    0    0  0.22816080664E+02 -0.17982119679E+02  0.73333547700E+02  0.78878003165E+02  0.00000000000E+00 0.  1.
         11    1    1    2    0    0  0.10867745073E+02 -0.13504097487E+02 -0.28291817215E+02  0.33179744623E+02  0.00000000000E+00 0. -1.
</event>
<event>
 7    1  0.2679104E-009  0.7016187E+02  0.7561462E-02  0.1359543E+00
         -3   -1    0    0    0  501 -0.00000000000E+00  0.00000000000E+00  0.39910855273E+03  0.39910855273E+03  0.00000000000E+00 0.  1.
          3   -1    0    0  501    0  0.00000000000E+00 -0.00000000000E+00 -0.40283135135E+02  0.40283135135E+02  0.00000000000E+00 0. -1.
         25    2    1    2    0    0 -0.59858909639E+01  0.32768896802E+02  0.29352435187E+03  0.32080203209E+03  0.12509103550E+03 0.  0.
          5    1    3    3  502    0  0.15465509583E+02  0.36788378646E+02  0.17317600711E+02  0.43702842979E+02  0.41800000000E+01 0. -1.
         -5    1    3    3    0  502 -0.21451400547E+02 -0.40194818442E+01  0.27620675116E+03  0.27709918911E+03  0.41800000000E+01 0. -1.
        -11    1    1    2    0    0  0.72831567658E+01  0.22009523558E+02  0.59053139674E+02  0.63440813402E+02  0.00000000000E+00 0.  1.
         11    1    1    2    0    0 -0.12972658020E+01 -0.54778420359E+02  0.62479260555E+01  0.55148842378E+02  0.00000000000E+00 0. -1.
</event>
<event>
 7    1  0.2679104E-009  0.1739521E+03  0.7561462E-02  0.1173788E+00
          4   -1    0    0  501    0  0.00000000000E+00  0.00000000000E+00  0.19697577340E+03  0.19697577340E+03  0.00000000000E+00 0. -1.
         -4   -1    0    0    0  501 -0.00000000000E+00 -0.00000000000E+00 -0.17670093435E+03  0.17670093435E+03  0.00000000000E+00 0.  1.
         25    2    1    2    0    0 -0.14398703019E+03  0.46985093281E+02  0.53695734080E+01  0.19651070794E+03  0.12509101551E+03 0.  0.
          5    1    3    3  502    0 -0.15238140407E+03  0.41040930665E+01  0.23405377082E+01  0.15251192216E+03  0.41800000000E+01 0.  1.
         -5    1    3    3    0  502  0.83943738802E+01  0.42881000214E+02  0.30290356998E+01  0.43998785773E+02  0.41800000000E+01 0.  1.
        -11    1    1    2    0    0  0.53498465190E+02 -0.15356754078E+02 -0.38271421934E+02  0.67547149535E+02  0.00000000000E+00 0.  1.
         11    1    1    2    0    0  0.90488564996E+02 -0.31628339203E+02  0.53176687576E+02  0.10961885028E+03  0.00000000000E+00 0. -1.
</event>
<event>
 7    1  0.2679104E-009  0.2091189E+03  0.7561462E-02  0.1142266E+00
         -1   -1    0    0    0  501 -0.00000000000E+00  0.00000000000E+00  0.19323129896E+02  0.19323129896E+02  0.00000000000E+00 0.  1.
          1   -1    0    0  501    0  0.00000000000E+00 -0.00000000000E+00 -0.24590322052E+04  0.24590322052E+04  0.00000000000E+00 0. -1.
         25    2    1    2    0    0  0.46883406472E+02 -0.18293117408E+03 -0.12866002159E+04  0.13063878226E+04  0.12508860533E+03 0.  0.
          5    1    3    3  502    0  0.73696356330E+02 -0.10294769171E+03 -0.98746959521E+03  0.99556167766E+03  0.41800000000E+01 0.  1.
         -5    1    3    3    0  502 -0.26812949858E+02 -0.79983482366E+02 -0.29913062070E+03  0.31082614493E+03  0.41800000000E+01 0.  1.
        -11    1    1    2    0    0 -0.14984558846E+02  0.17306173716E+03 -0.10229352544E+04  0.10375796049E+04  0.00000000000E+00 0.  1.
         11    1    1    2    0    0 -0.31898847625E+02  0.98694369204E+01 -0.13017360499E+03  0.13438790757E+03  0.00000000000E+00 0. -1.
</event>
<event>
 7    1  0.2679104E-009  0.1108075E+03  0.7561462E-02  0.1259082E+00
         -2   -1    0    0    0  501 -0.00000000000E+00  0.00000000000E+00  0.98220872022E+02  0.98220872022E+02  0.00000000000E+00 0.  1.
          2   -1    0    0  501    0  0.00000000000E+00 -0.00000000000E+00 -0.13031771955E+03  0.13031771955E+03  0.00000000000E+00 0. -1.
         25    2    1    2    0    0  0.16337518944E+02 -0.25961054187E+02 -0.36389070848E+02  0.13383536694E+03  0.12508736990E+03 0.  0.
          5    1    3    3  502    0 -0.54179423189E+02 -0.18287507548E+02 -0.21515244356E+02  0.61239047748E+02  0.41800000000E+01 0. -1.
         -5    1    3    3    0  502  0.70516942134E+02 -0.76735466389E+01 -0.14873826492E+02  0.72596319193E+02  0.41800000000E+01 0. -1.
        -11    1    1    2    0    0  0.19545348409E+02 -0.24477454926E+02 -0.61692378512E+01  0.31925318162E+02  0.00000000000E+00 0. -1.
         11    1    1    2    0    0 -0.35882867353E+02  0.50438509113E+02  0.10461461170E+02  0.62777906470E+02  0.00000000000E+00 0.  1.
</event>
<event>
 7    1  0.2679104E-009  0.1297921E+03  0.7561462E-02  0.1227764E+00
         -2   -1    0    0    0  501 -0.00000000000E+00  0.00000000000E+00  0.83600791433E+02  0.83600791433E+02  0.00000000000E+00 0.  1.
          2   -1    0    0  501    0  0.00000000000E+00 -0.00000000000E+00 -0.34242133200E+03  0.34242133200E+03  0.00000000000E+00 0. -1.
         25    2    1    2    0    0 -0.11250987112E+03 -0.34486599375E+02 -0.20184514480E+03  0.26502378635E+03  0.12509335801E+03 0.  0.
          5    1    3    3  502    0  0.75530796929E+01 -0.17656859088E+02 -0.11290726510E+03  0.11460513339E+03  0.41800000000E+01 0. -1.
         -5    1    3    3    0  502 -0.12006295081E+03 -0.16829740286E+02 -0.88937879699E+02  0.15041865297E+03  0.41800000000E+01 0. -1.
        -11    1    1    2    0    0  0.88246359911E+02  0.33328112599E+02  0.49694089131E+01  0.94460987460E+02  0.00000000000E+00 0.  1.
         11    1    1    2    0    0  0.24263511206E+02  0.11584867755E+01 -0.61944804677E+02  0.66537349618E+02  0.00000000000E+00 0. -1.
</event>
<event>
 7    1  0.2679104E-009  0.1487600E+03  0.7561462E-02  0.1202005E+00
          1   -1    0    0  501    0  0.00000000000E+00  0.00000000000E+00  0.34564448775E+02  0.34564448775E+02  0.00000000000E+00 0. -1.
         -1   -1    0    0    0  501 -0.00000000000E+00 -0.00000000000E+00 -0.69790475253E+03  0.69790475253E+03  0.00000000000E+00 0.  1.
         25    2    1    2    0    0 -0.10006110052E+03  0.36494169922E+02 -0.42906931444E+03  0.45944763299E+03  0.12509037769E+03 0.  0.
          5    1    3    3  502    0 -0.12657827055E+02  0.69396130202E+02 -0.19422167800E+03  0.20667746872E+03  0.41800000000E+01 0. -1.
         -5    1    3    3    0  502 -0.87403273462E+02 -0.32901960279E+02 -0.23484763644E+03  0.25277016427E+03  0.41800000000E+01 0. -1.
        -11    1    1    2    0    0  0.92526988125E+02 -0.58932722904E+02 -0.15225904725E+03  0.18766226800E+03  0.00000000000E+00 0. -1.
         11    1    1    2    0    0  0.75341123916E+01  0.22438552982E+02 -0.82011942066E+02  0.85359300318E+02  0.00000000000E+00 0.  1.
</event>
<event>
 7    1  0.2679104E-009  0.9538695E+02  0.7561462E-02  0.1290307E+00
         -1   -1    0    0    0  501 -0.00000000000E+00  0.00000000000E+00  0.10897571320E+03  0.10897571320E+03  0.00000000000E+00 0.  1.
          1   -1    0    0  501    0  0.00000000000E+00 -0.00000000000E+00 -0.11468076716E+03  0.11468076716E+03  0.00000000000E+00 0. -1.
         25    2    1    2    0    0 -0.16162702398E+02  0.28245636648E+02 -0.57852233420E+01  0.12938254251E+03  0.12508926636E+03 0.  0.
          5    1    3    3  502    0 -0.70052219699E+02  0.18309708113E+02 -0.13850763078E+02  0.73836812863E+02  0.41800000000E+01 0.  1.
         -5    1    3    3    0  502  0.53889517301E+02  0.99359285354E+01  0.80655397359E+01  0.55545729647E+02  0.41800000000E+01 0.  1.
        -11    1    1    2    0    0  0.36829343753E+00  0.16157770700E+02 -0.32965380808E+02  0.36714105271E+02  0.00000000000E+00 0. -1.
         11    1    1    2    0    0  0.15794408961E+02 -0.44403407349E+02  0.33045550192E+02  0.57559832575E+02  0.00000000000E+00 0.  1.
</event>
<event>
 7    1  0.3033322E-009  0.1167411E+03  0.7561462E-02  0.1248572E+00
         -2   -1    0    0    0  501 -0.00000000000E+00  0.00000000000E+00  0.20643567982E+02  0.20643567982E+02  0.00000000000E+00 0.  1.
          2   -1    0    0  501    0  0.00000000000E+00 -0.00000000000E+00 -0.10596595946E+04  0.10596595946E+04  0.00000000000E+00 0. -1.
         25    2    1    2    0    0  0.14453571440E+02 -0.64144237754E+02 -0.83614071364E+03  0.84799765267E+03  0.12508132141E+03 0.  0.
          5    1    3    3  502    0 -0.52091558943E+02 -0.82563733789E+01 -0.37603285473E+03  0.37973659088E+03  0.41800000000E+01 0. -1.
         -5    1    3    3    0  502  0.66545130383E+02 -0.55887864375E+02 -0.46010785891E+03  0.46826106179E+03  0.41800000000E+01 0. -1.
        -11    1    1    2    0    0  0.19477335085E+02  0.55125054587E+02 -0.54825583263E+02  0.80149752372E+02  0.00000000000E+00 0.  1.
         11    1    1    2    0    0 -0.33930906525E+02  0.90191831668E+01 -0.14804972967E+03  0.15215575749E+03  0.00000000000E+00 0. -1.
</event>
<event>
 7    1  0.2679104E-009  0.8399584E+02  0.7561462E-02  0.1318080E+00
         -1   -1    0    0    0  501 -0.00000000000E+00  0.00000000000E+00  0.19026008847E+03  0.19026008847E+03  0.00000000000E+00 0.  1.
          1   -1    0    0  501    0  0.00000000000E+00 -0.00000000000E+00 -0.11234078175E+03  0.11234078175E+03  0.00000000000E+00 0. -1.
         25    2    1    2    0    0  0.28290289683E+02 -0.59597558519E+02  0.11871767678E+03  0.18464352417E+03  0.12508850772E+03 0.  0.
          5    1    3    3  502    0  0.87078033873E+01 -0.12047882240E+02  0.13075539307E+03  0.13166405175E+03  0.41800000000E+01 0.  1.
         -5    1    3    3    0  502  0.19582486296E+02 -0.47549676280E+02 -0.12037716290E+02  0.52979472414E+02  0.41800000000E+01 0.  1.
        -11    1    1    2    0    0  0.55613360509E+01 -0.16637915825E+02  0.10098833204E+02  0.20241915269E+02  0.00000000000E+00 0.  1.
         11    1    1    2    0    0 -0.33851625734E+02  0.76235474344E+02 -0.50897203267E+02  0.97715430786E+02  0.00000000000E+00 0. -1.
</event>
<event>
 7    1  0.2679104E-009  0.8354997E+02  0.7561462E-02  0.1319269E+00
          1   -1    0    0  501    0  0.00000000000E+00  0.00000000000E+00  0.90814662958E+02  0.90814662958E+02  0.00000000000E+00 0. -1.
         -1   -1    0    0    0  501 -0.00000000000E+00 -0.00000000000E+00 -0.13882234161E+03  0.13882234161E+03  0.00000000000E+00 0.  1.
         25    2    1    2    0    0  0.25420223100E+02  0.11233582528E+02 -0.19137033120E+02  0.12956061114E+03  0.12508934728E+03 0.  0.
          5    1    3    3  502    0 -0.41813474112E+02  0.36903579597E+02 -0.11197668742E+02  0.57035962248E+02  0.41800000000E+01 0.  1.
         -5    1    3    3    0  502  0.67233697212E+02 -0.25669997069E+02 -0.79393643775E+01  0.72524648893E+02  0.41800000000E+01 0.  1.
        -11    1    1    2    0    0 -0.28424297629E+02 -0.10238886469E+01 -0.60420220589E+02  0.66780177445E+02  0.00000000000E+00 0.  1.
         11    1    1    2    0    0  0.30040745287E+01 -0.10209693881E+02  0.31549575053E+02  0.33296215985E+02  0.00000000000E+00 0. -1.
</event>
<event>
 7    1  0.2679104E-009  0.1867247E+03  0.7561462E-02  0.1161449E+00
         -1   -1    0    0    0  501 -0.00000000000E+00  0.00000000000E+00  0.65030722625E+02  0.65030722625E+02  0.00000000000E+00 0.  1.
          1   -1    0    0  501    0  0.00000000000E+00 -0.00000000000E+00 -0.60309001714E+03  0.60309001714E+03  0.00000000000E+00 0. -1.
         25    2    1    2    0    0  0.28640487435E+02  0.16323169216E+03 -0.28609806353E+03  0.35349949945E+03  0.12507969982E+03 0.  0.
          5    1    3    3  502    0  0.22842203347E+02 -0.29732941180E+01 -0.10504720651E+03  0.10762432219E+03  0.41800000000E+01 0.  1.
         -5    1    3    3    0  502  0.57982840881E+01  0.16620498628E+03 -0.18105085703E+03  0.24587517726E+03  0.41800000000E+01 0.  1.
        -11    1    1    2    0    0  0.21642025753E+02 -0.10285394085E+03 -0.10856015306E+03  0.15110465665E+03  0.00000000000E+00 0. -1.
         11    1    1    2    0    0 -0.50282513188E+02 -0.60377751312E+02 -0.14340107792E+03  0.16351658367E+03  0.00000000000E+00 0.  1.
</event>
<event>
 7    1  0.2679104E-009  0.8400140E+02  0.7561462E-02  0.1318065E+00
         -2   -1    0    0    0  501 -0.00000000000E+00  0.00000000000E+00  0.11378977917E+03  0.11378977917E+03  0.00000000000E+00 0.  1.
          2   -1    0    0  501    0  0.00000000000E+00 -0.00000000000E+00 -0.13076668145E+03  0.13076668145E+03  0.00000000000E+00 0. -1.
         25    2    1    2    0    0  0.50690262401E+02  0.21813031302E+02 -0.97877291610E+00  0.13671954449E+03  0.12508383114E+03 0.  0.
          5    1    3    3  502    0  0.31526614262E+02 -0.18740037576E+02  0.54144802879E+02  0.65530515747E+02  0.41800000000E+01 0. -1.
         -5    1    3    3    0  502  0.19163648139E+02  0.40553068878E+02 -0.55123575796E+02  0.71189028747E+02  0.41800000000E+01 0. -1.
        -11    1    1    2    0    0 -0.56834840316E+02 -0.38241176029E+02 -0.39065388855E+02  0.78858678814E+02  0.00000000000E+00 0. -1.
         11    1    1    2    0    0  0.61445779147E+01  0.16428144727E+02  0.23067259494E+02  0.28978237308E+02  0.00000000000E+00 0.  1.
</event>
<event>
 7    1  0.2679104E-009  0.1200818E+03  0.7561462E-02  0.1242962E+00
          1   -1    0    0  501    0  0.00000000000E+00  0.00000000000E+00  0.27652362020E+02  0.27652362020E+02  0.00000000000E+00 0. -1.
         -1   -1    0    0    0  501 -0.00000000000E+00 -0.00000000000E+00 -0.61417265892E+03  0.61417265892E+03  0.00000000000E+00 0.  1.
         25    2    1    2    0    0  0.34547951636E+02  0.59136722736E+02 -0.40001279331E+03  0.42467483905E+03  0.12509105155E+03 0.  0.
          5    1    3    3  502    0 -0.26613023958E+02  0.61990732373E+02 -0.11732438581E+03  0.13540157994E+03  0.41800000000E+01 0.  1.
         -5    1    3    3    0  502  0.61160975594E+02 -0.28540096362E+01 -0.28268840749E+03  0.28927325911E+03  0.41800000000E+01 0.  1.
        -11    1    1    2    0    0 -0.35790951025E+02  0.13723201345E+02 -0.65962299912E+02  0.76291175375E+02  0.00000000000E+00 0.  1.
         11    1    1    2    0    0  0.12429993886E+01 -0.72859924081E+02 -0.12054520368E+03  0.14085900651E+03  0.00000000000E+00 0. -1.
</event>
<event>
 7    1  0.2679104E-009  0.9403236E+02  0.7561462E-02  0.1293370E+00
         -2   -1    0    0    0  501 -0.00000000000E+00  0.00000000000E+00  0.12359700928E+03  0.12359700928E+03  0.00000000000E+00 0.  1.
          2   -1    0    0  501    0  0.00000000000E+00 -0.00000000000E+00 -0.10300650707E+03  0.10300650707E+03  0.00000000000E+00 0. -1.
         25    2    1    2    0    0  0.17239688263E+02  0.29074992003E+02  0.71418409228E+01  0.12977503840E+03  0.12509193694E+03 0.  0.
          5    1    3    3  502    0  0.54658588271E+02 -0.19869400504E+00  0.43355882265E+02  0.69891384863E+02  0.41800000000E+01 0. -1.
         -5    1    3    3    0  502 -0.37418900008E+02  0.29273686008E+02 -0.36214041342E+02  0.59883653534E+02  0.41800000000E+01 0. -1.
        -11    1    1    2    0    0  0.40677889972E+01 -0.53206199060E+02  0.29374741570E+02  0.60912412266E+02  0.00000000000E+00 0.  1.
         11    1    1    2    0    0 -0.21307477261E+02  0.24131207057E+02 -0.15926080276E+02  0.35916065684E+02  0.00000000000E+00 0. -1.
</event>
<event>
 7    1  0.2679104E-009  0.8559618E+02  0.7561462E-02  0.1313881E+00
          2   -1    0    0  501    0  0.00000000000E+00  0.00000000000E+00  0.46136274131E+03  0.46136274131E+03  0.00000000000E+00 0. -1.
         -2   -1    0    0    0  501 -0.00000000000E+00 -0.00000000000E+00 -0.58935152287E+02  0.58935152287E+02  0.00000000000E+00 0.  1.
         25    2    1    2    0    0 -0.60466013445E+02 -0.19127860377E+02  0.37777383603E+03  0.40296786967E+03  0.12509204199E+03 0.  0.
          5    1    3    3  502    0 -0.42871289220E+02 -0.10890792291E+02  0.38034408596E+03  0.38293034996E+03  0.41800000000E+01 0.  1.
         -5    1    3    3    0  502 -0.17594724225E+02 -0.82370680864E+01 -0.25702499288E+01  0.20037519704E+02  0.41800000000E+01 0.  1.
        -11    1    1    2    0    0  0.56553435464E+02  0.50171717045E+02 -0.28733277597E+01  0.75655457612E+02  0.00000000000E+00 0.  1.
         11    1    1    2    0    0  0.39125779806E+01 -0.31043856668E+02  0.27527080753E+02  0.41674566321E+02  0.00000000000E+00 0. -1.
</event>
<event>
 7    1  0.2679104E-009  0.1254979E+03  0.7561462E-02  0.1234293E+00
         -1   -1    0    0    0  501 -0.00000000000E+00  0.00000000000E+00  0.78548877511E+02  0.78548877511E+02  0.00000000000E+00 0.  1.
          1   -1    0    0  501    0  0.00000000000E+00 -0.00000000000E+00 -0.22110493872E+03  0.22110493872E+03  0.00000000000E+00 0. -1.
         25    2    1    2    0    0  0.72092634130E+01  0.73350635403E+02 -0.72454724948E+02  0.16226810459E+03  0.12509580890E+03 0.  0.
          5    1    3    3  502    0  0.57699851437E+02  0.16949655927E+02 -0.60698822941E+02  0.85547549342E+02  0.41800000000E+01 0. -1.
         -5    1    3    3    0  502 -0.50490588024E+02  0.56400979476E+02 -0.11755902006E+02  0.76720555243E+02  0.41800000000E+01 0. -1.
        -11    1    1    2    0    0 -0.47457115483E+02 -0.46997205792E+02 -0.56255737664E+02  0.87324814242E+02  0.00000000000E+00 0. -1.
         11    1    1    2    0    0  0.40247852070E+02 -0.26353429611E+02 -0.13845598600E+02  0.50060897406E+02  0.00000000000E+00 0.  1.
</event>
<event>
 7    1  0.2679104E-009  0.1331507E+03  0.7561462E-02  0.1222854E+00
          2   -1    0    0  501    0  0.00000000000E+00  0.00000000000E+00  0.45548331919E+03  0.45548331919E+03  0.00000000000E+00 0. -1.
         -2   -1    0    0    0  501 -0.00000000000E+00 -0.00000000000E+00 -0.44948515062E+02  0.44948515062E+02  0.00000000000E+00 0.  1.
         25    2    1    2    0    0 -0.70467206993E+02  0.13779609721E+02  0.25685103036E+03  0.29457665357E+03  0.12508976028E+03 0.  0.
          5    1    3    3  502    0 -0.19547129543E+02 -0.53912492834E+02  0.12797980388E+03  0.14030306396E+03  0.41800000000E+01 0. -1.
         -5    1    3    3    0  502 -0.50920077450E+02  0.67692102555E+02  0.12887122648E+03  0.15427358961E+03  0.41800000000E+01 0. -1.
        -11    1    1    2    0    0  0.94581540802E+02 -0.24347888790E+02  0.15039212588E+03  0.17932171948E+03  0.00000000000E+00 0.  1.
         11    1    1    2    0    0 -0.24114333809E+02  0.10568279069E+02  0.32916478862E+01  0.26533461202E+02  0.00000000000E+00 0. -1.
</event>
<event>
 7    1  0.2849521E-009  0.8220679E+02  0.7561462E-02  0.1322903E+00
          2   -1    0    0  501    0  0.00000000000E+00  0.00000000000E+00  0.39808593821E+03  0.39808593821E+03  0.00000000000E+00 0. -1.
         -2   -1    0    0    0  501 -0.00000000000E+00 -0.00000000000E+00 -0.45533970445E+02  0.45533970445E+02  0.00000000000E+00 0.  1.
         25    2    1    2    0    0 -0.65144103181E+02 -0.15289246948E+02  0.26409838565E+03  0.29978910497E+03  0.12509210567E+03 0.  0.
          5    1    3    3  502    0 -0.54111413148E+02 -0.28711968315E+02  0.36374825061E+02  0.71365414983E+02  0.41800000000E+01 0. -1.
         -5    1    3    3    0  502 -0.11032690032E+02  0.13422721367E+02  0.22772356059E+03  0.22842368998E+03  0.41800000000E+01 0. -1.
        -11    1    1    2    0    0  0.44344634111E+02 -0.16364335285E+02 -0.36973283128E+00  0.47269173318E+02  0.00000000000E+00 0.  1.
         11    1    1    2    0    0  0.20799469070E+02  0.31653582233E+02  0.88823314942E+02  0.96561630366E+02  0.00000000000E+00 0. -1.
</event>
<event>
 7    1  0.2736584E-009  0.1595417E+03  0.7561462E-02  0.1189215E+00
          1   -1    0    0  501    0  0.00000000000E+00  0.00000000000E+00  0.53490485151E+03  0.53490485151E+03  0.00000000000E+00 0. -1.
         -1   -1    0    0    0  501 -0.00000000000E+00 -0.00000000000E+00 -0.65464374126E+02  0.65464374126E+02  0.00000000000E+00 0.  1.
         25    2    1    2    0    0  0.12352866447E+03  0.54685781881E+02  0.13504729663E+03  0.22833255211E+03  0.12509243119E+03 0.  0.
          5    1    3    3  502    0  0.13615877436E+01 -0.25831045423E+02  0.56350720495E+02  0.62144773949E+02  0.41800000000E+01 0.  1.
         -5    1    3    3    0  502  0.12216707673E+03  0.80516827305E+02  0.78696576136E+02  0.16618777817E+03  0.41800000000E+01 0.  1.
        -11    1    1    2    0    0 -0.67829022358E+02  0.87435350673E+00  0.75706518789E+02  0.10165145230E+03  0.00000000000E+00 0.  1.
         11    1    1    2    0    0 -0.55699642116E+02 -0.55560135388E+02  0.25868666196E+03  0.27038522122E+03  0.00000000000E+00 0. -1.
</event>
<event>
 7    1  0.2679104E-009  0.1246514E+03  0.7561462E-02  0.1235615E+00
          2   -1    0    0  501    0  0.00000000000E+00  0.00000000000E+00  0.37571798517E+03  0.37571798517E+03  0.00000000000E+00 0. -1.
         -2   -1    0    0    0  501 -0.00000000000E+00 -0.00000000000E+00 -0.54920170376E+02  0.54920170376E+02  0.00000000000E+00 0.  1.
         25    2    1    2    0    0 -0.59945510508E+02  0.42244049735E+02  0.89134477742E+02  0.17020725364E+03  0.12509008794E+03 0.  0.
          5    1    3    3  502    0 -0.15314989213E+02 -0.38154805487E+02 -0.10524333030E+01  0.41339062546E+02  0.41800000000E+01 0.  1.
         -5    1    3    3    0  502 -0.44630521295E+02  0.80398855222E+02  0.90186911045E+02  0.12886819109E+03  0.41800000000E+01 0.  1.
        -11    1    1    2    0    0  0.50824908383E+02 -0.70116473983E+02  0.19585212588E+03  0.21414375183E+03  0.00000000000E+00 0. -1.
         11    1    1    2    0    0  0.91206021254E+01  0.27872424248E+02  0.35811211170E+02  0.46287150075E+02  0.00000000000E+00 0.  1.
</event>
<event>
 7    1  0.2679104E-009  0.1304706E+03  0.7561462E-02  0.1226759E+00
          1   -1    0    0  501    0  0.00000000000E+00  0.00000000000E+00  0.82907752935E+03  0.82907752935E+03  0.00000000000E+00 0. -1.
         -1   -1    0    0    0  501 -0.00000000000E+00 -0.00000000000E+00 -0.32803010038E+02  0.32803010038E+02  0.00000000000E+00 0.  1.
         25    2    1    2    0    0 -0.92640505192E+02  0.70736983061E+02  0.53014130251E+03  0.55703043742E+03  0.12508846313E+03 0.  0.
          5    1    3    3  502    0 -0.82299899799E+02  0.51951625321E+02  0.52581060658E+03  0.53475836719E+03  0.41800000000E+01 0. -1.
         -5    1    3    3    0  502 -0.10340605393E+02  0.18785357740E+02  0.43306959295E+01  0.22272070235E+02  0.41800000000E+01 0. -1.
        -11    1    1    2    0    0 -0.32876908503E+01 -0.41165126486E+02  0.40252505259E+02  0.57668368534E+02  0.00000000000E+00 0.  1.
         11    1    1    2    0    0  0.95928196043E+02 -0.29571856575E+02  0.22588071154E+03  0.24718173344E+03  0.00000000000E+00 0. -1.
</event>
<event>
 7    1  0.3627468E-009  0.2292461E+03  0.7561462E-02  0.1127172E+00
         -1   -1    0    0    0  501 -0.00000000000E+00  0.00000000000E+00  0.43279878718E+02  0.43279878718E+02  0.00000000000E+00 0.  1.
          1   -1    0    0  501    0  0.00000000000E+00 -0.00000000000E+00 -0.19956147820E+04  0.19956147820E+04  0.00000000000E+00 0. -1.
         25    2    1    2    0    0 -0.18468818943E+03 -0.12111759464E+03 -0.15521146488E+04  0.15727323579E+04  0.12509191555E+03 0.  0.
          5    1    3    3  502    0 -0.13753447425E+03 -0.11703159490E+03 -0.14353287600E+04  0.14466506999E+04  0.41800000000E+01 0.  1.
         -5    1    3    3    0  502 -0.47153715180E+02 -0.40859997390E+01 -0.11678588883E+03  0.12608165798E+03  0.41800000000E+01 0.  1.
        -11    1    1    2    0    0  0.10379126637E+03  0.29046349090E+02 -0.25030644873E+03  0.27252455972E+03  0.00000000000E+00 0. -1.
         11    1    1    2    0    0  0.80896923062E+02  0.92071245545E+02 -0.14991380568E+03  0.19363774310E+03  0.00000000000E+00 0.  1.
</event>
<event>
 7    1  0.2679104E-009  0.1166878E+03  0.7561462E-02  0.1248663E+00
         -2   -1    0    0    0  501 -0.00000000000E+00  0.00000000000E+00  0.25164206341E+02  0.25164206341E+02  0.00000000000E+00 0. -1.
          2   -1    0    0  501    0  0.00000000000E+00 -0.00000000000E+00 -0.61929748854E+03  0.61929748854E+03  0.00000000000E+00 0.  1.
         25    2    1    2    0    0 -0.45382084461E+02  0.28895345573E+02 -0.30909479221E+03  0.33775873029E+03  0.12508754825E+03 0.  0.
          5    1    3    3  502    0  0.30411348973E+02  0.36565013887E+02 -0.19315372754E+03  0.19896654304E+03  0.41800000000E+01 0. -1.
         -5    1    3    3    0  502 -0.75793433434E+02 -0.76696683135E+01 -0.11594106467E+03  0.13879218725E+03  0.41800000000E+01 0. -1.
        -11    1    1    2    0    0  0.33877531864E+02 -0.63990825196E+02 -0.14780957542E+03  0.16459095802E+03  0.00000000000E+00 0.  1.
         11    1    1    2    0    0  0.11504552597E+02  0.35095479623E+02 -0.13722891456E+03  0.14211200657E+03  0.00000000000E+00 0. -1.
</event>
<event>
 7    1  0.2679104E-009  0.1066140E+03  0.7561462E-02  0.1266972E+00
          2   -1    0    0  501    0  0.00000000000E+00  0.00000000000E+00  0.78436965592E+03  0.78436965592E+03  0.00000000000E+00 0.  1.
         -2   -1    0    0    0  501 -0.00000000000E+00 -0.00000000000E+00 -0.23336416881E+02  0.23336416881E+02  0.00000000000E+00 0. -1.
         25    2    1    2    0    0 -0.24859202936E+02 -0.73752636844E+02  0.42325412582E+03  0.44816200238E+03  0.12509074281E+03 0.  0.
          5    1    3    3  502    0 -0.59632409707E+02 -0.14285449402E+02  0.98093275043E+02  0.11575777020E+03  0.41800000000E+01 0.  1.
         -5    1    3    3    0  502  0.34773206771E+02 -0.59467187443E+02  0.32516085078E+03  0.33240423218E+03  0.41800000000E+01 0.  1.
        -11    1    1    2    0    0  0.49631702358E+01  0.55593227769E+02  0.32494862926E+03  0.32970722116E+03  0.00000000000E+00 0.  1.
         11    1    1    2    0    0  0.19896032700E+02  0.18159409075E+02  0.12830483960E+02  0.29836849261E+02  0.00000000000E+00 0. -1.
</event>
<event>
 7    1  0.2679104E-009  0.8928748E+02  0.7561462E-02  0.1304586E+00
         -2   -1    0    0    0  501 -0.00000000000E+00  0.00000000000E+00  0.24259264194E+02  0.24259264194E+02  0.00000000000E+00 0.  1.
          2   -1    0    0  501    0  0.00000000000E+00 -0.00000000000E+00 -0.66585034566E+03  0.66585034566E+03  0.00000000000E+00 0. -1.
         25    2    1    2    0    0 -0.66316670106E+02  0.10430589303E+02 -0.34174394726E+03  0.37005843326E+03  0.12509044972E+03 0.  0.
          5    1    3    3  502    0 -0.27305643448E+01 -0.41486729779E+01  0.10202514412E+02  0.12092608050E+02  0.41800000000E+01 0.  1.
         -5    1    3    3    0  502 -0.63586105761E+02  0.14579262281E+02 -0.35194646168E+03  0.35796582521E+03  0.41800000000E+01 0.  1.
        -11    1    1    2    0    0 -0.77916100651E+01 -0.29236047036E+02 -0.46997349010E+02  0.55894601239E+02  0.00000000000E+00 0.  1.
         11    1    1    2    0    0  0.74108280171E+02  0.18805457732E+02 -0.25284978519E+03  0.26415657535E+03  0.00000000000E+00 0. -1.
</event>
<event>
 7    1  0.2679104E-009  0.5466527E+02  0.7561462E-02  0.1421688E+00
         -1   -1    0    0    0  501 -0.00000000000E+00  0.00000000000E+00  0.98180897052E+02  0.98180897052E+02  0.00000000000E+00 0.  1.
          1   -1    0    0  501    0  0.00000000000E+00 -0.00000000000E+00 -0.11735939073E+03  0.11735939073E+03  0.00000000000E+00 0. -1.
         25    2    1    2    0    0  0.18808134834E+02  0.59178166869E+00  0.51409584350E+00  0.12650033966E+03  0.12509186824E+03 0.  0.
          5    1    3    3  502    0  0.38646936691E+02  0.17939542076E+02  0.52694054057E+02  0.67893656688E+02  0.41800000000E+01 0.  1.
         -5    1    3    3    0  502 -0.19838801857E+02 -0.17347760408E+02 -0.52179958213E+02  0.58606682976E+02  0.41800000000E+01 0.  1.
        -11    1    1    2    0    0  0.85594589577E+01 -0.77501306719E+01  0.29841405671E+02  0.31997474205E+02  0.00000000000E+00 0.  1.
         11    1    1    2    0    0 -0.27367593792E+02  0.71583490032E+01 -0.49533995189E+02  0.57042473910E+02  0.00000000000E+00 0. -1.
</event>
<event>
 7    1  0.2679104E-009  0.1389865E+03  0.7561462E-02  0.1214699E+00
         -2   -1    0    0    0  501 -0.00000000000E+00  0.00000000000E+00  0.17620823136E+03  0.17620823136E+03  0.00000000000E+00 0.  1.
          2   -1    0    0  501    0  0.00000000000E+00 -0.00000000000E+00 -0.28913443032E+03  0.28913443032E+03  0.00000000000E+00 0. -1.
         25    2    1    2    0    0 -0.68320532168E+02 -0.86014132983E+02 -0.22820230418E+03  0.28247236296E+03  0.12509283758E+03 0.  0.
          5    1    3    3  502    0  0.31980542964E+02 -0.37705801657E+02 -0.39852069949E+02  0.63640729774E+02  0.41800000000E+01 0.  1.
         -5    1    3    3    0  502 -0.10030107513E+03 -0.48308331325E+02 -0.18835023423E+03  0.21883163319E+03  0.41800000000E+01 0.  1.
        -11    1    1    2    0    0  0.71825475554E+02  0.69076368216E+02  0.42964940781E+02  0.10851925968E+03  0.00000000000E+00 0. -1.
         11    1    1    2    0    0 -0.35049433862E+01  0.16937764767E+02  0.72311164446E+02  0.74351039044E+02  0.00000000000E+00 0.  1.
</event>
<event>
 7    1  0.2679104E-009  0.1822946E+03  0.7561462E-02  0.1165601E+00
         -1   -1    0    0    0  501 -0.00000000000E+00  0.00000000000E+00  0.29021569033E+03  0.29021569033E+03  0.00000000000E+00 0.  1.
          1   -1    0    0  501    0  0.00000000000E+00 -0.00000000000E+00 -0.15713850328E+03  0.15713850328E+03  0.00000000000E+00 0. -1.
         25    2    1    2    0    0  0.91262361352E+02 -0.14274349625E+03  0.14469196783E+03  0.25551013430E+03  0.12508052948E+03 0.  0.
          5    1    3    3  502    0 -0.69907121241E+01 -0.38164383007E+01  0.68390067879E+02  0.68979047847E+02  0.41800000000E+01 0.  1.
         -5    1    3    3    0  502  0.98253073476E+02 -0.13892705795E+03  0.76301899954E+02  0.18653108645E+03  0.41800000000E+01 0.  1.
        -11    1    1    2    0    0 -0.64017459537E+02  0.14453651249E+03 -0.27204526064E+02  0.16040300748E+03  0.00000000000E+00 0. -1.
         11    1    1    2    0    0 -0.27244901814E+02 -0.17930162475E+01  0.15589745289E+02  0.31441051832E+02  0.00000000000E+00 0.  1.
</event>
<event>
 7    1  0.2679104E-009  0.2768929E+03  0.7561462E-02  0.1097398E+00
          1   -1    0    0  501    0  0.00000000000E+00  0.00000000000E+00  0.59127152784E+02  0.59127152784E+02  0.00000000000E+00 0. -1.
         -1   -1    0    0    0  501 -0.00000000000E+00 -0.00000000000E+00 -0.14066116609E+04  0.14066116609E+04  0.00000000000E+00 0.  1.
         25    2    1    2    0    0 -0.25889776081E+03 -0.62151808015E+02 -0.65765777124E+03  0.72045252970E+03  0.12508879119E+03 0.  0.
          5    1    3    3  502    0 -0.26204684010E+03 -0.56317881036E+02 -0.54335603513E+03  0.60588241717E+03  0.41800000000E+01 0.  1.
         -5    1    3    3    0  502  0.31490792955E+01 -0.58339269789E+01 -0.11430173612E+03  0.11457011253E+03  0.41800000000E+01 0.  1.
        -11    1    1    2    0    0  0.25401515363E+03  0.42387980534E+02 -0.59569721292E+03  0.64898043781E+03  0.00000000000E+00 0. -1.
         11    1    1    2    0    0  0.48826071742E+01  0.19763827481E+02 -0.94129523993E+02  0.96305846222E+02  0.00000000000E+00 0.  1.
</event>
<event>
 7    1  0.2679104E-009  0.9000776E+02  0.7561462E-02  0.1302833E+00
         -2   -1    0    0    0  501 -0.00000000000E+00  0.00000000000E+00  0.12116757929E+03  0.12116757929E+03  0.00000000000E+00 0.  1.
          2   -1    0    0  501    0  0.00000000000E+00 -0.00000000000E+00 -0.19130822027E+03  0.19130822027E+03  0.00000000000E+00 0. -1.
         25    2    1    2    0    0 -0.16268623730E+02 -0.11639089387E+01 -0.14908882980E+03  0.19529698136E+03  0.12508960370E+03 0.  0.
          5    1    3    3  502    0  0.99005997725E+01  0.59212768509E+02 -0.68957873102E+02  0.91525048446E+02  0.41800000000E+01 0. -1.
         -5    1    3    3    0  502 -0.26169223502E+02 -0.60376677447E+02 -0.80130956703E+02  0.10377193291E+03  0.41800000000E+01 0. -1.
        -11    1    1    2    0    0 -0.12456474081E+02 -0.16122027119E+02 -0.95813122860E+01  0.22514107801E+02  0.00000000000E+00 0. -1.
         11    1    1    2    0    0  0.28725097810E+02  0.17285936058E+02  0.88529501103E+02  0.94664710400E+02  0.00000000000E+00 0.  1.
</event>
<event>
 7    1  0.2679104E-009  0.1404777E+03  0.7561462E-02  0.1212688E+00
          1   -1    0    0  501    0  0.00000000000E+00  0.00000000000E+00  0.44195090284E+02  0.44195090284E+02  0.00000000000E+00 0. -1.
         -1   -1    0    0    0  501 -0.00000000000E+00 -0.00000000000E+00 -0.49051285429E+03  0.49051285429E+03  0.00000000000E+00 0.  1.
         25    2    1    2    0    0  0.71830715376E+02  0.66774601803E+02 -0.22217820257E+03  0.27318379205E+03  0.12509089265E+03 0.  0.
          5    1    3    3  502    0  0.10446095327E+03  0.58070610632E+02 -0.13930611041E+03  0.18359725318E+03  0.41800000000E+01 0. -1.
         -5    1    3    3    0  502 -0.32630237896E+02  0.87039911706E+01 -0.82872092161E+02  0.89586538869E+02  0.41800000000E+01 0. -1.
        -11    1    1    2    0    0 -0.20774346229E+00 -0.54702970355E+02 -0.55594905537E+02  0.77995202703E+02  0.00000000000E+00 0. -1.
         11    1    1    2    0    0 -0.71622971914E+02 -0.12071631448E+02 -0.16854465590E+03  0.18352894982E+03  0.00000000000E+00 0.  1.
</event>
<event>
 7    1  0.2679104E-009  0.2634192E+03  0.7561462E-02  0.1105106E+00
          4   -1    0    0  501    0  0.00000000000E+00  0.00000000000E+00  0.22829018321E+03  0.22829018321E+03  0.00000000000E+00 0.  1.
         -4   -1    0    0    0  501 -0.00000000000E+00 -0.00000000000E+00 -0.33750174084E+03  0.33750174084E+03  0.00000000000E+00 0. -1.
         25    2    1    2    0    0 -0.24484290457E+03  0.53378829107E+02 -0.49272499184E+01  0.28012392506E+03  0.12509111992E+03 0.  0.
          5    1    3    3  502    0 -0.84593370310E+01  0.37710292034E+02 -0.17971256137E+02  0.42825984582E+02  0.41800000000E+01 0. -1.
         -5    1    3    3    0  502 -0.23638356754E+03  0.15668537073E+02  0.13044006219E+02  0.23729794048E+03  0.41800000000E+01 0. -1.
        -11    1    1    2    0    0  0.99090255876E+02 -0.14223347441E+02  0.35706888276E+01  0.10016951752E+03  0.00000000000E+00 0.  1.
         11    1    1    2    0    0  0.14575264870E+03 -0.39155481666E+02 -0.10785499655E+03  0.18549848147E+03  0.00000000000E+00 0. -1.
</event>
<event>
 7    1  0.2679104E-009  0.1027813E+03  0.7561462E-02  0.1274554E+00
          2   -1    0    0  501    0  0.00000000000E+00  0.00000000000E+00  0.14867171751E+03  0.14867171751E+03  0.00000000000E+00 0. -1.
         -2   -1    0    0    0  501 -0.00000000000E+00 -0.00000000000E+00 -0.17639676091E+03  0.17639676091E+03  0.00000000000E+00 0.  1.
         25    2    1    2    0    0  0.92596979078E+01 -0.67176427458E+02 -0.11397316372E+03  0.18230526231E+03  0.12508761812E+03 0.  0.
          5    1    3    3  502    0  0.27884882728E+02 -0.67252406706E+02 -0.13528915027E+03  0.15369150749E+03  0.41800000000E+01 0.  1.
         -5    1    3    3    0  502 -0.18625184820E+02  0.75979247794E-01  0.21315986550E+02  0.28613754823E+02  0.41800000000E+01 0.  1.
        -11    1    1    2    0    0 -0.41911435626E+02  0.35835397191E+01  0.36235631162E+02  0.55519646603E+02  0.00000000000E+00 0. -1.
         11    1    1    2    0    0  0.32651737718E+02  0.63592887739E+02  0.50012489159E+02  0.87243569499E+02  0.00000000000E+00 0.  1.
</event>
<event>
 7    1  0.2679104E-009  0.1719526E+03  0.7561462E-02  0.1175827E+00
         -2   -1    0    0    0  501 -0.00000000000E+00  0.00000000000E+00  0.79721297033E+02  0.79721297033E+02  0.00000000000E+00 0.  1.
          2   -1    0    0  501    0  0.00000000000E+00 -0.00000000000E+00 -0.44687353991E+03  0.44687353991E+03  0.00000000000E+00 0. -1.
         25    2    1    2    0    0  0.15015672217E+03 -0.10285164848E+01 -0.15555071176E+03  0.24978166839E+03  0.12508700523E+03 0.  0.
          5    1    3    3  502    0  0.91515647086E+02 -0.44654389157E+02 -0.33172123622E+02  0.10717737783E+03  0.41800000000E+01 0.  1.
         -5    1    3    3    0  502  0.58641075084E+02  0.43625872673E+02 -0.12237858814E+03  0.14260429056E+03  0.41800000000E+01 0.  1.
        -11    1    1    2    0    0 -0.12974999730E+03 -0.28543587022E+02 -0.19790486139E+03  0.23836134821E+03  0.00000000000E+00 0. -1.
         11    1    1    2    0    0 -0.20406724874E+02  0.29572103506E+02 -0.13696669729E+02  0.38451820341E+02  0.00000000000E+00 0.  1.
</event>
<event>
 7    1  0.2679104E-009  0.1854945E+03  0.7561462E-02  0.1162589E+00
          2   -1    0    0  501    0  0.00000000000E+00  0.00000000000E+00  0.49808894115E+03  0.49808894115E+03  0.00000000000E+00 0. -1.
         -2   -1    0    0    0  501 -0.00000000000E+00 -0.00000000000E+00 -0.81037788870E+02  0.81037788870E+02  0.00000000000E+00 0.  1.
         25    2    1    2    0    0 -0.11455598528E+03 -0.11073177861E+03  0.29166157556E+03  0.35510435373E+03  0.12509207336E+03 0.  0.
          5    1    3    3  502    0 -0.17194474706E+01  0.25226646334E+02  0.31844229343E+02  0.40876246492E+02  0.41800000000E+01 0.  1.
         -5    1    3    3    0  502 -0.11283653781E+03 -0.13595842495E+03  0.25981734622E+03  0.31422810723E+03  0.41800000000E+01 0.  1.
        -11    1    1    2    0    0  0.65237659777E+00  0.27616929584E+02 -0.91793587840E+01  0.29109809731E+02  0.00000000000E+00 0.  1.
         11    1    1    2    0    0  0.11390360869E+03  0.83114849030E+02  0.13456893550E+03  0.19491256656E+03  0.00000000000E+00 0. -1.
</event>
<event>
 7    1  0.2679104E-009  0.1576184E+03  0.7561462E-02  0.1191412E+00
         -2   -1    0    0    0  501 -0.00000000000E+00  0.00000000000E+00  0.44450134444E+02  0.44450134444E+02  0.00000000000E+00 0. -1.
          2   -1    0    0  501    0  0.00000000000E+00 -0.00000000000E+00 -0.82289151228E+03  0.82289151228E+03  0.00000000000E+00 0.  1.
         25    2    1    2    0    0 -0.87484249838E+02  0.12349656276E+03 -0.30659924229E+03  0.36408117443E+03  0.12508841362E+03 0.  0.
          5    1    3    3  502    0 -0.15475946130E+02  0.70164917358E+02 -0.39028591525E+02  0.81873829109E+02  0.41800000000E+01 0.  1.
         -5    1    3    3    0  502 -0.72008303708E+02  0.53331645398E+02 -0.26757065076E+03  0.28220734532E+03  0.41800000000E+01 0.  1.
        -11    1    1    2    0    0  0.50530135810E+02 -0.48930257399E+02 -0.10025668645E+03  0.12246986524E+03  0.00000000000E+00 0.  1.
         11    1    1    2    0    0  0.36954114028E+02 -0.74566305357E+02 -0.37158544910E+03  0.38079060705E+03  0.00000000000E+00 0. -1.
</event>
<event>
 7    1  0.2679104E-009  0.2089297E+03  0.7561462E-02  0.1142416E+00
          1   -1    0    0  501    0  0.00000000000E+00  0.00000000000E+00  0.15006191778E+03  0.15006191778E+03  0.00000000000E+00 0. -1.
         -1   -1    0    0    0  501 -0.00000000000E+00 -0.00000000000E+00 -0.33009305463E+03  0.33009305463E+03  0.00000000000E+00 0.  1.
         25    2    1    2    0    0  0.18261750778E+03  0.28286052810E+02 -0.30230511707E+02  0.22518775430E+03  0.12508551442E+03 0.  0.
          5    1    3    3  502    0  0.12072031188E+03  0.73327360360E+02 -0.42471674495E+02  0.14755206204E+03  0.41800000000E+01 0.  1.
         -5    1    3    3    0  502  0.61897195900E+02 -0.45041307549E+02  0.12241162789E+02  0.77635692259E+02  0.41800000000E+01 0.  1.
        -11    1    1    2    0    0 -0.95391189282E+02  0.23770745941E+02 -0.42168672407E+02  0.10697067022E+03  0.00000000000E+00 0. -1.
         11    1    1    2    0    0 -0.87226318501E+02 -0.52056798751E+02 -0.10763195274E+03  0.14799654789E+03  0.00000000000E+00 0.  1.
</event>
<event>
 7    1  0.2679104E-009  0.1180522E+03  0.7561462E-02  0.1246345E+00
         -1   -1    0    0    0  501 -0.00000000000E+00  0.00000000000E+00  0.26946107798E+02  0.26946107798E+02  0.00000000000E+00 0. -1.
          1   -1    0    0  501    0  0.00000000000E+00 -0.00000000000E+00 -0.67953290061E+03  0.67953290061E+03  0.00000000000E+00 0.  1.
         25    2    1    2    0    0  0.45669878413E+02 -0.54947009427E+02 -0.43572671981E+03  0.45892255542E+03  0.12508887193E+03 0.  0.
          5    1    3    3  502    0 -0.41432061974E+02 -0.23430558674E+02 -0.10346072890E+03  0.11396140428E+03  0.41800000000E+01 0. -1.
         -5    1    3    3    0  502  0.87101940388E+02 -0.31516450754E+02 -0.33226599091E+03  0.34496115115E+03  0.41800000000E+01 0. -1.
        -11    1    1    2    0    0 -0.45839311928E+02  0.68294216202E+02 -0.21909210116E+03  0.23402284349E+03  0.00000000000E+00 0.  1.
         11    1    1    2    0    0  0.16943351473E+00 -0.13347206774E+02  0.22320281537E+01  0.13533609499E+02  0.00000000000E+00 0. -1.
</event>
<event>
 7    1  0.2679104E-009  0.9415751E+02  0.7561462E-02  0.1293085E+00
          2   -1    0    0  501    0  0.00000000000E+00  0.00000000000E+00  0.36866473564E+03  0.36866473564E+03  0.00000000000E+00 0. -1.
         -2   -1    0    0    0  501 -0.00000000000E+00 -0.00000000000E+00 -0.68181860145E+02  0.68181860145E+02  0.00000000000E+00 0.  1.
         25    2    1    2    0    0 -0.16934062357E+02 -0.25489455158E+02  0.31117846867E+03  0.33677257797E+03  0.12508898879E+03 0.  0.
          5    1    3    3  502    0 -0.18062008659E+02  0.30519436981E+02  0.21467089763E+02  0.41665099704E+02  0.41800000000E+01 0. -1.
         -5    1    3    3    0  502  0.11279463019E+01 -0.56008892140E+02  0.28971137890E+03  0.29510747827E+03  0.41800000000E+01 0. -1.
        -11    1    1    2    0    0 -0.11846239362E+02  0.54377038727E+02 -0.18319335815E+02  0.58590048579E+02  0.00000000000E+00 0.  1.
         11    1    1    2    0    0  0.28780301719E+02 -0.28887583569E+02  0.76237426388E+01  0.41483969233E+02  0.00000000000E+00 0. -1.
</event>
<event>
 7    1  0.2679104E-009  0.9558220E+02  0.7561462E-02  0.1289870E+00
          2   -1    0    0  501    0  0.00000000000E+00  0.00000000000E+00  0.58422302420E+02  0.58422302420E+02  0.00000000000E+00 0. -1.
         -2   -1    0    0    0  501 -0.00000000000E+00 -0.00000000000E+00 -0.29692666176E+03  0.29692666176E+03  0.00000000000E+00 0.  1.
         25    2    1    2    0    0  0.73153171254E+02  0.16394778080E+02 -0.14921141771E+03  0.20864095492E+03  0.12508727226E+03 0.  0.
          5    1    3    3  502    0  0.39568140247E+02 -0.16043507013E+01  0.13056733344E+02  0.41906590763E+02  0.41800000000E+01 0.  1.
         -5    1    3    3    0  502  0.33585031007E+02  0.17999128781E+02 -0.16226815105E+03  0.16673436416E+03  0.41800000000E+01 0.  1.
        -11    1    1    2    0    0 -0.57969491997E+02  0.29232978434E+02 -0.68313284883E+02  0.94242951578E+02  0.00000000000E+00 0.  1.
         11    1    1    2    0    0 -0.15183679257E+02 -0.45627756513E+02 -0.20979656744E+02  0.52465057680E+02  0.00000000000E+00 0. -1.
</event>
<event>
 7    1  0.2679104E-009  0.1100427E+03  0.7561462E-02  0.1260491E+00
         -2   -1    0    0    0  501 -0.00000000000E+00  0.00000000000E+00  0.41253932931E+03  0.41253932931E+03  0.00000000000E+00 0.  1.
          2   -1    0    0  501    0  0.00000000000E+00 -0.00000000000E+00 -0.47491043122E+02  0.47491043122E+02  0.00000000000E+00 0. -1.
         25    2    1    2    0    0 -0.75375236701E+02 -0.30010284163E+02  0.14118967188E+03  0.20533961976E+03  0.12509113690E+03 0.  0.
          5    1    3    3  502    0 -0.58587053083E+02 -0.52714136100E+02  0.15476881808E+03  0.17372991217E+03  0.41800000000E+01 0.  1.
         -5    1    3    3    0  502 -0.16788183618E+02  0.22703851937E+02 -0.13579146197E+02  0.31609707582E+02  0.41800000000E+01 0.  1.
        -11    1    1    2    0    0  0.67291199769E+02  0.54649683076E+02  0.12251490498E+03  0.15008196217E+03  0.00000000000E+00 0. -1.
         11    1    1    2    0    0  0.80840369317E+01 -0.24639398912E+02  0.10134370932E+03  0.10460879051E+03  0.00000000000E+00 0.  1.
</event>
<event>
 7    1  0.2679104E-009  0.2673918E+03  0.7561462E-02  0.1102782E+00
         -1   -1    0    0    0  501 -0.00000000000E+00  0.00000000000E+00  0.23411960568E+03  0.23411960568E+03  0.00000000000E+00 0.  1.
          1   -1    0    0  501    0  0.00000000000E+00 -0.00000000000E+00 -0.46127924227E+03  0.46127924227E+03  0.00000000000E+00 0. -1.
         25    2    1    2    0    0 -0.19112639607E+03 -0.15502249331E+03  0.84147564483E+02  0.28859982731E+03  0.12509106687E+03 0.  0.
          5    1    3    3  502    0 -0.81221275893E+02  0.28006379895E+01  0.42381203547E+02  0.91751719575E+02  0.41800000000E+01 0.  1.
         -5    1    3    3    0  502 -0.10990512018E+03 -0.15782313130E+03  0.41766360936E+02  0.19684810774E+03  0.41800000000E+01 0.  1.
        -11    1    1    2    0    0  0.98167490461E+02  0.13335280384E+03 -0.18167457167E+03  0.24581594022E+03  0.00000000000E+00 0. -1.
         11    1    1    2    0    0  0.92958905608E+02  0.21669689468E+02 -0.12963262940E+03  0.16098308041E+03  0.00000000000E+00 0.  1.
</event>
<event>
 7    1  0.2679104E-009  0.9820268E+02  0.7561462E-02  0.1284122E+00
          2   -1    0    0  501    0  0.00000000000E+00  0.00000000000E+00  0.16508412076E+02  0.16508412076E+02  0.00000000000E+00 0. -1.
         -2   -1    0    0    0  501 -0.00000000000E+00 -0.00000000000E+00 -0.82905286815E+03  0.82905286815E+03  0.00000000000E+00 0.  1.
         25    2    1    2    0    0 -0.16596474767E+02  0.33379283958E+02 -0.55508435052E+03  0.57022433753E+03  0.12509012490E+03 0.  0.
          5    1    3    3  502    0  0.30213043787E+02 -0.30510701162E+02 -0.30022817508E+03  0.30331198527E+03  0.41800000000E+01 0.  1.
         -5    1    3    3    0  502 -0.46809518553E+02  0.63889985120E+02 -0.25485617544E+03  0.26691235225E+03  0.41800000000E+01 0.  1.
        -11    1    1    2    0    0  0.43574288163E+01  0.19342401543E+02 -0.10344154730E+02  0.22363300749E+02  0.00000000000E+00 0. -1.
         11    1    1    2    0    0  0.12239045951E+02 -0.52721685501E+02 -0.24711595083E+03  0.25297364195E+03  0.00000000000E+00 0.  1.
</event>
<event>
 7    1  0.2679104E-009  0.7688970E+02  0.7561462E-02  0.1338117E+00
          1   -1    0    0  501    0  0.00000000000E+00  0.00000000000E+00  0.24489151711E+03  0.24489151711E+03  0.00000000000E+00 0. -1.
         -1   -1    0    0    0  501 -0.00000000000E+00 -0.00000000000E+00 -0.85162299136E+02  0.85162299136E+02  0.00000000000E+00 0.  1.
         25    2    1    2    0    0  0.13052020920E+02  0.55830656124E+02 -0.12107308876E+01  0.13760683639E+03  0.12508700228E+03 0.  0.
          5    1    3    3  502    0  0.15810814925E+02 -0.14502041073E+02  0.47241720039E+02  0.52053276325E+02  0.41800000000E+01 0. -1.
         -5    1    3    3    0  502 -0.27587940054E+01  0.70332697196E+02 -0.48452450927E+02  0.85553560067E+02  0.41800000000E+01 0. -1.
        -11    1    1    2    0    0  0.46793792256E+01 -0.28162014962E+02  0.37194833540E+00  0.28550552047E+02  0.00000000000E+00 0.  1.
         11    1    1    2    0    0 -0.17731400145E+02 -0.27668641162E+02  0.16056800052E+03  0.16389642780E+03  0.00000000000E+00 0. -1.
</event>
<event>
 7    1  0.2679104E-009  0.1685002E+03  0.7561462E-02  0.1179421E+00
          2   -1    0    0  501    0  0.00000000000E+00  0.00000000000E+00  0.18111504193E+03  0.18111504193E+03  0.00000000000E+00 0. -1.
         -2   -1    0    0    0  501 -0.00000000000E+00 -0.00000000000E+00 -0.16469343847E+03  0.16469343847E+03  0.00000000000E+00 0.  1.
         25    2    1    2    0    0  0.24440603689E+02  0.13111036725E+03 -0.15855129141E+02  0.18354051317E+03  0.12509381817E+03 0.  0.
          5    1    3    3  502    0 -0.48993900959E+02  0.31792417667E+02  0.24385352494E+01  0.58605281387E+02  0.41800000000E+01 0. -1.
         -5    1    3    3    0  502  0.73434504649E+02  0.99317949586E+02 -0.18293664390E+02  0.12493523178E+03  0.41800000000E+01 0. -1.
        -11    1    1    2    0    0 -0.31752882107E+02 -0.13988022240E+03  0.39472972881E+02  0.14877109171E+03  0.00000000000E+00 0. -1.
         11    1    1    2    0    0  0.73122784174E+01  0.87698551433E+01 -0.71962402787E+01  0.13496875529E+02  0.00000000000E+00 0.  1.
</event>
<event>
 7    1  0.2679104E-009  0.1229571E+03  0.7561462E-02  0.1238297E+00
          2   -1    0    0  501    0  0.00000000000E+00  0.00000000000E+00  0.81855502246E+02  0.81855502246E+02  0.00000000000E+00 0. -1.
         -2   -1    0    0    0  501 -0.00000000000E+00 -0.00000000000E+00 -0.26508658832E+03  0.26508658832E+03  0.00000000000E+00 0.  1.
         25    2    1    2    0    0 -0.54860029647E+02 -0.71817996301E+02 -0.14922910345E+03  0.21466631163E+03  0.12507938514E+03 0.  0.
          5    1    3    3  502    0  0.72298818266E-02 -0.81925704353E+02 -0.13326016560E+03  0.15648503194E+03  0.41800000000E+01 0. -1.
         -5    1    3    3    0  502 -0.54867259528E+02  0.10107708052E+02 -0.15968937854E+02  0.58181279691E+02  0.41800000000E+01 0. -1.
        -11    1    1    2    0    0  0.42939030372E+02  0.88409650234E+01 -0.49713952876E+02  0.66282728537E+02  0.00000000000E+00 0. -1.
         11    1    1    2    0    0  0.11920999275E+02  0.62977031277E+02  0.15711970250E+02  0.65993050402E+02  0.00000000000E+00 0.  1.
</event>
<event>
 7    1  0.2679104E-009  0.1592601E+03  0.7561462E-02  0.1189535E+00
          1   -1    0    0  501    0  0.00000000000E+00  0.00000000000E+00  0.19897742450E+03  0.19897742450E+03  0.00000000000E+00 0. -1.
         -1   -1    0    0    0  501 -0.00000000000E+00 -0.00000000000E+00 -0.18208775678E+03  0.18208775678E+03  0.00000000000E+00 0.  1.
         25    2    1    2    0    0 -0.34763708832E+02 -0.14989104189E+03  0.36369607310E+02  0.20160766650E+03  0.12508822073E+03 0.  0.
          5    1    3    3  502    0 -0.81796172117E+00  0.45866602117E+01 -0.29550234053E+02  0.30205880981E+02  0.41800000000E+01 0. -1.
         -5    1    3    3    0  502 -0.33945747111E+02 -0.15447770210E+03  0.65919841363E+02  0.17140178552E+03  0.41800000000E+01 0. -1.
        -11    1    1    2    0    0  0.30819438957E+02  0.12010553660E+03 -0.52642254830E+02  0.13470851767E+03  0.00000000000E+00 0.  1.
         11    1    1    2    0    0  0.39442698749E+01  0.29785505286E+02  0.33162315241E+02  0.44748997108E+02  0.00000000000E+00 0. -1.
</event>
<event>
 7    1  0.2679104E-009  0.3266602E+03  0.7561462E-02  0.1072624E+00
          1   -1    0    0  501    0  0.00000000000E+00  0.00000000000E+00  0.45281599829E+03  0.45281599829E+03  0.00000000000E+00 0. -1.
         -1   -1    0    0    0  501 -0.00000000000E+00 -0.00000000000E+00 -0.66300497181E+03  0.66300497181E+03  0.00000000000E+00 0.  1.
         25    2    1    2    0    0  0.28948666596E+03  0.13671204963E+03 -0.54456324219E+03  0.64396411941E+03  0.12509175855E+03 0.  0.
          5    1    3    3  502    0  0.13496298938E+02  0.20529162929E+02 -0.29850576548E+01  0.25099394112E+02  0.41800000000E+01 0. -1.
         -5    1    3    3    0  502  0.27599036703E+03  0.11618288670E+03 -0.54157818453E+03  0.61886472530E+03  0.41800000000E+01 0. -1.
        -11    1    1    2    0    0 -0.18542711566E+03 -0.46417784496E+02  0.22969695429E+03  0.29882857419E+03  0.00000000000E+00 0. -1.
         11    1    1    2    0    0 -0.10405955030E+03 -0.90294265129E+02  0.10467731437E+03  0.17302827650E+03  0.00000000000E+00 0.  1.
</event>
<event>
 7    1  0.2679104E-009  0.1076500E+03  0.7561462E-02  0.1264985E+00
          2   -1    0    0  501    0  0.00000000000E+00  0.00000000000E+00  0.85404091354E+03  0.85404091354E+03  0.00000000000E+00 0. -1.
         -2   -1    0    0    0  501 -0.00000000000E+00 -0.00000000000E+00 -0.18392737752E+02  0.18392737752E+02  0.00000000000E+00 0.  1.
         25    2    1    2    0    0  0.63477416857E+02  0.43630242248E+01  0.44023281890E+03  0.46206263085E+03  0.12509405086E+03 0.  0.
          5    1    3    3  502    0  0.79683429457E+02 -0.15439395651E+02  0.42344638192E+03  0.43117529455E+03  0.41800000000E+01 0.  1.
         -5    1    3    3    0  502 -0.16206012600E+02  0.19802419876E+02  0.16786436980E+02  0.30887336301E+02  0.41800000000E+01 0.  1.
        -11    1    1    2    0    0  0.22261664919E+02 -0.29101341301E+00  0.11410176688E+03  0.11625351444E+03  0.00000000000E+00 0.  1.
         11    1    1    2    0    0 -0.85739081776E+02 -0.40720108118E+01  0.28131359001E+03  0.29411750600E+03  0.00000000000E+00 0. -1.
</event>
<event>
 7    1  0.2679104E-009  0.1202651E+03  0.7561462E-02  0.1242660E+00
         -2   -1    0    0    0  501 -0.00000000000E+00  0.00000000000E+00  0.23104746551E+03  0.23104746551E+03  0.00000000000E+00 0.  1.
          2   -1    0    0  501    0  0.00000000000E+00 -0.00000000000E+00 -0.78133783619E+02  0.78133783619E+02  0.00000000000E+00 0. -1.
         25    2    1    2    0    0 -0.63187738727E+02  0.31229247475E+02  0.42073414256E+02  0.14961720092E+03  0.12508868215E+03 0.  0.
          5    1    3    3  502    0 -0.93527419083E+02  0.16974869748E+02 -0.65335375970E+00  0.95149480264E+02  0.41800000000E+01 0.  1.
         -5    1    3    3    0  502  0.30339680356E+02  0.14254377726E+02  0.42726768016E+02  0.54467720657E+02  0.41800000000E+01 0.  1.
        -11    1    1    2    0    0 -0.14945527375E+02 -0.29934441085E+02  0.17261954708E+02  0.37648567462E+02  0.00000000000E+00 0.  1.
         11    1    1    2    0    0  0.78133266103E+02 -0.12948063894E+01  0.93578312927E+02  0.12191548075E+03  0.00000000000E+00 0. -1.
</event>
<event>
 7    1  0.2679104E-009  0.1082337E+03  0.7561462E-02  0.1263876E+00
         -1   -1    0    0    0  501 -0.00000000000E+00  0.00000000000E+00  0.11172134387E+03  0.11172134387E+03  0.00000000000E+00 0.  1.
          1   -1    0    0  501    0  0.00000000000E+00 -0.00000000000E+00 -0.18718994635E+03  0.18718994635E+03  0.00000000000E+00 0. -1.
         25    2    1    2    0    0 -0.82969586701E+02 -0.48177999769E+02 -0.31387950564E+02  0.16074412657E+03  0.12509356021E+03 0.  0.
          5    1    3    3  502    0  0.45950391212E+01 -0.85891782965E+00 -0.57434173449E+02  0.57775503495E+02  0.41800000000E+01 0. -1.
         -5    1    3    3    0  502 -0.87564625822E+02 -0.47319081939E+02  0.26046222884E+02  0.10296862307E+03  0.41800000000E+01 0. -1.
        -11    1    1    2    0    0  0.97519824515E+01  0.34808029711E+02  0.18788701303E+02  0.40739604696E+02  0.00000000000E+00 0.  1.
         11    1    1    2    0    0  0.73217604250E+02  0.13369970058E+02 -0.62869353219E+02  0.97427558964E+02  0.00000000000E+00 0. -1.
</event>
<event>
 7    1  0.2679104E-009  0.1316642E+03  0.7561462E-02  0.1225007E+00
          2   -1    0    0  501    0  0.00000000000E+00  0.00000000000E+00  0.54281330382E+03  0.54281330382E+03  0.00000000000E+00 0.  1.
         -2   -1    0    0    0  501 -0.00000000000E+00 -0.00000000000E+00 -0.49816272618E+02  0.49816272618E+02  0.00000000000E+00 0. -1.
         25    2    1    2    0    0  0.94781724478E+02  0.33514759615E+02  0.38282924475E+03  0.41510477687E+03  0.12508769221E+03 0.  0.
          5    1    3    3  502    0  0.11479115843E+03 -0.49224472615E+01  0.30462526726E+03  0.32559985625E+03  0.41800000000E+01 0.  1.
         -5    1    3    3    0  502 -0.20009433956E+02  0.38437206876E+02  0.78203977493E+02  0.89504920621E+02  0.41800000000E+01 0.  1.
        -11    1    1    2    0    0 -0.22250958141E+02  0.48431964729E+01  0.90269358110E+02  0.93097361422E+02  0.00000000000E+00 0.  1.
         11    1    1    2    0    0 -0.72530766337E+02 -0.38357956088E+02  0.19898428343E+02  0.84427438141E+02  0.00000000000E+00 0. -1.
</event>
<event>
 7    1  0.2679104E-009  0.1105194E+03  0.7561462E-02  0.1259611E+00
         -2   -1    0    0    0  501 -0.00000000000E+00  0.00000000000E+00  0.59095547873E+03  0.59095547873E+03  0.00000000000E+00 0.  1.
          2   -1    0    0  501    0  0.00000000000E+00 -0.00000000000E+00 -0.28395169088E+02  0.28395169088E+02  0.00000000000E+00 0. -1.
         25    2    1    2    0    0  0.53958482495E+02  0.28745061739E+02  0.35489722923E+03  0.38123112359E+03  0.12508928759E+03 0.  0.
          5    1    3    3  502    0  0.45019847357E+02  0.75591682924E+02  0.26683207561E+03  0.28099416036E+03  0.41800000000E+01 0.  1.
         -5    1    3    3    0  502  0.89386351379E+01 -0.46846621184E+02  0.88065153622E+02  0.10023696323E+03  0.41800000000E+01 0.  1.
        -11    1    1    2    0    0 -0.29753017139E+01 -0.33725782884E+02  0.12092613254E+02  0.35951524957E+02  0.00000000000E+00 0. -1.
         11    1    1    2    0    0 -0.50983180781E+02  0.49807211449E+01  0.19557046716E+03  0.20216799928E+03  0.00000000000E+00 0.  1.
</event>
<event>
 7    1  0.2907172E-009  0.1015701E+03  0.7561462E-02  0.1277028E+00
         -2   -1    0    0    0  501 -0.00000000000E+00  0.00000000000E+00  0.32364756750E+02  0.32364756750E+02  0.00000000000E+00 0.  1.
          2   -1    0    0  501    0  0.00000000000E+00 -0.00000000000E+00 -0.57486543325E+03  0.57486543325E+03  0.00000000000E+00 0. -1.
         25    2    1    2    0    0 -0.66245594658E+02  0.25566041639E+02 -0.38980261050E+03  0.41549443481E+03  0.12508976341E+03 0.  0.
          5    1    3    3  502    0 -0.72020526192E+02 -0.19782311597E+02 -0.11709150336E+03  0.13894671138E+03  0.41800000000E+01 0.  1.
         -5    1    3    3    0  502  0.57749315337E+01  0.45348353236E+02 -0.27271110714E+03  0.27654772343E+03  0.41800000000E+01 0.  1.
        -11    1    1    2    0    0  0.63439268129E+02 -0.71950021375E+01 -0.15961148430E+03  0.17190734341E+03  0.00000000000E+00 0. -1.
         11    1    1    2    0    0  0.28063265292E+01 -0.18371039502E+02  0.69134183056E+01  0.19828411778E+02  0.00000000000E+00 0.  1.
</event>
<event>
 7    1  0.2679104E-009  0.1406678E+03  0.7561462E-02  0.1212433E+00
         -1   -1    0    0    0  501 -0.00000000000E+00  0.00000000000E+00  0.27260524421E+03  0.27260524421E+03  0.00000000000E+00 0.  1.
          1   -1    0    0  501    0  0.00000000000E+00 -0.00000000000E+00 -0.98581651359E+02  0.98581651359E+02  0.00000000000E+00 0. -1.
         25    2    1    2    0    0 -0.95221507030E+02 -0.74533144291E+02  0.11583608730E+03  0.20901687225E+03  0.12509088202E+03 0.  0.
          5    1    3    3  502    0 -0.19406187010E+02  0.45171555860E+01 -0.23915887860E+02  0.31407751925E+02  0.41800000000E+01 0. -1.
         -5    1    3    3    0  502 -0.75815320020E+02 -0.79050299877E+02  0.13975197516E+03  0.17760912032E+03  0.41800000000E+01 0. -1.
        -11    1    1    2    0    0 -0.15206404728E+01 -0.17663125978E+02  0.72290071432E+01  0.19145676040E+02  0.00000000000E+00 0. -1.
         11    1    1    2    0    0  0.96742147503E+02  0.92196270269E+02  0.50958498405E+02  0.14302434728E+03  0.00000000000E+00 0.  1.
</event>
<event>
 7    1  0.2679104E-009  0.8681825E+02  0.7561462E-02  0.1310745E+00
         -1   -1    0    0    0  501 -0.00000000000E+00  0.00000000000E+00  0.79909802795E+03  0.79909802795E+03  0.00000000000E+00 0.  1.
          1   -1    0    0  501    0  0.00000000000E+00 -0.00000000000E+00 -0.18401122361E+02  0.18401122361E+02  0.00000000000E+00 0. -1.
         25    2    1    2    0    0  0.19602153985E+02  0.40371163822E+02  0.54772937554E+03  0.56362171708E+03  0.12509154980E+03 0.  0.
          5    1    3    3  502    0 -0.23761662354E+02  0.11247589623E+01  0.16697920591E+02  0.29362810367E+02  0.41800000000E+01 0. -1.
         -5    1    3    3    0  502  0.43363816340E+02  0.39246404860E+02  0.53103145494E+03  0.53425890671E+03  0.41800000000E+01 0. -1.
        -11    1    1    2    0    0 -0.47965526572E+02 -0.40042215136E+02  0.20391891707E+03  0.21327680481E+03  0.00000000000E+00 0.  1.
         11    1    1    2    0    0  0.28363372586E+02 -0.32894868580E+00  0.29048612985E+02  0.40600628419E+02  0.00000000000E+00 0. -1.
</event>
<event>
 7    1  0.2679104E-009  0.1038467E+03  0.7561462E-02  0.1272409E+00
          2   -1    0    0  501    0  0.00000000000E+00  0.00000000000E+00  0.21576498826E+03  0.21576498826E+03  0.00000000000E+00 0. -1.
         -2   -1    0    0    0  501 -0.00000000000E+00 -0.00000000000E+00 -0.12373770562E+03  0.12373770562E+03  0.00000000000E+00 0.  1.
         25    2    1    2    0    0  0.57859186023E+02  0.79368746280E+02 -0.25272240748E+02  0.16103453586E+03  0.12508538001E+03 0.  0.
          5    1    3    3  502    0  0.53945169702E+01  0.20219624566E+02 -0.67857377502E+02  0.71133888636E+02  0.41800000000E+01 0. -1.
         -5    1    3    3    0  502  0.52464669052E+02  0.59149121714E+02  0.42585136755E+02  0.89900647221E+02  0.41800000000E+01 0. -1.
        -11    1    1    2    0    0 -0.58659467066E+01 -0.43781059064E+02 -0.12780355221E+01  0.44190766437E+02  0.00000000000E+00 0.  1.
         11    1    1    2    0    0 -0.51993239316E+02 -0.35587687217E+02  0.11857755891E+03  0.13427739159E+03  0.00000000000E+00 0. -1.
</event>
<event>
 7    1  0.2679104E-009  0.1364673E+03  0.7561462E-02  0.1218163E+00
         -2   -1    0    0    0  501 -0.00000000000E+00  0.00000000000E+00  0.76043510898E+02  0.76043510898E+02  0.00000000000E+00 0.  1.
          2   -1    0    0  501    0  0.00000000000E+00 -0.00000000000E+00 -0.41841431569E+03  0.41841431569E+03  0.00000000000E+00 0. -1.
         25    2    1    2    0    0 -0.11050267603E+03  0.13085233389E+02 -0.30129954190E+03  0.34468499654E+03  0.12507704885E+03 0.  0.
          5    1    3    3  502    0 -0.53822508571E+02  0.65100045940E+02 -0.11227968347E+03  0.14056698805E+03  0.41800000000E+01 0. -1.
         -5    1    3    3    0  502 -0.56680167455E+02 -0.52014812551E+02 -0.18901985843E+03  0.20411800848E+03  0.41800000000E+01 0. -1.
        -11    1    1    2    0    0  0.66128217760E+02 -0.93928019658E+01 -0.69936752839E+02  0.96707369473E+02  0.00000000000E+00 0. -1.
         11    1    1    2    0    0  0.44374458266E+02 -0.36924314235E+01  0.28865489947E+02  0.53065460576E+02  0.00000000000E+00 0.  1.
</event>
<event>
 7    1  0.2679104E-009  0.4470714E+03  0.7561462E-02  0.1028599E+00
          2   -1    0    0  501    0  0.00000000000E+00  0.00000000000E+00  0.20891396416E+03  0.20891396416E+03  0.00000000000E+00 0. -1.
         -2   -1    0    0    0  501 -0.00000000000E+00 -0.00000000000E+00 -0.98680125270E+03  0.98680125270E+03  0.00000000000E+00 0.  1.
         25    2    1    2    0    0  0.31186538085E+03 -0.30499120511E+03 -0.31532376958E+03  0.55258832900E+03  0.12508049691E+03 0.  0.
          5    1    3    3  502    0  0.16008720192E+03 -0.22565973327E+03 -0.15109842094E+03  0.31527516973E+03  0.41800000000E+01 0.  1.
         -5    1    3    3    0  502  0.15177817893E+03 -0.79331471849E+02 -0.16422534864E+03  0.23731315927E+03  0.41800000000E+01 0.  1.
        -11    1    1    2    0    0 -0.13821903816E+02  0.56237509475E+02 -0.48494861772E+02  0.75534456477E+02  0.00000000000E+00 0.  1.
         11    1    1    2    0    0 -0.29804347704E+03  0.24875369564E+03 -0.41406865719E+03  0.56759243139E+03  0.00000000000E+00 0. -1.
</event>
<event>
 7    1  0.2679104E-009  0.1766367E+03  0.7561462E-02  0.1171098E+00
          1   -1    0    0  501    0  0.00000000000E+00  0.00000000000E+00  0.92272473114E+03  0.92272473114E+03  0.00000000000E+00 0. -1.
         -1   -1    0    0    0  501 -0.00000000000E+00 -0.00000000000E+00 -0.43269144035E+02  0.43269144035E+02  0.00000000000E+00 0.  1.
         25    2    1    2    0    0 -0.14601314175E+03  0.61151283302E+02  0.59099447450E+03  0.62448761851E+03  0.12510395586E+03 0.  0.
          5    1    3    3  502    0 -0.12414542819E+03  0.41036326074E+01  0.49700326336E+03  0.51230717674E+03  0.41800000000E+01 0.  1.
         -5    1    3    3    0  502 -0.21867713554E+02  0.57047650695E+02  0.93991211137E+02  0.11218044177E+03  0.41800000000E+01 0.  1.
        -11    1    1    2    0    0  0.97366785927E+02 -0.11170535120E+02  0.97658130814E+02  0.13835527591E+03  0.00000000000E+00 0.  1.
         11    1    1    2    0    0  0.48646355820E+02 -0.49980748182E+02  0.19080298180E+03  0.20315098076E+03  0.00000000000E+00 0. -1.
</event>
<event>
 7    1  0.2679104E-009  0.8967718E+02  0.7561462E-02  0.1303635E+00
          1   -1    0    0  501    0  0.00000000000E+00  0.00000000000E+00  0.24970609243E+02  0.24970609243E+02  0.00000000000E+00 0. -1.
         -1   -1    0    0    0  501 -0.00000000000E+00 -0.00000000000E+00 -0.63018212981E+03  0.63018212981E+03  0.00000000000E+00 0.  1.
         25    2    1    2    0    0  0.54877360011E+02  0.23740269470E+02 -0.39207383068E+03  0.41586592133E+03  0.12508977090E+03 0.  0.
          5    1    3    3  502    0  0.35018527202E+01  0.19115644939E+02 -0.34601620442E+03  0.34658672360E+03  0.41800000000E+01 0.  1.
         -5    1    3    3    0  502  0.51375507291E+02  0.46246245310E+01 -0.46057626255E+02  0.69279197726E+02  0.41800000000E+01 0.  1.
        -11    1    1    2    0    0 -0.20943125333E+02 -0.56683737809E+02 -0.10289547758E+03  0.11932786740E+03  0.00000000000E+00 0. -1.
         11    1    1    2    0    0 -0.33934234678E+02  0.32943468339E+02 -0.11024221230E+03  0.11995895033E+03  0.00000000000E+00 0.  1.
</event>
<event>
 7    1  0.2679104E-009  0.9354774E+02  0.7561462E-02  0.1294481E+00
          2   -1    0    0  501    0  0.00000000000E+00  0.00000000000E+00  0.20691082939E+03  0.20691082939E+03  0.00000000000E+00 0. -1.
         -2   -1    0    0    0  501 -0.00000000000E+00 -0.00000000000E+00 -0.16044740709E+03  0.16044740709E+03  0.00000000000E+00 0.  1.
         25    2    1    2    0    0  0.18026910833E+02  0.78430277871E+02 -0.10089230221E+03  0.17972330595E+03  0.12507970281E+03 0.  0.
          5    1    3    3  502    0  0.35568423560E+02  0.61504747573E+02 -0.12585405201E+03  0.14458444431E+03  0.41800000000E+01 0. -1.
         -5    1    3    3    0  502 -0.17541512727E+02  0.16925530298E+02  0.24961749795E+02  0.35138861642E+02  0.41800000000E+01 0. -1.
        -11    1    1    2    0    0  0.12069571797E+02 -0.76782108964E+01 -0.64424092021E+01  0.15688662220E+02  0.00000000000E+00 0.  1.
         11    1    1    2    0    0 -0.30096482630E+02 -0.70752066975E+02  0.15379813372E+03  0.17194626831E+03  0.00000000000E+00 0. -1.
</event>
<event>
 7    1  0.2679104E-009  0.2697736E+03  0.7561462E-02  0.1101409E+00
          2   -1    0    0  501    0  0.00000000000E+00  0.00000000000E+00  0.14065187148E+04  0.14065187148E+04  0.00000000000E+00 0. -1.
         -2   -1    0    0    0  501 -0.00000000000E+00 -0.00000000000E+00 -0.81867426440E+02  0.81867426440E+02  0.00000000000E+00 0.  1.
         25    2    1    2    0    0 -0.77408276547E+02 -0.24576081826E+03  0.10945516460E+04  0.11314066099E+04  0.12508872927E+03 0.  0.
          5    1    3    3  502    0 -0.39657051619E+02 -0.14958111802E+02  0.84521207957E+02  0.94645305464E+02  0.41800000000E+01 0.  1.
         -5    1    3    3    0  502 -0.37751224928E+02 -0.23080270646E+03  0.10100304380E+04  0.10367613045E+04  0.41800000000E+01 0.  1.
        -11    1    1    2    0    0  0.73506703324E+02  0.14836194485E+03  0.96641409112E+02  0.19171349474E+03  0.00000000000E+00 0.  1.
         11    1    1    2    0    0  0.39015732230E+01  0.97398873416E+02  0.13345823326E+03  0.16526603656E+03  0.00000000000E+00 0. -1.
</event>
<event>
 7    1  0.2679104E-009  0.9079273E+02  0.7561462E-02  0.1300943E+00
          2   -1    0    0  501    0  0.00000000000E+00  0.00000000000E+00  0.31166220614E+03  0.31166220614E+03  0.00000000000E+00 0. -1.
         -2   -1    0    0    0  501 -0.00000000000E+00 -0.00000000000E+00 -0.71131511754E+02  0.71131511754E+02  0.00000000000E+00 0.  1.
         25    2    1    2    0    0  0.56069221479E+02  0.17833907218E+01  0.21080967182E+02  0.13869519356E+03  0.12508002023E+03 0.  0.
          5    1    3    3  502    0  0.56895182419E+02 -0.31126052185E+02 -0.34789096532E+02  0.73713272513E+02  0.41800000000E+01 0. -1.
         -5    1    3    3    0  502 -0.82596093994E+00  0.32909442906E+02  0.55870063715E+02  0.64981921050E+02  0.41800000000E+01 0. -1.
        -11    1    1    2    0    0 -0.45280966757E+02 -0.29248582209E+02  0.54961502640E+02  0.76984493790E+02  0.00000000000E+00 0.  1.
         11    1    1    2    0    0 -0.10788254721E+02  0.27465191487E+02  0.16448822457E+03  0.16711403054E+03  0.00000000000E+00 0. -1.
</event>
<event>
 7    1  0.2679104E-009  0.1165508E+03  0.7561462E-02  0.1248898E+00
          2   -1    0    0  501    0  0.00000000000E+00  0.00000000000E+00  0.11195492307E+03  0.11195492307E+03  0.00000000000E+00 0. -1.
         -2   -1    0    0    0  501 -0.00000000000E+00 -0.00000000000E+00 -0.18038562748E+03  0.18038562748E+03  0.00000000000E+00 0.  1.
         25    2    1    2    0    0  0.60002830117E+01  0.91567550225E+02 -0.54569451663E+02  0.16445859513E+03  0.12509270485E+03 0.  0.
          5    1    3    3  502    0 -0.30596986490E+02  0.81621142098E+02 -0.80176998164E+02  0.11850742531E+03  0.41800000000E+01 0.  1.
         -5    1    3    3    0  502  0.36597269502E+02  0.99464081274E+01  0.25607546501E+02  0.45951169816E+02  0.41800000000E+01 0.  1.
        -11    1    1    2    0    0  0.21715143546E+02 -0.67719943554E+02 -0.41235965408E+02  0.82206709321E+02  0.00000000000E+00 0.  1.
         11    1    1    2    0    0 -0.27715426557E+02 -0.23847606671E+02  0.27374712659E+02  0.45675246100E+02  0.00000000000E+00 0. -1.
</event>
<event>
 7    1  0.2679104E-009  0.1418879E+03  0.7561462E-02  0.1210811E+00
          1   -1    0    0  501    0  0.00000000000E+00  0.00000000000E+00  0.13814562640E+03  0.13814562640E+03  0.00000000000E+00 0. -1.
         -1   -1    0    0    0  501 -0.00000000000E+00 -0.00000000000E+00 -0.16112548976E+03  0.16112548976E+03  0.00000000000E+00 0.  1.
         25    2    1    2    0    0 -0.28211368362E+02  0.90337617138E+02  0.23912948410E+02  0.15867143067E+03  0.12509207582E+03 0.  0.
          5    1    3    3  502    0 -0.49876944177E+02 -0.11449621055E+02 -0.18608048338E+01  0.51378384340E+02  0.41800000000E+01 0.  1.
         -5    1    3    3    0  502  0.21665575815E+02  0.10178723819E+03  0.25773753244E+02  0.10729304633E+03  0.41800000000E+01 0.  1.
        -11    1    1    2    0    0  0.12941306228E+02 -0.10577634492E+03 -0.24374611032E+02  0.10931712682E+03  0.00000000000E+00 0. -1.
         11    1    1    2    0    0  0.15270062134E+02  0.15438727786E+02 -0.22518200733E+02  0.31282558679E+02  0.00000000000E+00 0.  1.
</event>
<event>
 7    1  0.2679104E-009  0.1292153E+03  0.7561462E-02  0.1228625E+00
          3   -1    0    0  501    0  0.00000000000E+00  0.00000000000E+00  0.22486784671E+02  0.22486784671E+02  0.00000000000E+00 0. -1.
         -3   -1    0    0    0  501 -0.00000000000E+00 -0.00000000000E+00 -0.11566442286E+04  0.11566442286E+04  0.00000000000E+00 0.  1.
         25    2    1    2    0    0  0.90160256002E+02 -0.68137924476E+02 -0.73888978401E+03  0.75787770964E+03  0.12509540893E+03 0.  0.
          5    1    3    3  502    0 -0.15652031970E+02 -0.26527640867E+02 -0.44816356549E+02  0.54540627510E+02  0.41800000000E+01 0. -1.
         -5    1    3    3    0  502  0.10581228797E+03 -0.41610283609E+02 -0.69407342746E+03  0.70333708213E+03  0.41800000000E+01 0. -1.
        -11    1    1    2    0    0 -0.22379121835E+02  0.11084464577E+02 -0.11685633225E+02  0.27572531131E+02  0.00000000000E+00 0. -1.
         11    1    1    2    0    0 -0.67781134167E+02  0.57053459899E+02 -0.38358202666E+03  0.39368077247E+03  0.00000000000E+00 0.  1.
</event>
<event>
 7    1  0.2679104E-009  0.7224250E+02  0.7561462E-02  0.1352629E+00
          1   -1    0    0  501    0  0.00000000000E+00  0.00000000000E+00  0.21345803029E+03  0.21345803029E+03  0.00000000000E+00 0. -1.
         -1   -1    0    0    0  501 -0.00000000000E+00 -0.00000000000E+00 -0.59759071951E+02  0.59759071951E+02  0.00000000000E+00 0.  1.
         25    2    1    2    0    0 -0.12074993497E+02  0.22480530727E+02  0.10916333983E+03  0.16797430131E+03  0.12509017311E+03 0.  0.
          5    1    3    3  502    0 -0.23543309209E+02 -0.12023652695E+01 -0.22971684066E+02  0.33179869794E+02  0.41800000000E+01 0.  1.
         -5    1    3    3    0  502  0.11468315712E+02  0.23682895997E+02  0.13213502389E+03  0.13479443151E+03  0.41800000000E+01 0.  1.
        -11    1    1    2    0    0  0.44796619104E+02 -0.37000400278E+02  0.36301312135E+02  0.68509502747E+02  0.00000000000E+00 0. -1.
         11    1    1    2    0    0 -0.32721625607E+02  0.14519869551E+02  0.82343063790E+01  0.36733298187E+02  0.00000000000E+00 0.  1.
</event>
<event>
 7    1  0.2679104E-009  0.9913208E+02  0.7561462E-02  0.1282132E+00
          3   -1    0    0  501    0  0.00000000000E+00  0.00000000000E+00  0.14888489022E+02  0.14888489022E+02  0.00000000000E+00 0. -1.
         -3   -1    0    0    0  501 -0.00000000000E+00 -0.00000000000E+00 -0.98137619459E+03  0.98137619459E+03  0.00000000000E+00 0.  1.
         25    2    1    2    0    0  0.36277042216E+00  0.21227846999E+02 -0.74789153200E+03  0.75857729160E+03  0.12508801142E+03 0.  0.
          5    1    3    3  502    0 -0.29296449390E+02  0.55242626819E+02 -0.61468511554E+03  0.61787158329E+03  0.41800000000E+01 0.  1.
         -5    1    3    3    0  502  0.29659219812E+02 -0.34014779819E+02 -0.13320641646E+03  0.14070570832E+03  0.41800000000E+01 0.  1.
        -11    1    1    2    0    0  0.32264752338E+02 -0.40959966506E+02 -0.15501311854E+03  0.16354754666E+03  0.00000000000E+00 0.  1.
         11    1    1    2    0    0 -0.32627522761E+02  0.19732119507E+02 -0.63583055020E+02  0.74139845342E+02  0.00000000000E+00 0. -1.
</event>
<event>
 7    1  0.2679104E-009  0.1720807E+03  0.7561462E-02  0.1175695E+00
         -1   -1    0    0    0  501 -0.00000000000E+00  0.00000000000E+00  0.15706123258E+03  0.15706123258E+03  0.00000000000E+00 0.  1.
          1   -1    0    0  501    0  0.00000000000E+00 -0.00000000000E+00 -0.28712115231E+03  0.28712115231E+03  0.00000000000E+00 0. -1.
         25    2    1    2    0    0  0.43788257340E+02 -0.13480042085E+03 -0.18748205522E+03  0.26624293773E+03  0.12508883213E+03 0.  0.
          5    1    3    3  502    0 -0.67208900929E+01  0.21177813890E+02 -0.10417322029E+02  0.24893034429E+02  0.41800000000E+01 0.  1.
         -5    1    3    3    0  502  0.50509147433E+02 -0.15597823474E+03 -0.17706473319E+03  0.24134990331E+03  0.41800000000E+01 0.  1.
        -11    1    1    2    0    0 -0.51374590955E+02  0.47660212604E+02  0.57217714495E+02  0.90469394345E+02  0.00000000000E+00 0.  1.
         11    1    1    2    0    0  0.75863336145E+01  0.87140208247E+02  0.20442099622E+00  0.87470052813E+02  0.00000000000E+00 0. -1.
</event>
<event>
 7    1  0.2679104E-009  0.1295946E+03  0.7561462E-02  0.1228059E+00
          2   -1    0    0  501    0  0.00000000000E+00  0.00000000000E+00  0.16740802529E+03  0.16740802529E+03  0.00000000000E+00 0.  1.
         -2   -1    0    0    0  501 -0.00000000000E+00 -0.00000000000E+00 -0.15426631494E+03  0.15426631494E+03  0.00000000000E+00 0. -1.
         25    2    1    2    0    0  0.51981392044E+02 -0.88063705221E+02  0.53682327039E+02  0.17025302960E+03  0.12508805121E+03 0.  0.
          5    1    3    3  502    0  0.88174657039E+02 -0.75276835774E+02  0.60817025447E+02  0.13098685099E+03  0.41800000000E+01 0.  1.
         -5    1    3    3    0  502 -0.36193264994E+02 -0.12786869447E+02 -0.71346984081E+01  0.39266178609E+02  0.41800000000E+01 0.  1.
        -11    1    1    2    0    0 -0.50751330613E+02  0.70017750278E+02 -0.73718221748E+02  0.11363344195E+03  0.00000000000E+00 0. -1.
         11    1    1    2    0    0 -0.12300614319E+01  0.18045954943E+02  0.33177605059E+02  0.37787868667E+02  0.00000000000E+00 0.  1.
</event>
<event>
 7    1  0.4147731E-009  0.1442504E+03  0.7561462E-02  0.1207722E+00
         -1   -1    0    0    0  501 -0.00000000000E+00  0.00000000000E+00  0.97840271449E+02  0.97840271449E+02  0.00000000000E+00 0.  1.
          1   -1    0    0  501    0  0.00000000000E+00 -0.00000000000E+00 -0.28724363093E+03  0.28724363093E+03  0.00000000000E+00 0. -1.
         25    2    1    2    0    0  0.73883310329E+02  0.10346680385E+03 -0.10785538580E+03  0.20843446737E+03  0.12509204571E+03 0.  0.
          5    1    3    3  502    0  0.37067677388E+02 -0.63683119982E+01  0.13909370634E+02  0.40317627610E+02  0.41800000000E+01 0. -1.
         -5    1    3    3    0  502  0.36815632941E+02  0.10983511584E+03 -0.12176475644E+03  0.16811683976E+03  0.41800000000E+01 0. -1.
        -11    1    1    2    0    0 -0.41394130433E+02 -0.90946810393E+02 -0.96355506839E+02  0.13881347216E+03  0.00000000000E+00 0. -1.
         11    1    1    2    0    0 -0.32489179896E+02 -0.12519993454E+02  0.14807533160E+02  0.37835962848E+02  0.00000000000E+00 0.  1.
</event>
<event>
 7    1  0.2679104E-009  0.1483330E+03  0.7561462E-02  0.1202536E+00
          1   -1    0    0  501    0  0.00000000000E+00  0.00000000000E+00  0.78498565192E+03  0.78498565192E+03  0.00000000000E+00 0. -1.
         -1   -1    0    0    0  501 -0.00000000000E+00 -0.00000000000E+00 -0.43448214426E+02  0.43448214426E+02  0.00000000000E+00 0.  1.
         25    2    1    2    0    0 -0.21155994572E+02 -0.13739178665E+03  0.49920849351E+03  0.53308603226E+03  0.12509004220E+03 0.  0.
          5    1    3    3  502    0 -0.23201744453E+02 -0.12548924691E+02  0.10557808309E+02  0.28718220224E+02  0.41800000000E+01 0. -1.
         -5    1    3    3    0  502  0.20457498811E+01 -0.12484286196E+03  0.48865068520E+03  0.50436781204E+03  0.41800000000E+01 0. -1.
        -11    1    1    2    0    0 -0.12554399242E+02  0.43183127954E+02  0.15868162170E+03  0.16493105391E+03  0.00000000000E+00 0. -1.
         11    1    1    2    0    0  0.33710393814E+02  0.94208658696E+02  0.83647322294E+02  0.13041678018E+03  0.00000000000E+00 0.  1.
</event>
<event>
 7    1  0.2679104E-009  0.1203953E+03  0.7561462E-02  0.1242446E+00
         -4   -1    0    0    0  501 -0.00000000000E+00  0.00000000000E+00  0.19306000860E+03  0.19306000860E+03  0.00000000000E+00 0.  1.
          4   -1    0    0  501    0  0.00000000000E+00 -0.00000000000E+00 -0.10950163547E+03  0.10950163547E+03  0.00000000000E+00 0. -1.
         25    2    1    2    0    0  0.87707921616E+02 -0.19439514510E+01  0.31448595002E+01  0.15281107735E+03  0.12507948176E+03 0.  0.
          5    1    3    3  502    0  0.10930756821E+03 -0.32653861055E+02  0.93009788459E+01  0.11453558276E+03  0.41800000000E+01 0. -1.
         -5    1    3    3    0  502 -0.21599646595E+02  0.30709909604E+02 -0.61561193458E+01  0.38275494593E+02  0.41800000000E+01 0. -1.
        -11    1    1    2    0    0 -0.40345789278E+02  0.79284851630E+01  0.91874204798E+02  0.10065541762E+03  0.00000000000E+00 0.  1.
         11    1    1    2    0    0 -0.47362132338E+02 -0.59845337120E+01 -0.11460691162E+02  0.49095149101E+02  0.00000000000E+00 0. -1.
</event>
<event>
 7    1  0.2679104E-009  0.8423012E+02  0.7561462E-02  0.1317458E+00
         -2   -1    0    0    0  501 -0.00000000000E+00  0.00000000000E+00  0.20237691015E+03  0.20237691015E+03  0.00000000000E+00 0.  1.
          2   -1    0    0  501    0  0.00000000000E+00 -0.00000000000E+00 -0.10092475694E+03  0.10092475694E+03  0.00000000000E+00 0. -1.
         25    2    1    2    0    0  0.56899703326E+01 -0.38947010146E+02 -0.33207031356E+02  0.13527544686E+03  0.12508994455E+03 0.  0.
          5    1    3    3  502    0  0.41550218768E+02 -0.40329316227E+02 -0.64998532301E+02  0.87150192360E+02  0.41800000000E+01 0. -1.
         -5    1    3    3    0  502 -0.35860248435E+02  0.13823060809E+01  0.31791500945E+02  0.48125254496E+02  0.41800000000E+01 0. -1.
        -11    1    1    2    0    0  0.10476100043E+02  0.52281108756E+02  0.13693258619E+03  0.14694759666E+03  0.00000000000E+00 0.  1.
         11    1    1    2    0    0 -0.16166070376E+02 -0.13334098610E+02 -0.22734016214E+01  0.21078623581E+02  0.00000000000E+00 0. -1.
</event>
<event>
 7    1  0.2679104E-009  0.1462126E+03  0.7561462E-02  0.1205206E+00
          2   -1    0    0  501    0  0.00000000000E+00  0.00000000000E+00  0.48704989425E+03  0.48704989425E+03  0.00000000000E+00 0. -1.
         -2   -1    0    0    0  501 -0.00000000000E+00 -0.00000000000E+00 -0.48992601579E+02  0.48992601579E+02  0.00000000000E+00 0.  1.
         25    2    1    2    0    0  0.88416882327E+02  0.88669167721E+02  0.23496057818E+03  0.29416345834E+03  0.12508357423E+03 0.  0.
          5    1    3    3  502    0 -0.25326403316E+02  0.18915117216E+02  0.11559487392E+02  0.33916109933E+02  0.41800000000E+01 0.  1.
         -5    1    3    3    0  502  0.11374328564E+03  0.69754050505E+02  0.22340109079E+03  0.26024734841E+03  0.41800000000E+01 0.  1.
        -11    1    1    2    0    0 -0.18483625339E+02 -0.76109440413E+01  0.13422278264E+02  0.24077550304E+02  0.00000000000E+00 0.  1.
         11    1    1    2    0    0 -0.69933256988E+02 -0.81058223679E+02  0.18967443623E+03  0.21780148718E+03  0.00000000000E+00 0. -1.
</event>
<event>
 7    1  0.2679104E-009  0.1540574E+03  0.7561462E-02  0.1195574E+00
         -2   -1    0    0    0  501 -0.00000000000E+00  0.00000000000E+00  0.56781322777E+02  0.56781322777E+02  0.00000000000E+00 0.  1.
          2   -1    0    0  501    0  0.00000000000E+00 -0.00000000000E+00 -0.58138666801E+03  0.58138666801E+03  0.00000000000E+00 0. -1.
         25    2    1    2    0    0  0.62831116812E+02  0.12722298789E+03 -0.22692511816E+03  0.29542062261E+03  0.12507956319E+03 0.  0.
          5    1    3    3  502    0  0.22939259178E+02  0.10694935058E+03 -0.64849822704E+02  0.12722949778E+03  0.41800000000E+01 0.  1.
         -5    1    3    3    0  502  0.39891857634E+02  0.20273637306E+02 -0.16207529545E+03  0.16819112483E+03  0.41800000000E+01 0.  1.
        -11    1    1    2    0    0  0.11063210980E+02 -0.27104232685E+02 -0.13387298669E+03  0.13703653028E+03  0.00000000000E+00 0. -1.
         11    1    1    2    0    0 -0.73894327792E+02 -0.10011875520E+03 -0.16380724038E+03  0.20571083789E+03  0.00000000000E+00 0.  1.
</event>
<event>
 7    1  0.2679104E-009  0.1698514E+03  0.7561462E-02  0.1178003E+00
          1   -1    0    0  501    0  0.00000000000E+00  0.00000000000E+00  0.10018349185E+03  0.10018349185E+03  0.00000000000E+00 0. -1.
         -1   -1    0    0    0  501 -0.00000000000E+00 -0.00000000000E+00 -0.37144854204E+03  0.37144854204E+03  0.00000000000E+00 0.  1.
         25    2    1    2    0    0 -0.48557338051E+02  0.13741949254E+03 -0.65083672800E+02  0.20279437425E+03  0.12509093394E+03 0.  0.
          5    1    3    3  502    0  0.22275577965E+02  0.51558924811E+02  0.22953020818E+02  0.60818070226E+02  0.41800000000E+01 0. -1.
         -5    1    3    3    0  502 -0.70832916016E+02  0.85860567729E+02 -0.88036693618E+02  0.14197630403E+03  0.41800000000E+01 0. -1.
        -11    1    1    2    0    0  0.66291775112E+02 -0.50632753827E+02 -0.11046726873E+03  0.13842432109E+03  0.00000000000E+00 0.  1.
         11    1    1    2    0    0 -0.17734437060E+02 -0.86786738713E+02 -0.95714108663E+02  0.13041333855E+03  0.00000000000E+00 0. -1.
</event>
<event>
 7    1  0.2679104E-009  0.9149297E+02  0.7561462E-02  0.1299276E+00
         -2   -1    0    0    0  501 -0.00000000000E+00  0.00000000000E+00  0.19254555395E+02  0.19254555395E+02  0.00000000000E+00 0. -1.
          2   -1    0    0  501    0  0.00000000000E+00 -0.00000000000E+00 -0.72775939337E+03  0.72775939337E+03  0.00000000000E+00 0.  1.
         25    2    1    2    0    0  0.20461387899E+02 -0.16907622231E+02 -0.52777728235E+03  0.54304786394E+03  0.12509031411E+03 0.  0.
          5    1    3    3  502    0  0.58153784629E+02 -0.38894838240E+01 -0.12175794542E+03  0.13505354651E+03  0.41800000000E+01 0.  1.
         -5    1    3    3    0  502 -0.37692396730E+02 -0.13018138407E+02 -0.40601933693E+03  0.40799431743E+03  0.41800000000E+01 0.  1.
        -11    1    1    2    0    0  0.27117215204E+02 -0.11038680038E+02 -0.24158383137E+02  0.37958178212E+02  0.00000000000E+00 0. -1.
         11    1    1    2    0    0 -0.47578603103E+02  0.27946302270E+02 -0.15656917249E+03  0.16600790661E+03  0.00000000000E+00 0.  1.
</event>
<event>
 7    1  0.2679104E-009  0.2035460E+03  0.7561462E-02  0.1146781E+00
          2   -1    0    0  501    0  0.00000000000E+00  0.00000000000E+00  0.47857938065E+03  0.47857938065E+03  0.00000000000E+00 0. -1.
         -2   -1    0    0    0  501 -0.00000000000E+00 -0.00000000000E+00 -0.97402427269E+02  0.97402427269E+02  0.00000000000E+00 0.  1.
         25    2    1    2    0    0 -0.11675735493E+03 -0.14228882076E+03  0.22812781841E+03  0.31870015417E+03  0.12509635604E+03 0.  0.
          5    1    3    3  502    0 -0.83123232883E+02 -0.37167662432E+02  0.37865256945E+02  0.98702366026E+02  0.41800000000E+01 0.  1.
         -5    1    3    3    0  502 -0.33634122044E+02 -0.10512115832E+03  0.19026256146E+03  0.21999778814E+03  0.41800000000E+01 0.  1.
        -11    1    1    2    0    0  0.13180794899E+03  0.11795940587E+03  0.14114435945E+03  0.22629513263E+03  0.00000000000E+00 0.  1.
         11    1    1    2    0    0 -0.15050594065E+02  0.24329414890E+02  0.11904775529E+02  0.30986521119E+02  0.00000000000E+00 0. -1.
</event>
<event>
 7    1  0.2679104E-009  0.1888790E+03  0.7561462E-02  0.1159476E+00
         -1   -1    0    0    0  501 -0.00000000000E+00  0.00000000000E+00  0.35287125454E+02  0.35287125454E+02  0.00000000000E+00 0.  1.
          1   -1    0    0  501    0  0.00000000000E+00 -0.00000000000E+00 -0.12916943854E+04  0.12916943854E+04  0.00000000000E+00 0. -1.
         25    2    1    2    0    0  0.37041819344E+02 -0.17964438031E+03 -0.65927914219E+03  0.69565918942E+03  0.12509404760E+03 0.  0.
          5    1    3    3  502    0  0.35333072227E+01 -0.42367150914E+02 -0.33999505478E+02  0.54597605344E+02  0.41800000000E+01 0. -1.
         -5    1    3    3    0  502  0.33508512121E+02 -0.13727722939E+03 -0.62527963671E+03  0.64106158408E+03  0.41800000000E+01 0. -1.
        -11    1    1    2    0    0 -0.44285116007E+00  0.13890034722E+03 -0.50856697930E+03  0.52719434274E+03  0.00000000000E+00 0. -1.
         11    1    1    2    0    0 -0.36598968184E+02  0.40744033085E+02 -0.88561138486E+02  0.10412797873E+03  0.00000000000E+00 0.  1.
</event>
<event>
 7    1  0.2679104E-009  0.1115540E+03  0.7561462E-02  0.1257719E+00
          1   -1    0    0  501    0  0.00000000000E+00  0.00000000000E+00  0.36360812407E+03  0.36360812407E+03  0.00000000000E+00 0. -1.
         -1   -1    0    0    0  501 -0.00000000000E+00 -0.00000000000E+00 -0.48419852173E+02  0.48419852173E+02  0.00000000000E+00 0.  1.
         25    2    1    2    0    0 -0.25620835120E+01 -0.70929594702E+02  0.21617325686E+03  0.25964543300E+03  0.12508917708E+03 0.  0.
          5    1    3    3  502    0 -0.70381860843E+01  0.21181516244E+02  0.13445091613E+03  0.13635510236E+03  0.41800000000E+01 0. -1.
         -5    1    3    3    0  502  0.44761025723E+01 -0.92111110946E+02  0.81722340733E+02  0.12329033064E+03  0.41800000000E+01 0. -1.
        -11    1    1    2    0    0 -0.39488783481E+02  0.35438899944E+02  0.76110645538E+02  0.92779900918E+02  0.00000000000E+00 0. -1.
         11    1    1    2    0    0  0.42050866993E+02  0.35490694758E+02  0.22904369496E+02  0.59602642318E+02  0.00000000000E+00 0.  1.
</event>
<event>
 7    1  0.2679104E-009  0.8918178E+02  0.7561462E-02  0.1304845E+00
         -2   -1    0    0    0  501 -0.00000000000E+00  0.00000000000E+00  0.33347291383E+02  0.33347291383E+02  0.00000000000E+00 0.  1.
          2   -1    0    0  501    0  0.00000000000E+00 -0.00000000000E+00 -0.37086060491E+03  0.37086060491E+03  0.00000000000E+00 0. -1.
         25    2    1    2    0    0  0.23841167356E+01  0.24768460132E+02 -0.16691039892E+03  0.21006236056E+03  0.12509178001E+03 0.  0.
          5    1    3    3  502    0 -0.38337631688E+02 -0.20540669616E+02 -0.14765947188E+02  0.46121564458E+02  0.41800000000E+01 0. -1.
         -5    1    3    3    0  502  0.40721748424E+02  0.45309129748E+02 -0.15214445174E+03  0.16394079610E+03  0.41800000000E+01 0. -1.
        -11    1    1    2    0    0  0.16881341657E+02 -0.43546321217E+02 -0.42169776772E+02  0.62924970089E+02  0.00000000000E+00 0.  1.
         11    1    1    2    0    0 -0.19265458392E+02  0.18777861085E+02 -0.12843313783E+03  0.13122056564E+03  0.00000000000E+00 0. -1.
</event>
<event>
 7    1  0.2679104E-009  0.1417502E+03  0.7561462E-02  0.1210993E+00
          1   -1    0    0  501    0  0.00000000000E+00  0.00000000000E+00  0.10188322779E+04  0.10188322779E+04  0.00000000000E+00 0. -1.
         -1   -1    0    0    0  501 -0.00000000000E+00 -0.00000000000E+00 -0.30159916174E+02  0.30159916174E+02  0.00000000000E+00 0.  1.
         25    2    1    2    0    0 -0.13680872893E+03 -0.10777548496E+02  0.54914169217E+03  0.57968641319E+03  0.12508779197E+03 0.  0.
          5    1    3    3  502    0 -0.70688157305E+02  0.18711693486E+02  0.95848541398E+02  0.12062901121E+03  0.41800000000E+01 0. -1.
         -5    1    3    3    0  502 -0.66120571629E+02 -0.29489241982E+02  0.45329315077E+03  0.45905740199E+03  0.41800000000E+01 0. -1.
        -11    1    1    2    0    0  0.90704946391E+02  0.12731336812E+02  0.39390144759E+03  0.40441046556E+03  0.00000000000E+00 0. -1.
         11    1    1    2    0    0  0.46103782543E+02 -0.19537883160E+01  0.45629221965E+02  0.64895315322E+02  0.00000000000E+00 0.  1.
</event>
<event>
 7    1  0.2679104E-009  0.1040075E+03  0.7561462E-02  0.1272087E+00
          1   -1    0    0  501    0  0.00000000000E+00  0.00000000000E+00  0.23892223603E+03  0.23892223603E+03  0.00000000000E+00 0. -1.
         -1   -1    0    0    0  501 -0.00000000000E+00 -0.00000000000E+00 -0.77898103111E+02  0.77898103111E+02  0.00000000000E+00 0.  1.
         25    2    1    2    0    0  0.35229387026E+02  0.69225273116E+02  0.55087760946E+02  0.15720839221E+03  0.12508624636E+03 0.  0.
          5    1    3    3  502    0 -0.98297089777E+01  0.17701140762E+02  0.81229771629E+02  0.83819459326E+02  0.41800000000E+01 0.  1.
         -5    1    3    3    0  502  0.45059096004E+02  0.51524132354E+02 -0.26142010683E+02  0.73388932885E+02  0.41800000000E+01 0.  1.
        -11    1    1    2    0    0  0.15072571557E+02 -0.66720133953E+02  0.52885918963E+02  0.86462009649E+02  0.00000000000E+00 0.  1.
         11    1    1    2    0    0 -0.50301958583E+02 -0.25051391635E+01  0.53050453009E+02  0.73149937280E+02  0.00000000000E+00 0. -1.
</event>
<event>
 7    1  0.2679104E-009  0.2256135E+03  0.7561462E-02  0.1129766E+00
          2   -1    0    0  501    0  0.00000000000E+00  0.00000000000E+00  0.11927198852E+03  0.11927198852E+03  0.00000000000E+00 0. -1.
         -2   -1    0    0    0  501 -0.00000000000E+00 -0.00000000000E+00 -0.45303838994E+03  0.45303838994E+03  0.00000000000E+00 0.  1.
         25    2    1    2    0    0  0.56399692620E+02 -0.19045872617E+03 -0.10781099065E+03  0.25831204749E+03  0.12508578045E+03 0.  0.
          5    1    3    3  502    0  0.52148044111E+02 -0.20847345343E+03 -0.92792638577E+02  0.23411224971E+03  0.41800000000E+01 0.  1.
         -5    1    3    3    0  502  0.42516485085E+01  0.18014727263E+02 -0.15018352074E+02  0.24199797777E+02  0.41800000000E+01 0.  1.
        -11    1    1    2    0    0  0.23762213571E+02  0.33527646684E+02 -0.33181376231E+02  0.52818080375E+02  0.00000000000E+00 0. -1.
         11    1    1    2    0    0 -0.80161906191E+02  0.15693107948E+03 -0.19277403454E+03  0.26118025060E+03  0.00000000000E+00 0.  1.
</event>
<event>
 7    1  0.2679104E-009  0.1132178E+03  0.7561462E-02  0.1254725E+00
          2   -1    0    0  501    0  0.00000000000E+00  0.00000000000E+00  0.32347426112E+03  0.32347426112E+03  0.00000000000E+00 0. -1.
         -2   -1    0    0    0  501 -0.00000000000E+00 -0.00000000000E+00 -0.80558982183E+02  0.80558982183E+02  0.00000000000E+00 0.  1.
         25    2    1    2    0    0  0.65562157083E+02  0.72717969077E+02  0.21752295095E+03  0.26935274238E+03  0.12509342976E+03 0.  0.
          5    1    3    3  502    0  0.44066695862E+02  0.43107550494E+02  0.15097687067E+02  0.63604615780E+02  0.41800000000E+01 0. -1.
         -5    1    3    3    0  502  0.21495461221E+02  0.29610418584E+02  0.20242526388E+03  0.20574812660E+03  0.41800000000E+01 0. -1.
        -11    1    1    2    0    0 -0.59178017163E+02 -0.45481060578E+01 -0.54182857517E+01  0.59599335604E+02  0.00000000000E+00 0.  1.
         11    1    1    2    0    0 -0.63841399207E+01 -0.68169863020E+02  0.30810613742E+02  0.75081165320E+02  0.00000000000E+00 0. -1.
</event>
<event>
 7    1  0.2679104E-009  0.1253203E+03  0.7561462E-02  0.1234570E+00
         -1   -1    0    0    0  501 -0.00000000000E+00  0.00000000000E+00  0.25907313630E+02  0.25907313630E+02  0.00000000000E+00 0.  1.
          1   -1    0    0  501    0  0.00000000000E+00 -0.00000000000E+00 -0.68036762842E+03  0.68036762842E+03  0.00000000000E+00 0. -1.
         25    2    1    2    0    0 -0.86085310008E+01 -0.73299094747E+02 -0.29290593434E+03  0.32693731787E+03  0.12508900570E+03 0.  0.
          5    1    3    3  502    0 -0.49417237232E+02  0.27068769945E+01 -0.56388862897E+02  0.75143640965E+02  0.41800000000E+01 0. -1.
         -5    1    3    3    0  502  0.40808706231E+02 -0.76005971741E+02 -0.23651707145E+03  0.25179367691E+03  0.41800000000E+01 0. -1.
        -11    1    1    2    0    0 -0.36229333122E+02  0.11030555084E+02 -0.12969092968E+03  0.13510727207E+03  0.00000000000E+00 0.  1.
         11    1    1    2    0    0  0.44837864123E+02  0.62268539663E+02 -0.23186345077E+03  0.24423035211E+03  0.00000000000E+00 0. -1.
</event>
<event>
 7    1  0.2679104E-009  0.9470643E+02  0.7561462E-02  0.1291839E+00
          1   -1    0    0  501    0  0.00000000000E+00  0.00000000000E+00  0.40719419108E+03  0.40719419108E+03  0.00000000000E+00 0. -1.
         -1   -1    0    0    0  501 -0.00000000000E+00 -0.00000000000E+00 -0.52948753957E+02  0.52948753957E+02  0.00000000000E+00 0.  1.
         25    2    1    2    0    0 -0.43399408358E+02  0.31846452853E+02  0.32602168537E+03  0.35332045147E+03  0.12508995519E+03 0.  0.
          5    1    3    3  502    0 -0.83781810004E+02  0.98867203140E+01  0.25493222573E+03  0.26856107507E+03  0.41800000000E+01 0.  1.
         -5    1    3    3    0  502  0.40382401646E+02  0.21959732539E+02  0.71089459641E+02  0.84759376401E+02  0.41800000000E+01 0.  1.
        -11    1    1    2    0    0  0.20683086909E+02 -0.13021991138E+01 -0.30479611877E+02  0.36857733880E+02  0.00000000000E+00 0.  1.
         11    1    1    2    0    0  0.22716321450E+02 -0.30544253739E+02  0.58703363632E+02  0.69964759690E+02  0.00000000000E+00 0. -1.
</event>
<event>
 7    1  0.2679104E-009  0.2562561E+03  0.7561462E-02  0.1109414E+00
         -2   -1    0    0    0  501 -0.00000000000E+00  0.00000000000E+00  0.57657369115E+02  0.57657369115E+02  0.00000000000E+00 0.  1.
          2   -1    0    0  501    0  0.00000000000E+00 -0.00000000000E+00 -0.12695698758E+04  0.12695698758E+04  0.00000000000E+00 0. -1.
         25    2    1    2    0    0 -0.22378115534E+03  0.95709157801E+02 -0.73161100683E+03  0.78111473336E+03  0.12508922016E+03 0.  0.
          5    1    3    3  502    0 -0.19254906565E+03  0.10553352329E+03 -0.48625247903E+03  0.53354607391E+03  0.41800000000E+01 0. -1.
         -5    1    3    3    0  502 -0.31232089691E+02 -0.98243654843E+01 -0.24535852779E+03  0.24756865946E+03  0.41800000000E+01 0. -1.
        -11    1    1    2    0    0  0.20648946562E+03 -0.52071668163E+02 -0.39169394008E+03  0.44584021883E+03  0.00000000000E+00 0.  1.
         11    1    1    2    0    0  0.17291689725E+02 -0.43637489638E+02 -0.88607559750E+02  0.10027229269E+03  0.00000000000E+00 0. -1.
</event>
<event>
 7    1  0.2679104E-009  0.1127908E+03  0.7561462E-02  0.1255487E+00
          1   -1    0    0  501    0  0.00000000000E+00  0.00000000000E+00  0.99386604229E+02  0.99386604229E+02  0.00000000000E+00 0. -1.
         -1   -1    0    0    0  501 -0.00000000000E+00 -0.00000000000E+00 -0.15490347862E+03  0.15490347862E+03  0.00000000000E+00 0.  1.
         25    2    1    2    0    0 -0.13857736842E+02 -0.56624599983E+02 -0.20656320111E+02  0.13954487030E+03  0.12509078732E+03 0.  0.
          5    1    3    3  502    0 -0.49695468921E+02 -0.41335466915E+00  0.27732438075E+02  0.57064621394E+02  0.41800000000E+01 0.  1.
         -5    1    3    3    0  502  0.35837732079E+02 -0.56211245314E+02 -0.48388758186E+02  0.82480248903E+02  0.41800000000E+01 0.  1.
        -11    1    1    2    0    0 -0.26727533058E+02  0.62434842620E+02 -0.26501577647E+02  0.72902703751E+02  0.00000000000E+00 0. -1.
         11    1    1    2    0    0  0.40585269900E+02 -0.58102426373E+01 -0.83589766321E+01  0.41842508800E+02  0.00000000000E+00 0.  1.
</event>
<event>
 7    1  0.2679104E-009  0.8841977E+02  0.7561462E-02  0.1306724E+00
         -1   -1    0    0    0  501 -0.00000000000E+00  0.00000000000E+00  0.95246784770E+02  0.95246784770E+02  0.00000000000E+00 0.  1.
          1   -1    0    0  501    0  0.00000000000E+00 -0.00000000000E+00 -0.15897822106E+03  0.15897822106E+03  0.00000000000E+00 0. -1.
         25    2    1    2    0    0  0.43110711707E+02 -0.35368722790E+02 -0.54311917899E+02  0.14733121895E+03  0.12508886296E+03 0.  0.
          5    1    3    3  502    0 -0.12374817767E+01 -0.63267043117E+02  0.10078340600E+02  0.64212891658E+02  0.41800000000E+01 0. -1.
         -5    1    3    3    0  502  0.44348193484E+02  0.27898320327E+02 -0.64390258499E+02  0.83118327292E+02  0.41800000000E+01 0. -1.
        -11    1    1    2    0    0 -0.17102717010E+02  0.29656439226E+02  0.38840879371E+02  0.51774716098E+02  0.00000000000E+00 0.  1.
         11    1    1    2    0    0 -0.26007994697E+02  0.57122835637E+01 -0.48260397765E+02  0.55119070784E+02  0.00000000000E+00 0. -1.
</event>
<event>
 7    1  0.2679104E-009  0.4099770E+03  0.7561462E-02  0.1040379E+00
         -2   -1    0    0    0  501 -0.00000000000E+00  0.00000000000E+00  0.16953352430E+03  0.16953352430E+03  0.00000000000E+00 0.  1.
          2   -1    0    0  501    0  0.00000000000E+00 -0.00000000000E+00 -0.10212673227E+04  0.10212673227E+04  0.00000000000E+00 0. -1.
         25    2    1    2    0    0 -0.37369861192E+03  0.13669615490E+03 -0.50651536106E+03  0.65615605148E+03  0.12508581690E+03 0.  0.
          5    1    3    3  502    0 -0.27763459750E+03  0.44875399027E+02 -0.30665564471E+03  0.41611287892E+03  0.41800000000E+01 0.  1.
         -5    1    3    3    0  502 -0.96064014415E+02  0.91820755874E+02 -0.19985971634E+03  0.24004317256E+03  0.41800000000E+01 0.  1.
        -11    1    1    2    0    0  0.30409258507E+03 -0.14261426063E+03 -0.26188784029E+03  0.42590652556E+03  0.00000000000E+00 0.  1.
         11    1    1    2    0    0  0.69606026847E+02  0.59181057285E+01 -0.83330597033E+02  0.10873826994E+03  0.00000000000E+00 0. -1.
</event>
<event>
 7    1  0.2679104E-009  0.9086599E+02  0.7561462E-02  0.1300768E+00
         -2   -1    0    0    0  501 -0.00000000000E+00  0.00000000000E+00  0.16272364216E+03  0.16272364216E+03  0.00000000000E+00 0.  1.
          2   -1    0    0  501    0  0.00000000000E+00 -0.00000000000E+00 -0.72636169352E+02  0.72636169352E+02  0.00000000000E+00 0. -1.
         25    2    1    2    0    0 -0.47178306601E+02 -0.30710942620E+02  0.23425354549E+02  0.13915864619E+03  0.12508967569E+03 0.  0.
          5    1    3    3  502    0 -0.71679987782E+02  0.59984175914E+01  0.49787541064E+02  0.87580096525E+02  0.41800000000E+01 0.  1.
         -5    1    3    3    0  502  0.24501681182E+02 -0.36709360211E+02 -0.26362186515E+02  0.51578549666E+02  0.41800000000E+01 0.  1.
        -11    1    1    2    0    0  0.71178894217E+01 -0.72485681674E+01  0.68054341298E+00  0.10181808760E+02  0.00000000000E+00 0. -1.
         11    1    1    2    0    0  0.40060417179E+02  0.37959510787E+02  0.65981574843E+02  0.86019356557E+02  0.00000000000E+00 0.  1.
</event>
<event>
 7    1  0.2679104E-009  0.8634217E+02  0.7561462E-02  0.1311959E+00
         -2   -1    0    0    0  501 -0.00000000000E+00  0.00000000000E+00  0.54496786437E+02  0.54496786437E+02  0.00000000000E+00 0.  1.
          2   -1    0    0  501    0  0.00000000000E+00 -0.00000000000E+00 -0.21525205243E+03  0.21525205243E+03  0.00000000000E+00 0. -1.
         25    2    1    2    0    0  0.42105926522E+01  0.13484848817E+02 -0.88836953912E+02  0.15407530726E+03  0.12509047001E+03 0.  0.
          5    1    3    3  502    0  0.57180409952E+02 -0.79632780245E+01 -0.75690292318E+02  0.95286440958E+02  0.41800000000E+01 0. -1.
         -5    1    3    3    0  502 -0.52969817300E+02  0.21448126842E+02 -0.13146661594E+02  0.58788866300E+02  0.41800000000E+01 0. -1.
        -11    1    1    2    0    0 -0.28142862442E+02 -0.17634729272E+02  0.62709919532E+01  0.33798368644E+02  0.00000000000E+00 0.  1.
         11    1    1    2    0    0  0.23932269789E+02  0.41498804552E+01 -0.78189304034E+02  0.81875162964E+02  0.00000000000E+00 0. -1.
</event>
<event>
 7    1  0.2679104E-009  0.1943707E+03  0.7561462E-02  0.1154577E+00
         -1   -1    0    0    0  501 -0.00000000000E+00  0.00000000000E+00  0.30380441560E+02  0.30380441560E+02  0.00000000000E+00 0.  1.
          1   -1    0    0  501    0  0.00000000000E+00 -0.00000000000E+00 -0.16137761383E+04  0.16137761383E+04  0.00000000000E+00 0. -1.
         25    2    1    2    0    0 -0.17608843498E+03  0.35752302146E+02 -0.56699267481E+03  0.60779423336E+03  0.12509105791E+03 0.  0.
          5    1    3    3  502    0 -0.17455297795E+02 -0.11001673291E+02 -0.45655603069E+01  0.21541610367E+02  0.41800000000E+01 0.  1.
         -5    1    3    3    0  502 -0.15863313718E+03  0.46753975436E+02 -0.56242711450E+03  0.58625262299E+03  0.41800000000E+01 0.  1.
        -11    1    1    2    0    0  0.12585624136E+03 -0.67518121247E+02 -0.73606596365E+03  0.74979436716E+03  0.00000000000E+00 0.  1.
         11    1    1    2    0    0  0.50232193615E+02  0.31765819101E+02 -0.28033705829E+03  0.28656797935E+03  0.00000000000E+00 0. -1.
</event>
<event>
 7    1  0.2679104E-009  0.1215184E+03  0.7561462E-02  0.1240613E+00
         -2   -1    0    0    0  501 -0.00000000000E+00  0.00000000000E+00  0.10680210231E+03  0.10680210231E+03  0.00000000000E+00 0. -1.
          2   -1    0    0  501    0  0.00000000000E+00 -0.00000000000E+00 -0.17050896711E+03  0.17050896711E+03  0.00000000000E+00 0.  1.
         25    2    1    2    0    0  0.14554107055E+02 -0.73491636700E+02 -0.64790908814E+02  0.15956533055E+03  0.12510151938E+03 0.  0.
          5    1    3    3  502    0  0.35114007743E+02 -0.10304618315E+03 -0.42055239987E+02  0.11678024238E+03  0.41800000000E+01 0.  1.
         -5    1    3    3    0  502 -0.20559900689E+02  0.29554546447E+02 -0.22735668826E+02  0.42785088162E+02  0.41800000000E+01 0.  1.
        -11    1    1    2    0    0 -0.38651714559E+02  0.56114597483E+02  0.31641367541E+02  0.75126421643E+02  0.00000000000E+00 0. -1.
         11    1    1    2    0    0  0.24097607504E+02  0.17377039218E+02 -0.30557323527E+02  0.42619317222E+02  0.00000000000E+00 0.  1.
</event>
<event>
 7    1  0.2679104E-009  0.1159948E+03  0.7561462E-02  0.1249855E+00
         -2   -1    0    0    0  501 -0.00000000000E+00  0.00000000000E+00  0.51084191034E+02  0.51084191034E+02  0.00000000000E+00 0.  1.
          2   -1    0    0  501    0  0.00000000000E+00 -0.00000000000E+00 -0.32675790202E+03  0.32675790202E+03  0.00000000000E+00 0. -1.
         25    2    1    2    0    0 -0.70015494540E+02 -0.30873474097E+00 -0.19060764653E+03  0.23849804079E+03  0.12509106984E+03 0.  0.
          5    1    3    3  502    0 -0.11511985839E+01 -0.50888775603E+02 -0.10852128816E+03  0.11993888078E+03  0.41800000000E+01 0. -1.
         -5    1    3    3    0  502 -0.68864295956E+02  0.50580040862E+02 -0.82086358371E+02  0.11855916001E+03  0.41800000000E+01 0. -1.
        -11    1    1    2    0    0  0.43717261842E+02  0.32008284092E+02 -0.12040960934E+02  0.55504179786E+02  0.00000000000E+00 0.  1.
         11    1    1    2    0    0  0.26298232699E+02 -0.31699549351E+02 -0.73025103527E+02  0.83839872479E+02  0.00000000000E+00 0. -1.
</event>
<event>
 7    1  0.2679104E-009  0.1466237E+03  0.7561462E-02  0.1204684E+00
          2   -1    0    0  501    0  0.00000000000E+00  0.00000000000E+00  0.11360828801E+04  0.11360828801E+04  0.00000000000E+00 0.  1.
         -2   -1    0    0    0  501 -0.00000000000E+00 -0.00000000000E+00 -0.20039924746E+02  0.20039924746E+02  0.00000000000E+00 0. -1.
         25    2    1    2    0    0  0.12518470909E+02  0.96347573404E+02  0.47018321880E+03  0.49614360345E+03  0.12508656595E+03 0.  0.
          5    1    3    3  502    0 -0.43985400868E+02 -0.21774834231E+01  0.11477024151E+03  0.12300055959E+03  0.41800000000E+01 0. -1.
         -5    1    3    3    0  502  0.56503871777E+02  0.98525056827E+02  0.35541297730E+03  0.37314304386E+03  0.41800000000E+01 0. -1.
        -11    1    1    2    0    0  0.21214470286E+02 -0.99255769631E+02  0.50603646039E+03  0.51611496859E+03  0.00000000000E+00 0.  1.
         11    1    1    2    0    0 -0.33732941195E+02  0.29081962273E+01  0.13982327619E+03  0.14386423285E+03  0.00000000000E+00 0. -1.
</event>
<event>
 7    1  0.3134982E-009  0.2117582E+03  0.7561462E-02  0.1140181E+00
         -2   -1    0    0    0  501 -0.00000000000E+00  0.00000000000E+00  0.90702741555E+02  0.90702741555E+02  0.00000000000E+00 0. -1.
          2   -1    0    0  501    0  0.00000000000E+00 -0.00000000000E+00 -0.67304134345E+03  0.67304134345E+03  0.00000000000E+00 0.  1.
         25    2    1    2    0    0  0.13546004132E+03 -0.13519040444E+03 -0.47252915448E+03  0.52493502936E+03  0.12508842858E+03 0.  0.
          5    1    3    3  502    0  0.24256344194E+02  0.16548371188E+02 -0.13765320693E+03  0.14081227433E+03  0.41800000000E+01 0. -1.
         -5    1    3    3    0  502  0.11120369713E+03 -0.15173877563E+03 -0.33487594754E+03  0.38412275502E+03  0.41800000000E+01 0. -1.
        -11    1    1    2    0    0 -0.90223625643E+02  0.36885789017E+02 -0.23177649239E+02  0.10019015660E+03  0.00000000000E+00 0. -1.
         11    1    1    2    0    0 -0.45236415680E+02  0.98304615425E+02 -0.86631798174E+02  0.13861889904E+03  0.00000000000E+00 0.  1.
</event>
<event>
 7    1  0.2679104E-009  0.8983223E+02  0.7561462E-02  0.1303258E+00
          2   -1    0    0  501    0  0.00000000000E+00  0.00000000000E+00  0.41093561696E+03  0.41093561696E+03  0.00000000000E+00 0. -1.
         -2   -1    0    0    0  501 -0.00000000000E+00 -0.00000000000E+00 -0.23264203427E+02  0.23264203427E+02  0.00000000000E+00 0.  1.
         25    2    1    2    0    0  0.16151529894E+02 -0.29436835489E+02  0.29923109266E+03  0.32605944390E+03  0.12509242559E+03 0.  0.
          5    1    3    3  502    0  0.50196143831E+02 -0.58456009393E+02  0.13201303567E+03  0.15291066633E+03  0.41800000000E+01 0.  1.
         -5    1    3    3    0  502 -0.34044613936E+02  0.29019173904E+02  0.16721805699E+03  0.17314877757E+03  0.41800000000E+01 0.  1.
        -11    1    1    2    0    0  0.16572604640E+02  0.76104500103E+01  0.11038811735E+02  0.21317259168E+02  0.00000000000E+00 0.  1.
         11    1    1    2    0    0 -0.32724134534E+02  0.21826385479E+02  0.77401509134E+02  0.86823117315E+02  0.00000000000E+00 0. -1.
</event>
<event>
 7    1  0.2679104E-009  0.1223307E+03  0.7561462E-02  0.1239301E+00
          1   -1    0    0  501    0  0.00000000000E+00  0.00000000000E+00  0.31505807243E+03  0.31505807243E+03  0.00000000000E+00 0. -1.
         -1   -1    0    0    0  501 -0.00000000000E+00 -0.00000000000E+00 -0.72049114946E+02  0.72049114946E+02  0.00000000000E+00 0.  1.
         25    2    1    2    0    0  0.65452722515E+02 -0.68402596638E+02  0.18265281823E+03  0.24078010528E+03  0.12510009185E+03 0.  0.
          5    1    3    3  502    0  0.92210810697E+02 -0.71759469355E+02  0.17819706483E+03  0.21312888440E+03  0.41800000000E+01 0. -1.
         -5    1    3    3    0  502 -0.26758088183E+02  0.33568727167E+01  0.44557533949E+01  0.27651220876E+02  0.41800000000E+01 0. -1.
        -11    1    1    2    0    0 -0.40899644119E+02  0.18605284847E+02 -0.19569643721E+02  0.49009269212E+02  0.00000000000E+00 0.  1.
         11    1    1    2    0    0 -0.24553078396E+02  0.49797311791E+02  0.79925782972E+02  0.97317812881E+02  0.00000000000E+00 0. -1.
</event>
<event>
 7    1  0.2679104E-009  0.1134353E+03  0.7561462E-02  0.1254337E+00
         -2   -1    0    0    0  501 -0.00000000000E+00  0.00000000000E+00  0.17126782571E+04  0.17126782571E+04  0.00000000000E+00 0.  1.
          2   -1    0    0  501    0  0.00000000000E+00 -0.00000000000E+00 -0.34309358451E+02  0.34309358451E+02  0.00000000000E+00 0. -1.
         25    2    1    2    0    0 -0.15573975694E+02  0.58521459755E+02  0.16114585786E+04  0.16174405235E+04  0.12509111288E+03 0.  0.
          5    1    3    3  502    0 -0.59785653677E+02 -0.42257348592E+01  0.57321914906E+03  0.57635912977E+03  0.41800000000E+01 0.  1.
         -5    1    3    3    0  502  0.44211677983E+02  0.62747194614E+02  0.10382394295E+04  0.10410813937E+04  0.41800000000E+01 0.  1.
        -11    1    1    2    0    0 -0.21066042836E+02 -0.22994579493E+00 -0.12459475105E+02  0.24475897444E+02  0.00000000000E+00 0. -1.
         11    1    1    2    0    0  0.36640018530E+02 -0.58291513960E+02  0.79369795201E+02  0.10507119466E+03  0.00000000000E+00 0.  1.
</event>
<event>
 7    1  0.3099302E-009  0.1720420E+03  0.7561462E-02  0.1175735E+00
          2   -1    0    0  501    0  0.00000000000E+00  0.00000000000E+00  0.80946083922E+03  0.80946083922E+03  0.00000000000E+00 0. -1.
         -2   -1    0    0    0  501 -0.00000000000E+00 -0.00000000000E+00 -0.43636342364E+02  0.43636342364E+02  0.00000000000E+00 0.  1.
         25    2    1    2    0    0 -0.11594633289E+03  0.73360186913E+02  0.55588141428E+03  0.58606943825E+03  0.12509184855E+03 0.  0.
          5    1    3    3  502    0 -0.75490575754E+02  0.10725145346E+03  0.36038968160E+03  0.38353604303E+03  0.41800000000E+01 0. -1.
         -5    1    3    3    0  502 -0.40455757141E+02 -0.33891266548E+02  0.19549173268E+03  0.20253339523E+03  0.41800000000E+01 0. -1.
        -11    1    1    2    0    0  0.40940707874E+02  0.15374982632E+02  0.89854758192E+02  0.99932023005E+02  0.00000000000E+00 0.  1.
         11    1    1    2    0    0  0.75005625021E+02 -0.88735169544E+02  0.12008832438E+03  0.16709572033E+03  0.00000000000E+00 0. -1.
</event>
<event>
 7    1  0.2679104E-009  0.1058051E+03  0.7561462E-02  0.1268541E+00
          1   -1    0    0  501    0  0.00000000000E+00  0.00000000000E+00  0.83324587794E+03  0.83324587794E+03  0.00000000000E+00 0. -1.
         -1   -1    0    0    0  501 -0.00000000000E+00 -0.00000000000E+00 -0.18077136386E+02  0.18077136386E+02  0.00000000000E+00 0.  1.
         25    2    1    2    0    0 -0.33880361096E+02  0.33408644949E+02  0.54443378076E+03  0.56064162110E+03  0.12508744645E+03 0.  0.
          5    1    3    3  502    0 -0.13649129117E+02 -0.39116116062E+02  0.80626918156E+02  0.90744374993E+02  0.41800000000E+01 0.  1.
         -5    1    3    3    0  502 -0.20231231979E+02  0.72524761012E+02  0.46380686260E+03  0.46989724611E+03  0.41800000000E+01 0.  1.
        -11    1    1    2    0    0  0.55371454425E+02 -0.64163493871E+00  0.21834643436E+03  0.22525890673E+03  0.00000000000E+00 0. -1.
         11    1    1    2    0    0 -0.21491093329E+02 -0.32767010010E+02  0.52388526439E+02  0.65422486501E+02  0.00000000000E+00 0.  1.
</event>
<event>
 7    1  0.2679104E-009  0.8605624E+02  0.7561462E-02  0.1312693E+00
         -2   -1    0    0    0  501 -0.00000000000E+00  0.00000000000E+00  0.22366157160E+03  0.22366157160E+03  0.00000000000E+00 0.  1.
          2   -1    0    0  501    0  0.00000000000E+00 -0.00000000000E+00 -0.75653475257E+02  0.75653475257E+02  0.00000000000E+00 0. -1.
         25    2    1    2    0    0  0.24013509027E+02  0.60867895090E+02  0.88739876908E+02  0.16674541386E+03  0.12509083908E+03 0.  0.
          5    1    3    3  502    0 -0.26095877686E+01  0.28360199215E+02 -0.29484923513E+02  0.41206115595E+02  0.41800000000E+01 0. -1.
         -5    1    3    3    0  502  0.26623096796E+02  0.32507695876E+02  0.11822480042E+03  0.12553929826E+03  0.41800000000E+01 0. -1.
        -11    1    1    2    0    0 -0.52233570236E+02 -0.35497631263E+02  0.68853278231E+02  0.93430196446E+02  0.00000000000E+00 0.  1.
         11    1    1    2    0    0  0.28220061208E+02 -0.25370263827E+02 -0.95850587978E+01  0.39139436550E+02  0.00000000000E+00 0. -1.
</event>
<event>
 7    1  0.2679104E-009  0.1185654E+03  0.7561462E-02  0.1245483E+00
          3   -1    0    0  501    0  0.00000000000E+00  0.00000000000E+00  0.21783435357E+02  0.21783435357E+02  0.00000000000E+00 0. -1.
         -3   -1    0    0    0  501 -0.00000000000E+00 -0.00000000000E+00 -0.74069036030E+03  0.74069036030E+03  0.00000000000E+00 0.  1.
         25    2    1    2    0    0  0.57544892258E+02 -0.30776808218E+02 -0.35051117518E+03  0.37784237258E+03  0.12509255791E+03 0.  0.
          5    1    3    3  502    0  0.80617240821E+01 -0.70800725374E+02 -0.13018260939E+03  0.14846790326E+03  0.41800000000E+01 0. -1.
         -5    1    3    3    0  502  0.49483168176E+02  0.40023917157E+02 -0.22032856579E+03  0.22937446933E+03  0.41800000000E+01 0. -1.
        -11    1    1    2    0    0 -0.29542486886E+02 -0.25554841548E+02 -0.74946283025E+02  0.84514814069E+02  0.00000000000E+00 0. -1.
         11    1    1    2    0    0 -0.28002405372E+02  0.56331649766E+02 -0.29344946673E+03  0.30011660900E+03  0.00000000000E+00 0.  1.
</event>
<event>
 7    1  0.3408363E-009  0.8658514E+02  0.7561462E-02  0.1311339E+00
          1   -1    0    0  501    0  0.00000000000E+00  0.00000000000E+00  0.69299277586E+03  0.69299277586E+03  0.00000000000E+00 0. -1.
         -1   -1    0    0    0  501 -0.00000000000E+00 -0.00000000000E+00 -0.20100017830E+02  0.20100017830E+02  0.00000000000E+00 0.  1.
         25    2    1    2    0    0 -0.10217206564E+02 -0.39943691367E+02  0.44917141213E+03  0.46808364656E+03  0.12508977939E+03 0.  0.
          5    1    3    3  502    0 -0.27688884260E+01  0.27859894626E+02  0.23016209885E+02  0.36483678394E+02  0.41800000000E+01 0. -1.
         -5    1    3    3    0  502 -0.74483181379E+01 -0.67803585993E+02  0.42615520225E+03  0.43159996816E+03  0.41800000000E+01 0. -1.
        -11    1    1    2    0    0 -0.90193770160E+01 -0.15447025054E+02  0.50124223115E+01  0.18576439977E+02  0.00000000000E+00 0.  1.
         11    1    1    2    0    0  0.19236583580E+02  0.55390716421E+02  0.21870892358E+03  0.22643270715E+03  0.00000000000E+00 0. -1.
</event>
<event>
 7    1  0.2679104E-009  0.7956620E+02  0.7561462E-02  0.1330287E+00
         -2   -1    0    0    0  501 -0.00000000000E+00  0.00000000000E+00  0.97627164453E+02  0.97627164453E+02  0.00000000000E+00 0.  1.
          2   -1    0    0  501    0  0.00000000000E+00 -0.00000000000E+00 -0.18630113771E+03  0.18630113771E+03  0.00000000000E+00 0. -1.
         25    2    1    2    0    0 -0.28430683193E+02 -0.55520326899E+01 -0.13622782028E+03  0.18720306952E+03  0.12509133226E+03 0.  0.
          5    1    3    3  502    0 -0.38764890572E+02 -0.29246142758E+02 -0.14992720209E+03  0.15765053738E+03  0.41800000000E+01 0.  1.
         -5    1    3    3    0  502  0.10334207380E+02  0.23694110068E+02  0.13699381817E+02  0.29552532146E+02  0.41800000000E+01 0.  1.
        -11    1    1    2    0    0  0.12209318245E+02  0.42306296512E+02  0.23794270671E+02  0.50050549381E+02  0.00000000000E+00 0.  1.
         11    1    1    2    0    0  0.16221364947E+02 -0.36754263823E+02  0.23759576343E+02  0.46674683265E+02  0.00000000000E+00 0. -1.
</event>
<event>
 7    1  0.2679104E-009  0.1113924E+03  0.7561462E-02  0.1258013E+00
          1   -1    0    0  501    0  0.00000000000E+00  0.00000000000E+00  0.72938361331E+03  0.72938361331E+03  0.00000000000E+00 0. -1.
         -1   -1    0    0    0  501 -0.00000000000E+00 -0.00000000000E+00 -0.28750652977E+02  0.28750652977E+02  0.00000000000E+00 0.  1.
         25    2    1    2    0    0 -0.44364317293E+01 -0.89745779100E+02  0.29755796700E+03  0.33505661134E+03  0.12509277471E+03 0.  0.
          5    1    3    3  502    0  0.15923205834E+02 -0.61561202595E+01 -0.67238735131E+01  0.18818320215E+02  0.41800000000E+01 0.  1.
         -5    1    3    3    0  502 -0.20359637563E+02 -0.83589658841E+02  0.30428184052E+03  0.31623829113E+03  0.41800000000E+01 0.  1.
        -11    1    1    2    0    0  0.30514343617E+02  0.56571259958E+01  0.47305930362E+02  0.56577197600E+02  0.00000000000E+00 0.  1.
         11    1    1    2    0    0 -0.26077911888E+02  0.84088653104E+02  0.35576906297E+03  0.36650045735E+03  0.00000000000E+00 0. -1.
</event>
<event>
 7    1  0.2679104E-009  0.9592571E+02  0.7561462E-02  0.1289105E+00
          1   -1    0    0  501    0  0.00000000000E+00  0.00000000000E+00  0.11046966839E+03  0.11046966839E+03  0.00000000000E+00 0. -1.
         -1   -1    0    0    0  501 -0.00000000000E+00 -0.00000000000E+00 -0.14016202908E+03  0.14016202908E+03  0.00000000000E+00 0.  1.
         25    2    1    2    0    0  0.32041196279E+01 -0.40344617728E+02 -0.62526934284E+02  0.14558792271E+03  0.12509305003E+03 0.  0.
          5    1    3    3  502    0 -0.15222394154E+02 -0.74928721611E+02 -0.61737554340E+01  0.76822016781E+02  0.41800000000E+01 0.  1.
         -5    1    3    3    0  502  0.18426513781E+02  0.34584103883E+02 -0.56353178850E+02  0.68765905928E+02  0.41800000000E+01 0.  1.
        -11    1    1    2    0    0  0.28489276278E+02  0.59601803738E+01 -0.19366377780E+02  0.34960251733E+02  0.00000000000E+00 0.  1.
         11    1    1    2    0    0 -0.31693395906E+02  0.34384437354E+02  0.52200951375E+02  0.70083523032E+02  0.00000000000E+00 0. -1.
</event>
<event>
 7    1  0.2679104E-009  0.8125013E+02  0.7561462E-02  0.1325541E+00
         -1   -1    0    0    0  501 -0.00000000000E+00  0.00000000000E+00  0.41238074230E+02  0.41238074230E+02  0.00000000000E+00 0.  1.
          1   -1    0    0  501    0  0.00000000000E+00 -0.00000000000E+00 -0.37808412096E+03  0.37808412096E+03  0.00000000000E+00 0. -1.
         25    2    1    2    0    0 -0.27462360920E+02 -0.55419308519E+02 -0.20494678328E+03  0.24794306446E+03  0.12508836163E+03 0.  0.
          5    1    3    3  502    0 -0.18606661682E+02 -0.60058247900E+02 -0.22030917287E+03  0.22914363411E+03  0.41800000000E+01 0.  1.
         -5    1    3    3    0  502 -0.88556992379E+01  0.46389393810E+01  0.15362389597E+02  0.18799430356E+02  0.41800000000E+01 0.  1.
        -11    1    1    2    0    0  0.42535084824E+02  0.59402610336E+02 -0.13675705307E+03  0.15504965373E+03  0.00000000000E+00 0. -1.
         11    1    1    2    0    0 -0.15072723904E+02 -0.39833018166E+01  0.48577896161E+01  0.16329477004E+02  0.00000000000E+00 0.  1.
</event>
<event>
 7    1  0.2679104E-009  0.1144450E+03  0.7561462E-02  0.1252553E+00
          2   -1    0    0  501    0  0.00000000000E+00  0.00000000000E+00  0.54804001643E+03  0.54804001643E+03  0.00000000000E+00 0. -1.
         -2   -1    0    0    0  501 -0.00000000000E+00 -0.00000000000E+00 -0.25533824614E+02  0.25533824614E+02  0.00000000000E+00 0.  1.
         25    2    1    2    0    0 -0.39746453464E+02  0.67943769507E+01  0.35609026179E+03  0.37957034144E+03  0.12508966959E+03 0.  0.
          5    1    3    3  502    0 -0.26795660640E+02 -0.57492186241E+02  0.14100960792E+03  0.15467559870E+03  0.41800000000E+01 0.  1.
         -5    1    3    3    0  502 -0.12950792824E+02  0.64286563192E+02  0.21508065387E+03  0.22489474274E+03  0.41800000000E+01 0.  1.
        -11    1    1    2    0    0  0.48386690465E+02  0.33208346952E+02  0.93661042494E+02  0.11052808242E+03  0.00000000000E+00 0. -1.
         11    1    1    2    0    0 -0.86402370011E+01 -0.40002723903E+02  0.72754887526E+02  0.83475417184E+02  0.00000000000E+00 0.  1.
</event>
<event>
 7    1  0.2679104E-009  0.1212149E+03  0.7561462E-02  0.1241106E+00
          2   -1    0    0  501    0  0.00000000000E+00  0.00000000000E+00  0.19696699796E+04  0.19696699796E+04  0.00000000000E+00 0. -1.
         -2   -1    0    0    0  501 -0.00000000000E+00 -0.00000000000E+00 -0.13153912317E+02  0.13153912317E+02  0.00000000000E+00 0.  1.
         25    2    1    2    0    0 -0.82740109412E+02 -0.54654786344E+02  0.14436622818E+04  0.14524606033E+04  0.12509176141E+03 0.  0.
          5    1    3    3  502    0 -0.36605329702E+02 -0.49788345265E+02  0.23890903498E+03  0.24680727072E+03  0.41800000000E+01 0. -1.
         -5    1    3    3    0  502 -0.46134779710E+02 -0.48664410788E+01  0.12047532469E+04  0.12056533326E+04  0.41800000000E+01 0. -1.
        -11    1    1    2    0    0  0.84686522470E+02  0.75212266743E+02  0.45662879658E+03  0.47046631125E+03  0.00000000000E+00 0. -1.
         11    1    1    2    0    0 -0.19464130587E+01 -0.20557480399E+02  0.56224988860E+02  0.59896977357E+02  0.00000000000E+00 0.  1.
</event>
<event>
 7    1  0.2679104E-009  0.1080345E+03  0.7561462E-02  0.1264254E+00
         -2   -1    0    0    0  501 -0.00000000000E+00  0.00000000000E+00  0.49487102569E+02  0.49487102569E+02  0.00000000000E+00 0.  1.
          2   -1    0    0  501    0  0.00000000000E+00 -0.00000000000E+00 -0.29144329312E+03  0.29144329312E+03  0.00000000000E+00 0. -1.
         25    2    1    2    0    0 -0.11920156499E+02 -0.35350520635E+02 -0.19259584992E+03  0.23266541159E+03  0.12509309694E+03 0.  0.
          5    1    3    3  502    0 -0.56468712786E+02  0.19210594311E+02 -0.94492629821E+02  0.11182169713E+03  0.41800000000E+01 0. -1.
         -5    1    3    3    0  502  0.44548556287E+02 -0.54561114946E+02 -0.98103220103E+02  0.12084371447E+03  0.41800000000E+01 0. -1.
        -11    1    1    2    0    0  0.69247683291E+01 -0.24599763110E+02  0.62851545919E+01  0.26317369355E+02  0.00000000000E+00 0.  1.
         11    1    1    2    0    0  0.49953881700E+01  0.59950283745E+02 -0.55645495221E+02  0.81947614745E+02  0.00000000000E+00 0. -1.
</event>
<event>
 7    1  0.2679104E-009  0.7517640E+02  0.7561462E-02  0.1343326E+00
          2   -1    0    0  501    0  0.00000000000E+00  0.00000000000E+00  0.39714460939E+03  0.39714460939E+03  0.00000000000E+00 0. -1.
         -2   -1    0    0    0  501 -0.00000000000E+00 -0.00000000000E+00 -0.27892043607E+02  0.27892043607E+02  0.00000000000E+00 0.  1.
         25    2    1    2    0    0  0.88970143545E+00  0.31172520783E+02  0.18833464695E+03  0.22823273719E+03  0.12509086883E+03 0.  0.
          5    1    3    3  502    0  0.43118052948E+02  0.30001643464E+02  0.22930176346E+02  0.57467647314E+02  0.41800000000E+01 0.  1.
         -5    1    3    3    0  502 -0.42228351513E+02  0.11708773188E+01  0.16540447061E+03  0.17076508988E+03  0.41800000000E+01 0.  1.
        -11    1    1    2    0    0  0.22217342669E+02 -0.18111868540E+02  0.16122556519E+03  0.16375387925E+03  0.00000000000E+00 0. -1.
         11    1    1    2    0    0 -0.23107044104E+02 -0.13060652242E+02  0.19692353634E+02  0.33050036549E+02  0.00000000000E+00 0.  1.
</event>
<event>
 7    1  0.2679104E-009  0.2311729E+03  0.7561462E-02  0.1125817E+00
         -1   -1    0    0    0  501 -0.00000000000E+00  0.00000000000E+00  0.10870966456E+04  0.10870966456E+04  0.00000000000E+00 0.  1.
          1   -1    0    0  501    0  0.00000000000E+00 -0.00000000000E+00 -0.52986679920E+02  0.52986679920E+02  0.00000000000E+00 0. -1.
         25    2    1    2    0    0  0.13671979758E+03  0.16200984617E+03  0.47208644860E+03  0.53240291887E+03  0.12509100593E+03 0.  0.
          5    1    3    3  502    0 -0.14036436775E+02  0.29898163319E+02  0.22631443668E+02  0.40256382968E+02  0.41800000000E+01 0.  1.
         -5    1    3    3    0  502  0.15075623435E+03  0.13211168285E+03  0.44945500494E+03  0.49214653591E+03  0.41800000000E+01 0.  1.
        -11    1    1    2    0    0 -0.37569982663E+02 -0.11073397782E+03  0.33228912667E+03  0.35226351094E+03  0.00000000000E+00 0.  1.
         11    1    1    2    0    0 -0.99149814912E+02 -0.51275868350E+02  0.22973439040E+03  0.25541689569E+03  0.00000000000E+00 0. -1.
</event>
<event>
 7    1  0.2679104E-009  0.1469489E+03  0.7561462E-02  0.1204273E+00
          2   -1    0    0  501    0  0.00000000000E+00  0.00000000000E+00  0.58396282487E+03  0.58396282487E+03  0.00000000000E+00 0. -1.
         -2   -1    0    0    0  501 -0.00000000000E+00 -0.00000000000E+00 -0.49364382721E+02  0.49364382721E+02  0.00000000000E+00 0.  1.
         25    2    1    2    0    0  0.93398517886E+02  0.89641835002E+02  0.30898831354E+03  0.35760270501E+03  0.12508786912E+03 0.  0.
          5    1    3    3  502    0  0.21525581749E+02 -0.48559007875E+01  0.18324439621E+03  0.18461557785E+03  0.41800000000E+01 0.  1.
         -5    1    3    3    0  502  0.71872936136E+02  0.94497735790E+02  0.12574391733E+03  0.17298712716E+03  0.41800000000E+01 0.  1.
        -11    1    1    2    0    0  0.87486425106E+01 -0.36427573140E+02  0.27161347091E+02  0.46273595131E+02  0.00000000000E+00 0.  1.
         11    1    1    2    0    0 -0.10214716040E+03 -0.53214261863E+02  0.19844878152E+03  0.22945090745E+03  0.00000000000E+00 0. -1.
</event>
<event>
 7    1  0.2679104E-009  0.7085536E+02  0.7561462E-02  0.1357208E+00
         -1   -1    0    0    0  501 -0.00000000000E+00  0.00000000000E+00  0.87957515519E+02  0.87957515519E+02  0.00000000000E+00 0.  1.
          1   -1    0    0  501    0  0.00000000000E+00 -0.00000000000E+00 -0.24181803774E+03  0.24181803774E+03  0.00000000000E+00 0. -1.
         25    2    1    2    0    0  0.46984384739E+02 -0.46808949496E+02 -0.49242609321E+01  0.14166882777E+03  0.12508876150E+03 0.  0.
          5    1    3    3  502    0  0.90430954207E+01  0.30989328695E+01  0.54318802641E+02  0.55311713769E+02  0.41800000000E+01 0.  1.
         -5    1    3    3    0  502  0.37941289319E+02 -0.49907882365E+02 -0.59243063573E+02  0.86357114003E+02  0.41800000000E+01 0.  1.
        -11    1    1    2    0    0 -0.35978137260E+02  0.24375579501E+02 -0.70368687041E+01  0.44024002066E+02  0.00000000000E+00 0.  1.
         11    1    1    2    0    0 -0.11006247479E+02  0.22433369994E+02 -0.14189939258E+03  0.14408272342E+03  0.00000000000E+00 0. -1.
</event>
<event>
 7    1  0.2679104E-009  0.8523997E+02  0.7561462E-02  0.1314806E+00
          4   -1    0    0  501    0  0.00000000000E+00  0.00000000000E+00  0.40144954384E+02  0.40144954384E+02  0.00000000000E+00 0. -1.
         -4   -1    0    0    0  501 -0.00000000000E+00 -0.00000000000E+00 -0.39462628579E+03  0.39462628579E+03  0.00000000000E+00 0.  1.
         25    2    1    2    0    0 -0.11660538404E+02 -0.65437167750E+02 -0.19991044218E+03  0.24501055606E+03  0.12509195263E+03 0.  0.
          5    1    3    3  502    0  0.18161519093E+01 -0.22016765254E+02  0.13864537129E+02  0.26414657859E+02  0.41800000000E+01 0. -1.
         -5    1    3    3    0  502 -0.13476690313E+02 -0.43420402496E+02 -0.21377497931E+03  0.21859589821E+03  0.41800000000E+01 0. -1.
        -11    1    1    2    0    0 -0.69256290045E+01  0.79018485160E+02 -0.14406188061E+03  0.16445580190E+03  0.00000000000E+00 0.  1.
         11    1    1    2    0    0  0.18586167408E+02 -0.13581317410E+02 -0.10509008620E+02  0.25304882210E+02  0.00000000000E+00 0. -1.
</event>
<event>
 7    1  0.2679104E-009  0.1483179E+03  0.7561462E-02  0.1202555E+00
          2   -1    0    0  501    0  0.00000000000E+00  0.00000000000E+00  0.14976405307E+03  0.14976405307E+03  0.00000000000E+00 0. -1.
         -2   -1    0    0    0  501 -0.00000000000E+00 -0.00000000000E+00 -0.20554660608E+03  0.20554660608E+03  0.00000000000E+00 0.  1.
         25    2    1    2    0    0 -0.48530833391E+02 -0.99331356466E+02 -0.40703644823E+02  0.17183290797E+03  0.12509117232E+03 0.  0.
          5    1    3    3  502    0 -0.28107647570E+01 -0.31365597683E+02 -0.76128336016E+02  0.82490587712E+02  0.41800000000E+01 0.  1.
         -5    1    3    3    0  502 -0.45720068634E+02 -0.67965758783E+02  0.35424691193E+02  0.89342320257E+02  0.41800000000E+01 0.  1.
        -11    1    1    2    0    0  0.38219985561E+02  0.13781067871E+03 -0.12495216091E+02  0.14355723906E+03  0.00000000000E+00 0.  1.
         11    1    1    2    0    0  0.10310847830E+02 -0.38479322241E+02 -0.25836920893E+01  0.39920512120E+02  0.00000000000E+00 0. -1.
</event>
<event>
 7    1  0.2679104E-009  0.9844281E+02  0.7561462E-02  0.1283605E+00
         -2   -1    0    0    0  501 -0.00000000000E+00  0.00000000000E+00  0.93925679937E+02  0.93925679937E+02  0.00000000000E+00 0.  1.
          2   -1    0    0  501    0  0.00000000000E+00 -0.00000000000E+00 -0.17011936212E+03  0.17011936212E+03  0.00000000000E+00 0. -1.
         25    2    1    2    0    0 -0.36140276216E+01  0.13431176767E+02  0.23681265807E+02  0.12806861962E+03  0.12508921327E+03 0.  0.
          5    1    3    3  502    0 -0.60696954373E+02 -0.12133781976E+02  0.20362437324E+02  0.65295100804E+02  0.41800000000E+01 0. -1.
         -5    1    3    3    0  502  0.57082926752E+02  0.25564958743E+02  0.33188284837E+01  0.62773518816E+02  0.41800000000E+01 0. -1.
        -11    1    1    2    0    0  0.11059713250E+02 -0.41589508932E+02 -0.97713216673E+02  0.10677020756E+03  0.00000000000E+00 0. -1.
         11    1    1    2    0    0 -0.74456856288E+01  0.28158332165E+02 -0.21617313124E+01  0.29206214870E+02  0.00000000000E+00 0.  1.
</event>
<event>
 7    1  0.2679104E-009  0.1333504E+03  0.7561462E-02  0.1222567E+00
          1   -1    0    0  501    0  0.00000000000E+00  0.00000000000E+00  0.29651766086E+03  0.29651766086E+03  0.00000000000E+00 0. -1.
         -1   -1    0    0    0  501 -0.00000000000E+00 -0.00000000000E+00 -0.79038395812E+02  0.79038395812E+02  0.00000000000E+00 0.  1.
         25    2    1    2    0    0 -0.78046913241E+02 -0.27973723743E+02  0.33416431295E+02  0.15374536384E+03  0.12508848523E+03 0.  0.
          5    1    3    3  502    0 -0.81758079241E+02  0.29827711621E+02  0.78278469304E+00  0.87133007830E+02  0.41800000000E+01 0.  1.
         -5    1    3    3    0  502  0.37111659996E+01 -0.57801435364E+02  0.32633646602E+02  0.66612356014E+02  0.41800000000E+01 0.  1.
        -11    1    1    2    0    0  0.24478786812E+02  0.55947229299E+02  0.11367068247E+03  0.12903614813E+03  0.00000000000E+00 0. -1.
         11    1    1    2    0    0  0.53568126429E+02 -0.27973505556E+02  0.70392151276E+02  0.92774544695E+02  0.00000000000E+00 0.  1.
</event>
<event>
 7    1  0.2679104E-009  0.8583864E+02  0.7561462E-02  0.1313254E+00
         -3   -1    0    0    0  501 -0.00000000000E+00  0.00000000000E+00  0.24676968828E+03  0.24676968828E+03  0.00000000000E+00 0.  1.
          3   -1    0    0  501    0  0.00000000000E+00 -0.00000000000E+00 -0.55469666066E+02  0.55469666066E+02  0.00000000000E+00 0. -1.
         25    2    1    2    0    0  0.25101290773E+02  0.34727103477E+02  0.89103547412E+02  0.15943474609E+03  0.12507577537E+03 0.  0.
          5    1    3    3  502    0  0.50113663695E+02  0.43996963477E+01 -0.11125318759E+02  0.51691215253E+02  0.41800000000E+01 0.  1.
         -5    1    3    3    0  502 -0.25012372921E+02  0.30327407130E+02  0.10022886617E+03  0.10774353083E+03  0.41800000000E+01 0.  1.
        -11    1    1    2    0    0 -0.46522575807E+02 -0.76638598595E+01  0.97064404036E+02  0.10791007061E+03  0.00000000000E+00 0.  1.
         11    1    1    2    0    0  0.21421285033E+02 -0.27063243618E+02  0.51320707651E+01  0.34894537652E+02  0.00000000000E+00 0. -1.
</event>
<event>
 7    1  0.2679104E-009  0.2346484E+03  0.7561462E-02  0.1123410E+00
          2   -1    0    0  501    0  0.00000000000E+00  0.00000000000E+00  0.48661958430E+03  0.48661958430E+03  0.00000000000E+00 0. -1.
         -2   -1    0    0    0  501 -0.00000000000E+00 -0.00000000000E+00 -0.12900499789E+03  0.12900499789E+03  0.00000000000E+00 0.  1.
         25    2    1    2    0    0  0.14982816089E+03  0.16643225703E+03  0.20729882726E+03  0.32980079577E+03  0.12509031591E+03 0.  0.
          5    1    3    3  502    0  0.59016398755E+02  0.11816078375E+03  0.48911339240E+02  0.14090669837E+03  0.41800000000E+01 0. -1.
         -5    1    3    3    0  502  0.90811762130E+02  0.48271473280E+02  0.15838748802E+03  0.18889409741E+03  0.41800000000E+01 0. -1.
        -11    1    1    2    0    0  0.71199459007E+01 -0.12505424406E+02 -0.65014871362E+01  0.15790775921E+02  0.00000000000E+00 0.  1.
         11    1    1    2    0    0 -0.15694810679E+03 -0.15392683262E+03  0.15681724629E+03  0.27003301050E+03  0.00000000000E+00 0. -1.
</event>
<event>
 7    1  0.2679104E-009  0.1089359E+03  0.7561462E-02  0.1262553E+00
          2   -1    0    0  501    0  0.00000000000E+00  0.00000000000E+00  0.62364841081E+02  0.62364841081E+02  0.00000000000E+00 0. -1.
         -2   -1    0    0    0  501 -0.00000000000E+00 -0.00000000000E+00 -0.21760711688E+03  0.21760711688E+03  0.00000000000E+00 0.  1.
         25    2    1    2    0    0  0.41321852221E+02 -0.69340651146E+01 -0.97618997859E+02  0.16410937851E+03  0.12508734005E+03 0.  0.
          5    1    3    3  502    0  0.71324933030E+02 -0.35162373793E+02 -0.93018457900E+02  0.12244812989E+03  0.41800000000E+01 0.  1.
         -5    1    3    3    0  502 -0.30003080810E+02  0.28228308679E+02 -0.46005399584E+01  0.41661248623E+02  0.41800000000E+01 0.  1.
        -11    1    1    2    0    0 -0.40605985179E+02  0.43935299454E+02 -0.50244557001E+02  0.78126001297E+02  0.00000000000E+00 0.  1.
         11    1    1    2    0    0 -0.71586704178E+00 -0.37001234340E+02 -0.73787209419E+01  0.37736578157E+02  0.00000000000E+00 0. -1.
</event>
<event>
 7    1  0.2679104E-009  0.6814833E+02  0.7561462E-02  0.1366505E+00
          1   -1    0    0  501    0  0.00000000000E+00  0.00000000000E+00  0.48057744396E+03  0.48057744396E+03  0.00000000000E+00 0. -1.
         -1   -1    0    0    0  501 -0.00000000000E+00 -0.00000000000E+00 -0.29032049208E+02  0.29032049208E+02  0.00000000000E+00 0.  1.
         25    2    1    2    0    0  0.41141824860E+02  0.16183652263E+02  0.27087595411E+03  0.30162149847E+03  0.12508871039E+03 0.  0.
          5    1    3    3  502    0  0.84999561254E+01 -0.29296315727E+01  0.26245812322E+03  0.26264533279E+03  0.41800000000E+01 0.  1.
         -5    1    3    3    0  502  0.32641868735E+02  0.19113283836E+02  0.84178308919E+01  0.38976165671E+02  0.41800000000E+01 0.  1.
        -11    1    1    2    0    0 -0.71308049606E+01  0.30075322060E+02  0.12217067421E+03  0.12602002624E+03  0.00000000000E+00 0. -1.
         11    1    1    2    0    0 -0.34011019900E+02 -0.46258974323E+02  0.58498766434E+02  0.81967968465E+02  0.00000000000E+00 0.  1.
</event>
<event>
 7    1  0.2679104E-009  0.1359835E+03  0.7561462E-02  0.1218838E+00
          2   -1    0    0  501    0  0.00000000000E+00  0.00000000000E+00  0.28423782597E+03  0.28423782597E+03  0.00000000000E+00 0. -1.
         -2   -1    0    0    0  501 -0.00000000000E+00 -0.00000000000E+00 -0.10718423115E+03  0.10718423115E+03  0.00000000000E+00 0.  1.
         25    2    1    2    0    0 -0.38077549972E+02  0.91609527211E+02  0.19669403371E+03  0.25333321764E+03  0.12508785304E+03 0.  0.
          5    1    3    3  502    0 -0.60310014371E+02  0.96302093120E+02  0.19993222048E+03  0.23000381770E+03  0.41800000000E+01 0.  1.
         -5    1    3    3    0  502  0.22232464399E+02 -0.46925659095E+01 -0.32381867701E+01  0.23329399942E+02  0.41800000000E+01 0.  1.
        -11    1    1    2    0    0 -0.16186410570E+02  0.10662055768E+02  0.43236766467E+01  0.19858839344E+02  0.00000000000E+00 0.  1.
         11    1    1    2    0    0  0.54263960542E+02 -0.10227158298E+03 -0.23964115530E+02  0.11823000013E+03  0.00000000000E+00 0. -1.
</event>
<event>
 7    1  0.2679104E-009  0.1633488E+03  0.7561462E-02  0.1184967E+00
          1   -1    0    0  501    0  0.00000000000E+00  0.00000000000E+00  0.28769744361E+03  0.28769744361E+03  0.00000000000E+00 0. -1.
         -1   -1    0    0    0  501 -0.00000000000E+00 -0.00000000000E+00 -0.18650232059E+03  0.18650232059E+03  0.00000000000E+00 0.  1.
         25    2    1    2    0    0  0.13466011907E+03 -0.63534378049E+02  0.19558518942E+03  0.27581033414E+03  0.12509120367E+03 0.  0.
          5    1    3    3  502    0  0.48753939082E+02 -0.41703941777E+02  0.17254297650E+03  0.18413233414E+03  0.41800000000E+01 0.  1.
         -5    1    3    3    0  502  0.85906179988E+02 -0.21830436272E+02  0.23042212920E+02  0.91678000001E+02  0.41800000000E+01 0.  1.
        -11    1    1    2    0    0 -0.13024364152E+03  0.22227433037E+02 -0.79823265646E+02  0.15436715542E+03  0.00000000000E+00 0. -1.
         11    1    1    2    0    0 -0.44164775508E+01  0.41306945012E+02 -0.14566800757E+02  0.44022274640E+02  0.00000000000E+00 0.  1.
</event>
<event>
 7    1  0.2679104E-009  0.1479235E+03  0.7561462E-02  0.1203048E+00
         -2   -1    0    0    0  501 -0.00000000000E+00  0.00000000000E+00  0.48643016449E+02  0.48643016449E+02  0.00000000000E+00 0. -1.
          2   -1    0    0  501    0  0.00000000000E+00 -0.00000000000E+00 -0.57049398179E+03  0.57049398179E+03  0.00000000000E+00 0.  1.
         25    2    1    2    0    0  0.82374174582E+02 -0.93986641305E+02 -0.31462639741E+03  0.36091239188E+03  0.12509592830E+03 0.  0.
          5    1    3    3  502    0  0.52112423797E+02 -0.81666719623E+01 -0.23189823356E+03  0.23785849233E+03  0.41800000000E+01 0.  1.
         -5    1    3    3    0  502  0.30261750786E+02 -0.85819969342E+02 -0.82728163850E+02  0.12305389954E+03  0.41800000000E+01 0.  1.
        -11    1    1    2    0    0 -0.66044634446E+02  0.10627004877E+02 -0.69898292064E+02  0.96750184523E+02  0.00000000000E+00 0. -1.
         11    1    1    2    0    0 -0.16329540137E+02  0.83359636428E+02 -0.13732627587E+03  0.16147442184E+03  0.00000000000E+00 0.  1.
</event>
<event>
 7    1  0.2679104E-009  0.1085270E+03  0.7561462E-02  0.1263322E+00
          1   -1    0    0  501    0  0.00000000000E+00  0.00000000000E+00  0.75952055721E+03  0.75952055721E+03  0.00000000000E+00 0. -1.
         -1   -1    0    0    0  501 -0.00000000000E+00 -0.00000000000E+00 -0.19963949602E+02  0.19963949602E+02  0.00000000000E+00 0.  1.
         25    2    1    2    0    0 -0.58292658346E+02 -0.29084456300E+01  0.41840378725E+03  0.44058441156E+03  0.12508557652E+03 0.  0.
          5    1    3    3  502    0 -0.62916331315E+02  0.42882284958E+02  0.34878512417E+03  0.35702365517E+03  0.41800000000E+01 0.  1.
         -5    1    3    3    0  502  0.46236729689E+01 -0.45790730588E+02  0.69618663084E+02  0.83560756394E+02  0.41800000000E+01 0.  1.
        -11    1    1    2    0    0  0.15249247549E+02  0.36778460113E+02  0.22275796895E+03  0.22628810709E+03  0.00000000000E+00 0. -1.
         11    1    1    2    0    0  0.43043410797E+02 -0.33870014483E+02  0.98394851405E+02  0.11261198816E+03  0.00000000000E+00 0.  1.
</event>
<event>
 7    1  0.2679104E-009  0.6483796E+02  0.7561462E-02  0.1378582E+00
          1   -1    0    0  501    0  0.00000000000E+00  0.00000000000E+00  0.29036552948E+03  0.29036552948E+03  0.00000000000E+00 0. -1.
         -1   -1    0    0    0  501 -0.00000000000E+00 -0.00000000000E+00 -0.47735579799E+02  0.47735579799E+02  0.00000000000E+00 0.  1.
         25    2    1    2    0    0 -0.17133008415E+02  0.21156041790E+02  0.74002865488E+02  0.14786864827E+03  0.12509034718E+03 0.  0.
          5    1    3    3  502    0  0.55401998147E+01 -0.82854403764E+01  0.10110788225E+03  0.10168391510E+03  0.41800000000E+01 0.  1.
         -5    1    3    3    0  502 -0.22673208230E+02  0.29441482167E+02 -0.27105016767E+02  0.46184733165E+02  0.41800000000E+01 0.  1.
        -11    1    1    2    0    0 -0.32265216002E+01  0.28043049143E+02  0.27558826035E+02  0.39450119636E+02  0.00000000000E+00 0.  1.
         11    1    1    2    0    0  0.20359530015E+02 -0.49199090934E+02  0.14106825816E+03  0.15078234138E+03  0.00000000000E+00 0. -1.
</event>
<event>
 7    1  0.2679104E-009  0.2270845E+03  0.7561462E-02  0.1128709E+00
         -3   -1    0    0    0  501 -0.00000000000E+00  0.00000000000E+00  0.53800336966E+02  0.53800336966E+02  0.00000000000E+00 0.  1.
          3   -1    0    0  501    0  0.00000000000E+00 -0.00000000000E+00 -0.11353627177E+04  0.11353627177E+04  0.00000000000E+00 0. -1.
         25    2    1    2    0    0  0.13294235803E+03  0.17043752432E+03 -0.67445302239E+03  0.71920642050E+03  0.12509346751E+03 0.  0.
          5    1    3    3  502    0  0.93577493855E+02  0.41071199906E+02 -0.40476497138E+03  0.41748741930E+03  0.41800000000E+01 0.  1.
         -5    1    3    3    0  502  0.39364864178E+02  0.12936632441E+03 -0.26968805102E+03  0.30171900120E+03  0.41800000000E+01 0.  1.
        -11    1    1    2    0    0 -0.10611249654E+03 -0.14457146434E+03 -0.24501483764E+03  0.30363306949E+03  0.00000000000E+00 0.  1.
         11    1    1    2    0    0 -0.26829861491E+02 -0.25866059978E+02 -0.16209452067E+03  0.16632356465E+03  0.00000000000E+00 0. -1.
</event>
<event>
 7    1  0.2679104E-009  0.1386098E+03  0.7561462E-02  0.1215212E+00
         -1   -1    0    0    0  501 -0.00000000000E+00  0.00000000000E+00  0.29692346824E+03  0.29692346824E+03  0.00000000000E+00 0.  1.
          1   -1    0    0  501    0  0.00000000000E+00 -0.00000000000E+00 -0.79766122554E+02  0.79766122554E+02  0.00000000000E+00 0. -1.
         25    2    1    2    0    0  0.98337600043E+02  0.96632718938E+01  0.17573692406E+03  0.23726555439E+03  0.12509122439E+03 0.  0.
          5    1    3    3  502    0  0.11867312849E+03 -0.21433776409E+02  0.12022482545E+03  0.17033554900E+03  0.41800000000E+01 0.  1.
         -5    1    3    3    0  502 -0.20335528451E+02  0.31097048302E+02  0.55512098608E+02  0.66930005396E+02  0.41800000000E+01 0.  1.
        -11    1    1    2    0    0  0.11287142416E+01  0.16320583747E+02 -0.14965271273E+02  0.22171937081E+02  0.00000000000E+00 0. -1.
         11    1    1    2    0    0 -0.99466314285E+02 -0.25983855641E+02  0.56385692904E+02  0.11725209932E+03  0.00000000000E+00 0.  1.
</event>
<event>
 7    1  0.2679104E-009  0.1092570E+03  0.7561462E-02  0.1261952E+00
         -2   -1    0    0    0  501 -0.00000000000E+00  0.00000000000E+00  0.23081629448E+02  0.23081629448E+02  0.00000000000E+00 0.  1.
          2   -1    0    0  501    0  0.00000000000E+00 -0.00000000000E+00 -0.13199806124E+04  0.13199806124E+04  0.00000000000E+00 0. -1.
         25    2    1    2    0    0 -0.42056287767E+02 -0.20406984040E+02 -0.11797916767E+04  0.11873252232E+04  0.12509040316E+03 0.  0.
          5    1    3    3  502    0  0.38485318280E+02 -0.33871217136E+02 -0.41530789191E+03  0.41848117826E+03  0.41800000000E+01 0.  1.
         -5    1    3    3    0  502 -0.80541606048E+02  0.13464233096E+02 -0.76448378475E+03  0.76884404493E+03  0.41800000000E+01 0.  1.
        -11    1    1    2    0    0 -0.26923824012E+01 -0.22887706320E+02 -0.80001190210E+02  0.83254347986E+02  0.00000000000E+00 0. -1.
         11    1    1    2    0    0  0.44748670168E+02  0.43294690360E+02 -0.37106116051E+02  0.72482670643E+02  0.00000000000E+00 0.  1.
</event>
<event>
 7    1  0.2679104E-009  0.8492587E+02  0.7561462E-02  0.1315627E+00
         -1   -1    0    0    0  501 -0.00000000000E+00  0.00000000000E+00  0.14849508008E+03  0.14849508008E+03  0.00000000000E+00 0.  1.
          1   -1    0    0  501    0  0.00000000000E+00 -0.00000000000E+00 -0.17980904383E+03  0.17980904383E+03  0.00000000000E+00 0. -1.
         25    2    1    2    0    0  0.28214363959E+02  0.30348576565E+02 -0.13203618761E+03  0.18655043426E+03  0.12510165167E+03 0.  0.
          5    1    3    3  502    0 -0.33231387891E+02 -0.66475408486E+01 -0.10394239639E+03  0.10940753680E+03  0.41800000000E+01 0.  1.
         -5    1    3    3    0  502  0.61445751850E+02  0.36996117414E+02 -0.28093791220E+02  0.77142897465E+02  0.41800000000E+01 0.  1.
        -11    1    1    2    0    0  0.12299945479E+02 -0.17435330261E+02  0.96717333654E+02  0.99043031200E+02  0.00000000000E+00 0.  1.
         11    1    1    2    0    0 -0.40514309438E+02 -0.12913246304E+02  0.40048902034E+01  0.42710658447E+02  0.00000000000E+00 0. -1.
</event>
<event>
 7    1  0.2679104E-009  0.1746565E+03  0.7561462E-02  0.1173077E+00
          2   -1    0    0  501    0  0.00000000000E+00  0.00000000000E+00  0.48920242211E+03  0.48920242211E+03  0.00000000000E+00 0. -1.
         -2   -1    0    0    0  501 -0.00000000000E+00 -0.00000000000E+00 -0.87043492561E+02  0.87043492561E+02  0.00000000000E+00 0.  1.
         25    2    1    2    0    0  0.93087740739E+02 -0.12269954463E+03  0.93908240888E+02  0.21951282759E+03  0.12508644229E+03 0.  0.
          5    1    3    3  502    0  0.68316220286E+02 -0.12818676028E+03  0.26957990135E+02  0.14779430672E+03  0.41800000000E+01 0. -1.
         -5    1    3    3    0  502  0.24771520453E+02  0.54872156541E+01  0.66950250753E+02  0.71718520879E+02  0.41800000000E+01 0. -1.
        -11    1    1    2    0    0  0.89421261106E+01  0.55263655358E+02  0.77914865333E+02  0.95941437673E+02  0.00000000000E+00 0. -1.
         11    1    1    2    0    0 -0.10202986685E+03  0.67435889269E+02  0.23033582333E+03  0.26079164941E+03  0.00000000000E+00 0.  1.
</event>
<event>
 7    1  0.2679104E-009  0.2135349E+03  0.7561462E-02  0.1138797E+00
          1   -1    0    0  501    0  0.00000000000E+00  0.00000000000E+00  0.16240602499E+03  0.16240602499E+03  0.00000000000E+00 0. -1.
         -1   -1    0    0    0  501 -0.00000000000E+00 -0.00000000000E+00 -0.33270659847E+03  0.33270659847E+03  0.00000000000E+00 0.  1.
         25    2    1    2    0    0 -0.75715255388E+02 -0.17230978140E+03 -0.56207740208E-01  0.22598787949E+03  0.12508820029E+03 0.  0.
          5    1    3    3  502    0  0.28985737481E+02 -0.18193724672E+02  0.17745242278E+02  0.38775644653E+02  0.41800000000E+01 0.  1.
         -5    1    3    3    0  502 -0.10470099287E+03 -0.15411605673E+03 -0.17801450018E+02  0.18721223483E+03  0.41800000000E+01 0.  1.
        -11    1    1    2    0    0 -0.33448215576E+01  0.96945198861E+02 -0.99674062005E+02  0.13908442778E+03  0.00000000000E+00 0.  1.
         11    1    1    2    0    0  0.79060076945E+02  0.75364582538E+02 -0.70570303739E+02  0.13004031620E+03  0.00000000000E+00 0. -1.
</event>
<event>
 7    1  0.2679104E-009  0.2383090E+03  0.7561462E-02  0.1120924E+00
          1   -1    0    0  501    0  0.00000000000E+00  0.00000000000E+00  0.58774903729E+03  0.58774903729E+03  0.00000000000E+00 0. -1.
         -1   -1    0    0    0  501 -0.00000000000E+00 -0.00000000000E+00 -0.10268344744E+03  0.10268344744E+03  0.00000000000E+00 0.  1.
         25    2    1    2    0    0 -0.22497471048E+02 -0.21292269722E+03  0.17594622431E+03  0.30405538680E+03  0.12510153155E+03 0.  0.
          5    1    3    3  502    0  0.44101885843E+02 -0.31795628383E+02  0.46255052072E+02  0.71504828938E+02  0.41800000000E+01 0.  1.
         -5    1    3    3    0  502 -0.66599356891E+02 -0.18112706884E+03  0.12969117224E+03  0.23255055786E+03  0.41800000000E+01 0.  1.
        -11    1    1    2    0    0  0.53363548747E+02  0.12667658393E+03  0.21381373639E+03  0.25418681933E+03  0.00000000000E+00 0. -1.
         11    1    1    2    0    0 -0.30866077699E+02  0.86246113289E+02  0.95305629148E+02  0.13219027860E+03  0.00000000000E+00 0.  1.
</event>
<event>
 7    1  0.2679104E-009  0.2039144E+03  0.7561462E-02  0.1146478E+00
          1   -1    0    0  501    0  0.00000000000E+00  0.00000000000E+00  0.18714373363E+03  0.18714373363E+03  0.00000000000E+00 0. -1.
         -1   -1    0    0    0  501 -0.00000000000E+00 -0.00000000000E+00 -0.25301737402E+03  0.25301737402E+03  0.00000000000E+00 0.  1.
         25    2    1    2    0    0  0.17298666793E+03 -0.31007579400E+02  0.33719248017E+02  0.21833524649E+03  0.12508970746E+03 0.  0.
          5    1    3    3  502    0  0.17940213109E+03 -0.14275287850E+01  0.10144900863E+02  0.17974302181E+03  0.41800000000E+01 0.  1.
         -5    1    3    3    0  502 -0.64154631596E+01 -0.29580050615E+02  0.23574347154E+02  0.38592224679E+02  0.41800000000E+01 0.  1.
        -11    1    1    2    0    0 -0.12025393139E+03  0.63386794230E+02 -0.74853680931E+02  0.15518365650E+03  0.00000000000E+00 0.  1.
         11    1    1    2    0    0 -0.52732736540E+02 -0.32379214829E+02 -0.24739207472E+02  0.66642204662E+02  0.00000000000E+00 0. -1.
</event>
<event>
 7    1  0.2679104E-009  0.1150934E+03  0.7561462E-02  0.1251418E+00
         -1   -1    0    0    0  501 -0.00000000000E+00  0.00000000000E+00  0.15653493509E+02  0.15653493509E+02  0.00000000000E+00 0.  1.
          1   -1    0    0  501    0  0.00000000000E+00 -0.00000000000E+00 -0.13506731274E+04  0.13506731274E+04  0.00000000000E+00 0. -1.
         25    2    1    2    0    0  0.58700887855E+02  0.50528450168E+02 -0.10004636122E+04  0.10112242883E+04  0.12509277875E+03 0.  0.
          5    1    3    3  502    0  0.85789276484E+02  0.10876385451E+02 -0.81549870512E+03  0.82008152410E+03  0.41800000000E+01 0.  1.
         -5    1    3    3    0  502 -0.27088388629E+02  0.39652064716E+02 -0.18496490712E+03  0.19114276418E+03  0.41800000000E+01 0.  1.
        -11    1    1    2    0    0 -0.67759922868E+02 -0.32328527199E+02 -0.32322150087E+03  0.33182627901E+03  0.00000000000E+00 0. -1.
         11    1    1    2    0    0  0.90590350134E+01 -0.18199922968E+02 -0.11334520826E+02  0.23276053656E+02  0.00000000000E+00 0.  1.
</event>
<event>
 7    1  0.2679104E-009  0.1315442E+03  0.7561462E-02  0.1225182E+00
          1   -1    0    0  501    0  0.00000000000E+00  0.00000000000E+00  0.12786891180E+03  0.12786891180E+03  0.00000000000E+00 0. -1.
         -1   -1    0    0    0  501 -0.00000000000E+00 -0.00000000000E+00 -0.19037165099E+03  0.19037165099E+03  0.00000000000E+00 0.  1.
         25    2    1    2    0    0 -0.54912798700E+02 -0.58361121995E+02  0.44937971459E+02  0.15520074293E+03  0.12508562390E+03 0.  0.
          5    1    3    3  502    0 -0.73153667705E+02 -0.82458841136E+02  0.13070156355E+02  0.11108204611E+03  0.41800000000E+01 0.  1.
         -5    1    3    3    0  502  0.18240869004E+02  0.24097719141E+02  0.31867815105E+02  0.44118696823E+02  0.41800000000E+01 0.  1.
        -11    1    1    2    0    0  0.77467546777E+02  0.62250228055E+02 -0.82221863051E+02  0.12898351236E+03  0.00000000000E+00 0.  1.
         11    1    1    2    0    0 -0.22554748077E+02 -0.38891060600E+01 -0.25218847590E+02  0.34056307500E+02  0.00000000000E+00 0. -1.
</event>
<event>
 7    1  0.2679104E-009  0.1690749E+03  0.7561462E-02  0.1178816E+00
          2   -1    0    0  501    0  0.00000000000E+00  0.00000000000E+00  0.23130604936E+04  0.23130604936E+04  0.00000000000E+00 0. -1.
         -2   -1    0    0    0  501 -0.00000000000E+00 -0.00000000000E+00 -0.14717356324E+02  0.14717356324E+02  0.00000000000E+00 0.  1.
         25    2    1    2    0    0  0.10271950426E+03 -0.87015745795E+02  0.16155440773E+04  0.16259620033E+04  0.12508690530E+03 0.  0.
          5    1    3    3  502    0  0.12061147287E+02 -0.84307940265E+02  0.55171088987E+03  0.55826129945E+03  0.41800000000E+01 0.  1.
         -5    1    3    3    0  502  0.90658356969E+02 -0.27078055300E+01  0.10638331875E+04  0.10677007039E+04  0.41800000000E+01 0.  1.
        -11    1    1    2    0    0 -0.11348039820E+03  0.50848424874E+02  0.53748446345E+03  0.55168189343E+03  0.00000000000E+00 0. -1.
         11    1    1    2    0    0  0.10760893944E+02  0.36167320921E+02  0.14531459656E+03  0.15013395323E+03  0.00000000000E+00 0.  1.
</event>
<event>
 7    1  0.2679104E-009  0.1569340E+03  0.7561462E-02  0.1192202E+00
         -2   -1    0    0    0  501 -0.00000000000E+00  0.00000000000E+00  0.22870128938E+02  0.22870128938E+02  0.00000000000E+00 0.  1.
          2   -1    0    0  501    0  0.00000000000E+00 -0.00000000000E+00 -0.14111161294E+04  0.14111161294E+04  0.00000000000E+00 0. -1.
         25    2    1    2    0    0 -0.12123427997E+03  0.70543197511E+02 -0.83597929863E+03  0.85684530033E+03  0.12509351540E+03 0.  0.
          5    1    3    3  502    0 -0.49052801672E+01 -0.20458879094E+02 -0.26998723595E+02  0.34482328562E+02  0.41800000000E+01 0. -1.
         -5    1    3    3    0  502 -0.11632899980E+03  0.91002076605E+02 -0.80898057504E+03  0.82236297177E+03  0.41800000000E+01 0. -1.
        -11    1    1    2    0    0  0.40356398244E+02 -0.43614001109E+02 -0.95416661597E+02  0.11240622439E+03  0.00000000000E+00 0.  1.
         11    1    1    2    0    0  0.80877881726E+02 -0.26929196402E+02 -0.45685004022E+03  0.46473473361E+03  0.00000000000E+00 0. -1.
</event>
<event>
 7    1  0.2679104E-009  0.1072880E+03  0.7561462E-02  0.1265676E+00
          1   -1    0    0  501    0  0.00000000000E+00  0.00000000000E+00  0.70053256949E+03  0.70053256949E+03  0.00000000000E+00 0. -1.
         -1   -1    0    0    0  501 -0.00000000000E+00 -0.00000000000E+00 -0.24812346191E+02  0.24812346191E+02  0.00000000000E+00 0.  1.
         25    2    1    2    0    0  0.13589423096E+02  0.27805673964E+02  0.55105129749E+03  0.56591562414E+03  0.12508050709E+03 0.  0.
          5    1    3    3  502    0  0.63796034616E+02  0.11343201801E+00  0.19393102229E+03  0.20419760211E+03  0.41800000000E+01 0. -1.
         -5    1    3    3    0  502 -0.50206611520E+02  0.27692241946E+02  0.35712027520E+03  0.36171802203E+03  0.41800000000E+01 0. -1.
        -11    1    1    2    0    0  0.33477882234E+02 -0.31465912860E+02  0.89349988590E+02  0.10047035748E+03  0.00000000000E+00 0. -1.
         11    1    1    2    0    0 -0.47067305330E+02  0.36602388968E+01  0.35318937224E+02  0.58958934068E+02  0.00000000000E+00 0.  1.
</event>
<event>
 7    1  0.2679104E-009  0.2013262E+03  0.7561462E-02  0.1148625E+00
          1   -1    0    0  501    0  0.00000000000E+00  0.00000000000E+00  0.54008253617E+03  0.54008253617E+03  0.00000000000E+00 0. -1.
         -1   -1    0    0    0  501 -0.00000000000E+00 -0.00000000000E+00 -0.13784674553E+03  0.13784674553E+03  0.00000000000E+00 0.  1.
         25    2    1    2    0    0  0.10995884817E+03  0.15439240066E+03  0.40953556457E+03  0.46828910961E+03  0.12508936748E+03 0.  0.
          5    1    3    3  502    0  0.93287959166E+02  0.10294065078E+03  0.38391163748E+03  0.40829528371E+03  0.41800000000E+01 0.  1.
         -5    1    3    3    0  502  0.16670889006E+02  0.51451749883E+02  0.25623927092E+02  0.59993825898E+02  0.41800000000E+01 0.  1.
        -11    1    1    2    0    0 -0.13964703950E+02 -0.96109371808E+02 -0.64870110625E+01  0.97335017431E+02  0.00000000000E+00 0.  1.
         11    1    1    2    0    0 -0.95994144223E+02 -0.58283028854E+02 -0.81276287161E+00  0.11230515465E+03  0.00000000000E+00 0. -1.
</event>
<event>
 7    1  0.2679104E-009  0.9545319E+02  0.7561462E-02  0.1290159E+00
          2   -1    0    0  501    0  0.00000000000E+00  0.00000000000E+00  0.28141931786E+03  0.28141931786E+03  0.00000000000E+00 0. -1.
         -2   -1    0    0    0  501 -0.00000000000E+00 -0.00000000000E+00 -0.65340881834E+02  0.65340881834E+02  0.00000000000E+00 0.  1.
         25    2    1    2    0    0 -0.18152942170E+02 -0.16319814984E+02  0.21344615624E+02  0.12922404375E+03  0.12508954871E+03 0.  0.
          5    1    3    3  502    0 -0.32309984892E+02 -0.63684012331E+02  0.32187808704E+02  0.78441799950E+02  0.41800000000E+01 0. -1.
         -5    1    3    3    0  502  0.14157042722E+02  0.47364197348E+02 -0.10843193080E+02  0.50782243798E+02  0.41800000000E+01 0. -1.
        -11    1    1    2    0    0  0.22119199908E+02 -0.22023533434E+02  0.16738875180E+03  0.17027415911E+03  0.00000000000E+00 0. -1.
         11    1    1    2    0    0 -0.39662577382E+01  0.38343348418E+02  0.27345068597E+02  0.47261996836E+02  0.00000000000E+00 0.  1.
</event>
<event>
 7    1  0.2679104E-009  0.8835680E+02  0.7561462E-02  0.1306880E+00
         -1   -1    0    0    0  501 -0.00000000000E+00  0.00000000000E+00  0.19049684860E+02  0.19049684860E+02  0.00000000000E+00 0.  1.
          1   -1    0    0  501    0  0.00000000000E+00 -0.00000000000E+00 -0.83500215536E+03  0.83500215536E+03  0.00000000000E+00 0. -1.
         25    2    1    2    0    0  0.58100333506E+02  0.29216808338E+02 -0.46007345072E+03  0.48119013052E+03  0.12508833283E+03 0.  0.
          5    1    3    3  502    0  0.28623610048E+02  0.16058257160E+02 -0.44337338261E+03  0.44460612624E+03  0.41800000000E+01 0.  1.
         -5    1    3    3    0  502  0.29476723458E+02  0.13158551178E+02 -0.16700068108E+02  0.36584004288E+02  0.41800000000E+01 0.  1.
        -11    1    1    2    0    0  0.22756747729E+02 -0.18868411698E+02 -0.10405258285E+03  0.10817035881E+03  0.00000000000E+00 0.  1.
         11    1    1    2    0    0 -0.80857081236E+02 -0.10348396640E+02 -0.25182643693E+03  0.26469135089E+03  0.00000000000E+00 0. -1.
</event>
<event>
 7    1  0.2679104E-009  0.1414080E+03  0.7561462E-02  0.1211447E+00
         -1   -1    0    0    0  501 -0.00000000000E+00  0.00000000000E+00  0.24305698119E+03  0.24305698119E+03  0.00000000000E+00 0.  1.
          1   -1    0    0  501    0  0.00000000000E+00 -0.00000000000E+00 -0.11542242025E+03  0.11542242025E+03  0.00000000000E+00 0. -1.
         25    2    1    2    0    0  0.85811391151E+02  0.91717341652E+02  0.49959384844E+02  0.18417034054E+03  0.12508840310E+03 0.  0.
          5    1    3    3  502    0  0.14935993677E+02  0.36827689267E+02  0.80089567611E+02  0.89505160991E+02  0.41800000000E+01 0.  1.
         -5    1    3    3    0  502  0.70875397474E+02  0.54889652384E+02 -0.30130182767E+02  0.94665179551E+02  0.41800000000E+01 0.  1.
        -11    1    1    2    0    0 -0.13702975298E+02 -0.78644671193E+02  0.57237433365E+02  0.98228710759E+02  0.00000000000E+00 0.  1.
         11    1    1    2    0    0 -0.72108415853E+02 -0.13072670458E+02  0.20437742729E+02  0.76080350141E+02  0.00000000000E+00 0. -1.
</event>
<event>
 7    1  0.2679104E-009  0.1060179E+03  0.7561462E-02  0.1268127E+00
         -3   -1    0    0    0  501 -0.00000000000E+00  0.00000000000E+00  0.10343350198E+03  0.10343350198E+03  0.00000000000E+00 0.  1.
          3   -1    0    0  501    0  0.00000000000E+00 -0.00000000000E+00 -0.14929650132E+03  0.14929650132E+03  0.00000000000E+00 0. -1.
         25    2    1    2    0    0 -0.10082250438E+02 -0.47396825289E+02 -0.62148339800E+02  0.14785252499E+03  0.12509932927E+03 0.  0.
          5    1    3    3  502    0 -0.40885509051E+02 -0.76813811276E+02 -0.23609825474E+02  0.90260083714E+02  0.41800000000E+01 0. -1.
         -5    1    3    3    0  502  0.30803258612E+02  0.29416985987E+02 -0.38538514325E+02  0.57592441276E+02  0.41800000000E+01 0. -1.
        -11    1    1    2    0    0  0.37487431643E+01 -0.17002217935E+02  0.33642169802E+02  0.37880391748E+02  0.00000000000E+00 0.  1.
         11    1    1    2    0    0  0.63335072740E+01  0.64399043224E+02 -0.17356829341E+02  0.66997086559E+02  0.00000000000E+00 0. -1.
</event>
<event>
 7    1  0.2679104E-009  0.8205700E+02  0.7561462E-02  0.1323313E+00
         -2   -1    0    0    0  501 -0.00000000000E+00  0.00000000000E+00  0.83106912417E+02  0.83106912417E+02  0.00000000000E+00 0.  1.
          2   -1    0    0  501    0  0.00000000000E+00 -0.00000000000E+00 -0.14789597767E+03  0.14789597767E+03  0.00000000000E+00 0. -1.
         25    2    1    2    0    0 -0.59537380560E+01 -0.22150032295E+02 -0.42853967831E+02  0.13419691602E+03  0.12508508617E+03 0.  0.
          5    1    3    3  502    0  0.15809033223E+02 -0.44122008895E+02 -0.75545699565E+02  0.89001698428E+02  0.41800000000E+01 0. -1.
         -5    1    3    3    0  502 -0.21762771279E+02  0.21971976600E+02  0.32691731734E+02  0.45195217592E+02  0.41800000000E+01 0. -1.
        -11    1    1    2    0    0  0.37898196321E+02 -0.11351927118E+02  0.97055275712E+01  0.40734957949E+02  0.00000000000E+00 0.  1.
         11    1    1    2    0    0 -0.31944458265E+02  0.33501959413E+02 -0.31640624989E+02  0.56071016113E+02  0.00000000000E+00 0. -1.
</event>
<event>
 7    1  0.2679104E-009  0.1158010E+03  0.7561462E-02  0.1250189E+00
         -1   -1    0    0    0  501 -0.00000000000E+00  0.00000000000E+00  0.63547464584E+02  0.63547464584E+02  0.00000000000E+00 0.  1.
          1   -1    0    0  501    0  0.00000000000E+00 -0.00000000000E+00 -0.26511082873E+03  0.26511082873E+03  0.00000000000E+00 0. -1.
         25    2    1    2    0    0  0.31116906128E+02 -0.55002075621E+02 -0.71728907042E+02  0.15743484719E+03  0.12508878781E+03 0.  0.
          5    1    3    3  502    0 -0.28542941296E+02 -0.53125542265E+02 -0.76392069952E+02  0.97417880753E+02  0.41800000000E+01 0.  1.
         -5    1    3    3    0  502  0.59659847424E+02 -0.18765333558E+01  0.46631629096E+01  0.60016966438E+02  0.41800000000E+01 0.  1.
        -11    1    1    2    0    0  0.29440719220E+02 -0.97634040300E-01 -0.40162158677E+02  0.49797233560E+02  0.00000000000E+00 0. -1.
         11    1    1    2    0    0 -0.60557625349E+02  0.55099709661E+02 -0.89672298426E+02  0.12142621256E+03  0.00000000000E+00 0.  1.
</event>
<event>
 7    1  0.2679104E-009  0.1187508E+03  0.7561462E-02  0.1245172E+00
         -2   -1    0    0    0  501 -0.00000000000E+00  0.00000000000E+00  0.29584599050E+02  0.29584599050E+02  0.00000000000E+00 0.  1.
          2   -1    0    0  501    0  0.00000000000E+00 -0.00000000000E+00 -0.11507126875E+04  0.11507126875E+04  0.00000000000E+00 0. -1.
         25    2    1    2    0    0  0.12853431616E+01 -0.69741314473E+02 -0.10103466751E+04  0.10204482055E+04  0.12509449760E+03 0.  0.
          5    1    3    3  502    0  0.25728634862E+02  0.18175851627E+02 -0.87500910803E+02  0.93092459553E+02  0.41800000000E+01 0.  1.
         -5    1    3    3    0  502 -0.24443291700E+02 -0.87917166101E+02 -0.92284576425E+03  0.92735574598E+03  0.41800000000E+01 0.  1.
        -11    1    1    2    0    0  0.40110307123E+02  0.59459045300E+02 -0.59835541158E+02  0.93405068337E+02  0.00000000000E+00 0.  1.
         11    1    1    2    0    0 -0.41395650285E+02  0.10282269173E+02 -0.50945872206E+02  0.66444012647E+02  0.00000000000E+00 0. -1.
</event>
<event>
 7    1  0.2679104E-009  0.9780155E+02  0.7561462E-02  0.1284988E+00
         -2   -1    0    0    0  501 -0.00000000000E+00  0.00000000000E+00  0.87514287075E+02  0.87514287075E+02  0.00000000000E+00 0.  1.
          2   -1    0    0  501    0  0.00000000000E+00 -0.00000000000E+00 -0.27970841468E+03  0.27970841468E+03  0.00000000000E+00 0. -1.
         25    2    1    2    0    0 -0.29682048964E+02  0.80077249786E+02 -0.18775615295E+03  0.24123471093E+03  0.12509365620E+03 0.  0.
          5    1    3    3  502    0  0.12905721815E+02  0.54020891667E+02 -0.18255676034E+03  0.19086450047E+03  0.41800000000E+01 0.  1.
         -5    1    3    3    0  502 -0.42587770778E+02  0.26056358119E+02 -0.51993926089E+01  0.50370210460E+02  0.41800000000E+01 0.  1.
        -11    1    1    2    0    0 -0.10738710301E+01 -0.36226724332E+02  0.41732846599E+02  0.55273494914E+02  0.00000000000E+00 0.  1.
         11    1    1    2    0    0  0.30755919994E+02 -0.43850525455E+02 -0.46170821260E+02  0.70714495919E+02  0.00000000000E+00 0. -1.
</event>
<event>
 7    1  0.2679104E-009  0.1366401E+03  0.7561462E-02  0.1217923E+00
         -1   -1    0    0    0  501 -0.00000000000E+00  0.00000000000E+00  0.16269624051E+02  0.16269624051E+02  0.00000000000E+00 0. -1.
          1   -1    0    0  501    0  0.00000000000E+00 -0.00000000000E+00 -0.19293506099E+04  0.19293506099E+04  0.00000000000E+00 0.  1.
         25    2    1    2    0    0  0.93042237973E+02 -0.54077113703E+02 -0.15071117684E+04  0.15161186965E+04  0.12509527226E+03 0.  0.
          5    1    3    3  502    0 -0.27555329572E+02 -0.31832858909E+02 -0.39010699917E+03  0.39239466140E+03  0.41800000000E+01 0.  1.
         -5    1    3    3    0  502  0.12059756755E+03 -0.22244254793E+02 -0.11170047692E+04  0.11237240351E+04  0.41800000000E+01 0.  1.
        -11    1    1    2    0    0 -0.61639233375E+02  0.29205039506E+02 -0.36813290402E+03  0.37439840337E+03  0.00000000000E+00 0.  1.
         11    1    1    2    0    0 -0.31403004598E+02  0.24872074197E+02 -0.37836313447E+02  0.55103134102E+02  0.00000000000E+00 0. -1.
</event>
<event>
 7    1  0.2679104E-009  0.1481492E+03  0.7561462E-02  0.1202766E+00
          3   -1    0    0  501    0  0.00000000000E+00  0.00000000000E+00  0.10406471082E+03  0.10406471082E+03  0.00000000000E+00 0. -1.
         -3   -1    0    0    0  501 -0.00000000000E+00 -0.00000000000E+00 -0.22162838354E+03  0.22162838354E+03  0.00000000000E+00 0.  1.
         25    2    1    2    0    0 -0.36634369032E+02  0.97088958233E+02 -0.80419119206E+02  0.18133794052E+03  0.12509145108E+03 0.  0.
          5    1    3    3  502    0  0.36037633738E+01  0.11558560518E+03 -0.43827959720E+02  0.12373916796E+03  0.41800000000E+01 0.  1.
         -5    1    3    3    0  502 -0.40238132405E+02 -0.18496646944E+02 -0.36591159487E+02  0.57598772558E+02  0.41800000000E+01 0.  1.
        -11    1    1    2    0    0 -0.30290115098E+01 -0.96381134238E+02 -0.11485441992E+02  0.97110315237E+02  0.00000000000E+00 0.  1.
         11    1    1    2    0    0  0.39663380541E+02 -0.70782399485E+00 -0.25659111516E+02  0.47244838602E+02  0.00000000000E+00 0. -1.
</event>
<event>
 7    1  0.2679104E-009  0.1379648E+03  0.7561462E-02  0.1216094E+00
         -1   -1    0    0    0  501 -0.00000000000E+00  0.00000000000E+00  0.17896817057E+03  0.17896817057E+03  0.00000000000E+00 0.  1.
          1   -1    0    0  501    0  0.00000000000E+00 -0.00000000000E+00 -0.12521609787E+03  0.12521609787E+03  0.00000000000E+00 0. -1.
         25    2    1    2    0    0  0.63084608620E+01  0.10296806155E+03  0.49438803889E+02  0.16951197245E+03  0.12509154687E+03 0.  0.
          5    1    3    3  502    0 -0.52464841704E+02  0.19410116471E+02  0.35544270032E+00  0.56097334838E+02  0.41800000000E+01 0. -1.
         -5    1    3    3    0  502  0.58773302566E+02  0.83557945074E+02  0.49083361188E+02  0.11341463761E+03  0.41800000000E+01 0. -1.
        -11    1    1    2    0    0  0.24293534126E+02 -0.60917626259E+02  0.34947803214E+02  0.74313403494E+02  0.00000000000E+00 0.  1.
         11    1    1    2    0    0 -0.30601994988E+02 -0.42050435287E+02 -0.30634534396E+02  0.60358892491E+02  0.00000000000E+00 0. -1.
</event>
<event>
 7    1  0.2679104E-009  0.1535328E+03  0.7561462E-02  0.1196198E+00
          1   -1    0    0  501    0  0.00000000000E+00  0.00000000000E+00  0.10068306953E+04  0.10068306953E+04  0.00000000000E+00 0. -1.
         -1   -1    0    0    0  501 -0.00000000000E+00 -0.00000000000E+00 -0.36988918730E+02  0.36988918730E+02  0.00000000000E+00 0.  1.
         25    2    1    2    0    0 -0.70887235183E+02  0.94795577590E+02  0.79662675747E+03  0.81502958893E+03  0.12509132053E+03 0.  0.
          5    1    3    3  502    0 -0.97512763550E+02  0.44011838931E+02  0.62296199068E+03  0.63209563775E+03  0.41800000000E+01 0.  1.
         -5    1    3    3    0  502  0.26625528367E+02  0.50783738659E+02  0.17366476678E+03  0.18293395118E+03  0.41800000000E+01 0.  1.
        -11    1    1    2    0    0  0.81779212335E+02 -0.48786379411E+02  0.80406995751E+02  0.12463240089E+03  0.00000000000E+00 0.  1.
         11    1    1    2    0    0 -0.10891977153E+02 -0.46009198179E+02  0.92808023370E+02  0.10415762423E+03  0.00000000000E+00 0. -1.
</event>
<event>
 7    1  0.2679104E-009  0.1427370E+03  0.7561462E-02  0.1209693E+00
         -2   -1    0    0    0  501 -0.00000000000E+00  0.00000000000E+00  0.75127010116E+02  0.75127010116E+02  0.00000000000E+00 0.  1.
          2   -1    0    0  501    0  0.00000000000E+00 -0.00000000000E+00 -0.33207013198E+03  0.33207013198E+03  0.00000000000E+00 0. -1.
         25    2    1    2    0    0  0.95044786904E+02 -0.42976127944E+02 -0.80037686230E+02  0.18147722689E+03  0.12508994193E+03 0.  0.
          5    1    3    3  502    0  0.11336295967E+03 -0.52743220701E+02 -0.32225969652E+02  0.12918588729E+03  0.41800000000E+01 0. -1.
         -5    1    3    3    0  502 -0.18318172771E+02  0.97670927566E+01 -0.47811716578E+02  0.52291339595E+02  0.41800000000E+01 0. -1.
        -11    1    1    2    0    0 -0.51009694406E+02  0.70684958974E+02 -0.97463626940E+02  0.13075745074E+03  0.00000000000E+00 0.  1.
         11    1    1    2    0    0 -0.44035092498E+02 -0.27708831030E+02 -0.79441808696E+02  0.94962464465E+02  0.00000000000E+00 0. -1.
</event>
<event>
 7    1  0.2679104E-009  0.1061758E+03  0.7561462E-02  0.1267820E+00
         -2   -1    0    0    0  501 -0.00000000000E+00  0.00000000000E+00  0.23572162046E+02  0.23572162046E+02  0.00000000000E+00 0. -1.
          2   -1    0    0  501    0  0.00000000000E+00 -0.00000000000E+00 -0.90176688713E+03  0.90176688713E+03  0.00000000000E+00 0.  1.
         25    2    1    2    0    0  0.92185624241E+02 -0.25600354362E+02 -0.53619009451E+03  0.55883882080E+03  0.12508973869E+03 0.  0.
          5    1    3    3  502    0 -0.13549362094E+01 -0.21267509852E+02 -0.92126662273E+01  0.23590007344E+02  0.41800000000E+01 0.  1.
         -5    1    3    3    0  502  0.93540560450E+02 -0.43328445098E+01 -0.52697742828E+03  0.53524881346E+03  0.41800000000E+01 0.  1.
        -11    1    1    2    0    0 -0.46097489870E+02  0.20769141760E+02 -0.29911383636E+03  0.30335692332E+03  0.00000000000E+00 0.  1.
         11    1    1    2    0    0 -0.46088134370E+02  0.48312126021E+01 -0.42890794212E+02  0.63143305054E+02  0.00000000000E+00 0. -1.
</event>
<event>
 7    1  0.2679104E-009  0.1400301E+03  0.7561462E-02  0.1213288E+00
          2   -1    0    0  501    0  0.00000000000E+00  0.00000000000E+00  0.75457803902E+03  0.75457803902E+03  0.00000000000E+00 0. -1.
         -2   -1    0    0    0  501 -0.00000000000E+00 -0.00000000000E+00 -0.27205104186E+02  0.27205104186E+02  0.00000000000E+00 0.  1.
         25    2    1    2    0    0  0.17770813488E+02 -0.88461329981E+02  0.43974055387E+03  0.46600474372E+03  0.12508979872E+03 0.  0.
          5    1    3    3  502    0  0.12226335342E+02  0.29250127711E+02  0.14639882109E+03  0.14985039360E+03  0.41800000000E+01 0.  1.
         -5    1    3    3    0  502  0.55444781466E+01 -0.11771145769E+03  0.29334173278E+03  0.31615435012E+03  0.41800000000E+01 0.  1.
        -11    1    1    2    0    0 -0.35908129866E+02  0.10160802559E+03  0.24370809458E+03  0.26647179967E+03  0.00000000000E+00 0. -1.
         11    1    1    2    0    0  0.18137316378E+02 -0.13146695608E+02  0.43924286378E+02  0.49306599808E+02  0.00000000000E+00 0.  1.
</event>
<event>
 7    1  0.2679104E-009  0.8681414E+02  0.7561462E-02  0.1310755E+00
         -2   -1    0    0    0  501 -0.00000000000E+00  0.00000000000E+00  0.41486421900E+02  0.41486421900E+02  0.00000000000E+00 0.  1.
          2   -1    0    0  501    0  0.00000000000E+00 -0.00000000000E+00 -0.31477002416E+03  0.31477002416E+03  0.00000000000E+00 0. -1.
         25    2    1    2    0    0 -0.32131260192E+02  0.16643289937E+02 -0.17148677630E+03  0.21532490229E+03  0.12509069557E+03 0.  0.
          5    1    3    3  502    0  0.20409316904E+02  0.13145283681E+02 -0.15919693188E+03  0.16109150884E+03  0.41800000000E+01 0.  1.
         -5    1    3    3    0  502 -0.52540577096E+02  0.34980062564E+01 -0.12289844424E+02  0.54233393452E+02  0.41800000000E+01 0.  1.
        -11    1    1    2    0    0 -0.22601687163E+02 -0.32136619733E+02 -0.53075573016E+02  0.66034953180E+02  0.00000000000E+00 0. -1.
         11    1    1    2    0    0  0.54732947355E+02  0.15493329796E+02 -0.48721252943E+02  0.74896590594E+02  0.00000000000E+00 0.  1.
</event>
<event>
 7    1  0.2679104E-009  0.1329012E+03  0.7561462E-02  0.1223213E+00
         -1   -1    0    0    0  501 -0.00000000000E+00  0.00000000000E+00  0.56026092766E+02  0.56026092766E+02  0.00000000000E+00 0.  1.
          1   -1    0    0  501    0  0.00000000000E+00 -0.00000000000E+00 -0.82854870470E+03  0.82854870470E+03  0.00000000000E+00 0. -1.
         25    2    1    2    0    0 -0.54750702199E+02  0.61367462469E+02 -0.74183714247E+03  0.75679480311E+03  0.12510964482E+03 0.  0.
          5    1    3    3  502    0  0.26823996248E+02  0.58958050590E+02 -0.40618818957E+03  0.41134158098E+03  0.41800000000E+01 0.  1.
         -5    1    3    3    0  502 -0.81574698447E+02  0.24094118790E+01 -0.33564895290E+03  0.34545322212E+03  0.41800000000E+01 0.  1.
        -11    1    1    2    0    0  0.46298332348E+02  0.99542139322E+01  0.49320565337E+01  0.47612468271E+02  0.00000000000E+00 0.  1.
         11    1    1    2    0    0  0.84523698511E+01 -0.71321676401E+02 -0.35617526004E+02  0.80167526090E+02  0.00000000000E+00 0. -1.
</event>
<event>
 7    1  0.2679104E-009  0.1224866E+03  0.7561462E-02  0.1239050E+00
         -2   -1    0    0    0  501 -0.00000000000E+00  0.00000000000E+00  0.31246442848E+02  0.31246442848E+02  0.00000000000E+00 0.  1.
          2   -1    0    0  501    0  0.00000000000E+00 -0.00000000000E+00 -0.59366991192E+03  0.59366991192E+03  0.00000000000E+00 0. -1.
         25    2    1    2    0    0  0.81388175833E+02 -0.29760300385E+01 -0.30263074556E+03  0.33743913214E+03  0.12508760058E+03 0.  0.
          5    1    3    3  502    0  0.96635874455E+02 -0.26133419970E+02 -0.28974608804E+03  0.30658068401E+03  0.41800000000E+01 0. -1.
         -5    1    3    3    0  502 -0.15247698622E+02  0.23157389931E+02 -0.12884657519E+02  0.30858448131E+02  0.41800000000E+01 0. -1.
        -11    1    1    2    0    0 -0.85769597935E+02  0.28853869348E+02 -0.15532782330E+03  0.17976568749E+03  0.00000000000E+00 0.  1.
         11    1    1    2    0    0  0.43814221020E+01 -0.25877839310E+02 -0.10446490021E+03  0.10771153514E+03  0.00000000000E+00 0. -1.
</event>
<event>
 7    1  0.2679104E-009  0.1669059E+03  0.7561462E-02  0.1181113E+00
          2   -1    0    0  501    0  0.00000000000E+00  0.00000000000E+00  0.14748252378E+04  0.14748252378E+04  0.00000000000E+00 0. -1.
         -2   -1    0    0    0  501 -0.00000000000E+00 -0.00000000000E+00 -0.23981537554E+02  0.23981537554E+02  0.00000000000E+00 0.  1.
         25    2    1    2    0    0  0.60375627883E+02 -0.12285462972E+03  0.10384825885E+04  0.10549083461E+04  0.12508819163E+03 0.  0.
          5    1    3    3  502    0  0.44211930443E+02  0.11143928768E+01  0.12021935979E+03  0.12816436140E+03  0.41800000000E+01 0.  1.
         -5    1    3    3    0  502  0.16163697440E+02 -0.12396902260E+03  0.91826322867E+03  0.92674398472E+03  0.41800000000E+01 0.  1.
        -11    1    1    2    0    0 -0.56216046920E+02  0.17518552065E+02  0.14382513098E+03  0.15541174955E+03  0.00000000000E+00 0.  1.
         11    1    1    2    0    0 -0.41595809631E+01  0.10533607766E+03  0.26853598084E+03  0.28848667972E+03  0.00000000000E+00 0. -1.
</event>
<event>
 7    1  0.2679104E-009  0.8881598E+02  0.7561462E-02  0.1305745E+00
         -1   -1    0    0    0  501 -0.00000000000E+00  0.00000000000E+00  0.10989814135E+02  0.10989814135E+02  0.00000000000E+00 0.  1.
          1   -1    0    0  501    0  0.00000000000E+00 -0.00000000000E+00 -0.13603189492E+04  0.13603189492E+04  0.00000000000E+00 0. -1.
         25    2    1    2    0    0 -0.26574522857E+02  0.11099329423E+02 -0.10236211018E+04  0.10316379371E+04  0.12508905999E+03 0.  0.
          5    1    3    3  502    0 -0.86646168494E+01  0.46020341405E+02 -0.15157347215E+03  0.15869762842E+03  0.41800000000E+01 0. -1.
         -5    1    3    3    0  502 -0.17909906008E+02 -0.34921011982E+02 -0.87204762965E+03  0.87294030872E+03  0.41800000000E+01 0. -1.
        -11    1    1    2    0    0  0.50726067408E+02 -0.31349229400E+02 -0.26059891404E+03  0.26733443867E+03  0.00000000000E+00 0. -1.
         11    1    1    2    0    0 -0.24151544551E+02  0.20249899976E+02 -0.65109119200E+02  0.72336387498E+02  0.00000000000E+00 0.  1.
</event>
<event>
 7    1  0.2679104E-009  0.1132381E+03  0.7561462E-02  0.1254688E+00
         -2   -1    0    0    0  501 -0.00000000000E+00  0.00000000000E+00  0.24350613195E+02  0.24350613195E+02  0.00000000000E+00 0.  1.
          2   -1    0    0  501    0  0.00000000000E+00 -0.00000000000E+00 -0.59823896931E+03  0.59823896931E+03  0.00000000000E+00 0. -1.
         25    2    1    2    0    0 -0.92946532678E+01  0.42893888179E+02 -0.42525752767E+03  0.44544104746E+03  0.12508991044E+03 0.  0.
          5    1    3    3  502    0 -0.66209590288E+02  0.34754446683E+02 -0.23585634334E+03  0.24746165057E+03  0.41800000000E+01 0. -1.
         -5    1    3    3    0  502  0.56914937021E+02  0.81394414970E+01 -0.18940118434E+03  0.19797939689E+03  0.41800000000E+01 0. -1.
        -11    1    1    2    0    0 -0.26723207659E+02 -0.50490719871E+02 -0.10898007959E+03  0.12304511517E+03  0.00000000000E+00 0. -1.
         11    1    1    2    0    0  0.36017860927E+02  0.75968316911E+01 -0.39650748854E+02  0.54103419875E+02  0.00000000000E+00 0.  1.
</event>
<event>
 7    1  0.5503146E-009  0.1159885E+03  0.7561462E-02  0.1249865E+00
         -1   -1    0    0    0  501 -0.00000000000E+00  0.00000000000E+00  0.56402421354E+02  0.56402421354E+02  0.00000000000E+00 0.  1.
          1   -1    0    0  501    0  0.00000000000E+00 -0.00000000000E+00 -0.34607155449E+03  0.34607155449E+03  0.00000000000E+00 0. -1.
         25    2    1    2    0    0  0.51580243447E+02  0.69933748676E+02 -0.17500154953E+03  0.23199732889E+03  0.12508384210E+03 0.  0.
          5    1    3    3  502    0 -0.22726267966E+02  0.64624976932E+02 -0.44885749142E+02  0.82006547148E+02  0.41800000000E+01 0. -1.
         -5    1    3    3    0  502  0.74306511413E+02  0.53087717444E+01 -0.13011580039E+03  0.14999078174E+03  0.41800000000E+01 0. -1.
        -11    1    1    2    0    0 -0.40354347838E+02 -0.64913940208E+02 -0.13001010460E+03  0.15081419138E+03  0.00000000000E+00 0. -1.
         11    1    1    2    0    0 -0.11225895609E+02 -0.50198084677E+01  0.15342520990E+02  0.19662455584E+02  0.00000000000E+00 0.  1.
</event>
<event>
 7    1  0.2679104E-009  0.1071059E+03  0.7561462E-02  0.1266025E+00
         -1   -1    0    0    0  501 -0.00000000000E+00  0.00000000000E+00  0.36975920667E+03  0.36975920667E+03  0.00000000000E+00 0.  1.
          1   -1    0    0  501    0  0.00000000000E+00 -0.00000000000E+00 -0.45590256138E+02  0.45590256138E+02  0.00000000000E+00 0. -1.
         25    2    1    2    0    0  0.42689815802E+02 -0.60691217603E+01  0.89048601502E+02  0.15948754276E+03  0.12508944102E+03 0.  0.
          5    1    3    3  502    0  0.56179755738E+02  0.38285316437E+02  0.11552161320E+02  0.69085854128E+02  0.41800000000E+01 0. -1.
         -5    1    3    3    0  502 -0.13489939937E+02 -0.44354438197E+02  0.77496440182E+02  0.90401688635E+02  0.41800000000E+01 0. -1.
        -11    1    1    2    0    0 -0.31684581465E+02  0.47268921686E+02  0.11319346273E+03  0.12669263461E+03  0.00000000000E+00 0. -1.
         11    1    1    2    0    0 -0.11005234337E+02 -0.41199799925E+02  0.12192688630E+03  0.12916928544E+03  0.00000000000E+00 0.  1.
</event>
<event>
 7    1  0.2679104E-009  0.7785748E+02  0.7561462E-02  0.1335244E+00
          3   -1    0    0  501    0  0.00000000000E+00  0.00000000000E+00  0.33039299183E+02  0.33039299183E+02  0.00000000000E+00 0. -1.
         -3   -1    0    0    0  501 -0.00000000000E+00 -0.00000000000E+00 -0.37936004648E+03  0.37936004648E+03  0.00000000000E+00 0.  1.
         25    2    1    2    0    0 -0.17042580906E+02 -0.14332619749E+02 -0.23694893337E+03  0.26886501012E+03  0.12509085934E+03 0.  0.
          5    1    3    3  502    0 -0.39275772793E+02 -0.41777278966E+02 -0.43292863639E+02  0.71969936837E+02  0.41800000000E+01 0. -1.
         -5    1    3    3    0  502  0.22233191887E+02  0.27444659217E+02 -0.19365606973E+03  0.19689507329E+03  0.41800000000E+01 0. -1.
        -11    1    1    2    0    0  0.19915978563E+01 -0.22644885654E+02  0.42291482606E+01  0.23122348568E+02  0.00000000000E+00 0. -1.
         11    1    1    2    0    0  0.15050983050E+02  0.36977505403E+02 -0.11360096219E+03  0.12041198698E+03  0.00000000000E+00 0.  1.
</event>
<event>
 7    1  0.2679104E-009  0.1521933E+03  0.7561462E-02  0.1197804E+00
          2   -1    0    0  501    0  0.00000000000E+00  0.00000000000E+00  0.21602520271E+03  0.21602520271E+03  0.00000000000E+00 0.  1.
         -2   -1    0    0    0  501 -0.00000000000E+00 -0.00000000000E+00 -0.19195131803E+03  0.19195131803E+03  0.00000000000E+00 0. -1.
         25    2    1    2    0    0  0.22886311674E+02 -0.14496317732E+03  0.10257761550E+03  0.21842368763E+03  0.12509450058E+03 0.  0.
          5    1    3    3  502    0  0.21063070121E+01 -0.12649269015E+03  0.12836237926E+03  0.18027537270E+03  0.41800000000E+01 0.  1.
         -5    1    3    3    0  502  0.20780004662E+02 -0.18470487172E+02 -0.25784763760E+02  0.38148314934E+02  0.41800000000E+01 0.  1.
        -11    1    1    2    0    0 -0.83982406355E+01  0.12357027151E+03 -0.19817439792E+02  0.12543075128E+03  0.00000000000E+00 0.  1.
         11    1    1    2    0    0 -0.14488071039E+02  0.21392905811E+02 -0.58686291040E+02  0.64122081824E+02  0.00000000000E+00 0. -1.
</event>
<event>
 7    1  0.2679104E-009  0.8345167E+02  0.7561462E-02  0.1319532E+00
         -1   -1    0    0    0  501 -0.00000000000E+00  0.00000000000E+00  0.17289902525E+03  0.17289902525E+03  0.00000000000E+00 0.  1.
          1   -1    0    0  501    0  0.00000000000E+00 -0.00000000000E+00 -0.71696931711E+02  0.71696931711E+02  0.00000000000E+00 0. -1.
         25    2    1    2    0    0  0.18814757220E+02 -0.79557263475E+01  0.78325106974E+02  0.14899241516E+03  0.12508648497E+03 0.  0.
          5    1    3    3  502    0 -0.16474765433E+02 -0.56711056072E+02  0.63598193244E+02  0.86889380023E+02  0.41800000000E+01 0.  1.
         -5    1    3    3    0  502  0.35289522653E+02  0.48755329724E+02  0.14726913730E+02  0.62103035140E+02  0.41800000000E+01 0.  1.
        -11    1    1    2    0    0 -0.29326942349E+02 -0.59619616774E+01 -0.28512465284E+02  0.41334915158E+02  0.00000000000E+00 0. -1.
         11    1    1    2    0    0  0.10512185129E+02  0.13917688025E+02  0.51389451847E+02  0.54268626639E+02  0.00000000000E+00 0.  1.
</event>
<event>
 7    1  0.2679104E-009  0.8173130E+02  0.7561462E-02  0.1324209E+00
          1   -1    0    0  501    0  0.00000000000E+00  0.00000000000E+00  0.22349696640E+03  0.22349696640E+03  0.00000000000E+00 0. -1.
         -1   -1    0    0    0  501 -0.00000000000E+00 -0.00000000000E+00 -0.18608535469E+03  0.18608535469E+03  0.00000000000E+00 0.  1.
         25    2    1    2    0    0  0.40994696782E+02  0.51969514696E+02 -0.13961376728E+03  0.19879824072E+03  0.12508933158E+03 0.  0.
          5    1    3    3  502    0  0.55120923721E+02  0.58887834743E+02 -0.15602127775E+03  0.17568780499E+03  0.41800000000E+01 0.  1.
         -5    1    3    3    0  502 -0.14126226939E+02 -0.69183200471E+01  0.16407510463E+02  0.23110435725E+02  0.41800000000E+01 0.  1.
        -11    1    1    2    0    0 -0.16975351754E+02 -0.25935435536E+02  0.77197350698E+00  0.31006536838E+02  0.00000000000E+00 0.  1.
         11    1    1    2    0    0 -0.24019345028E+02 -0.26034079160E+02  0.17625340548E+03  0.17977754353E+03  0.00000000000E+00 0. -1.
</event>
<event>
 7    1  0.2979526E-009  0.1201321E+03  0.7561462E-02  0.1242879E+00
         -2   -1    0    0    0  501 -0.00000000000E+00  0.00000000000E+00  0.44857063084E+02  0.44857063084E+02  0.00000000000E+00 0.  1.
          2   -1    0    0  501    0  0.00000000000E+00 -0.00000000000E+00 -0.39924612195E+03  0.39924612195E+03  0.00000000000E+00 0. -1.
         25    2    1    2    0    0  0.46220868091E+02  0.60767792438E+02 -0.17274462705E+03  0.22653360312E+03  0.12509066281E+03 0.  0.
          5    1    3    3  502    0 -0.19886837567E+02  0.62495369696E+02 -0.36845208837E+02  0.75340555852E+02  0.41800000000E+01 0.  1.
         -5    1    3    3    0  502  0.66107705658E+02 -0.17275772577E+01 -0.13589941821E+03  0.15119304726E+03  0.41800000000E+01 0.  1.
        -11    1    1    2    0    0  0.13873283078E+02 -0.43649098541E+02 -0.33373392185E+02  0.56670054639E+02  0.00000000000E+00 0. -1.
         11    1    1    2    0    0 -0.60094151169E+02 -0.17118693898E+02 -0.14827103963E+03  0.16089952728E+03  0.00000000000E+00 0.  1.
</event>
<event>
 7    1  0.2679104E-009  0.7971148E+02  0.7561462E-02  0.1329872E+00
          2   -1    0    0  501    0  0.00000000000E+00  0.00000000000E+00  0.41184516047E+03  0.41184516047E+03  0.00000000000E+00 0. -1.
         -2   -1    0    0    0  501 -0.00000000000E+00 -0.00000000000E+00 -0.37392917058E+02  0.37392917058E+02  0.00000000000E+00 0.  1.
         25    2    1    2    0    0  0.54036076660E+02  0.18524998028E+02  0.18893936635E+03  0.23368513571E+03  0.12509030882E+03 0.  0.
          5    1    3    3  502    0  0.89755258755E+01  0.47377472238E+02  0.17002574923E+03  0.17678069108E+03  0.41800000000E+01 0. -1.
         -5    1    3    3    0  502  0.45060550784E+02 -0.28852474211E+02  0.18913617125E+02  0.56904444623E+02  0.41800000000E+01 0. -1.
        -11    1    1    2    0    0 -0.21202972226E+02 -0.46423838956E+01 -0.45491507614E+01  0.22176846758E+02  0.00000000000E+00 0.  1.
         11    1    1    2    0    0 -0.32833104434E+02 -0.13882614132E+02  0.19006202782E+03  0.19337609506E+03  0.00000000000E+00 0. -1.
</event>
<event>
 7    1  0.2679104E-009  0.7532473E+02  0.7561462E-02  0.1342868E+00
         -2   -1    0    0    0  501 -0.00000000000E+00  0.00000000000E+00  0.16942066345E+03  0.16942066345E+03  0.00000000000E+00 0. -1.
          2   -1    0    0  501    0  0.00000000000E+00 -0.00000000000E+00 -0.89267681550E+02  0.89267681550E+02  0.00000000000E+00 0.  1.
         25    2    1    2    0    0  0.23928164032E+02 -0.18764302296E+02  0.11408241100E+03  0.17200384057E+03  0.12508344653E+03 0.  0.
          5    1    3    3  502    0  0.46098340254E+01 -0.56889578630E+02  0.82883851637E+01  0.57825984255E+02  0.41800000000E+01 0.  1.
         -5    1    3    3    0  502  0.19318330006E+02  0.38125276334E+02  0.10579402584E+03  0.11417785631E+03  0.41800000000E+01 0.  1.
        -11    1    1    2    0    0 -0.11131666878E+02  0.30897832389E+02 -0.51956821332E+02  0.61466261777E+02  0.00000000000E+00 0.  1.
         11    1    1    2    0    0 -0.12796497154E+02 -0.12133530094E+02  0.18027392235E+02  0.25218242657E+02  0.00000000000E+00 0. -1.
</event>
<event>
 7    1  0.2679104E-009  0.9371690E+02  0.7561462E-02  0.1294092E+00
         -1   -1    0    0    0  501 -0.00000000000E+00  0.00000000000E+00  0.39977604899E+03  0.39977604899E+03  0.00000000000E+00 0.  1.
          1   -1    0    0  501    0  0.00000000000E+00 -0.00000000000E+00 -0.62643947409E+02  0.62643947409E+02  0.00000000000E+00 0. -1.
         25    2    1    2    0    0  0.68443110117E+02  0.51643069523E+02  0.29253062017E+03  0.32950267631E+03  0.12508550679E+03 0.  0.
          5    1    3    3  502    0  0.36281242653E+01  0.60787651191E+01  0.22546943167E+03  0.22561926267E+03  0.41800000000E+01 0.  1.
         -5    1    3    3    0  502  0.64814985852E+02  0.45564304404E+02  0.67061188502E+02  0.10388341364E+03  0.41800000000E+01 0.  1.
        -11    1    1    2    0    0 -0.25361908398E+02 -0.50806684959E+02  0.64088474007E+02  0.85626386907E+02  0.00000000000E+00 0.  1.
         11    1    1    2    0    0 -0.43081201719E+02 -0.83638456342E+00 -0.19486992595E+02  0.47290933180E+02  0.00000000000E+00 0. -1.
</event>
<event>
 7    1  0.2679104E-009  0.2314596E+03  0.7561462E-02  0.1125617E+00
         -2   -1    0    0    0  501 -0.00000000000E+00  0.00000000000E+00  0.28783477622E+03  0.28783477622E+03  0.00000000000E+00 0.  1.
          2   -1    0    0  501    0  0.00000000000E+00 -0.00000000000E+00 -0.22058115390E+03  0.22058115390E+03  0.00000000000E+00 0. -1.
         25    2    1    2    0    0  0.42377091756E+02  0.21591735214E+03  0.85625284680E+02  0.26719807304E+03  0.12508796903E+03 0.  0.
          5    1    3    3  502    0  0.12067323483E+02  0.19702471254E+03  0.10780075346E+03  0.22495073348E+03  0.41800000000E+01 0.  1.
         -5    1    3    3    0  502  0.30309768272E+02  0.18892639597E+02 -0.22175468778E+02  0.42247339552E+02  0.41800000000E+01 0.  1.
        -11    1    1    2    0    0  0.12195568998E+02 -0.10704470060E+03  0.27315101262E+02  0.11114591574E+03  0.00000000000E+00 0.  1.
         11    1    1    2    0    0 -0.54572660754E+02 -0.10887265154E+03 -0.45686763622E+02  0.13007194135E+03  0.00000000000E+00 0. -1.
</event>
<event>
 7    1  0.2679104E-009  0.3158721E+03  0.7561462E-02  0.1077565E+00
         -2   -1    0    0    0  501 -0.00000000000E+00  0.00000000000E+00  0.31964166217E+02  0.31964166217E+02  0.00000000000E+00 0.  1.
          2   -1    0    0  501    0  0.00000000000E+00 -0.00000000000E+00 -0.36455190759E+04  0.36455190759E+04  0.00000000000E+00 0. -1.
         25    2    1    2    0    0 -0.19969226890E+03  0.23038235494E+03 -0.24133208443E+04  0.24357172651E+04  0.12509223054E+03 0.  0.
          5    1    3    3  502    0 -0.33310691712E+02  0.88635154353E+02 -0.11244465097E+04  0.11284339673E+04  0.41800000000E+01 0. -1.
         -5    1    3    3    0  502 -0.16638157718E+03  0.14174720059E+03 -0.12888743345E+04  0.13072832978E+04  0.41800000000E+01 0. -1.
        -11    1    1    2    0    0  0.37682690802E+02 -0.11066770666E+03 -0.45714849935E+03  0.47186023030E+03  0.00000000000E+00 0.  1.
         11    1    1    2    0    0  0.16200957809E+03 -0.11971464828E+03 -0.74308556603E+03  0.76990574673E+03  0.00000000000E+00 0. -1.
</event>
<event>
 7    1  0.2679104E-009  0.1362512E+03  0.7561462E-02  0.1218464E+00
         -2   -1    0    0    0  501 -0.00000000000E+00  0.00000000000E+00  0.43193891848E+02  0.43193891848E+02  0.00000000000E+00 0.  1.
          2   -1    0    0  501    0  0.00000000000E+00 -0.00000000000E+00 -0.56582941465E+03  0.56582941465E+03  0.00000000000E+00 0. -1.
         25    2    1    2    0    0  0.50166520459E+02 -0.99054960498E+02 -0.24557617963E+03  0.29712304032E+03  0.12508347659E+03 0.  0.
          5    1    3    3  502    0 -0.14475725384E+02  0.15974236087E+02 -0.92097593758E+02  0.94679258657E+02  0.41800000000E+01 0. -1.
         -5    1    3    3    0  502  0.64642245843E+02 -0.11502919659E+03 -0.15347858587E+03  0.20244378167E+03  0.41800000000E+01 0. -1.
        -11    1    1    2    0    0  0.54411208449E+01  0.26835098356E+02 -0.90854324607E+01  0.28849148737E+02  0.00000000000E+00 0.  1.
         11    1    1    2    0    0 -0.55607641304E+02  0.72219862142E+02 -0.26797391072E+03  0.28305111744E+03  0.00000000000E+00 0. -1.
</event>
<event>
 7    1  0.2679104E-009  0.1147725E+03  0.7561462E-02  0.1251979E+00
          1   -1    0    0  501    0  0.00000000000E+00  0.00000000000E+00  0.53163448785E+03  0.53163448785E+03  0.00000000000E+00 0. -1.
         -1   -1    0    0    0  501 -0.00000000000E+00 -0.00000000000E+00 -0.31489462236E+02  0.31489462236E+02  0.00000000000E+00 0.  1.
         25    2    1    2    0    0  0.57323953572E+02  0.10830053674E+02  0.36933854636E+03  0.39428690782E+03  0.12509147909E+03 0.  0.
          5    1    3    3  502    0 -0.20666953466E+01  0.51685686301E+02  0.74886931907E+02  0.91110956358E+02  0.41800000000E+01 0. -1.
         -5    1    3    3    0  502  0.59390648919E+02 -0.40855632626E+02  0.29445161445E+03  0.30317595147E+03  0.41800000000E+01 0. -1.
        -11    1    1    2    0    0  0.18513787188E+02 -0.22035841567E+02  0.48203643585E+02  0.56142050947E+02  0.00000000000E+00 0.  1.
         11    1    1    2    0    0 -0.75837740760E+02  0.11205787892E+02  0.82602835670E+02  0.11269499131E+03  0.00000000000E+00 0. -1.
</event>
<event>
 7    1  0.2679104E-009  0.1228004E+03  0.7561462E-02  0.1238548E+00
          1   -1    0    0  501    0  0.00000000000E+00  0.00000000000E+00  0.21420776927E+03  0.21420776927E+03  0.00000000000E+00 0.  1.
         -1   -1    0    0    0  501 -0.00000000000E+00 -0.00000000000E+00 -0.10044783835E+03  0.10044783835E+03  0.00000000000E+00 0. -1.
         25    2    1    2    0    0 -0.80249815227E+02 -0.53790539987E+02  0.93477552551E+02  0.18362680407E+03  0.12508914943E+03 0.  0.
          5    1    3    3  502    0 -0.97331980038E+02 -0.12375057379E+02  0.24404632201E+02  0.10119147620E+03  0.41800000000E+01 0. -1.
         -5    1    3    3    0  502  0.17082164811E+02 -0.41415482608E+02  0.69072920350E+02  0.82435327864E+02  0.41800000000E+01 0. -1.
        -11    1    1    2    0    0  0.46294771958E+02  0.10654955356E+02  0.49695918725E+02  0.68748951426E+02  0.00000000000E+00 0.  1.
         11    1    1    2    0    0  0.33955043269E+02  0.43135584631E+02 -0.29413540357E+02  0.62279852129E+02  0.00000000000E+00 0. -1.
</event>
<event>
 7    1  0.2679104E-009  0.1025606E+03  0.7561462E-02  0.1275002E+00
          1   -1    0    0  501    0  0.00000000000E+00  0.00000000000E+00  0.33123200583E+03  0.33123200583E+03  0.00000000000E+00 0. -1.
         -1   -1    0    0    0  501 -0.00000000000E+00 -0.00000000000E+00 -0.11027104638E+03  0.11027104638E+03  0.00000000000E+00 0.  1.
         25    2    1    2    0    0 -0.19186664074E+02 -0.14885496531E+00  0.29611389408E+03  0.32202319346E+03  0.12508936254E+03 0.  0.
          5    1    3    3  502    0  0.45741533335E+02 -0.11146434980E+02  0.19952355234E+03  0.20504548574E+03  0.41800000000E+01 0.  1.
         -5    1    3    3    0  502 -0.64928197409E+02  0.10997580015E+02  0.96590341738E+02  0.11697770771E+03  0.41800000000E+01 0.  1.
        -11    1    1    2    0    0 -0.25934169208E+02 -0.28413098181E+02 -0.40289713905E+02  0.55705891316E+02  0.00000000000E+00 0. -1.
         11    1    1    2    0    0  0.45120833282E+02  0.28561953147E+02 -0.34863220729E+02  0.63773967441E+02  0.00000000000E+00 0.  1.
</event>
<event>
 7    1  0.2679104E-009  0.1515275E+03  0.7561462E-02  0.1198608E+00
          2   -1    0    0  501    0  0.00000000000E+00  0.00000000000E+00  0.26763354634E+03  0.26763354634E+03  0.00000000000E+00 0. -1.
         -2   -1    0    0    0  501 -0.00000000000E+00 -0.00000000000E+00 -0.11699744417E+03  0.11699744417E+03  0.00000000000E+00 0.  1.
         25    2    1    2    0    0  0.43461644035E+02  0.13103174611E+03  0.10553385869E+03  0.21411035762E+03  0.12509043497E+03 0.  0.
          5    1    3    3  502    0 -0.25631327120E+02  0.58387593912E+02 -0.58791958895E+01  0.64172528367E+02  0.41800000000E+01 0.  1.
         -5    1    3    3    0  502  0.69092971155E+02  0.72644152201E+02  0.11141305458E+03  0.14993782926E+03  0.41800000000E+01 0.  1.
        -11    1    1    2    0    0 -0.10764395485E+02 -0.55043809125E+02 -0.25643753025E+02  0.61670861859E+02  0.00000000000E+00 0.  1.
         11    1    1    2    0    0 -0.32697248551E+02 -0.75987936987E+02  0.70745996511E+02  0.10884977103E+03  0.00000000000E+00 0. -1.
</event>
<event>
 7    1  0.2679104E-009  0.1066160E+03  0.7561462E-02  0.1266968E+00
          1   -1    0    0  501    0  0.00000000000E+00  0.00000000000E+00  0.51650696631E+02  0.51650696631E+02  0.00000000000E+00 0. -1.
         -1   -1    0    0    0  501 -0.00000000000E+00 -0.00000000000E+00 -0.24233132977E+03  0.24233132977E+03  0.00000000000E+00 0.  1.
         25    2    1    2    0    0 -0.65340086758E+01 -0.63331513019E+01 -0.14324080680E+03  0.19039340511E+03  0.12509563502E+03 0.  0.
          5    1    3    3  502    0  0.36326453647E+02  0.44617937511E+02 -0.54386044731E+02  0.79282317346E+02  0.41800000000E+01 0. -1.
         -5    1    3    3    0  502 -0.42860462323E+02 -0.50951088813E+02 -0.88854762070E+02  0.11111108777E+03  0.41800000000E+01 0. -1.
        -11    1    1    2    0    0 -0.40674428254E+02  0.85842576504E+01 -0.35928127718E+02  0.54944780958E+02  0.00000000000E+00 0.  1.
         11    1    1    2    0    0  0.47208436930E+02 -0.22511063485E+01 -0.11511698621E+02  0.48643840332E+02  0.00000000000E+00 0. -1.
</event>
<event>
 7    1  0.2679104E-009  0.1022124E+03  0.7561462E-02  0.1275711E+00
         -3   -1    0    0    0  501 -0.00000000000E+00  0.00000000000E+00  0.49124819412E+03  0.49124819412E+03  0.00000000000E+00 0.  1.
          3   -1    0    0  501    0  0.00000000000E+00 -0.00000000000E+00 -0.25980980568E+02  0.25980980568E+02  0.00000000000E+00 0. -1.
         25    2    1    2    0    0 -0.24798823085E+02  0.21719467359E+02  0.26970776437E+03  0.29912519084E+03  0.12508750835E+03 0.  0.
          5    1    3    3  502    0  0.16211837176E+02 -0.46426126335E+02  0.92496726263E+02  0.10483952327E+03  0.41800000000E+01 0. -1.
         -5    1    3    3    0  502 -0.41010660260E+02  0.68145593694E+02  0.17721103811E+03  0.19428566757E+03  0.41800000000E+01 0. -1.
        -11    1    1    2    0    0  0.12221753210E+02 -0.46262762510E+02  0.18039140978E+03  0.18662978103E+03  0.00000000000E+00 0.  1.
         11    1    1    2    0    0  0.12577069874E+02  0.24543295151E+02  0.15168039406E+02  0.31474202816E+02  0.00000000000E+00 0. -1.
</event>
<event>
 7    1  0.2679104E-009  0.8424911E+02  0.7561462E-02  0.1317408E+00
         -1   -1    0    0    0  501 -0.00000000000E+00  0.00000000000E+00  0.94562198513E+02  0.94562198513E+02  0.00000000000E+00 0.  1.
          1   -1    0    0  501    0  0.00000000000E+00 -0.00000000000E+00 -0.21719661521E+03  0.21719661521E+03  0.00000000000E+00 0. -1.
         25    2    1    2    0    0  0.11674597466E+02 -0.76742197273E+02 -0.10339646004E+03  0.17989951742E+03  0.12508935746E+03 0.  0.
          5    1    3    3  502    0  0.63371285078E+01 -0.14044753931E+02  0.29082587788E+02  0.33176552310E+02  0.41800000000E+01 0.  1.
         -5    1    3    3    0  502  0.53374689578E+01 -0.62697443342E+02 -0.13247904783E+03  0.14672296511E+03  0.41800000000E+01 0.  1.
        -11    1    1    2    0    0 -0.26696938321E+02  0.28986516378E+02 -0.56898591381E+02  0.69212674768E+02  0.00000000000E+00 0. -1.
         11    1    1    2    0    0  0.15022340856E+02  0.47755680895E+02  0.37660634722E+02  0.62646621539E+02  0.00000000000E+00 0.  1.
</event>
<event>
 7    1  0.2679104E-009  0.1002536E+03  0.7561462E-02  0.1279763E+00
         -1   -1    0    0    0  501 -0.00000000000E+00  0.00000000000E+00  0.59909746413E+02  0.59909746413E+02  0.00000000000E+00 0.  1.
          1   -1    0    0  501    0  0.00000000000E+00 -0.00000000000E+00 -0.38149561038E+03  0.38149561038E+03  0.00000000000E+00 0. -1.
         25    2    1    2    0    0 -0.44522639559E+02 -0.38645324913E+02 -0.29850894333E+03  0.32898446267E+03  0.12508981117E+03 0.  0.
          5    1    3    3  502    0 -0.23947673841E+02  0.26712558070E+02 -0.18300891644E+02  0.40490083675E+02  0.41800000000E+01 0. -1.
         -5    1    3    3    0  502 -0.20574965718E+02 -0.65357882984E+02 -0.28020805169E+03  0.28849437900E+03  0.41800000000E+01 0. -1.
        -11    1    1    2    0    0  0.60703959869E+02  0.47696911141E+02 -0.40324714366E+02  0.87097925721E+02  0.00000000000E+00 0. -1.
         11    1    1    2    0    0 -0.16181320310E+02 -0.90515862279E+01  0.17247793729E+02  0.25322968402E+02  0.00000000000E+00 0.  1.
</event>
<event>
 7    1  0.2679104E-009  0.1870271E+03  0.7561462E-02  0.1161170E+00
         -1   -1    0    0    0  501 -0.00000000000E+00  0.00000000000E+00  0.19081537337E+03  0.19081537337E+03  0.00000000000E+00 0.  1.
          1   -1    0    0  501    0  0.00000000000E+00 -0.00000000000E+00 -0.22841880493E+03  0.22841880493E+03  0.00000000000E+00 0. -1.
         25    2    1    2    0    0 -0.15369437911E+03  0.87653486486E+02 -0.15537050242E+02  0.21723516172E+03  0.12507845415E+03 0.  0.
          5    1    3    3  502    0  0.16617163389E+01  0.30360403790E+02 -0.39340918970E+02  0.49896850851E+02  0.41800000000E+01 0. -1.
         -5    1    3    3    0  502 -0.15535609545E+03  0.57293082696E+02  0.23803868727E+02  0.16733831087E+03  0.41800000000E+01 0. -1.
        -11    1    1    2    0    0  0.12685312312E+03 -0.64657765979E+02  0.23525327927E+02  0.14431140842E+03  0.00000000000E+00 0.  1.
         11    1    1    2    0    0  0.26841255989E+02 -0.22995720507E+02 -0.45591709245E+02  0.57687608172E+02  0.00000000000E+00 0. -1.
</event>
<event>
 7    1  0.2679104E-009  0.8388167E+02  0.7561462E-02  0.1318383E+00
         -1   -1    0    0    0  501 -0.00000000000E+00  0.00000000000E+00  0.42281835746E+02  0.42281835746E+02  0.00000000000E+00 0.  1.
          1   -1    0    0  501    0  0.00000000000E+00 -0.00000000000E+00 -0.41224152263E+03  0.41224152263E+03  0.00000000000E+00 0. -1.
         25    2    1    2    0    0  0.16881488288E+02  0.40292406653E+02 -0.30834367550E+03  0.33560482836E+03  0.12508523461E+03 0.  0.
          5    1    3    3  502    0 -0.70788849672E+00 -0.13505103317E+02  0.65789249571E+01  0.15609086306E+02  0.41800000000E+01 0. -1.
         -5    1    3    3    0  502  0.17589376784E+02  0.53797509970E+02 -0.31492260046E+03  0.31999574206E+03  0.41800000000E+01 0. -1.
        -11    1    1    2    0    0  0.16800273555E+02 -0.56880236710E+02 -0.54818851443E+02  0.80763339413E+02  0.00000000000E+00 0.  1.
         11    1    1    2    0    0 -0.33681761843E+02  0.16587830057E+02 -0.67971599451E+01  0.38155190605E+02  0.00000000000E+00 0. -1.
</event>
<event>
 7    1  0.2679104E-009  0.8006557E+02  0.7561462E-02  0.1328865E+00
         -2   -1    0    0    0  501 -0.00000000000E+00  0.00000000000E+00  0.65073856155E+02  0.65073856155E+02  0.00000000000E+00 0. -1.
          2   -1    0    0  501    0  0.00000000000E+00 -0.00000000000E+00 -0.20425753421E+03  0.20425753421E+03  0.00000000000E+00 0.  1.
         25    2    1    2    0    0  0.64233507952E+01 -0.30247290200E+02 -0.58049351065E+02  0.14132581029E+03  0.12508836675E+03 0.  0.
          5    1    3    3  502    0  0.12164389261E+02  0.43867928558E+02  0.18726339786E+01  0.45753105688E+02  0.41800000000E+01 0. -1.
         -5    1    3    3    0  502 -0.57410384655E+01 -0.74115218758E+02 -0.59921985044E+02  0.95572704607E+02  0.41800000000E+01 0. -1.
        -11    1    1    2    0    0  0.97887301452E+01  0.13236457763E+02  0.19006268175E+02  0.25144806261E+02  0.00000000000E+00 0. -1.
         11    1    1    2    0    0 -0.16212080940E+02  0.17010832437E+02 -0.10014059516E+03  0.10286077381E+03  0.00000000000E+00 0.  1.
</event>
<event>
 7    1  0.2679104E-009  0.1231053E+03  0.7561462E-02  0.1238060E+00
         -1   -1    0    0    0  501 -0.00000000000E+00  0.00000000000E+00  0.28588650961E+03  0.28588650961E+03  0.00000000000E+00 0.  1.
          1   -1    0    0  501    0  0.00000000000E+00 -0.00000000000E+00 -0.12195988015E+03  0.12195988015E+03  0.00000000000E+00 0. -1.
         25    2    1    2    0    0  0.10596851950E+03 -0.30948994804E+02 -0.27198573101E+02  0.16903856573E+03  0.12508839642E+03 0.  0.
          5    1    3    3  502    0  0.31299634739E+02 -0.36127612567E+02  0.44401205608E+02  0.65374390888E+02  0.41800000000E+01 0. -1.
         -5    1    3    3    0  502  0.74668884763E+02  0.51786177623E+01 -0.71599778708E+02  0.10366417484E+03  0.41800000000E+01 0. -1.
        -11    1    1    2    0    0 -0.30211413491E+02 -0.15950530131E+02  0.78966079608E+01  0.35064302843E+02  0.00000000000E+00 0. -1.
         11    1    1    2    0    0 -0.75757106011E+02  0.46899524935E+02  0.18322859460E+03  0.20374352120E+03  0.00000000000E+00 0.  1.
</event>
<event>
 7    1  0.2679104E-009  0.8948448E+02  0.7561462E-02  0.1304105E+00
          1   -1    0    0  501    0  0.00000000000E+00  0.00000000000E+00  0.52913487903E+03  0.52913487903E+03  0.00000000000E+00 0. -1.
         -1   -1    0    0    0  501 -0.00000000000E+00 -0.00000000000E+00 -0.25498395310E+02  0.25498395310E+02  0.00000000000E+00 0.  1.
         25    2    1    2    0    0 -0.16842184288E+02 -0.22270515680E+02  0.22588485960E+03  0.25970862624E+03  0.12507983732E+03 0.  0.
          5    1    3    3  502    0 -0.10455385567E+02 -0.50131758917E+02  0.25699210541E+02  0.57449370422E+02  0.41800000000E+01 0. -1.
         -5    1    3    3    0  502 -0.63867987212E+01  0.27861243237E+02  0.20018564906E+03  0.20225925582E+03  0.41800000000E+01 0. -1.
        -11    1    1    2    0    0 -0.33396326256E+02 -0.14534996935E+02  0.11667062876E+03  0.12222363257E+03  0.00000000000E+00 0. -1.
         11    1    1    2    0    0  0.50238510544E+02  0.36805512616E+02  0.16108099535E+03  0.17270101553E+03  0.00000000000E+00 0.  1.
</event>
<event>
 7    1  0.2679104E-009  0.1627568E+03  0.7561462E-02  0.1185619E+00
         -2   -1    0    0    0  501 -0.00000000000E+00  0.00000000000E+00  0.83916442422E+02  0.83916442422E+02  0.00000000000E+00 0. -1.
          2   -1    0    0  501    0  0.00000000000E+00 -0.00000000000E+00 -0.41289012742E+03  0.41289012742E+03  0.00000000000E+00 0.  1.
         25    2    1    2    0    0  0.59697475432E+02 -0.13797912547E+03 -0.14723049949E+03  0.24479894765E+03  0.12509067572E+03 0.  0.
          5    1    3    3  502    0  0.55127683525E+02 -0.12543904550E+03 -0.16981174221E+03  0.21823729246E+03  0.41800000000E+01 0.  1.
         -5    1    3    3    0  502  0.45697919072E+01 -0.12540079973E+02  0.22581242720E+02  0.26561655193E+02  0.41800000000E+01 0.  1.
        -11    1    1    2    0    0 -0.56283915667E+02  0.25289911391E+02 -0.69008446643E+02  0.92572266306E+02  0.00000000000E+00 0.  1.
         11    1    1    2    0    0 -0.34135597654E+01  0.11268921408E+03 -0.11273473886E+03  0.15943535589E+03  0.00000000000E+00 0. -1.
</event>
<event>
 7    1  0.3932741E-009  0.1488161E+03  0.7561462E-02  0.1201935E+00
          2   -1    0    0  501    0  0.00000000000E+00  0.00000000000E+00  0.12226863153E+04  0.12226863153E+04  0.00000000000E+00 0. -1.
         -2   -1    0    0    0  501 -0.00000000000E+00 -0.00000000000E+00 -0.18513517414E+02  0.18513517414E+02  0.00000000000E+00 0.  1.
         25    2    1    2    0    0 -0.30856679993E+02  0.98924365008E+02  0.61651849530E+03  0.63755685123E+03  0.12508204830E+03 0.  0.
          5    1    3    3  502    0 -0.30575443886E+02  0.12847013070E+03  0.48309840448E+03  0.50084026702E+03  0.41800000000E+01 0. -1.
         -5    1    3    3    0  502 -0.28123610765E+00 -0.29545765695E+02  0.13342009082E+03  0.13671658421E+03  0.41800000000E+01 0. -1.
        -11    1    1    2    0    0  0.61399825495E+02 -0.74615721438E+02  0.36400865207E+03  0.37661617496E+03  0.00000000000E+00 0.  1.
         11    1    1    2    0    0 -0.30543145502E+02 -0.24308643570E+02  0.22364565049E+03  0.22702680651E+03  0.00000000000E+00 0. -1.
</event>
<event>
 7    1  0.2679104E-009  0.1786146E+03  0.7561462E-02  0.1169151E+00
          1   -1    0    0  501    0  0.00000000000E+00  0.00000000000E+00  0.12828841514E+04  0.12828841514E+04  0.00000000000E+00 0. -1.
         -1   -1    0    0    0  501 -0.00000000000E+00 -0.00000000000E+00 -0.34906955608E+02  0.34906955608E+02  0.00000000000E+00 0.  1.
         25    2    1    2    0    0  0.68515738883E+02  0.15747481817E+03  0.83136159333E+03  0.85807975722E+03  0.12508415588E+03 0.  0.
          5    1    3    3  502    0  0.14764550084E+02  0.17414916032E+02  0.41233805119E+03  0.41299081357E+03  0.41800000000E+01 0. -1.
         -5    1    3    3    0  502  0.53751188799E+02  0.14005990214E+03  0.41902354214E+03  0.44508894364E+03  0.41800000000E+01 0. -1.
        -11    1    1    2    0    0 -0.35022687770E+02 -0.15909763562E+02  0.16165351576E+03  0.16616729038E+03  0.00000000000E+00 0. -1.
         11    1    1    2    0    0 -0.33493051112E+02 -0.14156505461E+03  0.25496208673E+03  0.29354405943E+03  0.00000000000E+00 0.  1.
</event>
<event>
 7    1  0.2679104E-009  0.1030642E+03  0.7561462E-02  0.1273981E+00
          1   -1    0    0  501    0  0.00000000000E+00  0.00000000000E+00  0.10351055272E+03  0.10351055272E+03  0.00000000000E+00 0. -1.
         -1   -1    0    0    0  501 -0.00000000000E+00 -0.00000000000E+00 -0.18225085263E+03  0.18225085263E+03  0.00000000000E+00 0.  1.
         25    2    1    2    0    0  0.72373179141E+02 -0.42582306350E+02 -0.38760906857E+02  0.15556593804E+03  0.12508886164E+03 0.  0.
          5    1    3    3  502    0  0.77451752563E+02 -0.16742999280E+00 -0.68391202130E+02  0.10341001372E+03  0.41800000000E+01 0. -1.
         -5    1    3    3    0  502 -0.50785734220E+01 -0.42414876357E+02  0.29630295272E+02  0.52155924326E+02  0.41800000000E+01 0. -1.
        -11    1    1    2    0    0 -0.50812410502E+02  0.38373161991E+02 -0.68939668011E+02  0.93846035866E+02  0.00000000000E+00 0.  1.
         11    1    1    2    0    0 -0.21560768639E+02  0.42091443588E+01  0.28960274961E+02  0.36349431445E+02  0.00000000000E+00 0. -1.
</event>
<event>
 7    1  0.2679104E-009  0.1059183E+03  0.7561462E-02  0.1268321E+00
          1   -1    0    0  501    0  0.00000000000E+00  0.00000000000E+00  0.80667907150E+03  0.80667907150E+03  0.00000000000E+00 0. -1.
         -1   -1    0    0    0  501 -0.00000000000E+00 -0.00000000000E+00 -0.16153229119E+02  0.16153229119E+02  0.00000000000E+00 0.  1.
         25    2    1    2    0    0 -0.51754420917E+01 -0.33990699653E+02  0.51289898545E+03  0.52905204766E+03  0.12509415255E+03 0.  0.
          5    1    3    3  502    0 -0.78675159101E+01  0.40467020890E+02  0.83487102600E+02  0.93204325473E+02  0.41800000000E+01 0. -1.
         -5    1    3    3    0  502  0.26920738184E+01 -0.74457720542E+02  0.42941188285E+03  0.43584772219E+03  0.41800000000E+01 0. -1.
        -11    1    1    2    0    0  0.22576832008E+02  0.60212785758E+02  0.19695195583E+03  0.20718437639E+03  0.00000000000E+00 0.  1.
         11    1    1    2    0    0 -0.17401389916E+02 -0.26222086105E+02  0.80674901101E+02  0.86595876567E+02  0.00000000000E+00 0. -1.
</event>
<event>
 7    1  0.2679104E-009  0.3803900E+03  0.7561462E-02  0.1050790E+00
         -2   -1    0    0    0  501 -0.00000000000E+00  0.00000000000E+00  0.24456659295E+03  0.24456659295E+03  0.00000000000E+00 0.  1.
          2   -1    0    0  501    0  0.00000000000E+00 -0.00000000000E+00 -0.11929591525E+04  0.11929591525E+04  0.00000000000E+00 0. -1.
         25    2    1    2    0    0  0.91632920389E+02 -0.35971560180E+03 -0.97871305452E+03  0.10541915833E+04  0.12509494401E+03 0.  0.
          5    1    3    3  502    0  0.10298725382E+03 -0.27087690177E+03 -0.84394843754E+03  0.89232679439E+03  0.41800000000E+01 0. -1.
         -5    1    3    3    0  502 -0.11354333429E+02 -0.88838700039E+02 -0.13476461698E+03  0.16186478895E+03  0.41800000000E+01 0. -1.
        -11    1    1    2    0    0 -0.58391865175E+02  0.33454121683E+03  0.19015383712E+02  0.34013088730E+03  0.00000000000E+00 0.  1.
         11    1    1    2    0    0 -0.33241055214E+02  0.25174384974E+02  0.11305111287E+02  0.43203274780E+02  0.00000000000E+00 0. -1.
</event>
<event>
 7    1  0.2679104E-009  0.1217134E+03  0.7561462E-02  0.1240297E+00
          1   -1    0    0  501    0  0.00000000000E+00  0.00000000000E+00  0.72372978382E+02  0.72372978382E+02  0.00000000000E+00 0. -1.
         -1   -1    0    0    0  501 -0.00000000000E+00 -0.00000000000E+00 -0.28804696143E+03  0.28804696143E+03  0.00000000000E+00 0.  1.
         25    2    1    2    0    0 -0.87588285990E+02 -0.29580083658E+02 -0.87582434083E+02  0.17850557922E+03  0.12508744886E+03 0.  0.
          5    1    3    3  502    0 -0.10802504709E+03  0.75622112783E+01 -0.42294474104E+02  0.11633096225E+03  0.41800000000E+01 0. -1.
         -5    1    3    3    0  502  0.20436761097E+02 -0.37142294936E+02 -0.45287959979E+02  0.62174616978E+02  0.41800000000E+01 0. -1.
        -11    1    1    2    0    0  0.40208333709E+02  0.14267017970E+02 -0.12493766613E+03  0.13202150704E+03  0.00000000000E+00 0.  1.
         11    1    1    2    0    0  0.47379952281E+02  0.15313065687E+02 -0.31538828347E+01  0.49892853554E+02  0.00000000000E+00 0. -1.
</event>
<event>
 7    1  0.2679104E-009  0.1434741E+03  0.7561462E-02  0.1208729E+00
          2   -1    0    0  501    0  0.00000000000E+00  0.00000000000E+00  0.14905024098E+04  0.14905024098E+04  0.00000000000E+00 0.  1.
         -2   -1    0    0    0  501 -0.00000000000E+00 -0.00000000000E+00 -0.16131141953E+02  0.16131141953E+02  0.00000000000E+00 0. -1.
         25    2    1    2    0    0  0.92331881683E+02 -0.59543385583E+02  0.77584761985E+03  0.79350986824E+03  0.12509112924E+03 0.  0.
          5    1    3    3  502    0 -0.19055805763E+02 -0.70407002698E+01  0.24381923628E+02  0.32010088931E+02  0.41800000000E+01 0. -1.
         -5    1    3    3    0  502  0.11138768745E+03 -0.52502685313E+02  0.75146569622E+03  0.76149977931E+03  0.41800000000E+01 0. -1.
        -11    1    1    2    0    0 -0.28193923601E+01  0.53182675807E+02  0.23025110083E+03  0.23633009841E+03  0.00000000000E+00 0. -1.
         11    1    1    2    0    0 -0.89512489323E+02  0.63607097758E+01  0.46827254713E+03  0.47679358507E+03  0.00000000000E+00 0.  1.
</event>
<event>
 7    1  0.2679104E-009  0.1921844E+03  0.7561462E-02  0.1156506E+00
         -2   -1    0    0    0  501 -0.00000000000E+00  0.00000000000E+00  0.95728325091E+02  0.95728325091E+02  0.00000000000E+00 0. -1.
          2   -1    0    0  501    0  0.00000000000E+00 -0.00000000000E+00 -0.48640766380E+03  0.48640766380E+03  0.00000000000E+00 0.  1.
         25    2    1    2    0    0  0.14449360971E+03 -0.10960951463E+03 -0.25772054480E+03  0.33906209306E+03  0.12510225734E+03 0.  0.
          5    1    3    3  502    0  0.10532902391E+03 -0.36409954161E+02 -0.22230115171E+03  0.24870698119E+03  0.41800000000E+01 0. -1.
         -5    1    3    3    0  502  0.39164585801E+02 -0.73199560471E+02 -0.35419393090E+02  0.90355111869E+02  0.41800000000E+01 0. -1.
        -11    1    1    2    0    0 -0.54007429124E+02  0.75916053234E+02 -0.21513061013E+02  0.95618310659E+02  0.00000000000E+00 0.  1.
         11    1    1    2    0    0 -0.90486180588E+02  0.33693461397E+02 -0.11144573289E+03  0.14745558517E+03  0.00000000000E+00 0. -1.
</event>
<event>
 7    1  0.2679104E-009  0.1783215E+03  0.7561462E-02  0.1169437E+00
         -2   -1    0    0    0  501 -0.00000000000E+00  0.00000000000E+00  0.11358086263E+03  0.11358086263E+03  0.00000000000E+00 0.  1.
          2   -1    0    0  501    0  0.00000000000E+00 -0.00000000000E+00 -0.44176369458E+03  0.44176369458E+03  0.00000000000E+00 0. -1.
         25    2    1    2    0    0  0.15166431086E+03  0.37726679026E+02 -0.31812767316E+03  0.37587254377E+03  0.12509831026E+03 0.  0.
          5    1    3    3  502    0  0.94498339321E+02 -0.40732670593E+02 -0.16028627730E+03  0.19052099537E+03  0.41800000000E+01 0. -1.
         -5    1    3    3    0  502  0.57165971535E+02  0.78459349619E+02 -0.15784139586E+03  0.18535154840E+03  0.41800000000E+01 0. -1.
        -11    1    1    2    0    0 -0.46312426265E+02 -0.77634102723E+01  0.37469906128E+02  0.60075829006E+02  0.00000000000E+00 0.  1.
         11    1    1    2    0    0 -0.10535188459E+03 -0.29963268754E+02 -0.47525064924E+02  0.11939618443E+03  0.00000000000E+00 0. -1.
</event>
<event>
 7    1  0.2679104E-009  0.8776799E+02  0.7561462E-02  0.1308349E+00
          1   -1    0    0  501    0  0.00000000000E+00  0.00000000000E+00  0.63028656252E+03  0.63028656252E+03  0.00000000000E+00 0. -1.
         -1   -1    0    0    0  501 -0.00000000000E+00 -0.00000000000E+00 -0.21586591361E+02  0.21586591361E+02  0.00000000000E+00 0.  1.
         25    2    1    2    0    0 -0.11339259469E+01  0.29641682833E+02  0.43906709957E+03  0.45750173958E+03  0.12509200072E+03 0.  0.
          5    1    3    3  502    0  0.38654735117E+02  0.28244708018E+02  0.62633049854E+02  0.78945065786E+02  0.41800000000E+01 0.  1.
         -5    1    3    3    0  502 -0.39788661064E+02  0.13969748157E+01  0.37643404972E+03  0.37855667380E+03  0.41800000000E+01 0.  1.
        -11    1    1    2    0    0  0.22284829879E+02 -0.52058339420E+02  0.69756544921E+02  0.89847982199E+02  0.00000000000E+00 0.  1.
         11    1    1    2    0    0 -0.21150903932E+02  0.22416656587E+02  0.99876326662E+02  0.10452343210E+03  0.00000000000E+00 0. -1.
</event>
<event>
 7    1  0.2679104E-009  0.1296638E+03  0.7561462E-02  0.1227955E+00
         -1   -1    0    0    0  501 -0.00000000000E+00  0.00000000000E+00  0.13791689322E+02  0.13791689322E+02  0.00000000000E+00 0.  1.
          1   -1    0    0  501    0  0.00000000000E+00 -0.00000000000E+00 -0.16636990257E+04  0.16636990257E+04  0.00000000000E+00 0. -1.
         25    2    1    2    0    0  0.48323348735E+02  0.79601041177E+02 -0.11473888570E+04  0.11579395937E+04  0.12510572275E+03 0.  0.
          5    1    3    3  502    0 -0.28457201852E+02  0.11503927113E+02 -0.82763305238E+02  0.88370751780E+02  0.41800000000E+01 0. -1.
         -5    1    3    3    0  502  0.76780550587E+02  0.68097114065E+02 -0.10646255517E+04  0.10695688420E+04  0.41800000000E+01 0. -1.
        -11    1    1    2    0    0 -0.22190577703E+02 -0.93458880860E+02 -0.44033924490E+03  0.45069461362E+03  0.00000000000E+00 0. -1.
         11    1    1    2    0    0 -0.26132771032E+02  0.13857839683E+02 -0.62179234491E+02  0.68856507640E+02  0.00000000000E+00 0.  1.
</event>
<event>
 7    1  0.2679104E-009  0.7836815E+02  0.7561462E-02  0.1333747E+00
         -3   -1    0    0    0  501 -0.00000000000E+00  0.00000000000E+00  0.15282008303E+03  0.15282008303E+03  0.00000000000E+00 0.  1.
          3   -1    0    0  501    0  0.00000000000E+00 -0.00000000000E+00 -0.77493817227E+02  0.77493817227E+02  0.00000000000E+00 0. -1.
         25    2    1    2    0    0 -0.87076535612E+00 -0.47616872733E+01  0.33609325257E+02  0.12961522447E+03  0.12508831989E+03 0.  0.
          5    1    3    3  502    0  0.43115812062E+02 -0.46971334216E+02  0.20647294989E+02  0.67149554564E+02  0.41800000000E+01 0. -1.
         -5    1    3    3    0  502 -0.43986577418E+02  0.42209646943E+02  0.12962030268E+02  0.62465669905E+02  0.41800000000E+01 0. -1.
        -11    1    1    2    0    0  0.15633980708E+02  0.63729236949E+01 -0.26204691387E+02  0.31172445524E+02  0.00000000000E+00 0. -1.
         11    1    1    2    0    0 -0.14763215352E+02 -0.16112364216E+01  0.67921631931E+02  0.69526230262E+02  0.00000000000E+00 0.  1.
</event>
<event>
 7    1  0.2679104E-009  0.1614600E+03  0.7561462E-02  0.1187058E+00
          2   -1    0    0  501    0  0.00000000000E+00  0.00000000000E+00  0.54244933612E+03  0.54244933612E+03  0.00000000000E+00 0. -1.
         -2   -1    0    0    0  501 -0.00000000000E+00 -0.00000000000E+00 -0.56338092588E+02  0.56338092588E+02  0.00000000000E+00 0.  1.
         25    2    1    2    0    0  0.53629649057E+02 -0.12095067670E+03  0.31296952321E+03  0.36208131949E+03  0.12509098294E+03 0.  0.
          5    1    3    3  502    0  0.74675506731E+02 -0.50333818994E+02  0.24755637038E+03  0.26346072488E+03  0.41800000000E+01 0. -1.
         -5    1    3    3    0  502 -0.21045857674E+02 -0.70616857709E+02  0.65413152836E+02  0.98620594614E+02  0.41800000000E+01 0. -1.
        -11    1    1    2    0    0 -0.45125149458E+02  0.81656302256E+01  0.32402408285E+02  0.56150446955E+02  0.00000000000E+00 0.  1.
         11    1    1    2    0    0 -0.85044995986E+01  0.11278504648E+03  0.14073931204E+03  0.18055566226E+03  0.00000000000E+00 0. -1.
</event>
<event>
 7    1  0.2679104E-009  0.5880655E+02  0.7561462E-02  0.1402909E+00
          1   -1    0    0  501    0  0.00000000000E+00  0.00000000000E+00  0.18153616964E+03  0.18153616964E+03  0.00000000000E+00 0. -1.
         -1   -1    0    0    0  501 -0.00000000000E+00 -0.00000000000E+00 -0.70709712016E+02  0.70709712016E+02  0.00000000000E+00 0.  1.
         25    2    1    2    0    0 -0.80037064914E+01 -0.20581214103E+02  0.86537833542E+02  0.15369829932E+03  0.12508686937E+03 0.  0.
          5    1    3    3  502    0 -0.41484346500E+01 -0.26157018497E+02 -0.28068034674E+02  0.38816054632E+02  0.41800000000E+01 0. -1.
         -5    1    3    3    0  502 -0.38552718413E+01  0.55758043948E+01  0.11460586822E+03  0.11488224469E+03  0.41800000000E+01 0. -1.
        -11    1    1    2    0    0 -0.29767315918E+02 -0.12825308659E+02  0.34242259582E+02  0.47149909655E+02  0.00000000000E+00 0. -1.
         11    1    1    2    0    0  0.37771022409E+02  0.33406522761E+02 -0.99536355032E+01  0.51397672677E+02  0.00000000000E+00 0.  1.
</event>
<event>
 7    1  0.2679104E-009  0.1234817E+03  0.7561462E-02  0.1237461E+00
         -1   -1    0    0    0  501 -0.00000000000E+00  0.00000000000E+00  0.59875813564E+02  0.59875813564E+02  0.00000000000E+00 0.  1.
          1   -1    0    0  501    0  0.00000000000E+00 -0.00000000000E+00 -0.31535189299E+03  0.31535189299E+03  0.00000000000E+00 0. -1.
         25    2    1    2    0    0  0.48999629310E+02 -0.56968923068E+02 -0.19996084154E+03  0.24754457675E+03  0.12509019729E+03 0.  0.
          5    1    3    3  502    0 -0.21559140588E+02 -0.68126972071E+02 -0.75916679612E+02  0.10434028709E+03  0.41800000000E+01 0. -1.
         -5    1    3    3    0  502  0.70558769899E+02  0.11158049002E+02 -0.12404416193E+03  0.14320428966E+03  0.41800000000E+01 0. -1.
        -11    1    1    2    0    0 -0.32496682992E+02 -0.10670006506E+02 -0.46134984211E+02  0.57431003931E+02  0.00000000000E+00 0. -1.
         11    1    1    2    0    0 -0.16502946318E+02  0.67638929574E+02 -0.93802536705E+01  0.70252125876E+02  0.00000000000E+00 0.  1.
</event>
<event>
 7    1  0.2977761E-009  0.1058360E+03  0.7561462E-02  0.1268481E+00
          3   -1    0    0  501    0  0.00000000000E+00  0.00000000000E+00  0.61084911786E+03  0.61084911786E+03  0.00000000000E+00 0. -1.
         -3   -1    0    0    0  501 -0.00000000000E+00 -0.00000000000E+00 -0.29188298054E+02  0.29188298054E+02  0.00000000000E+00 0.  1.
         25    2    1    2    0    0  0.22030361558E+02  0.73151398941E+02  0.28729045966E+03  0.32252199124E+03  0.12509261618E+03 0.  0.
          5    1    3    3  502    0  0.61495677528E+02  0.30256623516E+02  0.72209775406E+02  0.99643894371E+02  0.41800000000E+01 0.  1.
         -5    1    3    3    0  502 -0.39465315970E+02  0.42894775425E+02  0.21508068425E+03  0.22287809686E+03  0.41800000000E+01 0.  1.
        -11    1    1    2    0    0  0.32415805000E+00 -0.56979237951E+02  0.28124959018E+03  0.28696353533E+03  0.00000000000E+00 0. -1.
         11    1    1    2    0    0 -0.22354519608E+02 -0.16172160990E+02  0.13120769971E+02  0.30551889346E+02  0.00000000000E+00 0.  1.
</event>
<event>
 7    1  0.2679104E-009  0.1597063E+03  0.7561462E-02  0.1189029E+00
         -2   -1    0    0    0  501 -0.00000000000E+00  0.00000000000E+00  0.36491752692E+02  0.36491752692E+02  0.00000000000E+00 0. -1.
          2   -1    0    0  501    0  0.00000000000E+00 -0.00000000000E+00 -0.89174116286E+03  0.89174116286E+03  0.00000000000E+00 0.  1.
         25    2    1    2    0    0  0.10702881087E+03  0.67724710393E+02 -0.27570489596E+03  0.32817732732E+03  0.12508143651E+03 0.  0.
          5    1    3    3  502    0  0.10083876634E+03 -0.41638288339E+01 -0.12246358676E+03  0.15874695824E+03  0.41800000000E+01 0. -1.
         -5    1    3    3    0  502  0.61900445257E+01  0.71888539227E+02 -0.15324130920E+03  0.16943036908E+03  0.41800000000E+01 0. -1.
        -11    1    1    2    0    0 -0.65725261398E+02 -0.79524722852E+02 -0.48996460848E+03  0.50070880668E+03  0.00000000000E+00 0.  1.
         11    1    1    2    0    0 -0.41303549467E+02  0.11800012460E+02 -0.89579905735E+02  0.99346781549E+02  0.00000000000E+00 0. -1.
</event>
<event>
 7    1  0.2679104E-009  0.1086061E+03  0.7561462E-02  0.1263173E+00
          1   -1    0    0  501    0  0.00000000000E+00  0.00000000000E+00  0.57150638635E+03  0.57150638635E+03  0.00000000000E+00 0. -1.
         -1   -1    0    0    0  501 -0.00000000000E+00 -0.00000000000E+00 -0.28742609617E+02  0.28742609617E+02  0.00000000000E+00 0.  1.
         25    2    1    2    0    0  0.61105305976E+01 -0.58721432946E+02  0.22287511216E+03  0.26230884976E+03  0.12508825593E+03 0.  0.
          5    1    3    3  502    0 -0.19363830437E+02 -0.91069709695E+02  0.12398488643E+03  0.15510762204E+03  0.41800000000E+01 0. -1.
         -5    1    3    3    0  502  0.25474361035E+02  0.32348276749E+02  0.98890225728E+02  0.10720122771E+03  0.41800000000E+01 0. -1.
        -11    1    1    2    0    0 -0.10499827800E+02  0.69864994420E+02  0.31807500771E+03  0.32582675513E+03  0.00000000000E+00 0. -1.
         11    1    1    2    0    0  0.43892972026E+01 -0.11143561474E+02  0.18136568672E+01  0.12113391081E+02  0.00000000000E+00 0.  1.
</event>
<event>
 7    1  0.2679104E-009  0.1619297E+03  0.7561462E-02  0.1186535E+00
          1   -1    0    0  501    0  0.00000000000E+00  0.00000000000E+00  0.37298790352E+03  0.37298790352E+03  0.00000000000E+00 0. -1.
         -1   -1    0    0    0  501 -0.00000000000E+00 -0.00000000000E+00 -0.11340903503E+03  0.11340903503E+03  0.00000000000E+00 0.  1.
         25    2    1    2    0    0  0.14700066637E+03 -0.30403954992E+01  0.24005151529E+02  0.19452948351E+03  0.12508809990E+03 0.  0.
          5    1    3    3  502    0  0.92031967386E+02  0.29306190131E+02  0.66888709823E+02  0.11755980479E+03  0.41800000000E+01 0. -1.
         -5    1    3    3    0  502  0.54968698985E+02 -0.32346585630E+02 -0.42883558294E+02  0.76969678718E+02  0.41800000000E+01 0. -1.
        -11    1    1    2    0    0 -0.16627568419E+02  0.26025108646E+02  0.89753676725E+02  0.94918411265E+02  0.00000000000E+00 0. -1.
         11    1    1    2    0    0 -0.13037309795E+03 -0.22984713147E+02  0.14582004024E+03  0.19694904378E+03  0.00000000000E+00 0.  1.
</event>
<event>
 7    1  0.2679104E-009  0.9821576E+02  0.7561462E-02  0.1284093E+00
          1   -1    0    0  501    0  0.00000000000E+00  0.00000000000E+00  0.44168764036E+03  0.44168764036E+03  0.00000000000E+00 0. -1.
         -1   -1    0    0    0  501 -0.00000000000E+00 -0.00000000000E+00 -0.30530746891E+02  0.30530746891E+02  0.00000000000E+00 0.  1.
         25    2    1    2    0    0 -0.10310440274E+02  0.26038543493E+02  0.16979008786E+03  0.21274477496E+03  0.12508938569E+03 0.  0.
          5    1    3    3  502    0  0.13138210908E+02 -0.45164185653E+02  0.98386404927E+02  0.10913190792E+03  0.41800000000E+01 0. -1.
         -5    1    3    3    0  502 -0.23448651183E+02  0.71202729146E+02  0.71403682932E+02  0.10361286704E+03  0.41800000000E+01 0. -1.
        -11    1    1    2    0    0 -0.25460207228E+02 -0.28570562074E+02  0.41644965031E+02  0.56557955071E+02  0.00000000000E+00 0.  1.
         11    1    1    2    0    0  0.35770647503E+02  0.25320185817E+01  0.19972184058E+03  0.20291565722E+03  0.00000000000E+00 0. -1.
</event>
<event>
 7    1  0.2679104E-009  0.1440011E+03  0.7561462E-02  0.1208044E+00
          1   -1    0    0  501    0  0.00000000000E+00  0.00000000000E+00  0.61523446939E+03  0.61523446939E+03  0.00000000000E+00 0. -1.
         -1   -1    0    0    0  501 -0.00000000000E+00 -0.00000000000E+00 -0.44364623974E+02  0.44364623974E+02  0.00000000000E+00 0.  1.
         25    2    1    2    0    0  0.96399441600E+02  0.92870295798E+01  0.14854349790E+03  0.21700560965E+03  0.12508861895E+03 0.  0.
          5    1    3    3  502    0  0.10261334257E+03 -0.37371003359E+02  0.88689698230E+02  0.14074595886E+03  0.41800000000E+01 0.  1.
         -5    1    3    3    0  502 -0.62139009663E+01  0.46658032938E+02  0.59853799666E+02  0.76259650782E+02  0.41800000000E+01 0.  1.
        -11    1    1    2    0    0 -0.10736736731E+02  0.33876723446E+02  0.13894357091E+03  0.14341626757E+03  0.00000000000E+00 0. -1.
         11    1    1    2    0    0 -0.85662704869E+02 -0.43163753026E+02  0.28338277661E+03  0.29917721615E+03  0.00000000000E+00 0.  1.
</event>
<event>
 7    1  0.2679104E-009  0.1865547E+03  0.7561462E-02  0.1161606E+00
         -4   -1    0    0    0  501 -0.00000000000E+00  0.00000000000E+00  0.65149619430E+02  0.65149619430E+02  0.00000000000E+00 0.  1.
          4   -1    0    0  501    0  0.00000000000E+00 -0.00000000000E+00 -0.58443524648E+03  0.58443524648E+03  0.00000000000E+00 0. -1.
         25    2    1    2    0    0 -0.10739761713E+03 -0.11959922323E+03 -0.31812806589E+03  0.37774607447E+03  0.12509359741E+03 0.  0.
          5    1    3    3  502    0 -0.10041894600E+02  0.20558165270E+02 -0.89188022156E+02  0.92170784431E+02  0.41800000000E+01 0. -1.
         -5    1    3    3    0  502 -0.97355722532E+02 -0.14015738850E+03 -0.22894004373E+03  0.28557529004E+03  0.41800000000E+01 0. -1.
        -11    1    1    2    0    0 -0.20617178296E+01  0.48675964430E+02 -0.32215186987E+02  0.58407349419E+02  0.00000000000E+00 0.  1.
         11    1    1    2    0    0  0.10945933496E+03  0.70923258796E+02 -0.16894237417E+03  0.21343144201E+03  0.00000000000E+00 0. -1.
</event>
<event>
 7    1  0.2679104E-009  0.9836862E+02  0.7561462E-02  0.1283764E+00
         -2   -1    0    0    0  501 -0.00000000000E+00  0.00000000000E+00  0.12089648342E+03  0.12089648342E+03  0.00000000000E+00 0.  1.
          2   -1    0    0  501    0  0.00000000000E+00 -0.00000000000E+00 -0.11167704285E+03  0.11167704285E+03  0.00000000000E+00 0. -1.
         25    2    1    2    0    0 -0.26179127121E+01 -0.45703371342E+02 -0.26356322537E+01  0.13323080167E+03  0.12509135997E+03 0.  0.
          5    1    3    3  502    0  0.79804359026E+01  0.36748067373E+02  0.25205473766E+02  0.45463129243E+02  0.41800000000E+01 0. -1.
         -5    1    3    3    0  502 -0.10598348615E+02 -0.82451438715E+02 -0.27841106020E+02  0.87767672431E+02  0.41800000000E+01 0. -1.
        -11    1    1    2    0    0 -0.83747695828E+01  0.58328139168E+02  0.36673535232E+02  0.69406460584E+02  0.00000000000E+00 0.  1.
         11    1    1    2    0    0  0.10992682295E+02 -0.12624767825E+02 -0.24818462403E+02  0.29936264007E+02  0.00000000000E+00 0. -1.
</event>
<event>
 7    1  0.2679104E-009  0.1029111E+03  0.7561462E-02  0.1274291E+00
         -1   -1    0    0    0  501 -0.00000000000E+00  0.00000000000E+00  0.11376763611E+03  0.11376763611E+03  0.00000000000E+00 0.  1.
          1   -1    0    0  501    0  0.00000000000E+00 -0.00000000000E+00 -0.21311852648E+03  0.21311852648E+03  0.00000000000E+00 0. -1.
         25    2    1    2    0    0 -0.24163732744E+02 -0.79622789779E+02 -0.13033929142E+03  0.19889310481E+03  0.12508581703E+03 0.  0.
          5    1    3    3  502    0 -0.45485125776E+02 -0.27223667025E+02  0.37425264493E+01  0.53305755950E+02  0.41800000000E+01 0. -1.
         -5    1    3    3    0  502  0.21321393032E+02 -0.52399122754E+02 -0.13408181787E+03  0.14558734886E+03  0.41800000000E+01 0. -1.
        -11    1    1    2    0    0  0.66428937673E+01  0.78049391177E+02  0.56799389894E+02  0.96757460658E+02  0.00000000000E+00 0.  1.
         11    1    1    2    0    0  0.17520838977E+02  0.15733986015E+01 -0.25810988847E+02  0.31235597111E+02  0.00000000000E+00 0. -1.
</event>
<event>
 7    1  0.2679104E-009  0.1023079E+03  0.7561462E-02  0.1275516E+00
          2   -1    0    0  501    0  0.00000000000E+00  0.00000000000E+00  0.23759698992E+03  0.23759698992E+03  0.00000000000E+00 0. -1.
         -2   -1    0    0    0  501 -0.00000000000E+00 -0.00000000000E+00 -0.69370268902E+02  0.69370268902E+02  0.00000000000E+00 0.  1.
         25    2    1    2    0    0 -0.42811409042E+02  0.20334549641E+02  0.15019098254E+03  0.20112436310E+03  0.12508943818E+03 0.  0.
          5    1    3    3  502    0  0.14282590435E+01  0.56965343179E+02  0.12659076852E+03  0.13888767160E+03  0.41800000000E+01 0.  1.
         -5    1    3    3    0  502 -0.44239668085E+02 -0.36630793538E+02  0.23600214014E+02  0.62236691501E+02  0.41800000000E+01 0.  1.
        -11    1    1    2    0    0 -0.71239884730E+01 -0.36666824002E+02 -0.18663922372E+02  0.41755828246E+02  0.00000000000E+00 0.  1.
         11    1    1    2    0    0  0.49935397515E+02  0.16332274362E+02  0.36699660856E+02  0.64087067476E+02  0.00000000000E+00 0. -1.
</event>
<event>
 7    1  0.2679104E-009  0.1425485E+03  0.7561462E-02  0.1209940E+00
         -2   -1    0    0    0  501 -0.00000000000E+00  0.00000000000E+00  0.22684535955E+03  0.22684535955E+03  0.00000000000E+00 0.  1.
          2   -1    0    0  501    0  0.00000000000E+00 -0.00000000000E+00 -0.11053494188E+03  0.11053494188E+03  0.00000000000E+00 0. -1.
         25    2    1    2    0    0 -0.81382531326E+02  0.69201407797E+02  0.10954909954E+03  0.19763839390E+03  0.12509187939E+03 0.  0.
          5    1    3    3  502    0 -0.88920010649E+02  0.38502631657E+00  0.87603689268E+02  0.12489513727E+03  0.41800000000E+01 0. -1.
         -5    1    3    3    0  502  0.75374793230E+01  0.68816381480E+02  0.21945410272E+02  0.72743256640E+02  0.41800000000E+01 0. -1.
        -11    1    1    2    0    0  0.13093628534E+02 -0.55564961195E+02 -0.26064725667E+02  0.62755700498E+02  0.00000000000E+00 0.  1.
         11    1    1    2    0    0  0.68288902792E+02 -0.13636446601E+02  0.32826043793E+02  0.76986207022E+02  0.00000000000E+00 0. -1.
</event>
<event>
 7    1  0.2679104E-009  0.1122807E+03  0.7561462E-02  0.1256404E+00
         -1   -1    0    0    0  501 -0.00000000000E+00  0.00000000000E+00  0.72390109692E+02  0.72390109692E+02  0.00000000000E+00 0.  1.
          1   -1    0    0  501    0  0.00000000000E+00 -0.00000000000E+00 -0.21980727629E+03  0.21980727629E+03  0.00000000000E+00 0. -1.
         25    2    1    2    0    0  0.62242647369E+01  0.57835685733E+02 -0.51181882314E+02  0.14714760431E+03  0.12509646022E+03 0.  0.
          5    1    3    3  502    0  0.37576945570E+01 -0.36699185851E+02  0.43829154243E+01  0.37384928222E+02  0.41800000000E+01 0.  1.
         -5    1    3    3    0  502  0.24665701798E+01  0.94534871584E+02 -0.55564797739E+02  0.10976267609E+03  0.41800000000E+01 0.  1.
        -11    1    1    2    0    0 -0.21599658576E+02  0.95794648775E+01 -0.65027249766E+02  0.69187098581E+02  0.00000000000E+00 0. -1.
         11    1    1    2    0    0  0.15375393839E+02 -0.67415150610E+02 -0.31208034515E+02  0.75862683091E+02  0.00000000000E+00 0.  1.
</event>
<event>
 7    1  0.2679104E-009  0.1873484E+03  0.7561462E-02  0.1160875E+00
         -2   -1    0    0    0  501 -0.00000000000E+00  0.00000000000E+00  0.57918601757E+02  0.57918601757E+02  0.00000000000E+00 0.  1.
          2   -1    0    0  501    0  0.00000000000E+00 -0.00000000000E+00 -0.72972790427E+03  0.72972790427E+03  0.00000000000E+00 0. -1.
         25    2    1    2    0    0 -0.13873050624E+03 -0.10682459122E+03 -0.36342014615E+03  0.42235006230E+03  0.12509087034E+03 0.  0.
          5    1    3    3  502    0 -0.39802998489E+02 -0.54102141240E+02 -0.36156097367E+02  0.76394084538E+02  0.41800000000E+01 0.  1.
         -5    1    3    3    0  502 -0.98927507753E+02 -0.52722449984E+02 -0.32726404879E+03  0.34595597776E+03  0.41800000000E+01 0.  1.
        -11    1    1    2    0    0 -0.76050030199E+01  0.27986997334E+02 -0.56446650697E+02  0.63461267445E+02  0.00000000000E+00 0. -1.
         11    1    1    2    0    0  0.14633550926E+03  0.78837593890E+02 -0.25194250566E+03  0.30183517628E+03  0.00000000000E+00 0.  1.
</event>
<event>
 7    1  0.2679104E-009  0.6268626E+02  0.7561462E-02  0.1386892E+00
          1   -1    0    0  501    0  0.00000000000E+00  0.00000000000E+00  0.47353209919E+02  0.47353209919E+02  0.00000000000E+00 0. -1.
         -1   -1    0    0    0  501 -0.00000000000E+00 -0.00000000000E+00 -0.43001870378E+03  0.43001870378E+03  0.00000000000E+00 0.  1.
         25    2    1    2    0    0 -0.48931416215E+02 -0.18443990862E+02 -0.82016430149E+02  0.15845771073E+03  0.12509071502E+03 0.  0.
          5    1    3    3  502    0 -0.36147811039E+02 -0.15479252832E+02  0.27443919702E+02  0.48134318732E+02  0.41800000000E+01 0. -1.
         -5    1    3    3    0  502 -0.12783605177E+02 -0.29647380300E+01 -0.10946034985E+03  0.11032339200E+03  0.41800000000E+01 0. -1.
        -11    1    1    2    0    0 -0.96300904921E+01  0.81086587350E+01 -0.15256318109E+00  0.12590165404E+02  0.00000000000E+00 0. -1.
         11    1    1    2    0    0  0.58561506707E+02  0.10335332127E+02 -0.30049650054E+03  0.30632403757E+03  0.00000000000E+00 0.  1.
</event>
<event>
 7    1  0.2679104E-009  0.1519659E+03  0.7561462E-02  0.1198078E+00
         -2   -1    0    0    0  501 -0.00000000000E+00  0.00000000000E+00  0.50064826244E+02  0.50064826244E+02  0.00000000000E+00 0. -1.
          2   -1    0    0  501    0  0.00000000000E+00 -0.00000000000E+00 -0.63247209219E+03  0.63247209219E+03  0.00000000000E+00 0.  1.
         25    2    1    2    0    0 -0.12927055435E+02  0.13540555452E+03 -0.39636384012E+03  0.43732540008E+03  0.12508972318E+03 0.  0.
          5    1    3    3  502    0 -0.13531390487E+02 -0.12179444382E+02 -0.54492776007E+01  0.19457759900E+02  0.41800000000E+01 0.  1.
         -5    1    3    3    0  502  0.60433505229E+00  0.14758499890E+03 -0.39091456252E+03  0.41786764018E+03  0.41800000000E+01 0.  1.
        -11    1    1    2    0    0 -0.32742319911E+01 -0.74860615461E+02 -0.16125109864E+03  0.17781099279E+03  0.00000000000E+00 0.  1.
         11    1    1    2    0    0  0.16201287426E+02 -0.60544939057E+02 -0.24792327186E+02  0.67400525569E+02  0.00000000000E+00 0. -1.
</event>
<event>
 7    1  0.2679104E-009  0.8885655E+02  0.7561462E-02  0.1305645E+00
         -1   -1    0    0    0  501 -0.00000000000E+00  0.00000000000E+00  0.12328857310E+03  0.12328857310E+03  0.00000000000E+00 0.  1.
          1   -1    0    0  501    0  0.00000000000E+00 -0.00000000000E+00 -0.10928014781E+03  0.10928014781E+03  0.00000000000E+00 0. -1.
         25    2    1    2    0    0  0.35645478271E+02  0.13501648621E+02  0.29702699054E+01  0.13080271157E+03  0.12509049610E+03 0.  0.
          5    1    3    3  502    0  0.24984995853E+02  0.62919608933E+02 -0.25700799220E+02  0.72533652097E+02  0.41800000000E+01 0. -1.
         -5    1    3    3    0  502  0.10660482418E+02 -0.49417960312E+02  0.28671069125E+02  0.58269059470E+02  0.41800000000E+01 0. -1.
        -11    1    1    2    0    0  0.10917080695E+02 -0.11002509919E+01 -0.34050492629E+02  0.35774701277E+02  0.00000000000E+00 0. -1.
         11    1    1    2    0    0 -0.46562558967E+02 -0.12401397629E+02  0.45088648009E+02  0.65991308064E+02  0.00000000000E+00 0.  1.
</event>
<event>
 7    1  0.2679104E-009  0.2444886E+03  0.7561462E-02  0.1116838E+00
         -2   -1    0    0    0  501 -0.00000000000E+00  0.00000000000E+00  0.10885779496E+03  0.10885779496E+03  0.00000000000E+00 0.  1.
          2   -1    0    0  501    0  0.00000000000E+00 -0.00000000000E+00 -0.58445426277E+03  0.58445426277E+03  0.00000000000E+00 0. -1.
         25    2    1    2    0    0 -0.18231328128E+03  0.13057097471E+03 -0.29763522101E+03  0.39309277534E+03  0.12509313837E+03 0.  0.
          5    1    3    3  502    0 -0.13820567330E+03  0.15237981922E+03 -0.25643476504E+03  0.32878059334E+03  0.41800000000E+01 0.  1.
         -5    1    3    3    0  502 -0.44107607982E+02 -0.21808844509E+02 -0.41200455977E+02  0.64312181999E+02  0.41800000000E+01 0.  1.
        -11    1    1    2    0    0  0.12412331601E+03 -0.12370249345E+03 -0.16394416677E+03  0.23997206980E+03  0.00000000000E+00 0. -1.
         11    1    1    2    0    0  0.58189965265E+02 -0.68684812599E+01 -0.14017080023E+02  0.60247212589E+02  0.00000000000E+00 0.  1.
</event>
<event>
 7    1  0.2679104E-009  0.1145398E+03  0.7561462E-02  0.1252387E+00
         -2   -1    0    0    0  501 -0.00000000000E+00  0.00000000000E+00  0.13238889584E+03  0.13238889584E+03  0.00000000000E+00 0.  1.
          2   -1    0    0  501    0  0.00000000000E+00 -0.00000000000E+00 -0.34492443762E+03  0.34492443762E+03  0.00000000000E+00 0. -1.
         25    2    1    2    0    0  0.24170940506E+02  0.39358721802E+02  0.88359694633E+02  0.15996416793E+03  0.12509099104E+03 0.  0.
          5    1    3    3  502    0 -0.26012386145E+02  0.69701666857E+02  0.51303599128E+02  0.90468216955E+02  0.41800000000E+01 0.  1.
         -5    1    3    3    0  502  0.50183326651E+02 -0.30342945055E+02  0.37056095504E+02  0.69495950979E+02  0.41800000000E+01 0.  1.
        -11    1    1    2    0    0 -0.55653774034E+02 -0.28026920154E+02 -0.23898973532E+03  0.24697964371E+03  0.00000000000E+00 0. -1.
         11    1    1    2    0    0  0.31482833528E+02 -0.11331801647E+02 -0.61905501092E+02  0.70369521818E+02  0.00000000000E+00 0.  1.
</event>
<event>
 7    1  0.2679104E-009  0.4602693E+03  0.7561462E-02  0.1024703E+00
         -2   -1    0    0    0  501 -0.00000000000E+00  0.00000000000E+00  0.13411338155E+03  0.13411338155E+03  0.00000000000E+00 0.  1.
          2   -1    0    0  501    0  0.00000000000E+00 -0.00000000000E+00 -0.21035739185E+04  0.21035739185E+04  0.00000000000E+00 0. -1.
         25    2    1    2    0    0  0.44383672831E+03  0.57569737248E+02 -0.15472411667E+04  0.16155211968E+04  0.12509273913E+03 0.  0.
          5    1    3    3  502    0  0.34171861540E+03  0.95040872431E+02 -0.12298506706E+04  0.12799822358E+04  0.41800000000E+01 0.  1.
         -5    1    3    3    0  502  0.10211811291E+03 -0.37471135183E+02 -0.31739049610E+03  0.33553896104E+03  0.41800000000E+01 0.  1.
        -11    1    1    2    0    0 -0.30656260471E+02  0.19954160410E+02 -0.33414925554E+02  0.49543234386E+02  0.00000000000E+00 0. -1.
         11    1    1    2    0    0 -0.41318046784E+03 -0.77523897657E+02 -0.38880444470E+03  0.57262286885E+03  0.00000000000E+00 0.  1.
</event>
<event>
 7    1  0.2679104E-009  0.1629561E+03  0.7561462E-02  0.1185399E+00
          3   -1    0    0  501    0  0.00000000000E+00  0.00000000000E+00  0.12153367587E+04  0.12153367587E+04  0.00000000000E+00 0. -1.
         -3   -1    0    0    0  501 -0.00000000000E+00 -0.00000000000E+00 -0.29308894803E+02  0.29308894803E+02  0.00000000000E+00 0.  1.
         25    2    1    2    0    0  0.72269554984E+02 -0.11038919163E+03  0.89274468542E+03  0.91107018535E+03  0.12508855697E+03 0.  0.
          5    1    3    3  502    0 -0.20046365605E+02  0.15255813525E+02  0.14514236823E+03  0.14737155789E+03  0.41800000000E+01 0. -1.
         -5    1    3    3    0  502  0.92315920589E+02 -0.12564500516E+03  0.74760231720E+03  0.76369862747E+03  0.41800000000E+01 0. -1.
        -11    1    1    2    0    0 -0.82040389832E+02  0.10499559569E+03  0.29358802869E+03  0.32241065626E+03  0.00000000000E+00 0. -1.
         11    1    1    2    0    0  0.97708348480E+01  0.53935959461E+01 -0.30485021884E+00  0.11164811889E+02  0.00000000000E+00 0.  1.
</event>
<event>
 7    1  0.2679104E-009  0.1079288E+03  0.7561462E-02  0.1264454E+00
          1   -1    0    0  501    0  0.00000000000E+00  0.00000000000E+00  0.11558226133E+03  0.11558226133E+03  0.00000000000E+00 0. -1.
         -1   -1    0    0    0  501 -0.00000000000E+00 -0.00000000000E+00 -0.12209755208E+03  0.12209755208E+03  0.00000000000E+00 0.  1.
         25    2    1    2    0    0  0.49569935903E+02 -0.16555722842E+02  0.48566244319E+01  0.13565475173E+03  0.12508938549E+03 0.  0.
          5    1    3    3  502    0 -0.31643129786E+02 -0.20168590103E+02  0.32367080769E+02  0.49730875791E+02  0.41800000000E+01 0. -1.
         -5    1    3    3    0  502  0.81213065689E+02  0.36128672613E+01 -0.27510456337E+02  0.85923875938E+02  0.41800000000E+01 0. -1.
        -11    1    1    2    0    0 -0.47829094179E+02  0.46499043341E+02 -0.21942666839E+02  0.70222958565E+02  0.00000000000E+00 0.  1.
         11    1    1    2    0    0 -0.17408417235E+01 -0.29943320500E+02  0.10570751657E+02  0.31802103123E+02  0.00000000000E+00 0. -1.
</event>
<event>
 7    1  0.2679104E-009  0.1492005E+03  0.7561462E-02  0.1201459E+00
          2   -1    0    0  501    0  0.00000000000E+00  0.00000000000E+00  0.12042233919E+03  0.12042233919E+03  0.00000000000E+00 0. -1.
         -2   -1    0    0    0  501 -0.00000000000E+00 -0.00000000000E+00 -0.22993849981E+03  0.22993849981E+03  0.00000000000E+00 0.  1.
         25    2    1    2    0    0  0.11981872721E+03 -0.28791225653E+02 -0.88541193068E+01  0.17581596865E+03  0.12508955728E+03 0.  0.
          5    1    3    3  502    0  0.12458588123E+03 -0.63460014356E+02 -0.18987370672E+01  0.13989243306E+03  0.41800000000E+01 0. -1.
         -5    1    3    3    0  502 -0.47671540216E+01  0.34668788703E+02 -0.69553822396E+01  0.35923535596E+02  0.41800000000E+01 0. -1.
        -11    1    1    2    0    0 -0.88634113610E+02  0.19733471594E+02 -0.28107912180E+02  0.95055093098E+02  0.00000000000E+00 0. -1.
         11    1    1    2    0    0 -0.31184613597E+02  0.90577540588E+01 -0.72554129128E+02  0.79489777250E+02  0.00000000000E+00 0.  1.
</event>
<event>
 7    1  0.2679104E-009  0.7453937E+02  0.7561462E-02  0.1345303E+00
         -1   -1    0    0    0  501 -0.00000000000E+00  0.00000000000E+00  0.76611031507E+02  0.76611031507E+02  0.00000000000E+00 0.  1.
          1   -1    0    0  501    0  0.00000000000E+00 -0.00000000000E+00 -0.18958075110E+03  0.18958075110E+03  0.00000000000E+00 0. -1.
         25    2    1    2    0    0  0.45583981813E+02 -0.67503556392E+01 -0.38353948825E+02  0.13871384164E+03  0.12508812004E+03 0.  0.
          5    1    3    3  502    0  0.14013868988E+02 -0.25087831099E+02  0.41592165272E+02  0.50726407376E+02  0.41800000000E+01 0.  1.
         -5    1    3    3    0  502  0.31570112824E+02  0.18337475460E+02 -0.79946114096E+02  0.87987434268E+02  0.41800000000E+01 0.  1.
        -11    1    1    2    0    0  0.17492223465E+02 -0.68159914033E+01  0.98417429774E+01  0.21196592306E+02  0.00000000000E+00 0.  1.
         11    1    1    2    0    0 -0.63076205278E+02  0.13566347043E+02 -0.84457513744E+02  0.10628134866E+03  0.00000000000E+00 0. -1.
</event>
<event>
 7    1  0.2679104E-009  0.1346047E+03  0.7561462E-02  0.1220779E+00
          4   -1    0    0  501    0  0.00000000000E+00  0.00000000000E+00  0.61116114247E+02  0.61116114247E+02  0.00000000000E+00 0. -1.
         -4   -1    0    0    0  501 -0.00000000000E+00 -0.00000000000E+00 -0.52558389370E+03  0.52558389370E+03  0.00000000000E+00 0.  1.
         25    2    1    2    0    0 -0.99734223765E+02 -0.10801551553E+02 -0.80379709392E+02  0.17936493517E+03  0.12508914174E+03 0.  0.
          5    1    3    3  502    0 -0.25833578550E+02 -0.62884918617E+02 -0.21640385372E+02  0.71467933013E+02  0.41800000000E+01 0.  1.
         -5    1    3    3    0  502 -0.73900645215E+02  0.52083367063E+02 -0.58739324019E+02  0.10789700216E+03  0.41800000000E+01 0.  1.
        -11    1    1    2    0    0  0.50213690951E+02  0.28815898453E+02 -0.31588510630E+03  0.32114665052E+03  0.00000000000E+00 0.  1.
         11    1    1    2    0    0  0.49520532814E+02 -0.18014346900E+02 -0.68202963766E+02  0.86188422256E+02  0.00000000000E+00 0. -1.
</event>
<event>
 7    1  0.2679104E-009  0.6102142E+02  0.7561462E-02  0.1393595E+00
         -2   -1    0    0    0  501 -0.00000000000E+00  0.00000000000E+00  0.12350406763E+03  0.12350406763E+03  0.00000000000E+00 0.  1.
          2   -1    0    0  501    0  0.00000000000E+00 -0.00000000000E+00 -0.13710151596E+03  0.13710151596E+03  0.00000000000E+00 0. -1.
         25    2    1    2    0    0 -0.46116263943E+02  0.11672588764E+02  0.46580364653E+02  0.14170350180E+03  0.12508874019E+03 0.  0.
          5    1    3    3  502    0 -0.26967830323E+02  0.34210160307E+02  0.83465504087E+02  0.94242037930E+02  0.41800000000E+01 0. -1.
         -5    1    3    3    0  502 -0.19148433620E+02 -0.22537571543E+02 -0.36885139435E+02  0.47461463865E+02  0.41800000000E+01 0. -1.
        -11    1    1    2    0    0  0.19196096164E+02 -0.94661293200E+01  0.23018108987E+02  0.31431370533E+02  0.00000000000E+00 0.  1.
         11    1    1    2    0    0  0.26920167778E+02 -0.22064594439E+01 -0.83195921971E+02  0.87470711265E+02  0.00000000000E+00 0. -1.
</event>
<event>
 7    1  0.2679104E-009  0.1000565E+03  0.7561462E-02  0.1280177E+00
         -1   -1    0    0    0  501 -0.00000000000E+00  0.00000000000E+00  0.23229664559E+02  0.23229664559E+02  0.00000000000E+00 0. -1.
          1   -1    0    0  501    0  0.00000000000E+00 -0.00000000000E+00 -0.54626151551E+03  0.54626151551E+03  0.00000000000E+00 0.  1.
         25    2    1    2    0    0 -0.17534320538E+02 -0.10856219989E+02 -0.24048747445E+03  0.27185881850E+03  0.12509069477E+03 0.  0.
          5    1    3    3  502    0  0.10411804001E+02 -0.61071449410E+02 -0.79531871740E+02  0.10090053824E+03  0.41800000000E+01 0. -1.
         -5    1    3    3    0  502 -0.27946124539E+02  0.50215229421E+02 -0.16095560271E+03  0.17095828025E+03  0.41800000000E+01 0. -1.
        -11    1    1    2    0    0  0.26629079027E+02 -0.29086271668E+02 -0.21538510675E+03  0.21896543851E+03  0.00000000000E+00 0. -1.
         11    1    1    2    0    0 -0.90947584891E+01  0.39942491657E+02 -0.67159269745E+02  0.78666923064E+02  0.00000000000E+00 0.  1.
</event>
<event>
 7    1  0.2679104E-009  0.1024546E+03  0.7561462E-02  0.1275217E+00
         -2   -1    0    0    0  501 -0.00000000000E+00  0.00000000000E+00  0.38072140961E+03  0.38072140961E+03  0.00000000000E+00 0.  1.
          2   -1    0    0  501    0  0.00000000000E+00 -0.00000000000E+00 -0.33000789274E+02  0.33000789274E+02  0.00000000000E+00 0. -1.
         25    2    1    2    0    0  0.10981288330E+02  0.13824710921E+02  0.16383904157E+03  0.20688280434E+03  0.12508218044E+03 0.  0.
          5    1    3    3  502    0 -0.45714406106E+01  0.64179328119E+02  0.12705035093E+03  0.14247507957E+03  0.41800000000E+01 0.  1.
         -5    1    3    3    0  502  0.15552728941E+02 -0.50354617198E+02  0.36788690639E+02  0.64407724766E+02  0.41800000000E+01 0.  1.
        -11    1    1    2    0    0 -0.38418968120E+02  0.20559754224E+02  0.52157828760E+02  0.67964400285E+02  0.00000000000E+00 0. -1.
         11    1    1    2    0    0  0.27437679790E+02 -0.34384465145E+02  0.13172375000E+03  0.13887499426E+03  0.00000000000E+00 0.  1.
</event>
<event>
 7    1  0.2679104E-009  0.1121599E+03  0.7561462E-02  0.1256622E+00
          2   -1    0    0  501    0  0.00000000000E+00  0.00000000000E+00  0.13562497123E+03  0.13562497123E+03  0.00000000000E+00 0. -1.
         -2   -1    0    0    0  501 -0.00000000000E+00 -0.00000000000E+00 -0.14661507236E+03  0.14661507236E+03  0.00000000000E+00 0.  1.
         25    2    1    2    0    0 -0.18128851610E+02 -0.55607509146E+02 -0.72942506871E+02  0.15616891387E+03  0.12508904835E+03 0.  0.
          5    1    3    3  502    0 -0.35153812102E+02  0.28205024482E+02 -0.50160388945E+02  0.67563680557E+02  0.41800000000E+01 0. -1.
         -5    1    3    3    0  502  0.17024960492E+02 -0.83812533628E+02 -0.22782117927E+02  0.88605233311E+02  0.41800000000E+01 0. -1.
        -11    1    1    2    0    0 -0.58231579766E+01  0.66756703823E+02  0.99534818574E+01  0.67745394495E+02  0.00000000000E+00 0. -1.
         11    1    1    2    0    0  0.23952009586E+02 -0.11149194677E+02  0.51998923876E+02  0.58325735224E+02  0.00000000000E+00 0.  1.
</event>
<event>
 7    1  0.2679104E-009  0.1875447E+03  0.7561462E-02  0.1160695E+00
          1   -1    0    0  501    0  0.00000000000E+00  0.00000000000E+00  0.12471919144E+03  0.12471919144E+03  0.00000000000E+00 0. -1.
         -1   -1    0    0    0  501 -0.00000000000E+00 -0.00000000000E+00 -0.35382294048E+03  0.35382294048E+03  0.00000000000E+00 0.  1.
         25    2    1    2    0    0 -0.62821645472E+02  0.14375648683E+03 -0.21962936664E+03  0.29748249900E+03  0.12508513851E+03 0.  0.
          5    1    3    3  502    0 -0.11011454806E+02  0.14291917282E+03 -0.18864753479E+03  0.23696520184E+03  0.41800000000E+01 0. -1.
         -5    1    3    3    0  502 -0.51810190666E+02  0.83731400518E+00 -0.30981831841E+02  0.60517297162E+02  0.41800000000E+01 0. -1.
        -11    1    1    2    0    0  0.83974182230E+02 -0.96471849212E+02  0.23710536781E+01  0.12792225321E+03  0.00000000000E+00 0.  1.
         11    1    1    2    0    0 -0.21152536758E+02 -0.47284637617E+02 -0.11845436081E+02  0.53137379704E+02  0.00000000000E+00 0. -1.
</event>
<event>
 7    1  0.2679104E-009  0.1984007E+03  0.7561462E-02  0.1151095E+00
         -1   -1    0    0    0  501 -0.00000000000E+00  0.00000000000E+00  0.99702278451E+02  0.99702278451E+02  0.00000000000E+00 0.  1.
          1   -1    0    0  501    0  0.00000000000E+00 -0.00000000000E+00 -0.44127541772E+03  0.44127541772E+03  0.00000000000E+00 0. -1.
         25    2    1    2    0    0  0.13222000801E+03 -0.12131533004E+03 -0.17615159171E+03  0.28084792511E+03  0.12508650590E+03 0.  0.
          5    1    3    3  502    0  0.30406447771E+02 -0.10915669511E+03 -0.70284144997E+02  0.13340565802E+03  0.41800000000E+01 0. -1.
         -5    1    3    3    0  502  0.10181356024E+03 -0.12158634923E+02 -0.10586744671E+03  0.14744226709E+03  0.41800000000E+01 0. -1.
        -11    1    1    2    0    0 -0.60016301824E+02  0.70012847590E+02 -0.27522978965E+02  0.96235490768E+02  0.00000000000E+00 0.  1.
         11    1    1    2    0    0 -0.72203706186E+02  0.51302482446E+02 -0.13789856859E+03  0.16389428029E+03  0.00000000000E+00 0. -1.
</event>
<event>
 7    1  0.2679104E-009  0.9075370E+02  0.7561462E-02  0.1301037E+00
         -2   -1    0    0    0  501 -0.00000000000E+00  0.00000000000E+00  0.35175992703E+03  0.35175992703E+03  0.00000000000E+00 0.  1.
          2   -1    0    0  501    0  0.00000000000E+00 -0.00000000000E+00 -0.43346838904E+02  0.43346838904E+02  0.00000000000E+00 0. -1.
         25    2    1    2    0    0  0.25329407111E+01  0.16519498348E+02  0.80869908883E+02  0.14988859438E+03  0.12508932388E+03 0.  0.
          5    1    3    3  502    0 -0.41730247436E+02  0.21698629739E+02 -0.10293941882E+02  0.48328891184E+02  0.41800000000E+01 0.  1.
         -5    1    3    3    0  502  0.44263188147E+02 -0.51791313908E+01  0.91163850765E+02  0.10155970320E+03  0.41800000000E+01 0.  1.
        -11    1    1    2    0    0  0.40168823163E+02  0.70032356735E+01  0.12872209188E+03  0.13502576274E+03  0.00000000000E+00 0.  1.
         11    1    1    2    0    0 -0.42701763874E+02 -0.23522734022E+02  0.98821087356E+02  0.11019240881E+03  0.00000000000E+00 0. -1.
</event>
<event>
 7    1  0.2679104E-009  0.1802289E+03  0.7561462E-02  0.1167582E+00
         -2   -1    0    0    0  501 -0.00000000000E+00  0.00000000000E+00  0.69200117987E+02  0.69200117987E+02  0.00000000000E+00 0.  1.
          2   -1    0    0  501    0  0.00000000000E+00 -0.00000000000E+00 -0.51497098731E+03  0.51497098731E+03  0.00000000000E+00 0. -1.
         25    2    1    2    0    0 -0.32807751640E+02  0.14955989966E+03 -0.26144226461E+03  0.32778690337E+03  0.12509070365E+03 0.  0.
          5    1    3    3  502    0  0.31325328336E+02  0.79006996191E+01 -0.13881168933E+02  0.35409836215E+02  0.41800000000E+01 0.  1.
         -5    1    3    3    0  502 -0.64133079976E+02  0.14165920004E+03 -0.24756109568E+03  0.29237706716E+03  0.41800000000E+01 0.  1.
        -11    1    1    2    0    0  0.59096041866E+02 -0.10905530350E+03 -0.10049843590E+03  0.15964127600E+03  0.00000000000E+00 0.  1.
         11    1    1    2    0    0 -0.26288290226E+02 -0.40504596157E+02 -0.83830168813E+02  0.96742925923E+02  0.00000000000E+00 0. -1.
</event>
<event>
 7    1  0.2679104E-009  0.1195050E+03  0.7561462E-02  0.1243916E+00
         -1   -1    0    0    0  501 -0.00000000000E+00  0.00000000000E+00  0.38187007861E+02  0.38187007861E+02  0.00000000000E+00 0.  1.
          1   -1    0    0  501    0  0.00000000000E+00 -0.00000000000E+00 -0.45333684708E+03  0.45333684708E+03  0.00000000000E+00 0. -1.
         25    2    1    2    0    0  0.49317787193E+02 -0.65412167435E+01 -0.12755340942E+03  0.18545181301E+03  0.12508985187E+03 0.  0.
          5    1    3    3  502    0  0.28016094870E+02 -0.65705890947E+02 -0.70257190951E+02  0.10027816790E+03  0.41800000000E+01 0. -1.
         -5    1    3    3    0  502  0.21301692323E+02  0.59164674203E+02 -0.57296218473E+02  0.85173645107E+02  0.41800000000E+01 0. -1.
        -11    1    1    2    0    0 -0.16070363984E+02  0.48390031444E+02 -0.15186870954E+03  0.16019973995E+03  0.00000000000E+00 0. -1.
         11    1    1    2    0    0 -0.33247423209E+02 -0.41848814701E+02 -0.13572772025E+03  0.14587230199E+03  0.00000000000E+00 0.  1.
</event>
<event>
 7    1  0.2679104E-009  0.2449983E+03  0.7561462E-02  0.1116507E+00
         -2   -1    0    0    0  501 -0.00000000000E+00  0.00000000000E+00  0.28538020970E+03  0.28538020970E+03  0.00000000000E+00 0.  1.
          2   -1    0    0  501    0  0.00000000000E+00 -0.00000000000E+00 -0.33803489766E+03  0.33803489766E+03  0.00000000000E+00 0. -1.
         25    2    1    2    0    0  0.14240225350E+03 -0.19053174217E+03 -0.19451257528E+03  0.33175943383E+03  0.12509369856E+03 0.  0.
          5    1    3    3  502    0  0.61150119692E+02 -0.10780657524E+03 -0.17440526732E+03  0.21400061792E+03  0.41800000000E+01 0.  1.
         -5    1    3    3    0  502  0.81252133809E+02 -0.82725166921E+02 -0.20107307962E+02  0.11775881591E+03  0.41800000000E+01 0.  1.
        -11    1    1    2    0    0 -0.61042355870E+02  0.25886647550E+02  0.13688025603E+02  0.67702657086E+02  0.00000000000E+00 0.  1.
         11    1    1    2    0    0 -0.81359897630E+02  0.16464509462E+03  0.12816986171E+03  0.22395301644E+03  0.00000000000E+00 0. -1.
</event>
<event>
 7    1  0.2679104E-009  0.2015067E+03  0.7561462E-02  0.1148474E+00
          2   -1    0    0  501    0  0.00000000000E+00  0.00000000000E+00  0.60191135365E+03  0.60191135365E+03  0.00000000000E+00 0. -1.
         -2   -1    0    0    0  501 -0.00000000000E+00 -0.00000000000E+00 -0.83002377124E+02  0.83002377124E+02  0.00000000000E+00 0.  1.
         25    2    1    2    0    0  0.16686508791E+03  0.81347143830E+02  0.36128678911E+03  0.42501347793E+03  0.12508795731E+03 0.  0.
          5    1    3    3  502    0  0.13591734141E+03  0.92789603771E+02  0.19391734928E+03  0.25437147052E+03  0.41800000000E+01 0.  1.
         -5    1    3    3    0  502  0.30947746501E+02 -0.11442459941E+02  0.16736943984E+03  0.17064200741E+03  0.41800000000E+01 0.  1.
        -11    1    1    2    0    0  0.32981292197E+01 -0.25977038345E+02  0.10394005787E+02  0.28173028482E+02  0.00000000000E+00 0. -1.
         11    1    1    2    0    0 -0.17016321713E+03 -0.55370105485E+02  0.14722818162E+03  0.23172722436E+03  0.00000000000E+00 0.  1.
</event>
<event>
 7    1  0.2679104E-009  0.3278670E+03  0.7561462E-02  0.1072085E+00
          1   -1    0    0  501    0  0.00000000000E+00  0.00000000000E+00  0.41649759467E+03  0.41649759467E+03  0.00000000000E+00 0. -1.
         -1   -1    0    0    0  501 -0.00000000000E+00 -0.00000000000E+00 -0.26510922752E+03  0.26510922752E+03  0.00000000000E+00 0.  1.
         25    2    1    2    0    0 -0.24878750740E+03  0.18882776966E+03  0.10584644326E+03  0.35270657823E+03  0.12508920954E+03 0.  0.
          5    1    3    3  502    0 -0.11737572689E+03  0.15536730132E+03  0.94734975067E+02  0.21658311911E+03  0.41800000000E+01 0. -1.
         -5    1    3    3    0  502 -0.13141178050E+03  0.33460468341E+02  0.11111468189E+02  0.13612345912E+03  0.41800000000E+01 0. -1.
        -11    1    1    2    0    0  0.46172446655E+01 -0.38045917298E+02  0.10884343538E+02  0.39840679031E+02  0.00000000000E+00 0. -1.
         11    1    1    2    0    0  0.24417026273E+03 -0.15078185236E+03  0.34657580350E+02  0.28905956493E+03  0.00000000000E+00 0.  1.
</event>
<event>
 7    1  0.2679104E-009  0.1200182E+03  0.7561462E-02  0.1243067E+00
         -2   -1    0    0    0  501 -0.00000000000E+00  0.00000000000E+00  0.27716762525E+02  0.27716762525E+02  0.00000000000E+00 0. -1.
          2   -1    0    0  501    0  0.00000000000E+00 -0.00000000000E+00 -0.59509380895E+03  0.59509380895E+03  0.00000000000E+00 0.  1.
         25    2    1    2    0    0  0.52404537615E+02  0.42202275633E+02 -0.27430213790E+03  0.30889789369E+03  0.12509587618E+03 0.  0.
          5    1    3    3  502    0  0.86392233764E+02  0.52725250820E+02 -0.23394732208E+03  0.25493605480E+03  0.41800000000E+01 0.  1.
         -5    1    3    3    0  502 -0.33987696149E+02 -0.10522975187E+02 -0.40354815821E+02  0.53961838889E+02  0.41800000000E+01 0.  1.
        -11    1    1    2    0    0 -0.69337291567E+02 -0.48751170259E+02 -0.27695148139E+03  0.28963159297E+03  0.00000000000E+00 0. -1.
         11    1    1    2    0    0  0.16932753952E+02  0.65488946258E+01 -0.16123427139E+02  0.24281084818E+02  0.00000000000E+00 0.  1.
</event>
<event>
 7    1  0.2679104E-009  0.1055655E+03  0.7561462E-02  0.1269009E+00
          1   -1    0    0  501    0  0.00000000000E+00  0.00000000000E+00  0.83695648695E+03  0.83695648695E+03  0.00000000000E+00 0. -1.
         -1   -1    0    0    0  501 -0.00000000000E+00 -0.00000000000E+00 -0.14938615044E+02  0.14938615044E+02  0.00000000000E+00 0.  1.
         25    2    1    2    0    0 -0.12782602921E+02  0.49802839620E+01  0.38840535013E+03  0.40828107641E+03  0.12508606308E+03 0.  0.
          5    1    3    3  502    0 -0.65253226784E+02 -0.52006412154E+01  0.27681125116E+03  0.28447666239E+03  0.41800000000E+01 0. -1.
         -5    1    3    3    0  502  0.52470623863E+02  0.10180925177E+02  0.11159409897E+03  0.12380441402E+03  0.41800000000E+01 0. -1.
        -11    1    1    2    0    0 -0.17251954045E+02 -0.41321892646E+02  0.25399637181E+03  0.25791332967E+03  0.00000000000E+00 0. -1.
         11    1    1    2    0    0  0.30034556966E+02  0.36341608684E+02  0.17961614996E+03  0.18570069591E+03  0.00000000000E+00 0.  1.
</event>
<event>
 7    1  0.2679104E-009  0.9468988E+02  0.7561462E-02  0.1291876E+00
          2   -1    0    0  501    0  0.00000000000E+00  0.00000000000E+00  0.44661056745E+03  0.44661056745E+03  0.00000000000E+00 0. -1.
         -2   -1    0    0    0  501 -0.00000000000E+00 -0.00000000000E+00 -0.27950746186E+02  0.27950746186E+02  0.00000000000E+00 0.  1.
         25    2    1    2    0    0 -0.24114060521E+02 -0.69408759916E+01  0.22370396683E+03  0.25753409385E+03  0.12510268200E+03 0.  0.
          5    1    3    3  502    0  0.39856141604E+02  0.69142550709E+01  0.16358027654E+03  0.16855947977E+03  0.41800000000E+01 0.  1.
         -5    1    3    3    0  502 -0.63970202125E+02 -0.13855131063E+02  0.60123690295E+02  0.88974614084E+02  0.41800000000E+01 0.  1.
        -11    1    1    2    0    0  0.29306079099E+02  0.40041823642E+02  0.16424305207E+03  0.17157498089E+03  0.00000000000E+00 0. -1.
         11    1    1    2    0    0 -0.51920185782E+01 -0.33100947650E+02  0.30712802365E+02  0.45452238903E+02  0.00000000000E+00 0.  1.
</event>
<event>
 7    1  0.2679104E-009  0.8764055E+02  0.7561462E-02  0.1308668E+00
          2   -1    0    0  501    0  0.00000000000E+00  0.00000000000E+00  0.39294210829E+03  0.39294210829E+03  0.00000000000E+00 0. -1.
         -2   -1    0    0    0  501 -0.00000000000E+00 -0.00000000000E+00 -0.55557124581E+02  0.55557124581E+02  0.00000000000E+00 0.  1.
         25    2    1    2    0    0 -0.20341751597E+02 -0.59365092169E+01  0.33120675917E+03  0.35467545303E+03  0.12509088961E+03 0.  0.
          5    1    3    3  502    0 -0.52598966789E+02 -0.94545932510E+01  0.55963842378E+02  0.77494933347E+02  0.41800000000E+01 0. -1.
         -5    1    3    3    0  502  0.32257215192E+02  0.35180840341E+01  0.27524291680E+03  0.27718051969E+03  0.41800000000E+01 0. -1.
        -11    1    1    2    0    0  0.27851935011E+02 -0.36472257548E+02  0.17788380019E+02  0.49217703301E+02  0.00000000000E+00 0. -1.
         11    1    1    2    0    0 -0.75101834139E+01  0.42408766764E+02 -0.11610155486E+02  0.44606076535E+02  0.00000000000E+00 0.  1.
</event>
<event>
 7    1  0.2679104E-009  0.1113294E+03  0.7561462E-02  0.1258128E+00
         -1   -1    0    0    0  501 -0.00000000000E+00  0.00000000000E+00  0.45593104685E+02  0.45593104685E+02  0.00000000000E+00 0.  1.
          1   -1    0    0  501    0  0.00000000000E+00 -0.00000000000E+00 -0.42330840338E+03  0.42330840338E+03  0.00000000000E+00 0. -1.
         25    2    1    2    0    0  0.65296136112E+02 -0.26462045439E+02 -0.29051470967E+03  0.32405409978E+03  0.12509371612E+03 0.  0.
          5    1    3    3  502    0 -0.14126998043E+02 -0.36324195218E+02 -0.24489610194E+02  0.46219396788E+02  0.41800000000E+01 0.  1.
         -5    1    3    3    0  502  0.79423134156E+02  0.98621497796E+01 -0.26602509947E+03  0.27783470299E+03  0.41800000000E+01 0.  1.
        -11    1    1    2    0    0 -0.34163911402E+02  0.52564675776E+02 -0.19078080814E+02  0.65530078203E+02  0.00000000000E+00 0.  1.
         11    1    1    2    0    0 -0.31132224710E+02 -0.26102630337E+02 -0.68122508217E+02  0.79317330085E+02  0.00000000000E+00 0. -1.
</event>
<event>
 7    1  0.2679104E-009  0.1138410E+03  0.7561462E-02  0.1253618E+00
         -2   -1    0    0    0  501 -0.00000000000E+00  0.00000000000E+00  0.34185674973E+03  0.34185674973E+03  0.00000000000E+00 0.  1.
          2   -1    0    0  501    0  0.00000000000E+00 -0.00000000000E+00 -0.39556197879E+02  0.39556197879E+02  0.00000000000E+00 0. -1.
         25    2    1    2    0    0  0.81265419514E+01 -0.36646975264E+02  0.18802534923E+03  0.22893204084E+03  0.12508919175E+03 0.  0.
          5    1    3    3  502    0  0.66394294567E+02 -0.14425806669E+02  0.10034809476E+03  0.12125806683E+03  0.41800000000E+01 0.  1.
         -5    1    3    3    0  502 -0.58267752616E+02 -0.22221168595E+02  0.87677254465E+02  0.10767397401E+03  0.41800000000E+01 0.  1.
        -11    1    1    2    0    0  0.92188035464E+01 -0.28363732975E+02  0.17391876812E+02  0.34524847083E+02  0.00000000000E+00 0. -1.
         11    1    1    2    0    0 -0.17345345498E+02  0.65010708239E+02  0.96883325817E+02  0.11795605969E+03  0.00000000000E+00 0.  1.
</event>
<event>
 7    1  0.2679104E-009  0.8026958E+02  0.7561462E-02  0.1328288E+00
          3   -1    0    0  501    0  0.00000000000E+00  0.00000000000E+00  0.13722154029E+03  0.13722154029E+03  0.00000000000E+00 0. -1.
         -3   -1    0    0    0  501 -0.00000000000E+00 -0.00000000000E+00 -0.98188982940E+02  0.98188982940E+02  0.00000000000E+00 0.  1.
         25    2    1    2    0    0 -0.31955279252E+02 -0.67865945363E+01  0.46289340696E+02  0.13732307859E+03  0.12509087543E+03 0.  0.
          5    1    3    3  502    0  0.28171673781E+02 -0.12451923718E+02  0.66577597084E+02  0.73476135182E+02  0.41800000000E+01 0.  1.
         -5    1    3    3    0  502 -0.60126953032E+02  0.56653291813E+01 -0.20288256388E+02  0.63846943411E+02  0.41800000000E+01 0.  1.
        -11    1    1    2    0    0  0.50188602339E+02  0.70605828306E+01 -0.37309866611E+02  0.62934678685E+02  0.00000000000E+00 0.  1.
         11    1    1    2    0    0 -0.18233323088E+02 -0.27398829432E+00  0.30053083268E+02  0.35152765956E+02  0.00000000000E+00 0. -1.
</event>
<event>
 7    1  0.2681810E-009  0.9148578E+02  0.7561462E-02  0.1299293E+00
         -3   -1    0    0    0  501 -0.00000000000E+00  0.00000000000E+00  0.52960238282E+03  0.52960238282E+03  0.00000000000E+00 0.  1.
          3   -1    0    0  501    0  0.00000000000E+00 -0.00000000000E+00 -0.31010246107E+02  0.31010246107E+02  0.00000000000E+00 0. -1.
         25    2    1    2    0    0 -0.67767042956E+02 -0.27152213870E+00  0.29029358740E+03  0.32328112935E+03  0.12509147002E+03 0.  0.
          5    1    3    3  502    0 -0.18753716490E+02 -0.80660249657E+01 -0.68940086283E+01  0.21949086448E+02  0.41800000000E+01 0.  1.
         -5    1    3    3    0  502 -0.49013326465E+02  0.77945028270E+01  0.29718759603E+03  0.30133204290E+03  0.41800000000E+01 0.  1.
        -11    1    1    2    0    0  0.56611810469E+02 -0.40791453475E+02  0.14689636710E+03  0.16262651207E+03  0.00000000000E+00 0.  1.
         11    1    1    2    0    0  0.11155232487E+02  0.41062975613E+02  0.61402182215E+02  0.74704987510E+02  0.00000000000E+00 0. -1.
</event>
<event>
 7    1  0.2679104E-009  0.8390669E+02  0.7561462E-02  0.1318317E+00
          1   -1    0    0  501    0  0.00000000000E+00  0.00000000000E+00  0.45736015124E+03  0.45736015124E+03  0.00000000000E+00 0. -1.
         -1   -1    0    0    0  501 -0.00000000000E+00 -0.00000000000E+00 -0.31534312602E+02  0.31534312602E+02  0.00000000000E+00 0.  1.
         25    2    1    2    0    0 -0.75500039812E+01  0.11997778469E+02  0.14074110480E+03  0.18882186049E+03  0.12507872390E+03 0.  0.
          5    1    3    3  502    0  0.13428712902E+02  0.41023454358E+02  0.14607173233E+03  0.15237348038E+03  0.41800000000E+01 0.  1.
         -5    1    3    3    0  502 -0.20978716883E+02 -0.29025675889E+02 -0.53306275327E+01  0.36448380112E+02  0.41800000000E+01 0.  1.
        -11    1    1    2    0    0 -0.26830594090E+02 -0.37124982843E+02  0.97623810169E+02  0.10783577070E+03  0.00000000000E+00 0.  1.
         11    1    1    2    0    0  0.34380598071E+02  0.25127204374E+02  0.18746092368E+03  0.19223683265E+03  0.00000000000E+00 0. -1.
</event>
<event>
 7    1  0.2679104E-009  0.1626472E+03  0.7561462E-02  0.1185740E+00
          1   -1    0    0  501    0  0.00000000000E+00  0.00000000000E+00  0.47452868159E+03  0.47452868159E+03  0.00000000000E+00 0. -1.
         -1   -1    0    0    0  501 -0.00000000000E+00 -0.00000000000E+00 -0.81026287085E+02  0.81026287085E+02  0.00000000000E+00 0.  1.
         25    2    1    2    0    0  0.74861728482E+02  0.14221241873E+03  0.24423527771E+03  0.31800462414E+03  0.12508964651E+03 0.  0.
          5    1    3    3  502    0  0.27587666744E+02  0.22646221409E+02 -0.61953279391E+01  0.36466219831E+02  0.41800000000E+01 0. -1.
         -5    1    3    3    0  502  0.47274061738E+02  0.11956619732E+03  0.25043060565E+03  0.28153840431E+03  0.41800000000E+01 0. -1.
        -11    1    1    2    0    0 -0.33537347750E+02 -0.62391212329E+02  0.96302916566E+01  0.71485380235E+02  0.00000000000E+00 0.  1.
         11    1    1    2    0    0 -0.41324380733E+02 -0.79821206398E+02  0.13963682514E+03  0.16606496430E+03  0.00000000000E+00 0. -1.
</event>
<event>
 7    1  0.2679104E-009  0.1124531E+03  0.7561462E-02  0.1256093E+00
         -3   -1    0    0    0  501 -0.00000000000E+00  0.00000000000E+00  0.84068319244E+02  0.84068319244E+02  0.00000000000E+00 0.  1.
          3   -1    0    0  501    0  0.00000000000E+00 -0.00000000000E+00 -0.16829622133E+03  0.16829622133E+03  0.00000000000E+00 0. -1.
         25    2    1    2    0    0 -0.36062917768E+02  0.34753978391E+02 -0.30506940985E+02  0.13815326584E+03  0.12508908170E+03 0.  0.
          5    1    3    3  502    0  0.37363396311E+02  0.34912588840E+02 -0.38541488496E+02  0.64170327869E+02  0.41800000000E+01 0. -1.
         -5    1    3    3    0  502 -0.73426314079E+02 -0.15861044833E+00  0.80345475106E+01  0.73982937967E+02  0.41800000000E+01 0. -1.
        -11    1    1    2    0    0  0.64383068033E+02 -0.16858781058E+02 -0.42105161207E+02  0.78754317649E+02  0.00000000000E+00 0.  1.
         11    1    1    2    0    0 -0.28320150265E+02 -0.17895197333E+02 -0.11615799891E+02  0.35456957085E+02  0.00000000000E+00 0. -1.
</event>
<event>
 7    1  0.2679104E-009  0.1241084E+03  0.7561462E-02  0.1236469E+00
          2   -1    0    0  501    0  0.00000000000E+00  0.00000000000E+00  0.29365204627E+03  0.29365204627E+03  0.00000000000E+00 0. -1.
         -2   -1    0    0    0  501 -0.00000000000E+00 -0.00000000000E+00 -0.65199038888E+02  0.65199038888E+02  0.00000000000E+00 0.  1.
         25    2    1    2    0    0 -0.75494412904E+02  0.33183396363E+02  0.15837574022E+03  0.21802105881E+03  0.12509901206E+03 0.  0.
          5    1    3    3  502    0 -0.31726637223E+02  0.68636103359E+02  0.37294501257E+02  0.84414728678E+02  0.41800000000E+01 0. -1.
         -5    1    3    3    0  502 -0.43767775680E+02 -0.35452706997E+02  0.12108123896E+03  0.13360633013E+03  0.41800000000E+01 0. -1.
        -11    1    1    2    0    0  0.12327130692E+02  0.26422820377E+02  0.38767698461E+02  0.48508329509E+02  0.00000000000E+00 0.  1.
         11    1    1    2    0    0  0.63167282211E+02 -0.59606216740E+02  0.31309568703E+02  0.92321696845E+02  0.00000000000E+00 0. -1.
</event>
<event>
 7    1  0.2679104E-009  0.1164103E+03  0.7561462E-02  0.1249139E+00
          1   -1    0    0  501    0  0.00000000000E+00  0.00000000000E+00  0.24786083932E+03  0.24786083932E+03  0.00000000000E+00 0. -1.
         -1   -1    0    0    0  501 -0.00000000000E+00 -0.00000000000E+00 -0.91173024132E+02  0.91173024132E+02  0.00000000000E+00 0.  1.
         25    2    1    2    0    0  0.85151896563E+02 -0.16000646674E+02  0.14884456046E+03  0.21286004445E+03  0.12509128332E+03 0.  0.
          5    1    3    3  502    0  0.19787543071E+02 -0.34533982417E+02 -0.89507371277E+01  0.41008912415E+02  0.41800000000E+01 0. -1.
         -5    1    3    3    0  502  0.65364353492E+02  0.18533335742E+02  0.15779529759E+03  0.17185113204E+03  0.41800000000E+01 0. -1.
        -11    1    1    2    0    0 -0.31363228708E+02 -0.37485744903E+02  0.11572276212E+02  0.50226992371E+02  0.00000000000E+00 0.  1.
         11    1    1    2    0    0 -0.53788667855E+02  0.53486391577E+02 -0.37290214857E+01  0.75946826628E+02  0.00000000000E+00 0. -1.
</event>
<event>
 7    1  0.2679104E-009  0.1345958E+03  0.7561462E-02  0.1220791E+00
          2   -1    0    0  501    0  0.00000000000E+00  0.00000000000E+00  0.13092979264E+04  0.13092979264E+04  0.00000000000E+00 0. -1.
         -2   -1    0    0    0  501 -0.00000000000E+00 -0.00000000000E+00 -0.14672516059E+02  0.14672516059E+02  0.00000000000E+00 0.  1.
         25    2    1    2    0    0  0.40013841212E+02  0.64913077822E+02  0.71307595217E+03  0.72797033864E+03  0.12509470500E+03 0.  0.
          5    1    3    3  502    0 -0.20753073998E+02  0.80816980931E+02  0.40287411198E+03  0.41144513242E+03  0.41800000000E+01 0.  1.
         -5    1    3    3    0  502  0.60766915211E+02 -0.15903903109E+02  0.31020184019E+03  0.31652520622E+03  0.41800000000E+01 0.  1.
        -11    1    1    2    0    0 -0.70464583283E+02 -0.30608263146E+02  0.45397901633E+03  0.46043356799E+03  0.00000000000E+00 0. -1.
         11    1    1    2    0    0  0.30450742070E+02 -0.34304814675E+02  0.12757044184E+03  0.13556653582E+03  0.00000000000E+00 0.  1.
</event>
<event>
 7    1  0.2679104E-009  0.1448306E+03  0.7561462E-02  0.1206973E+00
         -1   -1    0    0    0  501 -0.00000000000E+00  0.00000000000E+00  0.10366866699E+03  0.10366866699E+03  0.00000000000E+00 0.  1.
          1   -1    0    0  501    0  0.00000000000E+00 -0.00000000000E+00 -0.21921418097E+03  0.21921418097E+03  0.00000000000E+00 0. -1.
         25    2    1    2    0    0 -0.95940893669E+01 -0.10276069428E+03 -0.46401873033E+02  0.16867913893E+03  0.12509081201E+03 0.  0.
          5    1    3    3  502    0  0.10675211626E+02  0.24602518477E+02  0.85125994176E+01  0.28446103555E+02  0.41800000000E+01 0. -1.
         -5    1    3    3    0  502 -0.20269300993E+02 -0.12736321275E+03 -0.54914472451E+02  0.14023303537E+03  0.41800000000E+01 0. -1.
        -11    1    1    2    0    0  0.15849761748E+02 -0.11165191867E+02  0.23931195186E+01  0.19534673735E+02  0.00000000000E+00 0. -1.
         11    1    1    2    0    0 -0.62556723812E+01  0.11392588614E+03 -0.71536760468E+02  0.13466903530E+03  0.00000000000E+00 0.  1.
</event>
<event>
 7    1  0.2679104E-009  0.1876575E+03  0.7561462E-02  0.1160591E+00
          4   -1    0    0  501    0  0.00000000000E+00  0.00000000000E+00  0.35555595162E+03  0.35555595162E+03  0.00000000000E+00 0. -1.
         -4   -1    0    0    0  501 -0.00000000000E+00 -0.00000000000E+00 -0.11881086324E+03  0.11881086324E+03  0.00000000000E+00 0.  1.
         25    2    1    2    0    0  0.33655440359E+02 -0.16706879135E+03  0.82420587802E+02  0.22690442601E+03  0.12509114892E+03 0.  0.
          5    1    3    3  502    0  0.72438042272E+02 -0.10380258691E+03  0.85012024186E+02  0.15253446717E+03  0.41800000000E+01 0. -1.
         -5    1    3    3    0  502 -0.38782601914E+02 -0.63266204444E+02 -0.25914363846E+01  0.74369958844E+02  0.41800000000E+01 0. -1.
        -11    1    1    2    0    0 -0.13834343970E+02  0.12936266545E+02  0.66107468447E+02  0.68767241109E+02  0.00000000000E+00 0.  1.
         11    1    1    2    0    0 -0.19821096389E+02  0.15413252481E+03  0.88217032134E+02  0.17869514774E+03  0.00000000000E+00 0. -1.
</event>
<event>
 7    1  0.2679104E-009  0.4781420E+03  0.7561462E-02  0.1019647E+00
         -2   -1    0    0    0  501 -0.00000000000E+00  0.00000000000E+00  0.11367757469E+03  0.11367757469E+03  0.00000000000E+00 0.  1.
          2   -1    0    0  501    0  0.00000000000E+00 -0.00000000000E+00 -0.21701315763E+04  0.21701315763E+04  0.00000000000E+00 0. -1.
         25    2    1    2    0    0  0.16625193421E+03 -0.43599514803E+03 -0.73744870968E+03  0.88159493009E+03  0.12509015399E+03 0.  0.
          5    1    3    3  502    0  0.15706049032E+03 -0.44237712309E+03 -0.72855013585E+03  0.86669965357E+03  0.41800000000E+01 0.  1.
         -5    1    3    3    0  502  0.91914438906E+01  0.63819750592E+01 -0.88985738231E+01  0.14895276518E+02  0.41800000000E+01 0.  1.
        -11    1    1    2    0    0 -0.14740110254E+03  0.26818196902E+03 -0.89176521842E+03  0.94281167702E+03  0.00000000000E+00 0.  1.
         11    1    1    2    0    0 -0.18850831671E+02  0.16781317901E+03 -0.42724007350E+03  0.45940254387E+03  0.00000000000E+00 0. -1.
</event>
<event>
 7    1  0.2679104E-009  0.1043383E+03  0.7561462E-02  0.1271429E+00
         -1   -1    0    0    0  501 -0.00000000000E+00  0.00000000000E+00  0.16916001755E+02  0.16916001755E+02  0.00000000000E+00 0.  1.
          1   -1    0    0  501    0  0.00000000000E+00 -0.00000000000E+00 -0.77703073227E+03  0.77703073227E+03  0.00000000000E+00 0. -1.
         25    2    1    2    0    0 -0.27687326100E+02  0.30586212908E+02 -0.34865150790E+03  0.37270502504E+03  0.12509619211E+03 0.  0.
          5    1    3    3  502    0 -0.63109475456E+02  0.48929426743E+02 -0.14937361840E+03  0.16943094454E+03  0.41800000000E+01 0.  1.
         -5    1    3    3    0  502  0.35422149356E+02 -0.18343213834E+02 -0.19927788950E+03  0.20327408050E+03  0.41800000000E+01 0.  1.
        -11    1    1    2    0    0 -0.18055872671E+02 -0.38180172112E+02 -0.15663203052E+03  0.16222617873E+03  0.00000000000E+00 0.  1.
         11    1    1    2    0    0  0.45743198771E+02  0.75939592031E+01 -0.25483119209E+03  0.25901553026E+03  0.00000000000E+00 0. -1.
</event>
<event>
 7    1  0.2679104E-009  0.1049063E+03  0.7561462E-02  0.1270304E+00
          1   -1    0    0  501    0  0.00000000000E+00  0.00000000000E+00  0.22233393625E+03  0.22233393625E+03  0.00000000000E+00 0.  1.
         -1   -1    0    0    0  501 -0.00000000000E+00 -0.00000000000E+00 -0.17536910195E+03  0.17536910195E+03  0.00000000000E+00 0. -1.
         25    2    1    2    0    0 -0.48091589502E+02  0.19651692039E+02  0.18174296139E+03  0.22666672957E+03  0.12509321444E+03 0.  0.
          5    1    3    3  502    0  0.36031622728E+02 -0.18576895908E+02  0.75532175575E+02  0.85825176056E+02  0.41800000000E+01 0.  1.
         -5    1    3    3    0  502 -0.84123212230E+02  0.38228587947E+02  0.10621078581E+03  0.14084155351E+03  0.41800000000E+01 0.  1.
        -11    1    1    2    0    0  0.37371341231E+02 -0.39267539866E+02 -0.26249666232E+02  0.60229575872E+02  0.00000000000E+00 0.  1.
         11    1    1    2    0    0  0.10720248271E+02  0.19615847826E+02 -0.10852846086E+03  0.11080673276E+03  0.00000000000E+00 0. -1.
</event>
<event>
 7    1  0.2679104E-009  0.9699607E+02  0.7561462E-02  0.1286743E+00
          3   -1    0    0  501    0  0.00000000000E+00  0.00000000000E+00  0.26693033769E+03  0.26693033769E+03  0.00000000000E+00 0. -1.
         -3   -1    0    0    0  501 -0.00000000000E+00 -0.00000000000E+00 -0.74244470444E+02  0.74244470444E+02  0.00000000000E+00 0.  1.
         25    2    1    2    0    0 -0.75702737095E+02  0.25711355613E+02  0.13037566782E+03  0.19757829045E+03  0.12508951949E+03 0.  0.
          5    1    3    3  502    0 -0.85455924102E+02  0.25344728298E+02  0.15041956440E+03  0.17489593469E+03  0.41800000000E+01 0. -1.
         -5    1    3    3    0  502  0.97531870073E+01  0.36662731498E+00 -0.20043896585E+02  0.22682355757E+02  0.41800000000E+01 0. -1.
        -11    1    1    2    0    0  0.46369327569E+01 -0.22532523275E+02  0.68433428250E+02  0.72196605548E+02  0.00000000000E+00 0. -1.
         11    1    1    2    0    0  0.71065804338E+02 -0.31788323375E+01 -0.61232288276E+01  0.71399912133E+02  0.00000000000E+00 0.  1.
</event>
<event>
 7    1  0.2679104E-009  0.1073231E+03  0.7561462E-02  0.1265609E+00
         -1   -1    0    0    0  501 -0.00000000000E+00  0.00000000000E+00  0.30591379219E+02  0.30591379219E+02  0.00000000000E+00 0.  1.
          1   -1    0    0  501    0  0.00000000000E+00 -0.00000000000E+00 -0.46767555452E+03  0.46767555452E+03  0.00000000000E+00 0. -1.
         25    2    1    2    0    0 -0.44720055277E+02  0.15101936521E+02 -0.19803729940E+03  0.23894400106E+03  0.12509001503E+03 0.  0.
          5    1    3    3  502    0 -0.16071228973E+02 -0.54676801276E+02 -0.70976654144E+02  0.91120770585E+02  0.41800000000E+01 0. -1.
         -5    1    3    3    0  502 -0.28648826304E+02  0.69778737797E+02 -0.12706064525E+03  0.14782323048E+03  0.41800000000E+01 0. -1.
        -11    1    1    2    0    0  0.23777368001E+02  0.26363868154E+02 -0.18353880133E+03  0.18694092213E+03  0.00000000000E+00 0. -1.
         11    1    1    2    0    0  0.20942687275E+02 -0.41465804675E+02 -0.55508074571E+02  0.72382010543E+02  0.00000000000E+00 0.  1.
</event>
<event>
 7    1  0.2679104E-009  0.2000522E+03  0.7561462E-02  0.1149695E+00
         -2   -1    0    0    0  501 -0.00000000000E+00  0.00000000000E+00  0.82869398064E+02  0.82869398064E+02  0.00000000000E+00 0.  1.
          2   -1    0    0  501    0  0.00000000000E+00 -0.00000000000E+00 -0.93363383202E+03  0.93363383202E+03  0.00000000000E+00 0. -1.
         25    2    1    2    0    0  0.16586744347E+03  0.96448581726E+02 -0.74406168149E+03  0.77851812916E+03  0.12509338050E+03 0.  0.
          5    1    3    3  502    0  0.96855497847E+02  0.15011922299E+02 -0.53309444534E+03  0.54204566719E+03  0.41800000000E+01 0. -1.
         -5    1    3    3    0  502  0.69011945623E+02  0.81436659428E+02 -0.21096723616E+03  0.23647246197E+03  0.41800000000E+01 0. -1.
        -11    1    1    2    0    0 -0.58425932632E+02 -0.14912367647E+02 -0.80511377833E+02  0.10058851959E+03  0.00000000000E+00 0. -1.
         11    1    1    2    0    0 -0.10744151084E+03 -0.81536214079E+02 -0.26191374632E+02  0.13739658134E+03  0.00000000000E+00 0.  1.
</event>
<event>
 7    1  0.2679104E-009  0.1173216E+03  0.7561462E-02  0.1247582E+00
          1   -1    0    0  501    0  0.00000000000E+00  0.00000000000E+00  0.55529787807E+03  0.55529787807E+03  0.00000000000E+00 0. -1.
         -1   -1    0    0    0  501 -0.00000000000E+00 -0.00000000000E+00 -0.31060791279E+02  0.31060791279E+02  0.00000000000E+00 0.  1.
         25    2    1    2    0    0  0.95434026199E+01  0.56345906615E+02  0.18003381631E+03  0.22655060535E+03  0.12508822503E+03 0.  0.
          5    1    3    3  502    0 -0.53284231159E+02  0.36862392212E+02  0.54515719407E+02  0.84779014575E+02  0.41800000000E+01 0. -1.
         -5    1    3    3    0  502  0.62827633779E+02  0.19483514402E+02  0.12551809691E+03  0.14177159077E+03  0.41800000000E+01 0. -1.
        -11    1    1    2    0    0 -0.28204482227E+02 -0.73332719634E+02  0.23738831734E+03  0.25005278202E+03  0.00000000000E+00 0. -1.
         11    1    1    2    0    0  0.18661079607E+02  0.16986813019E+02  0.10681495314E+03  0.10975528198E+03  0.00000000000E+00 0.  1.
</event>
<event>
 7    1  0.2679104E-009  0.1593791E+03  0.7561462E-02  0.1189399E+00
          1   -1    0    0  501    0  0.00000000000E+00  0.00000000000E+00  0.16167421962E+04  0.16167421962E+04  0.00000000000E+00 0. -1.
         -1   -1    0    0    0  501 -0.00000000000E+00 -0.00000000000E+00 -0.18562210552E+02  0.18562210552E+02  0.00000000000E+00 0.  1.
         25    2    1    2    0    0 -0.23006367600E+02 -0.11891895478E+03  0.11340637869E+04  0.11473532107E+04  0.12509079369E+03 0.  0.
          5    1    3    3  502    0  0.38431127030E+02 -0.41471761853E+01  0.16189450997E+03  0.16649761366E+03  0.41800000000E+01 0.  1.
         -5    1    3    3    0  502 -0.61437494630E+02 -0.11477177859E+03  0.97216927694E+03  0.98085559708E+03  0.41800000000E+01 0.  1.
        -11    1    1    2    0    0  0.30021621507E+02 -0.48010807686E+00  0.11766343630E+03  0.12143398414E+03  0.00000000000E+00 0.  1.
         11    1    1    2    0    0 -0.70152539068E+01  0.11939906285E+03  0.34645276246E+03  0.36651721190E+03  0.00000000000E+00 0. -1.
</event>
<event>
 7    1  0.2679104E-009  0.2586075E+03  0.7561462E-02  0.1107983E+00
          1   -1    0    0  501    0  0.00000000000E+00  0.00000000000E+00  0.13393202057E+03  0.13393202057E+03  0.00000000000E+00 0. -1.
         -1   -1    0    0    0  501 -0.00000000000E+00 -0.00000000000E+00 -0.70850845433E+03  0.70850845433E+03  0.00000000000E+00 0.  1.
         25    2    1    2    0    0  0.24008366401E+03  0.66491552772E+02 -0.94452287851E+02  0.29432929163E+03  0.12508878814E+03 0.  0.
          5    1    3    3  502    0  0.94092816593E+02 -0.29079149769E+01  0.19863146458E+02  0.96301251763E+02  0.41800000000E+01 0. -1.
         -5    1    3    3    0  502  0.14599084742E+03  0.69399467749E+02 -0.11431543431E+03  0.19802803987E+03  0.41800000000E+01 0. -1.
        -11    1    1    2    0    0 -0.20950373122E+03 -0.26848679063E+02 -0.41790691258E+03  0.46825084361E+03  0.00000000000E+00 0.  1.
         11    1    1    2    0    0 -0.30579932788E+02 -0.39642873709E+02 -0.62217233331E+02  0.79860339647E+02  0.00000000000E+00 0. -1.
</event>
<event>
 7    1  0.2679104E-009  0.1625205E+03  0.7561462E-02  0.1185880E+00
         -2   -1    0    0    0  501 -0.00000000000E+00  0.00000000000E+00  0.59708522417E+02  0.59708522417E+02  0.00000000000E+00 0.  1.
          2   -1    0    0  501    0  0.00000000000E+00 -0.00000000000E+00 -0.51922000951E+03  0.51922000951E+03  0.00000000000E+00 0. -1.
         25    2    1    2    0    0 -0.53251843971E+02  0.12701063764E+03 -0.26881002296E+03  0.32691488493E+03  0.12508817924E+03 0.  0.
          5    1    3    3  502    0 -0.92890882181E+02  0.92250631341E+02 -0.16751157171E+03  0.21264170342E+03  0.41800000000E+01 0. -1.
         -5    1    3    3    0  502  0.39639038210E+02  0.34760006298E+02 -0.10129845125E+03  0.11427318151E+03  0.41800000000E+01 0. -1.
        -11    1    1    2    0    0  0.30718799024E+02 -0.35581424784E+02 -0.97215920860E+01  0.48001997415E+02  0.00000000000E+00 0.  1.
         11    1    1    2    0    0  0.22533044946E+02 -0.91429212855E+02 -0.18097987204E+03  0.20401164958E+03  0.00000000000E+00 0. -1.
</event>
<event>
 7    1  0.2679104E-009  0.8973593E+02  0.7561462E-02  0.1303492E+00
          2   -1    0    0  501    0  0.00000000000E+00  0.00000000000E+00  0.85096541304E+03  0.85096541304E+03  0.00000000000E+00 0. -1.
         -2   -1    0    0    0  501 -0.00000000000E+00 -0.00000000000E+00 -0.17354376259E+02  0.17354376259E+02  0.00000000000E+00 0.  1.
         25    2    1    2    0    0 -0.50209634341E+02 -0.66007042945E+00  0.38319000377E+03  0.40620232264E+03  0.12507719560E+03 0.  0.
          5    1    3    3  502    0 -0.20335036844E+02  0.28818148509E+02  0.35189470700E+03  0.35368256477E+03  0.41800000000E+01 0. -1.
         -5    1    3    3    0  502 -0.29874597497E+02 -0.29478218939E+02  0.31295296768E+02  0.52519757874E+02  0.41800000000E+01 0. -1.
        -11    1    1    2    0    0  0.75785768407E+02 -0.34927027470E+01  0.36722534435E+03  0.37498017974E+03  0.00000000000E+00 0.  1.
         11    1    1    2    0    0 -0.25576134066E+02  0.41527731765E+01  0.83195688661E+02  0.87137286914E+02  0.00000000000E+00 0. -1.
</event>
<event>
 7    1  0.2679104E-009  0.9196308E+02  0.7561462E-02  0.1298166E+00
          2   -1    0    0  501    0  0.00000000000E+00  0.00000000000E+00  0.14245462594E+03  0.14245462594E+03  0.00000000000E+00 0. -1.
         -2   -1    0    0    0  501 -0.00000000000E+00 -0.00000000000E+00 -0.10394357423E+03  0.10394357423E+03  0.00000000000E+00 0.  1.
         25    2    1    2    0    0  0.21599896979E+02  0.45926983147E+02  0.13726767291E+01  0.13499732633E+03  0.12508617247E+03 0.  0.
          5    1    3    3  502    0  0.75615092552E+01 -0.26595093455E+02  0.42100963855E+02  0.50541457989E+02  0.41800000000E+01 0.  1.
         -5    1    3    3    0  502  0.14038387724E+02  0.72522076602E+02 -0.40728287126E+02  0.84455868338E+02  0.41800000000E+01 0.  1.
        -11    1    1    2    0    0 -0.44299237716E+02 -0.36492418476E+02 -0.99800324654E+01  0.58255644503E+02  0.00000000000E+00 0.  1.
         11    1    1    2    0    0  0.22699340737E+02 -0.94345646706E+01  0.47118407455E+02  0.53145229339E+02  0.00000000000E+00 0. -1.
</event>
<event>
 7    1  0.2679104E-009  0.1213749E+03  0.7561462E-02  0.1240846E+00
         -2   -1    0    0    0  501 -0.00000000000E+00  0.00000000000E+00  0.21264892469E+02  0.21264892469E+02  0.00000000000E+00 0. -1.
          2   -1    0    0  501    0  0.00000000000E+00 -0.00000000000E+00 -0.70537107195E+03  0.70537107195E+03  0.00000000000E+00 0.  1.
         25    2    1    2    0    0 -0.39776786766E+02  0.38486585060E+02 -0.35127574491E+03  0.37696799525E+03  0.12508721151E+03 0.  0.
          5    1    3    3  502    0  0.43648802444E+02  0.26718771106E+02 -0.11062347446E+03  0.12195956783E+03  0.41800000000E+01 0.  1.
         -5    1    3    3    0  502 -0.83425589210E+02  0.11767813954E+02 -0.24065227045E+03  0.25500842741E+03  0.41800000000E+01 0.  1.
        -11    1    1    2    0    0  0.60763837482E+02  0.26975444007E+01 -0.17983142163E+03  0.18983903944E+03  0.00000000000E+00 0. -1.
         11    1    1    2    0    0 -0.20987050717E+02 -0.41184129461E+02 -0.15299901294E+03  0.15982892973E+03  0.00000000000E+00 0.  1.
</event>
<event>
 7    1  0.2679104E-009  0.6317785E+02  0.7561462E-02  0.1384960E+00
         -1   -1    0    0    0  501 -0.00000000000E+00  0.00000000000E+00  0.44777688197E+02  0.44777688197E+02  0.00000000000E+00 0.  1.
          1   -1    0    0  501    0  0.00000000000E+00 -0.00000000000E+00 -0.30399789353E+03  0.30399789353E+03  0.00000000000E+00 0. -1.
         25    2    1    2    0    0  0.34311557460E+02  0.18330871039E+01 -0.10926805128E+03  0.16961377493E+03  0.12509469386E+03 0.  0.
          5    1    3    3  502    0  0.33885034823E+02  0.21746170910E+01 -0.13718189266E+03  0.14138340998E+03  0.41800000000E+01 0. -1.
         -5    1    3    3    0  502  0.42652263650E+00 -0.34152998709E+00  0.27913841382E+02  0.28230364947E+02  0.41800000000E+01 0. -1.
        -11    1    1    2    0    0  0.90008758695E+01  0.31826828413E+02 -0.21397144044E+02  0.39392899696E+02  0.00000000000E+00 0.  1.
         11    1    1    2    0    0 -0.43312433329E+02 -0.33659915517E+02 -0.12855501002E+03  0.13976890711E+03  0.00000000000E+00 0. -1.
</event>
<event>
 7    1  0.2679104E-009  0.9366442E+02  0.7561462E-02  0.1294213E+00
         -1   -1    0    0    0  501 -0.00000000000E+00  0.00000000000E+00  0.58348644904E+02  0.58348644904E+02  0.00000000000E+00 0.  1.
          1   -1    0    0  501    0  0.00000000000E+00 -0.00000000000E+00 -0.27856520921E+03  0.27856520921E+03  0.00000000000E+00 0. -1.
         25    2    1    2    0    0  0.40512787449E+02  0.43049127476E+02 -0.75939347795E+02  0.15782439965E+03  0.12508894139E+03 0.  0.
          5    1    3    3  502    0 -0.11682142902E+02  0.50973270345E+02  0.13239410360E+02  0.54106387231E+02  0.41800000000E+01 0. -1.
         -5    1    3    3    0  502  0.52194930351E+02 -0.79241428690E+01 -0.89178758155E+02  0.10371801242E+03  0.41800000000E+01 0. -1.
        -11    1    1    2    0    0 -0.20673455345E+02  0.11645189240E+02 -0.10788608834E+03  0.11046452030E+03  0.00000000000E+00 0. -1.
         11    1    1    2    0    0 -0.19839332104E+02 -0.54694316716E+02 -0.36391128180E+02  0.68624934168E+02  0.00000000000E+00 0.  1.
</event>
<event>
 7    1  0.2679104E-009  0.8968153E+02  0.7561462E-02  0.1303625E+00
         -2   -1    0    0    0  501 -0.00000000000E+00  0.00000000000E+00  0.17499862451E+03  0.17499862451E+03  0.00000000000E+00 0.  1.
          2   -1    0    0  501    0  0.00000000000E+00 -0.00000000000E+00 -0.77036947076E+02  0.77036947076E+02  0.00000000000E+00 0. -1.
         25    2    1    2    0    0  0.39363324121E+02 -0.22156211957E+01  0.72951287563E+02  0.15007926853E+03  0.12509003247E+03 0.  0.
          5    1    3    3  502    0  0.54908797057E+02 -0.30968471784E+02 -0.70372510807E+01  0.63568998275E+02  0.41800000000E+01 0.  1.
         -5    1    3    3    0  502 -0.15545472935E+02  0.28752850589E+02  0.79988538644E+02  0.86510270258E+02  0.41800000000E+01 0.  1.
        -11    1    1    2    0    0 -0.60889793502E+02 -0.34027581816E+01 -0.86632439977E+01  0.61597057661E+02  0.00000000000E+00 0. -1.
         11    1    1    2    0    0  0.21526469380E+02  0.56183793773E+01  0.33673633873E+02  0.40359245397E+02  0.00000000000E+00 0.  1.
</event>
<event>
 7    1  0.2679104E-009  0.8382476E+02  0.7561462E-02  0.1318535E+00
          1   -1    0    0  501    0  0.00000000000E+00  0.00000000000E+00  0.97131514156E+03  0.97131514156E+03  0.00000000000E+00 0. -1.
         -1   -1    0    0    0  501 -0.00000000000E+00 -0.00000000000E+00 -0.34494354287E+02  0.34494354287E+02  0.00000000000E+00 0.  1.
         25    2    1    2    0    0  0.28493521106E+02  0.20426583177E+02  0.85364042861E+03  0.86346974831E+03  0.12509555885E+03 0.  0.
          5    1    3    3  502    0 -0.47172086095E+02  0.78035010463E+01  0.21908437504E+03  0.22428003951E+03  0.41800000000E+01 0.  1.
         -5    1    3    3    0  502  0.75665607201E+02  0.12623082130E+02  0.63455605358E+03  0.63918970881E+03  0.41800000000E+01 0.  1.
        -11    1    1    2    0    0 -0.69327775726E+01 -0.20103890893E+02 -0.24545872579E+02  0.32476602263E+02  0.00000000000E+00 0.  1.
         11    1    1    2    0    0 -0.21560743534E+02 -0.32269228365E+00  0.10772623124E+03  0.10986314527E+03  0.00000000000E+00 0. -1.
</event>
<event>
 7    1  0.2679104E-009  0.1738507E+03  0.7561462E-02  0.1173891E+00
          1   -1    0    0  501    0  0.00000000000E+00  0.00000000000E+00  0.63828932043E+03  0.63828932043E+03  0.00000000000E+00 0. -1.
         -1   -1    0    0    0  501 -0.00000000000E+00 -0.00000000000E+00 -0.56710807307E+02  0.56710807307E+02  0.00000000000E+00 0.  1.
         25    2    1    2    0    0 -0.14035682646E+03 -0.62309095014E+02  0.35524756715E+03  0.40673151485E+03  0.12508888499E+03 0.  0.
          5    1    3    3  502    0 -0.11795175179E+03  0.33445111140E+01  0.28220256813E+03  0.30590776938E+03  0.41800000000E+01 0.  1.
         -5    1    3    3    0  502 -0.22405074662E+02 -0.65653606128E+02  0.73044999021E+02  0.10082374547E+03  0.41800000000E+01 0.  1.
        -11    1    1    2    0    0  0.68520681440E+02  0.58625284842E+01  0.16353980695E+03  0.17741116504E+03  0.00000000000E+00 0. -1.
         11    1    1    2    0    0  0.71836145017E+02  0.56446566529E+02  0.62791139022E+02  0.11085744785E+03  0.00000000000E+00 0.  1.
</event>
<event>
 7    1  0.2679104E-009  0.1611164E+03  0.7561462E-02  0.1187442E+00
          2   -1    0    0  501    0  0.00000000000E+00  0.00000000000E+00  0.21691056058E+03  0.21691056058E+03  0.00000000000E+00 0.  1.
         -2   -1    0    0    0  501 -0.00000000000E+00 -0.00000000000E+00 -0.14120509014E+03  0.14120509014E+03  0.00000000000E+00 0. -1.
         25    2    1    2    0    0 -0.13672219417E+03 -0.64803592886E+00  0.40732195218E+02  0.18973777063E+03  0.12509169256E+03 0.  0.
          5    1    3    3  502    0 -0.85618528786E+02  0.45895122788E+02 -0.18061854532E+02  0.98896904685E+02  0.41800000000E+01 0. -1.
         -5    1    3    3    0  502 -0.51103665381E+02 -0.46543158717E+02  0.58794049750E+02  0.90840865940E+02  0.41800000000E+01 0. -1.
        -11    1    1    2    0    0  0.74540169749E+02 -0.36835489770E+02 -0.87808102299E+01  0.83607373126E+02  0.00000000000E+00 0.  1.
         11    1    1    2    0    0  0.62182024418E+02  0.37483525699E+02  0.43754085452E+02  0.84770506977E+02  0.00000000000E+00 0. -1.
</event>
<event>
 7    1  0.2679104E-009  0.1100940E+03  0.7561462E-02  0.1260396E+00
          2   -1    0    0  501    0  0.00000000000E+00  0.00000000000E+00  0.13512078740E+04  0.13512078740E+04  0.00000000000E+00 0. -1.
         -2   -1    0    0    0  501 -0.00000000000E+00 -0.00000000000E+00 -0.21105852951E+02  0.21105852951E+02  0.00000000000E+00 0.  1.
         25    2    1    2    0    0  0.70812762140E+02  0.18992181051E+02  0.11438728881E+04  0.11530255780E+04  0.12509056382E+03 0.  0.
          5    1    3    3  502    0 -0.24501968482E+02 -0.24657030736E+02  0.43813526458E+03  0.43953190793E+03  0.41800000000E+01 0. -1.
         -5    1    3    3    0  502  0.95314730622E+02  0.43649211787E+02  0.70573762348E+03  0.71349367002E+03  0.41800000000E+01 0. -1.
        -11    1    1    2    0    0 -0.28189321610E+02  0.86152031299E+01  0.15891468619E+03  0.16162529834E+03  0.00000000000E+00 0. -1.
         11    1    1    2    0    0 -0.42623440529E+02 -0.27607384180E+02  0.27314446838E+02  0.57662850692E+02  0.00000000000E+00 0.  1.
</event>
<event>
 7    1  0.2679104E-009  0.1085118E+03  0.7561462E-02  0.1263351E+00
         -2   -1    0    0    0  501 -0.00000000000E+00  0.00000000000E+00  0.14896693375E+02  0.14896693375E+02  0.00000000000E+00 0.  1.
          2   -1    0    0  501    0  0.00000000000E+00 -0.00000000000E+00 -0.10248172248E+04  0.10248172248E+04  0.00000000000E+00 0. -1.
         25    2    1    2    0    0  0.25439661636E+02  0.72980548106E+01 -0.80109791617E+03  0.81123664385E+03  0.12508630238E+03 0.  0.
          5    1    3    3  502    0 -0.20757282313E+02  0.56308717444E+02 -0.40119479713E+03  0.40568001439E+03  0.41800000000E+01 0. -1.
         -5    1    3    3    0  502  0.46196943950E+02 -0.49010662634E+02 -0.39990311904E+03  0.40555662946E+03  0.41800000000E+01 0. -1.
        -11    1    1    2    0    0 -0.50894296658E+02 -0.26612045945E+02 -0.16122857631E+03  0.17115222535E+03  0.00000000000E+00 0. -1.
         11    1    1    2    0    0  0.25454635022E+02  0.19313991134E+02 -0.47594038947E+02  0.57325048983E+02  0.00000000000E+00 0.  1.
</event>
<event>
 7    1  0.2679104E-009  0.1194312E+03  0.7561462E-02  0.1244038E+00
         -1   -1    0    0    0  501 -0.00000000000E+00  0.00000000000E+00  0.44775640590E+02  0.44775640590E+02  0.00000000000E+00 0. -1.
          1   -1    0    0  501    0  0.00000000000E+00 -0.00000000000E+00 -0.46365170316E+03  0.46365170316E+03  0.00000000000E+00 0.  1.
         25    2    1    2    0    0 -0.85146052983E+02  0.70614914676E+01 -0.30796440902E+03  0.34320411133E+03  0.12508904750E+03 0.  0.
          5    1    3    3  502    0  0.24232064685E+02  0.12857531582E+02 -0.17649621634E+02  0.32886024708E+02  0.41800000000E+01 0. -1.
         -5    1    3    3    0  502 -0.10937811767E+03 -0.57960401141E+01 -0.29031478739E+03  0.31031808662E+03  0.41800000000E+01 0. -1.
        -11    1    1    2    0    0  0.75790476427E+02  0.15249546104E+02 -0.11703812099E+03  0.14026641344E+03  0.00000000000E+00 0.  1.
         11    1    1    2    0    0  0.93555765559E+01 -0.22311037572E+02  0.61264674498E+01  0.24956818981E+02  0.00000000000E+00 0. -1.
</event>
<event>
 7    1  0.2679104E-009  0.1005795E+03  0.7561462E-02  0.1279082E+00
         -1   -1    0    0    0  501 -0.00000000000E+00  0.00000000000E+00  0.23963274673E+03  0.23963274673E+03  0.00000000000E+00 0.  1.
          1   -1    0    0  501    0  0.00000000000E+00 -0.00000000000E+00 -0.59888604800E+02  0.59888604800E+02  0.00000000000E+00 0. -1.
         25    2    1    2    0    0 -0.46665668072E+02 -0.65787674107E+01  0.87481411573E+02  0.15975513343E+03  0.12509092905E+03 0.  0.
          5    1    3    3  502    0 -0.96007286749E+01 -0.54200695001E+02  0.82224346136E+02  0.99036381332E+02  0.41800000000E+01 0. -1.
         -5    1    3    3    0  502 -0.37064939397E+02  0.47621927590E+02  0.52570654368E+01  0.60718752103E+02  0.41800000000E+01 0. -1.
        -11    1    1    2    0    0  0.55710721315E+02  0.27898831754E+02  0.97793874635E+02  0.11595547076E+03  0.00000000000E+00 0.  1.
         11    1    1    2    0    0 -0.90450532428E+01 -0.21320064343E+02 -0.55311442787E+01  0.23810747338E+02  0.00000000000E+00 0. -1.
</event>
<event>
 7    1  0.2679104E-009  0.1399839E+03  0.7561462E-02  0.1213351E+00
         -1   -1    0    0    0  501 -0.00000000000E+00  0.00000000000E+00  0.40715000951E+02  0.40715000951E+02  0.00000000000E+00 0.  1.
          1   -1    0    0  501    0  0.00000000000E+00 -0.00000000000E+00 -0.89926346833E+03  0.89926346833E+03  0.00000000000E+00 0. -1.
         25    2    1    2    0    0  0.62510286340E+02 -0.41245962805E+02 -0.63466533011E+03  0.65119639066E+03  0.12509153695E+03 0.  0.
          5    1    3    3  502    0 -0.12003514097E+02 -0.65643330898E+02 -0.26752332483E+03  0.27575230365E+03  0.41800000000E+01 0.  1.
         -5    1    3    3    0  502  0.74513800436E+02  0.24397368093E+02 -0.36714200528E+03  0.37544408701E+03  0.41800000000E+01 0.  1.
        -11    1    1    2    0    0 -0.10592681567E+02 -0.38222513156E+02 -0.17979626016E+03  0.18411914779E+03  0.00000000000E+00 0. -1.
         11    1    1    2    0    0 -0.51917604772E+02  0.79468475961E+02 -0.44086877102E+02  0.10466293083E+03  0.00000000000E+00 0.  1.
</event>
<event>
 7    1  0.2679104E-009  0.1056463E+03  0.7561462E-02  0.1268851E+00
         -1   -1    0    0    0  501 -0.00000000000E+00  0.00000000000E+00  0.15438711839E+02  0.15438711839E+02  0.00000000000E+00 0.  1.
          1   -1    0    0  501    0  0.00000000000E+00 -0.00000000000E+00 -0.12982883784E+04  0.12982883784E+04  0.00000000000E+00 0. -1.
         25    2    1    2    0    0 -0.42852544138E+02  0.56800901771E+00 -0.10645796596E+04  0.10727596093E+04  0.12508662807E+03 0.  0.
          5    1    3    3  502    0  0.38191579674E+02 -0.18673216907E+02 -0.52936537196E+03  0.53108610904E+03  0.41800000000E+01 0.  1.
         -5    1    3    3    0  502 -0.81044123812E+02  0.19241225924E+02 -0.53521428768E+03  0.54167350029E+03  0.41800000000E+01 0.  1.
        -11    1    1    2    0    0  0.63967719938E+02 -0.21080848595E+01 -0.20763450355E+03  0.21727494167E+03  0.00000000000E+00 0. -1.
         11    1    1    2    0    0 -0.21115175799E+02  0.15400758417E+01 -0.10635503349E+02  0.23692539208E+02  0.00000000000E+00 0.  1.
</event>
<event>
 7    1  0.2679104E-009  0.8755461E+02  0.7561462E-02  0.1308884E+00
         -1   -1    0    0    0  501 -0.00000000000E+00  0.00000000000E+00  0.84924281577E+03  0.84924281577E+03  0.00000000000E+00 0. -1.
          1   -1    0    0  501    0  0.00000000000E+00 -0.00000000000E+00 -0.17573008899E+02  0.17573008899E+02  0.00000000000E+00 0.  1.
         25    2    1    2    0    0 -0.60204058789E+02  0.17903990507E+02  0.43444907197E+03  0.45643926997E+03  0.12508289038E+03 0.  0.
          5    1    3    3  502    0 -0.50027900749E+02 -0.31779113317E+01  0.42913486917E+03  0.43207302428E+03  0.41800000000E+01 0. -1.
         -5    1    3    3    0  502 -0.10176158039E+02  0.21081901839E+02  0.53142027987E+01  0.24366245689E+02  0.41800000000E+01 0. -1.
        -11    1    1    2    0    0 -0.18980131683E+02  0.27878141395E+01  0.11259865430E+03  0.11422116378E+03  0.00000000000E+00 0. -1.
         11    1    1    2    0    0  0.79184190472E+02 -0.20691804647E+02  0.28462208061E+03  0.29615539092E+03  0.00000000000E+00 0.  1.
</event>
<event>
 7    1  0.2679104E-009  0.1337874E+03  0.7561462E-02  0.1221942E+00
         -2   -1    0    0    0  501 -0.00000000000E+00  0.00000000000E+00  0.31939718284E+02  0.31939718284E+02  0.00000000000E+00 0.  1.
          2   -1    0    0  501    0  0.00000000000E+00 -0.00000000000E+00 -0.65847680815E+03  0.65847680815E+03  0.00000000000E+00 0. -1.
         25    2    1    2    0    0  0.67175547490E+02 -0.49092118806E+02 -0.22614169010E+03  0.27148747732E+03  0.12507116386E+03 0.  0.
          5    1    3    3  502    0 -0.21042192680E+02 -0.52927444126E+02 -0.12323435244E+03  0.13582439485E+03  0.41800000000E+01 0. -1.
         -5    1    3    3    0  502  0.88217740170E+02  0.38353253204E+01 -0.10290733765E+03  0.13566308246E+03  0.41800000000E+01 0. -1.
        -11    1    1    2    0    0 -0.71929252552E+02 -0.81299157216E+00 -0.26354022342E+03  0.27318112616E+03  0.00000000000E+00 0. -1.
         11    1    1    2    0    0  0.47537050617E+01  0.49905110378E+02 -0.13685517636E+03  0.14574792297E+03  0.00000000000E+00 0.  1.
</event>
<event>
 7    1  0.2679104E-009  0.1729964E+03  0.7561462E-02  0.1174759E+00
          2   -1    0    0  501    0  0.00000000000E+00  0.00000000000E+00  0.60193515653E+02  0.60193515653E+02  0.00000000000E+00 0. -1.
         -2   -1    0    0    0  501 -0.00000000000E+00 -0.00000000000E+00 -0.83237891322E+03  0.83237891322E+03  0.00000000000E+00 0.  1.
         25    2    1    2    0    0  0.80493741858E+02  0.12553396903E+03 -0.14778640282E+03  0.24439001309E+03  0.12509051836E+03 0.  0.
          5    1    3    3  502    0 -0.25959439618E+02  0.18052188981E+02 -0.63762232568E+02  0.71294240541E+02  0.41800000000E+01 0. -1.
         -5    1    3    3    0  502  0.10645318148E+03  0.10748178005E+03 -0.84024170250E+02  0.17309577255E+03  0.41800000000E+01 0. -1.
        -11    1    1    2    0    0  0.52648237151E+01 -0.44390100556E+02 -0.85258445809E+02  0.96266307595E+02  0.00000000000E+00 0.  1.
         11    1    1    2    0    0 -0.85758565573E+02 -0.81143868477E+02 -0.53914054894E+03  0.55191610818E+03  0.00000000000E+00 0. -1.
</event>
<event>
 7    1  0.2679104E-009  0.1917818E+03  0.7561462E-02  0.1156864E+00
         -2   -1    0    0    0  501 -0.00000000000E+00  0.00000000000E+00  0.61600083979E+03  0.61600083979E+03  0.00000000000E+00 0.  1.
          2   -1    0    0  501    0  0.00000000000E+00 -0.00000000000E+00 -0.77121734154E+02  0.77121734154E+02  0.00000000000E+00 0. -1.
         25    2    1    2    0    0  0.69228262878E+02 -0.16598586496E+03  0.37577127042E+03  0.43496528041E+03  0.12508752035E+03 0.  0.
          5    1    3    3  502    0  0.38355686959E+02 -0.14552660197E+03  0.36699249027E+03  0.39667380921E+03  0.41800000000E+01 0. -1.
         -5    1    3    3    0  502  0.30872575918E+02 -0.20459262988E+02  0.87787801530E+01  0.38291471202E+02  0.41800000000E+01 0. -1.
        -11    1    1    2    0    0  0.17255042060E+02  0.27236473169E+02  0.89880300020E+01  0.33471579444E+02  0.00000000000E+00 0. -1.
         11    1    1    2    0    0 -0.86483304938E+02  0.13874939179E+03  0.15411980522E+03  0.22468571409E+03  0.00000000000E+00 0.  1.
</event>
<event>
 7    1  0.2679104E-009  0.1716060E+03  0.7561462E-02  0.1176183E+00
          1   -1    0    0  501    0  0.00000000000E+00  0.00000000000E+00  0.41570146557E+02  0.41570146557E+02  0.00000000000E+00 0. -1.
         -1   -1    0    0    0  501 -0.00000000000E+00 -0.00000000000E+00 -0.86595127381E+03  0.86595127381E+03  0.00000000000E+00 0.  1.
         25    2    1    2    0    0  0.96578305407E+02 -0.91588232804E+02 -0.61874303464E+03  0.64514010526E+03  0.12508812507E+03 0.  0.
          5    1    3    3  502    0  0.55587785389E+02  0.23415089290E+02 -0.19933232119E+03  0.20830054000E+03  0.41800000000E+01 0. -1.
         -5    1    3    3    0  502  0.40990520018E+02 -0.11500332209E+03 -0.41941071345E+03  0.43683956526E+03  0.41800000000E+01 0. -1.
        -11    1    1    2    0    0 -0.52984594291E+02  0.10273317791E+03 -0.16682611350E+03  0.20295917132E+03  0.00000000000E+00 0.  1.
         11    1    1    2    0    0 -0.43593711116E+02 -0.11144945108E+02 -0.38811979120E+02  0.59422143798E+02  0.00000000000E+00 0. -1.
</event>
<event>
 7    1  0.2679104E-009  0.1481439E+03  0.7561462E-02  0.1202772E+00
         -1   -1    0    0    0  501 -0.00000000000E+00  0.00000000000E+00  0.15661435399E+03  0.15661435399E+03  0.00000000000E+00 0.  1.
          1   -1    0    0  501    0  0.00000000000E+00 -0.00000000000E+00 -0.14216805820E+03  0.14216805820E+03  0.00000000000E+00 0. -1.
         25    2    1    2    0    0 -0.10205702388E+03  0.11023681353E+02  0.18318444846E+02  0.16285365734E+03  0.12509432687E+03 0.  0.
          5    1    3    3  502    0 -0.12389112086E+03  0.34446608233E+02  0.78161517351E+01  0.12889586214E+03  0.41800000000E+01 0.  1.
         -5    1    3    3    0  502  0.21834096985E+02 -0.23422926880E+02  0.10502293110E+02  0.33957795208E+02  0.41800000000E+01 0.  1.
        -11    1    1    2    0    0 -0.11829201864E+00  0.26491325631E+02  0.40354139226E+01  0.26797180677E+02  0.00000000000E+00 0.  1.
         11    1    1    2    0    0  0.10217531590E+03 -0.37515006985E+02 -0.79075629762E+01  0.10913157417E+03  0.00000000000E+00 0. -1.
</event>
<event>
 7    1  0.2679104E-009  0.2354939E+03  0.7561462E-02  0.1122832E+00
         -2   -1    0    0    0  501 -0.00000000000E+00  0.00000000000E+00  0.38066940149E+03  0.38066940149E+03  0.00000000000E+00 0.  1.
          2   -1    0    0  501    0  0.00000000000E+00 -0.00000000000E+00 -0.18584315145E+03  0.18584315145E+03  0.00000000000E+00 0. -1.
         25    2    1    2    0    0  0.40562834424E+02 -0.21027193568E+03 -0.22612220835E+02  0.24903576821E+03  0.12509144993E+03 0.  0.
          5    1    3    3  502    0 -0.40925593408E+02 -0.70635814147E+02  0.14713692723E+02  0.83055930490E+02  0.41800000000E+01 0. -1.
         -5    1    3    3    0  502  0.81488427832E+02 -0.13963612153E+03 -0.37325913557E+02  0.16597983772E+03  0.41800000000E+01 0. -1.
        -11    1    1    2    0    0  0.17354277046E+02  0.11287308737E+03  0.13781575237E+03  0.17898236334E+03  0.00000000000E+00 0.  1.
         11    1    1    2    0    0 -0.57917111470E+02  0.97398848305E+02  0.79622718503E+02  0.13849442138E+03  0.00000000000E+00 0. -1.
</event>
<event>
 7    1  0.2679104E-009  0.1076290E+03  0.7561462E-02  0.1265025E+00
         -2   -1    0    0    0  501 -0.00000000000E+00  0.00000000000E+00  0.14382311272E+03  0.14382311272E+03  0.00000000000E+00 0.  1.
          2   -1    0    0  501    0  0.00000000000E+00 -0.00000000000E+00 -0.11891800193E+03  0.11891800193E+03  0.00000000000E+00 0. -1.
         25    2    1    2    0    0  0.21655673873E+02 -0.28634862750E+02  0.76457834766E+02  0.15094997913E+03  0.12510464470E+03 0.  0.
          5    1    3    3  502    0  0.35348154832E+02  0.43430438087E+02  0.26434303344E+02  0.62063997581E+02  0.41800000000E+01 0. -1.
         -5    1    3    3    0  502 -0.13692480959E+02 -0.72065300836E+02  0.50023531421E+02  0.88885981545E+02  0.41800000000E+01 0. -1.
        -11    1    1    2    0    0  0.27282151305E+02 -0.28648098628E+01  0.79473184157E+01  0.28560160808E+02  0.00000000000E+00 0.  1.
         11    1    1    2    0    0 -0.48937825177E+02  0.31499672612E+02 -0.59500042392E+02  0.83230974718E+02  0.00000000000E+00 0. -1.
</event>
<event>
 7    1  0.2679104E-009  0.1244173E+03  0.7561462E-02  0.1235983E+00
         -2   -1    0    0    0  501 -0.00000000000E+00  0.00000000000E+00  0.24668813982E+02  0.24668813982E+02  0.00000000000E+00 0.  1.
          2   -1    0    0  501    0  0.00000000000E+00 -0.00000000000E+00 -0.65179667942E+03  0.65179667942E+03  0.00000000000E+00 0. -1.
         25    2    1    2    0    0  0.34405782915E+02  0.57831169861E+02 -0.33597375681E+03  0.36476524907E+03  0.12508844694E+03 0.  0.
          5    1    3    3  502    0  0.17762538249E+02  0.94935771862E+02 -0.19006999574E+03  0.21324254788E+03  0.41800000000E+01 0.  1.
         -5    1    3    3    0  502  0.16643244666E+02 -0.37104602002E+02 -0.14590376107E+03  0.15152270119E+03  0.41800000000E+01 0.  1.
        -11    1    1    2    0    0  0.25843721402E+02  0.25654771815E+01 -0.65925685809E+02  0.70856726275E+02  0.00000000000E+00 0.  1.
         11    1    1    2    0    0 -0.60249504317E+02 -0.60396647042E+02 -0.22522842281E+03  0.24084351805E+03  0.00000000000E+00 0. -1.
</event>
<event>
 7    1  0.2679104E-009  0.1909911E+03  0.7561462E-02  0.1157570E+00
         -3   -1    0    0    0  501 -0.00000000000E+00  0.00000000000E+00  0.41561745291E+03  0.41561745291E+03  0.00000000000E+00 0.  1.
          3   -1    0    0  501    0  0.00000000000E+00 -0.00000000000E+00 -0.95295882313E+02  0.95295882313E+02  0.00000000000E+00 0. -1.
         25    2    1    2    0    0 -0.54933686048E+01  0.16359135273E+03  0.11759986930E+03  0.23721043157E+03  0.12508697693E+03 0.  0.
          5    1    3    3  502    0  0.52042036138E+02  0.30744888199E+02  0.26658763756E+02  0.66195043325E+02  0.41800000000E+01 0.  1.
         -5    1    3    3    0  502 -0.57535404743E+02  0.13284646453E+03  0.90941105543E+02  0.17101538824E+03  0.41800000000E+01 0.  1.
        -11    1    1    2    0    0 -0.18637401815E+02 -0.10125613864E+02  0.42007576658E+01  0.21622376546E+02  0.00000000000E+00 0. -1.
         11    1    1    2    0    0  0.24130770420E+02 -0.15346573887E+03  0.19852094363E+03  0.25208052711E+03  0.00000000000E+00 0.  1.
</event>
<event>
 7    1  0.2679104E-009  0.1034467E+03  0.7561462E-02  0.1273211E+00
         -2   -1    0    0    0  501 -0.00000000000E+00  0.00000000000E+00  0.34677049135E+03  0.34677049135E+03  0.00000000000E+00 0.  1.
          2   -1    0    0  501    0  0.00000000000E+00 -0.00000000000E+00 -0.61778553233E+02  0.61778553233E+02  0.00000000000E+00 0. -1.
         25    2    1    2    0    0  0.72416554930E+01 -0.41350213802E+02  0.35643113710E+02  0.13667801085E+03  0.12509262704E+03 0.  0.
          5    1    3    3  502    0  0.17437194948E+02 -0.78631383550E+02 -0.45268039974E+01  0.80776943499E+02  0.41800000000E+01 0.  1.
         -5    1    3    3    0  502 -0.10195539455E+02  0.37281169748E+02  0.40169917707E+02  0.55901067353E+02  0.41800000000E+01 0.  1.
        -11    1    1    2    0    0  0.22959349625E+02  0.50779828015E+02  0.22540838359E+03  0.23219531016E+03  0.00000000000E+00 0.  1.
         11    1    1    2    0    0 -0.30201005118E+02 -0.94296142131E+01  0.23940440824E+02  0.39675723575E+02  0.00000000000E+00 0. -1.
</event>
<event>
 7    1  0.2679104E-009  0.1708422E+03  0.7561462E-02  0.1176972E+00
         -1   -1    0    0    0  501 -0.00000000000E+00  0.00000000000E+00  0.48150678265E+03  0.48150678265E+03  0.00000000000E+00 0.  1.
          1   -1    0    0  501    0  0.00000000000E+00 -0.00000000000E+00 -0.13506252248E+03  0.13506252248E+03  0.00000000000E+00 0. -1.
         25    2    1    2    0    0  0.48513136594E+02 -0.13081442541E+03  0.39584302547E+03  0.43795512592E+03  0.12508818166E+03 0.  0.
          5    1    3    3  502    0  0.51208335503E+02 -0.97836948833E+00  0.16782076741E+03  0.17551220244E+03  0.41800000000E+01 0.  1.
         -5    1    3    3    0  502 -0.26951989093E+01 -0.12983605592E+03  0.22802225807E+03  0.26244292348E+03  0.41800000000E+01 0.  1.
        -11    1    1    2    0    0 -0.66248471516E+02  0.67359323484E+02 -0.59941759237E+02  0.11188902064E+03  0.00000000000E+00 0.  1.
         11    1    1    2    0    0  0.17735334922E+02  0.63455101922E+02  0.10542993938E+02  0.66725158568E+02  0.00000000000E+00 0. -1.
</event>
<event>
 7    1  0.2679104E-009  0.7852382E+02  0.7561462E-02  0.1333294E+00
         -1   -1    0    0    0  501 -0.00000000000E+00  0.00000000000E+00  0.17046484489E+03  0.17046484489E+03  0.00000000000E+00 0.  1.
          1   -1    0    0  501    0  0.00000000000E+00 -0.00000000000E+00 -0.10032128017E+03  0.10032128017E+03  0.00000000000E+00 0. -1.
         25    2    1    2    0    0 -0.18358622724E+02 -0.64328018604E+02  0.19532750542E+02  0.14319352780E+03  0.12509086719E+03 0.  0.
          5    1    3    3  502    0  0.19484301120E+02 -0.66226481230E+01 -0.44345672841E+02  0.49066368910E+02  0.41800000000E+01 0.  1.
         -5    1    3    3    0  502 -0.37842923844E+02 -0.57705370481E+02  0.63878423383E+02  0.94127158893E+02  0.41800000000E+01 0.  1.
        -11    1    1    2    0    0  0.79404556379E+01  0.30663360726E+02  0.77201067886E+02  0.83446374453E+02  0.00000000000E+00 0.  1.
         11    1    1    2    0    0  0.10418167086E+02  0.33664657878E+02 -0.26590253710E+02  0.44146222804E+02  0.00000000000E+00 0. -1.
</event>
<event>
 7    1  0.2679104E-009  0.1647876E+03  0.7561462E-02  0.1183395E+00
          2   -1    0    0  501    0  0.00000000000E+00  0.00000000000E+00  0.10956941913E+03  0.10956941913E+03  0.00000000000E+00 0. -1.
         -2   -1    0    0    0  501 -0.00000000000E+00 -0.00000000000E+00 -0.27228677942E+03  0.27228677942E+03  0.00000000000E+00 0.  1.
         25    2    1    2    0    0 -0.87483920243E+02 -0.99190243865E+02 -0.63732431354E+02  0.19288174496E+03  0.12509757773E+03 0.  0.
          5    1    3    3  502    0  0.25996387506E+02 -0.58396228385E+01 -0.33144587507E+02  0.42731129628E+02  0.41800000000E+01 0. -1.
         -5    1    3    3    0  502 -0.11348030775E+03 -0.93350621027E+02 -0.30587843846E+02  0.15015061533E+03  0.41800000000E+01 0. -1.
        -11    1    1    2    0    0  0.67423309746E+02  0.15020900810E+02 -0.68371763380E+02  0.97191708422E+02  0.00000000000E+00 0. -1.
         11    1    1    2    0    0  0.20060610497E+02  0.84169343056E+02 -0.30613165557E+02  0.91782745161E+02  0.00000000000E+00 0.  1.
</event>
<event>
 7    1  0.2679104E-009  0.9301285E+02  0.7561462E-02  0.1295715E+00
         -2   -1    0    0    0  501 -0.00000000000E+00  0.00000000000E+00  0.39623605163E+02  0.39623605163E+02  0.00000000000E+00 0.  1.
          2   -1    0    0  501    0  0.00000000000E+00 -0.00000000000E+00 -0.34574698140E+03  0.34574698140E+03  0.00000000000E+00 0. -1.
         25    2    1    2    0    0 -0.26020790477E+02  0.33326063815E+02 -0.16736505061E+03  0.21317930509E+03  0.12508656158E+03 0.  0.
          5    1    3    3  502    0 -0.42655764156E+02  0.46195337173E+02 -0.22770921393E+02  0.67003810737E+02  0.41800000000E+01 0. -1.
         -5    1    3    3    0  502  0.16634973679E+02 -0.12869273358E+02 -0.14459412922E+03  0.14617549436E+03  0.41800000000E+01 0.  1.
        -11    1    1    2    0    0  0.57454667576E+02 -0.39247057373E+02 -0.10188929505E+03  0.12338070669E+03  0.00000000000E+00 0.  1.
         11    1    1    2    0    0 -0.31433877099E+02  0.59209935578E+01 -0.36869030579E+02  0.48810574777E+02  0.00000000000E+00 0. -1.
</event>
<event>
 7    1  0.2679104E-009  0.1375546E+03  0.7561462E-02  0.1216658E+00
          2   -1    0    0  501    0  0.00000000000E+00  0.00000000000E+00  0.63120934670E+03  0.63120934670E+03  0.00000000000E+00 0. -1.
         -2   -1    0    0    0  501 -0.00000000000E+00 -0.00000000000E+00 -0.37614679038E+02  0.37614679038E+02  0.00000000000E+00 0.  1.
         25    2    1    2    0    0 -0.10526738602E+03 -0.39372536665E+02  0.22197848016E+03  0.27848568738E+03  0.12509361783E+03 0.  0.
          5    1    3    3  502    0 -0.10626628924E+03  0.14369519935E+02  0.18231318754E+03  0.21155277848E+03  0.41800000000E+01 0. -1.
         -5    1    3    3    0  502  0.99890322490E+00 -0.53742056600E+02  0.39665292617E+02  0.66932908899E+02  0.41800000000E+01 0. -1.
        -11    1    1    2    0    0  0.49505918863E+02  0.28321727595E+02  0.24492849961E+03  0.25148146290E+03  0.00000000000E+00 0. -1.
         11    1    1    2    0    0  0.55761467154E+02  0.11050809070E+02  0.12668768789E+03  0.13885687546E+03  0.00000000000E+00 0.  1.
</event>
<event>
 7    1  0.3519284E-009  0.1276382E+03  0.7561462E-02  0.1231003E+00
         -2   -1    0    0    0  501 -0.00000000000E+00  0.00000000000E+00  0.39591171073E+02  0.39591171073E+02  0.00000000000E+00 0.  1.
          2   -1    0    0  501    0  0.00000000000E+00 -0.00000000000E+00 -0.72031905881E+03  0.72031905881E+03  0.00000000000E+00 0. -1.
         25    2    1    2    0    0 -0.94808534812E+02 -0.15576674900E+02 -0.16894434562E+03  0.23112948258E+03  0.12508938695E+03 0.  0.
          5    1    3    3  502    0 -0.76483453948E+02  0.22862008602E+02 -0.29398712895E+02  0.85171279695E+02  0.41800000000E+01 0.  1.
         -5    1    3    3    0  502 -0.18325080864E+02 -0.38438683501E+02 -0.13954563272E+03  0.14595820289E+03  0.41800000000E+01 0.  1.
        -11    1    1    2    0    0  0.47754273916E+02 -0.38157915961E+02 -0.21472924474E+03  0.22326026466E+03  0.00000000000E+00 0.  1.
         11    1    1    2    0    0  0.47054260896E+02  0.53734590860E+02 -0.29705429737E+03  0.30552048264E+03  0.00000000000E+00 0. -1.
</event>
<event>
 7    1  0.2679104E-009  0.7255952E+02  0.7561462E-02  0.1351599E+00
          1   -1    0    0  501    0  0.00000000000E+00  0.00000000000E+00  0.63456597383E+02  0.63456597383E+02  0.00000000000E+00 0. -1.
         -1   -1    0    0    0  501 -0.00000000000E+00 -0.00000000000E+00 -0.23348313986E+03  0.23348313986E+03  0.00000000000E+00 0.  1.
         25    2    1    2    0    0  0.79843704013E+01 -0.56165881838E+02 -0.10299114440E+03  0.17167081141E+03  0.12508131440E+03 0.  0.
          5    1    3    3  502    0  0.35560471975E+02 -0.15709565896E+02  0.16523933432E+02  0.42448208488E+02  0.41800000000E+01 0. -1.
         -5    1    3    3    0  502 -0.27576101574E+02 -0.40456315942E+02 -0.11951507783E+03  0.12922260293E+03  0.41800000000E+01 0. -1.
        -11    1    1    2    0    0 -0.14480119393E+01  0.24709166572E+02 -0.84950598089E+02  0.88483014003E+02  0.00000000000E+00 0.  1.
         11    1    1    2    0    0 -0.65363584620E+01  0.31456715265E+02  0.17915200015E+02  0.36785911825E+02  0.00000000000E+00 0. -1.
</event>
<event>
 7    1  0.2679104E-009  0.8576365E+02  0.7561462E-02  0.1313448E+00
         -1   -1    0    0    0  501 -0.00000000000E+00  0.00000000000E+00  0.13961613250E+03  0.13961613250E+03  0.00000000000E+00 0.  1.
          1   -1    0    0  501    0  0.00000000000E+00 -0.00000000000E+00 -0.92484487466E+02  0.92484487466E+02  0.00000000000E+00 0. -1.
         25    2    1    2    0    0  0.10415370505E+02 -0.22506735638E+00 -0.54745640881E+01  0.12564145962E+03  0.12508906797E+03 0.  0.
          5    1    3    3  502    0 -0.21824551294E+02 -0.42465124758E+02  0.34467523489E+02  0.59034569833E+02  0.41800000000E+01 0. -1.
         -5    1    3    3    0  502  0.32239921799E+02  0.42240057402E+02 -0.39942087577E+02  0.66606889786E+02  0.41800000000E+01 0. -1.
        -11    1    1    2    0    0  0.28938838140E+02  0.83372849565E+01 -0.10288366596E+02  0.31824788460E+02  0.00000000000E+00 0. -1.
         11    1    1    2    0    0 -0.39354208645E+02 -0.81122176001E+01  0.62894575721E+02  0.74634371891E+02  0.00000000000E+00 0.  1.
</event>
<event>
 7    1  0.2679104E-009  0.1077708E+03  0.7561462E-02  0.1264755E+00
         -2   -1    0    0    0  501 -0.00000000000E+00  0.00000000000E+00  0.40772738420E+02  0.40772738420E+02  0.00000000000E+00 0. -1.
          2   -1    0    0  501    0  0.00000000000E+00 -0.00000000000E+00 -0.30043446282E+03  0.30043446282E+03  0.00000000000E+00 0.  1.
         25    2    1    2    0    0 -0.21213679159E+02  0.13138033522E+02 -0.13776303905E+03  0.18774586114E+03  0.12508886976E+03 0.  0.
          5    1    3    3  502    0  0.25350693976E+02  0.54276523905E+02 -0.94326948491E+02  0.11181969569E+03  0.41800000000E+01 0. -1.
         -5    1    3    3    0  502 -0.46564373135E+02 -0.41138490383E+02 -0.43436090560E+02  0.75926165447E+02  0.41800000000E+01 0. -1.
        -11    1    1    2    0    0  0.40138732023E+02 -0.42388826051E+02 -0.75282357364E+02  0.95264703394E+02  0.00000000000E+00 0. -1.
         11    1    1    2    0    0 -0.18925052865E+02  0.29250792529E+02 -0.46616327983E+02  0.58196636708E+02  0.00000000000E+00 0.  1.
</event>
<event>
 7    1  0.2679104E-009  0.7602423E+02  0.7561462E-02  0.1340728E+00
         -4   -1    0    0    0  501 -0.00000000000E+00  0.00000000000E+00  0.35030233015E+03  0.35030233015E+03  0.00000000000E+00 0.  1.
          4   -1    0    0  501    0  0.00000000000E+00 -0.00000000000E+00 -0.36443190919E+02  0.36443190919E+02  0.00000000000E+00 0. -1.
         25    2    1    2    0    0 -0.22766147121E+02 -0.41991420400E+01  0.22415435905E+03  0.25773779496E+03  0.12509062323E+03 0.  0.
          5    1    3    3  502    0  0.11992912836E+02  0.24886699741E+02 -0.10697802482E+01  0.27960590338E+02  0.41800000000E+01 0. -1.
         -5    1    3    3    0  502 -0.34759059957E+02 -0.29085841781E+02  0.22522413930E+03  0.22977720462E+03  0.41800000000E+01 0. -1.
        -11    1    1    2    0    0 -0.19937454256E+02 -0.21042009924E+02  0.69759707665E+02  0.75542604386E+02  0.00000000000E+00 0.  1.
         11    1    1    2    0    0  0.42703601377E+02  0.25241151964E+02  0.19945072515E+02  0.53465121721E+02  0.00000000000E+00 0. -1.
</event>
<event>
 7    1  0.2679104E-009  0.1343492E+03  0.7561462E-02  0.1221141E+00
         -1   -1    0    0    0  501 -0.00000000000E+00  0.00000000000E+00  0.21862130603E+02  0.21862130603E+02  0.00000000000E+00 0.  1.
          1   -1    0    0  501    0  0.00000000000E+00 -0.00000000000E+00 -0.11235077098E+04  0.11235077098E+04  0.00000000000E+00 0. -1.
         25    2    1    2    0    0 -0.11047363517E+03  0.21659418400E+02 -0.61683991939E+03  0.63938390103E+03  0.12508689885E+03 0.  0.
          5    1    3    3  502    0 -0.22510684403E+00  0.30789429246E+02 -0.33741016162E+02  0.45869033105E+02  0.41800000000E+01 0. -1.
         -5    1    3    3    0  502 -0.11024852833E+03 -0.91300108453E+01 -0.58309890323E+03  0.59351486792E+03  0.41800000000E+01 0. -1.
        -11    1    1    2    0    0  0.73050964460E+02 -0.42064808737E+02 -0.42029716018E+03  0.42866723038E+03  0.00000000000E+00 0. -1.
         11    1    1    2    0    0  0.37422670712E+02  0.20405390337E+02 -0.64508499638E+02  0.77318709014E+02  0.00000000000E+00 0.  1.
</event>
<event>
 7    1  0.2679104E-009  0.1262944E+03  0.7561462E-02  0.1233060E+00
         -3   -1    0    0    0  501 -0.00000000000E+00  0.00000000000E+00  0.41074909524E+03  0.41074909524E+03  0.00000000000E+00 0.  1.
          3   -1    0    0  501    0  0.00000000000E+00 -0.00000000000E+00 -0.66020804338E+02  0.66020804338E+02  0.00000000000E+00 0. -1.
         25    2    1    2    0    0 -0.79823083353E+02  0.73035606243E+02  0.27511439497E+03  0.32100057305E+03  0.12509002024E+03 0.  0.
          5    1    3    3  502    0 -0.28530145680E+02  0.53009486523E+01  0.21462846032E+03  0.21662160015E+03  0.41800000000E+01 0. -1.
         -5    1    3    3    0  502 -0.51292937673E+02  0.67734657591E+02  0.60485934646E+02  0.10437897290E+03  0.41800000000E+01 0. -1.
        -11    1    1    2    0    0  0.69511334663E+00 -0.57575415725E+02  0.38923337083E+02  0.69501351412E+02  0.00000000000E+00 0.  1.
         11    1    1    2    0    0  0.79127970006E+02 -0.15460190518E+02  0.30690558847E+02  0.86267975115E+02  0.00000000000E+00 0. -1.
</event>
<event>
 7    1  0.2679104E-009  0.1831635E+03  0.7561462E-02  0.1164776E+00
          1   -1    0    0  501    0  0.00000000000E+00  0.00000000000E+00  0.41236498370E+03  0.41236498370E+03  0.00000000000E+00 0. -1.
         -1   -1    0    0    0  501 -0.00000000000E+00 -0.00000000000E+00 -0.11106820995E+03  0.11106820995E+03  0.00000000000E+00 0.  1.
         25    2    1    2    0    0  0.17753681549E+01 -0.14469586904E+03  0.23043957215E+02  0.19266198964E+03  0.12509025477E+03 0.  0.
          5    1    3    3  502    0  0.46585601296E+00 -0.16751341423E+03  0.24662913012E+02  0.16937146349E+03  0.41800000000E+01 0. -1.
         -5    1    3    3    0  502  0.13095121420E+01  0.22817545185E+02 -0.16189557970E+01  0.23290526147E+02  0.41800000000E+01 0. -1.
        -11    1    1    2    0    0  0.48402057973E+02  0.82053377846E+02  0.18217391630E+03  0.20557930784E+03  0.00000000000E+00 0.  1.
         11    1    1    2    0    0 -0.50177426128E+02  0.62642491196E+02  0.96078900236E+02  0.12519189617E+03  0.00000000000E+00 0. -1.
</event>
<event>
 7    1  0.2679104E-009  0.9302869E+02  0.7561462E-02  0.1295679E+00
         -3   -1    0    0    0  501 -0.00000000000E+00  0.00000000000E+00  0.29884995518E+03  0.29884995518E+03  0.00000000000E+00 0.  1.
          3   -1    0    0  501    0  0.00000000000E+00 -0.00000000000E+00 -0.45480276962E+02  0.45480276962E+02  0.00000000000E+00 0. -1.
         25    2    1    2    0    0  0.32264087311E+02  0.22091636450E+02  0.11607411253E+03  0.17506869018E+03  0.12508730932E+03 0.  0.
          5    1    3    3  502    0  0.42798002218E+02  0.46420487810E+02  0.13018338231E+03  0.14474707635E+03  0.41800000000E+01 0. -1.
         -5    1    3    3    0  502 -0.10533914908E+02 -0.24328851360E+02 -0.14109269782E+02  0.30321613834E+02  0.41800000000E+01 0. -1.
        -11    1    1    2    0    0 -0.74195877964E+01  0.33890831671E+02  0.70884861682E+02  0.78919594336E+02  0.00000000000E+00 0.  1.
         11    1    1    2    0    0 -0.24844499514E+02 -0.55982468121E+02  0.66410704007E+02  0.90341947620E+02  0.00000000000E+00 0. -1.
</event>
<event>
 7    1  0.2679104E-009  0.8091219E+02  0.7561462E-02  0.1326483E+00
         -2   -1    0    0    0  501 -0.00000000000E+00  0.00000000000E+00  0.24736771807E+03  0.24736771807E+03  0.00000000000E+00 0.  1.
          2   -1    0    0  501    0  0.00000000000E+00 -0.00000000000E+00 -0.47396714477E+02  0.47396714477E+02  0.00000000000E+00 0. -1.
         25    2    1    2    0    0  0.51823403036E+01 -0.69641322860E+01  0.11717882556E+03  0.17161958394E+03  0.12508816348E+03 0.  0.
          5    1    3    3  502    0 -0.42248377916E+02 -0.43979920314E+02  0.37589191115E+02  0.71760563794E+02  0.41800000000E+01 0. -1.
         -5    1    3    3    0  502  0.47430718219E+02  0.37015788028E+02  0.79589634443E+02  0.99859020148E+02  0.41800000000E+01 0. -1.
        -11    1    1    2    0    0 -0.66405385259E+01  0.23176172766E+02 -0.12024540864E+02  0.26941071229E+02  0.00000000000E+00 0. -1.
         11    1    1    2    0    0  0.14581982223E+01 -0.16212040480E+02  0.94816718894E+02  0.96203777371E+02  0.00000000000E+00 0.  1.
</event>
<event>
 7    1  0.2679104E-009  0.1178638E+03  0.7561462E-02  0.1246663E+00
         -2   -1    0    0    0  501 -0.00000000000E+00  0.00000000000E+00  0.42609123812E+03  0.42609123812E+03  0.00000000000E+00 0.  1.
          2   -1    0    0  501    0  0.00000000000E+00 -0.00000000000E+00 -0.50138733428E+02  0.50138733428E+02  0.00000000000E+00 0. -1.
         25    2    1    2    0    0 -0.21678590798E+02  0.90728936819E+02  0.25510555715E+03  0.29904502360E+03  0.12508948628E+03 0.  0.
          5    1    3    3  502    0 -0.46668321394E+02  0.33339473236E+02  0.21950739813E+03  0.22691501257E+03  0.41800000000E+01 0. -1.
         -5    1    3    3    0  502  0.24989730596E+02  0.57389463583E+02  0.35598159020E+02  0.72130011030E+02  0.41800000000E+01 0. -1.
        -11    1    1    2    0    0 -0.20847923346E+02 -0.58573971414E+02  0.10418702564E+03  0.12132799490E+03  0.00000000000E+00 0.  1.
         11    1    1    2    0    0  0.42526514144E+02 -0.32154965406E+02  0.16659921902E+02  0.55856953043E+02  0.00000000000E+00 0. -1.
</event>
<event>
 7    1  0.2679104E-009  0.9221650E+02  0.7561462E-02  0.1297571E+00
          2   -1    0    0  501    0  0.00000000000E+00  0.00000000000E+00  0.36806187755E+03  0.36806187755E+03  0.00000000000E+00 0.  1.
         -2   -1    0    0    0  501 -0.00000000000E+00 -0.00000000000E+00 -0.60388834705E+02  0.60388834705E+02  0.00000000000E+00 0. -1.
         25    2    1    2    0    0 -0.16709770886E+02 -0.21443246882E+02  0.30380564826E+03  0.32967253646E+03  0.12508828920E+03 0.  0.
          5    1    3    3  502    0  0.45329331403E+02  0.17558494412E+02  0.75813176231E+02  0.90156303727E+02  0.41800000000E+01 0.  1.
         -5    1    3    3    0  502 -0.62039102290E+02 -0.39001741294E+02  0.22799247203E+03  0.23951623273E+03  0.41800000000E+01 0.  1.
        -11    1    1    2    0    0  0.37228572573E+02  0.91973574709E+01  0.40029826812E+02  0.55434150438E+02  0.00000000000E+00 0.  1.
         11    1    1    2    0    0 -0.20518801686E+02  0.12245889411E+02 -0.36162432228E+02  0.43344025364E+02  0.00000000000E+00 0. -1.
</event>
<event>
 7    1  0.2679104E-009  0.2453595E+03  0.7561462E-02  0.1116273E+00
          2   -1    0    0  501    0  0.00000000000E+00  0.00000000000E+00  0.16995727492E+04  0.16995727492E+04  0.00000000000E+00 0. -1.
         -2   -1    0    0    0  501 -0.00000000000E+00 -0.00000000000E+00 -0.37496294248E+02  0.37496294248E+02  0.00000000000E+00 0.  1.
         25    2    1    2    0    0 -0.94871017137E+02 -0.20311000726E+03  0.99207607594E+03  0.10247518347E+04  0.12508875783E+03 0.  0.
          5    1    3    3  502    0  0.28034947607E+02 -0.16973968468E+02  0.10645174339E+03  0.11146084498E+03  0.41800000000E+01 0.  1.
         -5    1    3    3    0  502 -0.12290596474E+03 -0.18613603879E+03  0.88562433255E+03  0.91329098972E+03  0.41800000000E+01 0.  1.
        -11    1    1    2    0    0  0.10711924430E+02  0.10407333082E+03  0.21476616459E+03  0.23889434687E+03  0.00000000000E+00 0. -1.
         11    1    1    2    0    0  0.84159092707E+02  0.99036676434E+02  0.45523421439E+03  0.47342286184E+03  0.00000000000E+00 0.  1.
</event>
<event>
 7    1  0.2679104E-009  0.1532407E+03  0.7561462E-02  0.1196546E+00
          2   -1    0    0  501    0  0.00000000000E+00  0.00000000000E+00  0.42877858057E+03  0.42877858057E+03  0.00000000000E+00 0. -1.
         -2   -1    0    0    0  501 -0.00000000000E+00 -0.00000000000E+00 -0.86429019328E+02  0.86429019328E+02  0.00000000000E+00 0.  1.
         25    2    1    2    0    0 -0.37401755826E+01  0.13882425960E+03  0.28075043761E+03  0.33727519634E+03  0.12509031088E+03 0.  0.
          5    1    3    3  502    0  0.24340940533E+02  0.11734892218E+03  0.27654919373E+03  0.30143022389E+03  0.41800000000E+01 0.  1.
         -5    1    3    3    0  502 -0.28081116115E+02  0.21475337421E+02  0.42012438872E+01  0.35844972448E+02  0.41800000000E+01 0.  1.
        -11    1    1    2    0    0  0.22669364930E+02 -0.12617960687E+03  0.77828959596E+02  0.14997513210E+03  0.00000000000E+00 0. -1.
         11    1    1    2    0    0 -0.18929189347E+02 -0.12644652734E+02 -0.16229835968E+02  0.27957271463E+02  0.00000000000E+00 0.  1.
</event>
<event>
 7    1  0.2679104E-009  0.1057440E+03  0.7561462E-02  0.1268661E+00
          1   -1    0    0  501    0  0.00000000000E+00  0.00000000000E+00  0.26441935319E+02  0.26441935319E+02  0.00000000000E+00 0. -1.
         -1   -1    0    0    0  501 -0.00000000000E+00 -0.00000000000E+00 -0.46053665992E+03  0.46053665992E+03  0.00000000000E+00 0.  1.
         25    2    1    2    0    0 -0.64105175899E+01  0.23345260982E+02 -0.27022766641E+03  0.29875936986E+03  0.12509225972E+03 0.  0.
          5    1    3    3  502    0 -0.24646679530E+02 -0.45854805087E+02 -0.80670977254E+02  0.96100993401E+02  0.41800000000E+01 0.  1.
         -5    1    3    3    0  502  0.18236161940E+02  0.69200066069E+02 -0.18955668915E+03  0.20265837646E+03  0.41800000000E+01 0.  1.
        -11    1    1    2    0    0  0.37182036167E+01 -0.55342208243E+02 -0.71905249111E+02  0.90812718828E+02  0.00000000000E+00 0. -1.
         11    1    1    2    0    0  0.26923139732E+01  0.31996947261E+02 -0.91961809089E+02  0.97406506556E+02  0.00000000000E+00 0.  1.
</event>
<event>
 7    1  0.2679104E-009  0.9863286E+02  0.7561462E-02  0.1283197E+00
          2   -1    0    0  501    0  0.00000000000E+00  0.00000000000E+00  0.14398051617E+03  0.14398051617E+03  0.00000000000E+00 0. -1.
         -2   -1    0    0    0  501 -0.00000000000E+00 -0.00000000000E+00 -0.83892968455E+02  0.83892968455E+02  0.00000000000E+00 0.  1.
         25    2    1    2    0    0 -0.15332774296E+02 -0.99758627348E+01  0.21139600854E+02  0.12817725001E+03  0.12509161798E+03 0.  0.
          5    1    3    3  502    0 -0.51006431481E+02  0.27656410497E+02  0.42394044007E+02  0.71980972912E+02  0.41800000000E+01 0. -1.
         -5    1    3    3    0  502  0.35673657185E+02 -0.37632273232E+02 -0.21254443154E+02  0.56196277095E+02  0.41800000000E+01 0. -1.
        -11    1    1    2    0    0  0.13347029888E+02  0.47579270664E+02  0.37462684560E+02  0.62011151725E+02  0.00000000000E+00 0. -1.
         11    1    1    2    0    0  0.19857444084E+01 -0.37603407930E+02  0.14852623033E+01  0.37685082896E+02  0.00000000000E+00 0.  1.
</event>
<event>
 7    1  0.2679104E-009  0.1289529E+03  0.7561462E-02  0.1229018E+00
         -1   -1    0    0    0  501 -0.00000000000E+00  0.00000000000E+00  0.15802423017E+03  0.15802423017E+03  0.00000000000E+00 0. -1.
          1   -1    0    0  501    0  0.00000000000E+00 -0.00000000000E+00 -0.12688382850E+03  0.12688382850E+03  0.00000000000E+00 0.  1.
         25    2    1    2    0    0  0.57561795712E+02  0.70231633295E+02 -0.63250399656E-01  0.15457426604E+03  0.12508939636E+03 0.  0.
          5    1    3    3  502    0  0.40917473262E+02  0.10530831238E+03  0.12032706373E+02  0.11369405744E+03  0.41800000000E+01 0.  1.
         -5    1    3    3    0  502  0.16644322449E+02 -0.35076679083E+02 -0.12095956773E+02  0.40880208605E+02  0.41800000000E+01 0.  1.
        -11    1    1    2    0    0  0.10733522847E+02 -0.77841991039E+01 -0.20435144201E+02  0.24359749319E+02  0.00000000000E+00 0.  1.
         11    1    1    2    0    0 -0.68295318559E+02 -0.62447434191E+02  0.51638796275E+02  0.10597404331E+03  0.00000000000E+00 0. -1.
</event>
<event>
 7    1  0.2679104E-009  0.9952228E+02  0.7561462E-02  0.1281304E+00
         -2   -1    0    0    0  501 -0.00000000000E+00  0.00000000000E+00  0.49252776402E+02  0.49252776402E+02  0.00000000000E+00 0.  1.
          2   -1    0    0  501    0  0.00000000000E+00 -0.00000000000E+00 -0.39412454428E+03  0.39412454428E+03  0.00000000000E+00 0. -1.
         25    2    1    2    0    0 -0.39323271323E+02 -0.47200496763E+02 -0.29249931432E+03  0.32400398532E+03  0.12509407286E+03 0.  0.
          5    1    3    3  502    0  0.39277175214E+02 -0.19382959274E+01 -0.42627093737E+02  0.58146324083E+02  0.41800000000E+01 0. -1.
         -5    1    3    3    0  502 -0.78600446536E+02 -0.45262200836E+02 -0.24987222058E+03  0.26585766124E+03  0.41800000000E+01 0. -1.
        -11    1    1    2    0    0  0.10618329403E+02  0.36586550719E+02  0.18370486202E+02  0.42294200265E+02  0.00000000000E+00 0.  1.
         11    1    1    2    0    0  0.28704941920E+02  0.10613946044E+02 -0.70742939753E+02  0.77079135090E+02  0.00000000000E+00 0. -1.
</event>
<event>
 7    1  0.2679104E-009  0.1369306E+03  0.7561462E-02  0.1217520E+00
         -1   -1    0    0    0  501 -0.00000000000E+00  0.00000000000E+00  0.46842768506E+02  0.46842768506E+02  0.00000000000E+00 0.  1.
          1   -1    0    0  501    0  0.00000000000E+00 -0.00000000000E+00 -0.50277671706E+03  0.50277671706E+03  0.00000000000E+00 0. -1.
         25    2    1    2    0    0  0.98417155486E+02  0.45959150087E+02 -0.23616800898E+03  0.28847925959E+03  0.12508706878E+03 0.  0.
          5    1    3    3  502    0  0.12810171129E+03  0.42342445808E+02 -0.18399231791E+03  0.22819635537E+03  0.41800000000E+01 0. -1.
         -5    1    3    3    0  502 -0.29684555801E+02  0.36167042790E+01 -0.52175691071E+02  0.60282904224E+02  0.41800000000E+01 0. -1.
        -11    1    1    2    0    0 -0.71406566878E+02 -0.31492877889E+02 -0.21672575279E+03  0.23034919378E+03  0.00000000000E+00 0. -1.
         11    1    1    2    0    0 -0.27010588608E+02 -0.14466272198E+02 -0.30401867816E+01  0.30791032200E+02  0.00000000000E+00 0.  1.
</event>
<event>
 7    1  0.2679104E-009  0.1640860E+03  0.7561462E-02  0.1184159E+00
         -2   -1    0    0    0  501 -0.00000000000E+00  0.00000000000E+00  0.32118034187E+02  0.32118034187E+02  0.00000000000E+00 0.  1.
          2   -1    0    0  501    0  0.00000000000E+00 -0.00000000000E+00 -0.95149533575E+03  0.95149533575E+03  0.00000000000E+00 0. -1.
         25    2    1    2    0    0 -0.13112613194E+03  0.32651281642E+02 -0.40320086603E+03  0.44325970964E+03  0.12509221858E+03 0.  0.
          5    1    3    3  502    0 -0.19084509437E+02 -0.41641672558E+02 -0.68145984734E+02  0.82216756378E+02  0.41800000000E+01 0.  1.
         -5    1    3    3    0  502 -0.11204162250E+03  0.74292954200E+02 -0.33505488130E+03  0.36104295326E+03  0.41800000000E+01 0.  1.
        -11    1    1    2    0    0  0.88785430966E+02 -0.50024914427E+02 -0.43859692124E+03  0.45028058378E+03  0.00000000000E+00 0. -1.
         11    1    1    2    0    0  0.42340700971E+02  0.17373632785E+02 -0.77579514289E+02  0.90073076511E+02  0.00000000000E+00 0.  1.
</event>
<event>
 7    1  0.2679104E-009  0.1281405E+03  0.7561462E-02  0.1230241E+00
          1   -1    0    0  501    0  0.00000000000E+00  0.00000000000E+00  0.21924305367E+03  0.21924305367E+03  0.00000000000E+00 0. -1.
         -1   -1    0    0    0  501 -0.00000000000E+00 -0.00000000000E+00 -0.10248298757E+03  0.10248298757E+03  0.00000000000E+00 0.  1.
         25    2    1    2    0    0 -0.82167905987E+02  0.51671432684E+02  0.10401556624E+03  0.18944323595E+03  0.12509196575E+03 0.  0.
          5    1    3    3  502    0 -0.27865575908E+02  0.86918775582E+02  0.45481253219E+02  0.10206557041E+03  0.41800000000E+01 0.  1.
         -5    1    3    3    0  502 -0.54302330079E+02 -0.35247342897E+02  0.58534313022E+02  0.87377665534E+02  0.41800000000E+01 0.  1.
        -11    1    1    2    0    0  0.36074995899E+02 -0.89038727087E+01 -0.36750520925E+02  0.52261697892E+02  0.00000000000E+00 0.  1.
         11    1    1    2    0    0  0.46092910088E+02 -0.42767559976E+02  0.49495020790E+02  0.80021107401E+02  0.00000000000E+00 0. -1.
</event>
<event>
 7    1  0.2679104E-009  0.1195789E+03  0.7561462E-02  0.1243793E+00
          1   -1    0    0  501    0  0.00000000000E+00  0.00000000000E+00  0.12105220206E+04  0.12105220206E+04  0.00000000000E+00 0. -1.
         -1   -1    0    0    0  501 -0.00000000000E+00 -0.00000000000E+00 -0.17535596719E+02  0.17535596719E+02  0.00000000000E+00 0.  1.
         25    2    1    2    0    0  0.67150553434E+02  0.64112385225E+02  0.78905115433E+03  0.80427969516E+03  0.12507801214E+03 0.  0.
          5    1    3    3  502    0  0.40611794438E+02 -0.14953530301E+01  0.65044425888E+02  0.76810179450E+02  0.41800000000E+01 0.  1.
         -5    1    3    3    0  502  0.26538758996E+02  0.65607738255E+02  0.72400672844E+03  0.72746951571E+03  0.41800000000E+01 0.  1.
        -11    1    1    2    0    0 -0.84305993715E+02 -0.30467332100E+02  0.26234874004E+03  0.27724108697E+03  0.00000000000E+00 0. -1.
         11    1    1    2    0    0  0.17155440281E+02 -0.33645053125E+02  0.14158652947E+03  0.14653683516E+03  0.00000000000E+00 0.  1.
</event>
<event>
 7    1  0.2679104E-009  0.7390160E+02  0.7561462E-02  0.1347307E+00
          3   -1    0    0  501    0  0.00000000000E+00  0.00000000000E+00  0.21442295679E+02  0.21442295679E+02  0.00000000000E+00 0. -1.
         -3   -1    0    0    0  501 -0.00000000000E+00 -0.00000000000E+00 -0.73464208940E+03  0.73464208940E+03  0.00000000000E+00 0.  1.
         25    2    1    2    0    0  0.28752566915E+02  0.17162357858E+02 -0.23943906709E+03  0.27221296141E+03  0.12509025893E+03 0.  0.
          5    1    3    3  502    0  0.38067600185E+02  0.16905520910E+02 -0.25232303121E+03  0.25577201430E+03  0.41800000000E+01 0.  1.
         -5    1    3    3    0  502 -0.93150332702E+01  0.25683694772E+00  0.12883964126E+02  0.16440947103E+02  0.41800000000E+01 0.  1.
        -11    1    1    2    0    0 -0.52747617166E+02  0.15703150064E+02 -0.32585608204E+03  0.33047100666E+03  0.00000000000E+00 0.  1.
         11    1    1    2    0    0  0.23995050251E+02 -0.32865507921E+02 -0.14790464460E+03  0.15340041702E+03  0.00000000000E+00 0. -1.
</event>
<event>
 7    1  0.2679104E-009  0.1256241E+03  0.7561462E-02  0.1234097E+00
          2   -1    0    0  501    0  0.00000000000E+00  0.00000000000E+00  0.65789261553E+03  0.65789261553E+03  0.00000000000E+00 0. -1.
         -2   -1    0    0    0  501 -0.00000000000E+00 -0.00000000000E+00 -0.37113083827E+02  0.37113083827E+02  0.00000000000E+00 0.  1.
         25    2    1    2    0    0  0.95285872694E+01 -0.10863412435E+03  0.27042297472E+03  0.31728081816E+03  0.12508543228E+03 0.  0.
          5    1    3    3  502    0  0.96615528759E+01 -0.10781223671E+03  0.10195389611E+03  0.14875783449E+03  0.41800000000E+01 0.  1.
         -5    1    3    3    0  502 -0.13296560653E+00 -0.82188763569E+00  0.16846907861E+03  0.16852298367E+03  0.41800000000E+01 0.  1.
        -11    1    1    2    0    0 -0.41710686080E+02  0.24017753358E+02  0.89743401476E+02  0.10183571043E+03  0.00000000000E+00 0. -1.
         11    1    1    2    0    0  0.32182098810E+02  0.84616370991E+02  0.26061315551E+03  0.27588917077E+03  0.00000000000E+00 0.  1.
</event>
<event>
 7    1  0.2679104E-009  0.1635058E+03  0.7561462E-02  0.1184795E+00
          2   -1    0    0  501    0  0.00000000000E+00  0.00000000000E+00  0.96137250141E+03  0.96137250141E+03  0.00000000000E+00 0. -1.
         -2   -1    0    0    0  501 -0.00000000000E+00 -0.00000000000E+00 -0.77206657614E+02  0.77206657614E+02  0.00000000000E+00 0.  1.
         25    2    1    2    0    0  0.12199625257E+03  0.89154586217E+02  0.83266842417E+03  0.85546434967E+03  0.12510364926E+03 0.  0.
          5    1    3    3  502    0  0.34420826323E+02  0.92016443224E+01  0.39058724515E+02  0.53033196243E+02  0.41800000000E+01 0. -1.
         -5    1    3    3    0  502  0.87575426243E+02  0.79952941895E+02  0.79360969966E+03  0.80243115342E+03  0.41800000000E+01 0. -1.
        -11    1    1    2    0    0  0.40524572207E+01 -0.35096091662E+02  0.25374658967E+02  0.43497487021E+02  0.00000000000E+00 0. -1.
         11    1    1    2    0    0 -0.12604870979E+03 -0.54058494556E+02  0.26122760661E+02  0.13961732234E+03  0.00000000000E+00 0.  1.
</event>
<event>
 7    1  0.2679104E-009  0.1009666E+03  0.7561462E-02  0.1278276E+00
          2   -1    0    0  501    0  0.00000000000E+00  0.00000000000E+00  0.71425196053E+03  0.71425196053E+03  0.00000000000E+00 0. -1.
         -2   -1    0    0    0  501 -0.00000000000E+00 -0.00000000000E+00 -0.25238150631E+02  0.25238150631E+02  0.00000000000E+00 0.  1.
         25    2    1    2    0    0  0.43567384609E+02 -0.80148296691E+01  0.56383436514E+03  0.57924022335E+03  0.12509072926E+03 0.  0.
          5    1    3    3  502    0  0.55650764002E+02  0.42590634202E+02  0.20634082958E+03  0.21795637180E+03  0.41800000000E+01 0. -1.
         -5    1    3    3    0  502 -0.12083379393E+02 -0.50605463871E+02  0.35749353555E+03  0.36128385155E+03  0.41800000000E+01 0. -1.
        -11    1    1    2    0    0  0.11917029459E+02  0.19519638068E+02  0.91537136918E+02  0.94350830927E+02  0.00000000000E+00 0. -1.
         11    1    1    2    0    0 -0.55484414068E+02 -0.11504808398E+02  0.33642307849E+02  0.65899056883E+02  0.00000000000E+00 0.  1.
</event>
<event>
 7    1  0.2679104E-009  0.1014364E+03  0.7561462E-02  0.1277304E+00
          1   -1    0    0  501    0  0.00000000000E+00  0.00000000000E+00  0.42160498844E+03  0.42160498844E+03  0.00000000000E+00 0. -1.
         -1   -1    0    0    0  501 -0.00000000000E+00 -0.00000000000E+00 -0.38677207274E+02  0.38677207274E+02  0.00000000000E+00 0.  1.
         25    2    1    2    0    0  0.33235949020E+02  0.40035609960E+01  0.31771214326E+03  0.34308235494E+03  0.12507533523E+03 0.  0.
          5    1    3    3  502    0  0.10254161267E+02 -0.55135454980E+02  0.21541149979E+03  0.22263120370E+03  0.41800000000E+01 0.  1.
         -5    1    3    3    0  502  0.22981787752E+02  0.59139015976E+02  0.10230064347E+03  0.12045115123E+03  0.41800000000E+01 0.  1.
        -11    1    1    2    0    0 -0.22988131394E+02  0.35470713230E+02  0.24387235072E+01  0.42338789005E+02  0.00000000000E+00 0.  1.
         11    1    1    2    0    0 -0.10247817626E+02 -0.39474274226E+02  0.62776914397E+02  0.74861051776E+02  0.00000000000E+00 0. -1.
</event>
<event>
 7    1  0.2679104E-009  0.1174346E+03  0.7561462E-02  0.1247390E+00
          2   -1    0    0  501    0  0.00000000000E+00  0.00000000000E+00  0.15005319297E+03  0.15005319297E+03  0.00000000000E+00 0. -1.
         -2   -1    0    0    0  501 -0.00000000000E+00 -0.00000000000E+00 -0.16133847243E+03  0.16133847243E+03  0.00000000000E+00 0.  1.
         25    2    1    2    0    0 -0.79483941400E+02 -0.15604608388E+02  0.78616965402E+02  0.16849118310E+03  0.12508977093E+03 0.  0.
          5    1    3    3  502    0 -0.57571135867E+02  0.37344239202E+02 -0.28414001113E+01  0.68808239631E+02  0.41800000000E+01 0.  1.
         -5    1    3    3    0  502 -0.21912805533E+02 -0.52948847589E+02  0.81458365513E+02  0.99682943473E+02  0.41800000000E+01 0.  1.
        -11    1    1    2    0    0  0.43094608487E+00  0.28553530275E+02 -0.11420490411E+02  0.30755770303E+02  0.00000000000E+00 0.  1.
         11    1    1    2    0    0  0.79052995315E+02 -0.12948921888E+02 -0.78481754448E+02  0.11214471199E+03  0.00000000000E+00 0. -1.
</event>
<event>
 7    1  0.2679104E-009  0.1065049E+03  0.7561462E-02  0.1267183E+00
          1   -1    0    0  501    0  0.00000000000E+00  0.00000000000E+00  0.14417852917E+03  0.14417852917E+03  0.00000000000E+00 0. -1.
         -1   -1    0    0    0  501 -0.00000000000E+00 -0.00000000000E+00 -0.90913746474E+02  0.90913746474E+02  0.00000000000E+00 0.  1.
         25    2    1    2    0    0 -0.28442827214E+02 -0.22627093313E+02  0.43720794569E+02  0.13740232536E+03  0.12508761475E+03 0.  0.
          5    1    3    3  502    0 -0.55683541425E+02 -0.59888386209E+02  0.39361554590E+02  0.90851967332E+02  0.41800000000E+01 0.  1.
         -5    1    3    3    0  502  0.27240714211E+02  0.37261292896E+02  0.43592399792E+01  0.46550358025E+02  0.41800000000E+01 0.  1.
        -11    1    1    2    0    0  0.48550543760E+01 -0.28270209347E+02 -0.19338234204E+02  0.34593982015E+02  0.00000000000E+00 0.  1.
         11    1    1    2    0    0  0.23587772838E+02  0.50897302660E+02  0.28882222333E+02  0.63095968274E+02  0.00000000000E+00 0. -1.
</event>
<event>
 7    1  0.2679104E-009  0.6790085E+02  0.7561462E-02  0.1367380E+00
          1   -1    0    0  501    0  0.00000000000E+00  0.00000000000E+00  0.21575976218E+03  0.21575976218E+03  0.00000000000E+00 0. -1.
         -1   -1    0    0    0  501 -0.00000000000E+00 -0.00000000000E+00 -0.63276157911E+02  0.63276157911E+02  0.00000000000E+00 0.  1.
         25    2    1    2    0    0 -0.16321281532E+02 -0.41382774794E+02  0.92913598934E+02  0.16204824982E+03  0.12509108731E+03 0.  0.
          5    1    3    3  502    0 -0.25390304251E+02  0.15515117076E+02  0.99470506759E+02  0.10390977106E+03  0.41800000000E+01 0.  1.
         -5    1    3    3    0  502  0.90690227183E+01 -0.56897891870E+02 -0.65569078249E+01  0.58138478760E+02  0.41800000000E+01 0.  1.
        -11    1    1    2    0    0 -0.34356670671E+01  0.12709385958E+02 -0.23487820445E+02  0.26926009895E+02  0.00000000000E+00 0.  1.
         11    1    1    2    0    0  0.19756948600E+02  0.28673388836E+02  0.83057825781E+02  0.90061660371E+02  0.00000000000E+00 0. -1.
</event>
<event>
 7    1  0.2679104E-009  0.1623579E+03  0.7561462E-02  0.1186060E+00
          1   -1    0    0  501    0  0.00000000000E+00  0.00000000000E+00  0.65227444258E+02  0.65227444258E+02  0.00000000000E+00 0. -1.
         -1   -1    0    0    0  501 -0.00000000000E+00 -0.00000000000E+00 -0.86956493898E+03  0.86956493898E+03  0.00000000000E+00 0.  1.
         25    2    1    2    0    0  0.10766877360E+03  0.68644417614E+02 -0.74915793032E+03  0.77018818244E+03  0.12509041103E+03 0.  0.
          5    1    3    3  502    0  0.12224171786E+03  0.89162513491E+02 -0.59598922088E+03  0.61490943659E+03  0.41800000000E+01 0.  1.
         -5    1    3    3    0  502 -0.14572944261E+02 -0.20518095877E+02 -0.15316870944E+03  0.15527874585E+03  0.41800000000E+01 0.  1.
        -11    1    1    2    0    0 -0.63915820323E+01  0.15118757778E+02  0.85858482377E+01  0.18524198973E+02  0.00000000000E+00 0. -1.
         11    1    1    2    0    0 -0.10127719157E+03 -0.83763175392E+02 -0.63765412636E+02  0.14608000182E+03  0.00000000000E+00 0.  1.
</event>
<event>
 7    1  0.2679104E-009  0.1187319E+03  0.7561462E-02  0.1245204E+00
         -2   -1    0    0    0  501 -0.00000000000E+00  0.00000000000E+00  0.10742929490E+03  0.10742929490E+03  0.00000000000E+00 0.  1.
          2   -1    0    0  501    0  0.00000000000E+00 -0.00000000000E+00 -0.13942122641E+03  0.13942122641E+03  0.00000000000E+00 0. -1.
         25    2    1    2    0    0 -0.21300118878E+02 -0.44407743708E+02  0.69021775458E+01  0.13461919184E+03  0.12509573930E+03 0.  0.
          5    1    3    3  502    0 -0.73066987221E+02 -0.15601241747E+02  0.76871315982E+01  0.75224648605E+02  0.41800000000E+01 0.  1.
         -5    1    3    3    0  502  0.51766868343E+02 -0.28806501961E+02 -0.78495405244E+00  0.59394543236E+02  0.41800000000E+01 0.  1.
        -11    1    1    2    0    0  0.56645103052E+02  0.19123683901E+02 -0.33246493433E+02  0.68408422810E+02  0.00000000000E+00 0.  1.
         11    1    1    2    0    0 -0.35344984175E+02  0.25284059807E+02 -0.56476156234E+01  0.43822906668E+02  0.00000000000E+00 0. -1.
</event>
<event>
 7    1  0.2679104E-009  0.1334521E+03  0.7561462E-02  0.1222422E+00
          1   -1    0    0  501    0  0.00000000000E+00  0.00000000000E+00  0.59751125536E+03  0.59751125536E+03  0.00000000000E+00 0. -1.
         -1   -1    0    0    0  501 -0.00000000000E+00 -0.00000000000E+00 -0.38768336776E+02  0.38768336776E+02  0.00000000000E+00 0.  1.
         25    2    1    2    0    0 -0.19095699270E+02 -0.98726669727E+02  0.38632756866E+03  0.41834048767E+03  0.12509265474E+03 0.  0.
          5    1    3    3  502    0 -0.54795876103E+02 -0.64195653216E+02  0.11634813715E+03  0.14379857909E+03  0.41800000000E+01 0. -1.
         -5    1    3    3    0  502  0.35700176833E+02 -0.34531016510E+02  0.26997943151E+03  0.27454190858E+03  0.41800000000E+01 0. -1.
        -11    1    1    2    0    0  0.53751508892E+02  0.62102573026E+02  0.11781311455E+03  0.14361714468E+03  0.00000000000E+00 0. -1.
         11    1    1    2    0    0 -0.34655809621E+02  0.36624096700E+02  0.54602235367E+02  0.74321959788E+02  0.00000000000E+00 0.  1.
</event>
<event>
 7    1  0.2883668E-009  0.2459474E+03  0.7561462E-02  0.1115893E+00
         -2   -1    0    0    0  501 -0.00000000000E+00  0.00000000000E+00  0.85553324829E+02  0.85553324829E+02  0.00000000000E+00 0.  1.
          2   -1    0    0  501    0  0.00000000000E+00 -0.00000000000E+00 -0.84390317504E+03  0.84390317504E+03  0.00000000000E+00 0. -1.
         25    2    1    2    0    0 -0.19392786550E+03 -0.14224259526E+03 -0.30288576735E+03  0.40648339499E+03  0.12509192385E+03 0.  0.
          5    1    3    3  502    0 -0.76921774101E+02 -0.41612147086E+02 -0.20697613825E+03  0.22473345172E+03  0.41800000000E+01 0. -1.
         -5    1    3    3    0  502 -0.11700609140E+03 -0.10063044817E+03 -0.95909629098E+02  0.18174994327E+03  0.41800000000E+01 0. -1.
        -11    1    1    2    0    0  0.13804972773E+03  0.13590094471E+03 -0.29480647927E+03  0.35275721724E+03  0.00000000000E+00 0.  1.
         11    1    1    2    0    0  0.55878137766E+02  0.63416505528E+01 -0.16065760359E+03  0.17021588763E+03  0.00000000000E+00 0. -1.
</event>
<event>
 7    1  0.2679104E-009  0.1079804E+03  0.7561462E-02  0.1264356E+00
          1   -1    0    0  501    0  0.00000000000E+00  0.00000000000E+00  0.55656322498E+02  0.55656322498E+02  0.00000000000E+00 0. -1.
         -1   -1    0    0    0  501 -0.00000000000E+00 -0.00000000000E+00 -0.24076715438E+03  0.24076715438E+03  0.00000000000E+00 0.  1.
         25    2    1    2    0    0 -0.36460441808E+01  0.25193514529E+02 -0.11186776649E+03  0.16972683561E+03  0.12507915388E+03 0.  0.
          5    1    3    3  502    0 -0.37498477178E+02 -0.29863175781E+02 -0.10209249032E+02  0.49189899615E+02  0.41800000000E+01 0. -1.
         -5    1    3    3    0  502  0.33852432997E+02  0.55056690310E+02 -0.10165851746E+03  0.12053693600E+03  0.41800000000E+01 0. -1.
        -11    1    1    2    0    0 -0.30669240630E+01  0.38704477647E+02 -0.22929666130E+02  0.45091154365E+02  0.00000000000E+00 0. -1.
         11    1    1    2    0    0  0.67129682438E+01 -0.63897992176E+02 -0.50313399257E+02  0.81605486896E+02  0.00000000000E+00 0.  1.
</event>
<event>
 7    1  0.2679104E-009  0.9469226E+02  0.7561462E-02  0.1291871E+00
         -3   -1    0    0    0  501 -0.00000000000E+00  0.00000000000E+00  0.48386465267E+02  0.48386465267E+02  0.00000000000E+00 0.  1.
          3   -1    0    0  501    0  0.00000000000E+00 -0.00000000000E+00 -0.29914649384E+03  0.29914649384E+03  0.00000000000E+00 0. -1.
         25    2    1    2    0    0 -0.48808573392E+02  0.80693566003E+01 -0.14611346434E+03  0.19860568845E+03  0.12509070177E+03 0.  0.
          5    1    3    3  502    0  0.77029097322E+01 -0.31430428267E+02 -0.12065495784E+03  0.12498919109E+03  0.41800000000E+01 0. -1.
         -5    1    3    3    0  502 -0.56511483124E+02  0.39499784868E+02 -0.25458506507E+02  0.73616497357E+02  0.41800000000E+01 0. -1.
        -11    1    1    2    0    0  0.31977847982E+02 -0.40224818926E+02 -0.17102846905E+02  0.54158343691E+02  0.00000000000E+00 0.  1.
         11    1    1    2    0    0  0.16830725411E+02  0.32155462325E+02 -0.87543717331E+02  0.94768926972E+02  0.00000000000E+00 0. -1.
</event>
<event>
 7    1  0.2679104E-009  0.1485434E+03  0.7561462E-02  0.1202274E+00
         -1   -1    0    0    0  501 -0.00000000000E+00  0.00000000000E+00  0.12414234364E+03  0.12414234364E+03  0.00000000000E+00 0.  1.
          1   -1    0    0  501    0  0.00000000000E+00 -0.00000000000E+00 -0.24809895518E+03  0.24809895518E+03  0.00000000000E+00 0. -1.
         25    2    1    2    0    0 -0.12458480986E+03  0.54463199012E+02 -0.38852906198E+02  0.18879847240E+03  0.12509076691E+03 0.  0.
          5    1    3    3  502    0 -0.81607345454E+02  0.53981037270E+02 -0.82017053437E+02  0.12774185168E+03  0.41800000000E+01 0. -1.
         -5    1    3    3    0  502 -0.42977464407E+02  0.48216174293E+00  0.43164147239E+02  0.61056620719E+02  0.41800000000E+01 0. -1.
        -11    1    1    2    0    0  0.43251351314E+02  0.18181184200E+02 -0.50734663224E+02  0.69103117888E+02  0.00000000000E+00 0. -1.
         11    1    1    2    0    0  0.81333458547E+02 -0.72644383213E+02 -0.34369042119E+02  0.11433970853E+03  0.00000000000E+00 0.  1.
</event>
<event>
 7    1  0.2679104E-009  0.9532744E+02  0.7561462E-02  0.1290440E+00
          2   -1    0    0  501    0  0.00000000000E+00  0.00000000000E+00  0.20613941860E+03  0.20613941860E+03  0.00000000000E+00 0. -1.
         -2   -1    0    0    0  501 -0.00000000000E+00 -0.00000000000E+00 -0.80817534217E+02  0.80817534217E+02  0.00000000000E+00 0.  1.
         25    2    1    2    0    0  0.81931897971E+01  0.58294760256E+02  0.28397467788E+02  0.14113699691E+03  0.12509127982E+03 0.  0.
          5    1    3    3  502    0 -0.33533042355E+02  0.14472119685E+02  0.61789697524E+02  0.71898166165E+02  0.41800000000E+01 0.  1.
         -5    1    3    3    0  502  0.41726232152E+02  0.43822640571E+02 -0.33392229736E+02  0.69238830745E+02  0.41800000000E+01 0.  1.
        -11    1    1    2    0    0 -0.29162659200E+02 -0.64984808190E+02  0.33554392044E+02  0.78736162038E+02  0.00000000000E+00 0.  1.
         11    1    1    2    0    0  0.20969469403E+02  0.66900479340E+01  0.63370024546E+02  0.67083793865E+02  0.00000000000E+00 0. -1.
</event>
<event>
 7    1  0.2679104E-009  0.1215672E+03  0.7561462E-02  0.1240534E+00
          2   -1    0    0  501    0  0.00000000000E+00  0.00000000000E+00  0.91360752502E+02  0.91360752502E+02  0.00000000000E+00 0. -1.
         -2   -1    0    0    0  501 -0.00000000000E+00 -0.00000000000E+00 -0.36633233853E+03  0.36633233853E+03  0.00000000000E+00 0.  1.
         25    2    1    2    0    0 -0.10967963449E+03 -0.29526559776E+02 -0.28263972242E+02  0.17131523001E+03  0.12509442814E+03 0.  0.
          5    1    3    3  502    0 -0.18169588026E+02 -0.26203259168E+02  0.44063566246E+02  0.54551031066E+02  0.41800000000E+01 0.  1.
         -5    1    3    3    0  502 -0.91510046468E+02 -0.33233006079E+01 -0.72327538488E+02  0.11676419895E+03  0.41800000000E+01 0.  1.
        -11    1    1    2    0    0  0.29434361169E+02 -0.83191019831E+01 -0.15793687310E+03  0.16087151693E+03  0.00000000000E+00 0.  1.
         11    1    1    2    0    0  0.80245273325E+02  0.37845661759E+02 -0.88770740692E+02  0.12550634409E+03  0.00000000000E+00 0. -1.
</event>
<event>
 7    1  0.2679104E-009  0.8185305E+02  0.7561462E-02  0.1323874E+00
          1   -1    0    0  501    0  0.00000000000E+00  0.00000000000E+00  0.52340347114E+03  0.52340347114E+03  0.00000000000E+00 0. -1.
         -1   -1    0    0    0  501 -0.00000000000E+00 -0.00000000000E+00 -0.29995409655E+02  0.29995409655E+02  0.00000000000E+00 0.  1.
         25    2    1    2    0    0 -0.41720472171E+02  0.31792320211E+02  0.34554459546E+03  0.37121739882E+03  0.12509972147E+03 0.  0.
          5    1    3    3  502    0 -0.24027222516E+02  0.27150364755E+01  0.57297025752E+00  0.24545458639E+02  0.41800000000E+01 0.  1.
         -5    1    3    3    0  502 -0.17693249655E+02  0.29077283735E+02  0.34497162520E+03  0.34667194018E+03  0.41800000000E+01 0.  1.
        -11    1    1    2    0    0  0.70457145962E+02 -0.28291804577E+02  0.92182572334E+02  0.11942471380E+03  0.00000000000E+00 0.  1.
         11    1    1    2    0    0 -0.28736673791E+02 -0.35005156337E+01  0.55680893693E+02  0.62756768183E+02  0.00000000000E+00 0. -1.
</event>
<event>
 7    1  0.2679104E-009  0.5753117E+02  0.7561462E-02  0.1408494E+00
         -3   -1    0    0    0  501 -0.00000000000E+00  0.00000000000E+00  0.14409284940E+03  0.14409284940E+03  0.00000000000E+00 0.  1.
          3   -1    0    0  501    0  0.00000000000E+00 -0.00000000000E+00 -0.11852252870E+03  0.11852252870E+03  0.00000000000E+00 0. -1.
         25    2    1    2    0    0  0.19264907816E+02  0.35841355179E+02 -0.45597019442E+02  0.13922038617E+03  0.12508992097E+03 0.  0.
          5    1    3    3  502    0  0.34793743238E+02  0.84030938747E+01  0.36430458121E+02  0.51243216469E+02  0.41800000000E+01 0. -1.
         -5    1    3    3    0  502 -0.15528835423E+02  0.27438261304E+02 -0.82027477562E+02  0.87977169699E+02  0.41800000000E+01 0. -1.
        -11    1    1    2    0    0 -0.24711574652E+02 -0.25358122890E+02  0.92480338456E+02  0.99026811114E+02  0.00000000000E+00 0.  1.
         11    1    1    2    0    0  0.54466668362E+01 -0.10483232289E+02 -0.21312998319E+02  0.24368180814E+02  0.00000000000E+00 0. -1.
</event>
<event>
 7    1  0.2679104E-009  0.1991837E+03  0.7561462E-02  0.1150430E+00
          1   -1    0    0  501    0  0.00000000000E+00  0.00000000000E+00  0.82082637837E+03  0.82082637837E+03  0.00000000000E+00 0.  1.
         -1   -1    0    0    0  501 -0.00000000000E+00 -0.00000000000E+00 -0.62196258234E+02  0.62196258234E+02  0.00000000000E+00 0. -1.
         25    2    1    2    0    0 -0.17423167130E+03  0.23937489296E+02  0.21580463134E+03  0.30520049837E+03  0.12508407820E+03 0.  0.
          5    1    3    3  502    0 -0.12391076149E+03 -0.43308674603E+02  0.14045485107E+03  0.19228768993E+03  0.41800000000E+01 0. -1.
         -5    1    3    3    0  502 -0.50320909815E+02  0.67246163899E+02  0.75349780267E+02  0.11291280844E+03  0.41800000000E+01 0. -1.
        -11    1    1    2    0    0  0.13624678739E+03  0.31650197482E+01  0.48352421257E+03  0.50236328346E+03  0.00000000000E+00 0.  1.
         11    1    1    2    0    0  0.37984883910E+02 -0.27102509044E+02  0.59301276223E+02  0.75458854774E+02  0.00000000000E+00 0. -1.
</event>
<event>
 7    1  0.2679104E-009  0.1095868E+03  0.7561462E-02  0.1261337E+00
         -1   -1    0    0    0  501 -0.00000000000E+00  0.00000000000E+00  0.18666218295E+03  0.18666218295E+03  0.00000000000E+00 0.  1.
          1   -1    0    0  501    0  0.00000000000E+00 -0.00000000000E+00 -0.82409200578E+02  0.82409200578E+02  0.00000000000E+00 0. -1.
         25    2    1    2    0    0 -0.16299928043E+02  0.27289835052E+02  0.39982381140E+01  0.12912706333E+03  0.12508952724E+03 0.  0.
          5    1    3    3  502    0  0.47666389253E+02  0.39192024825E+02 -0.94138204096E+01  0.62563502851E+02  0.41800000000E+01 0.  1.
         -5    1    3    3    0  502 -0.63966317296E+02 -0.11902189773E+02  0.13412058524E+02  0.66563560479E+02  0.41800000000E+01 0.  1.
        -11    1    1    2    0    0 -0.33964118207E+02  0.18673941255E+01  0.15989969027E+02  0.37586268715E+02  0.00000000000E+00 0. -1.
         11    1    1    2    0    0  0.50264046250E+02 -0.29157229177E+02  0.84264775229E+02  0.10235805148E+03  0.00000000000E+00 0.  1.
</event>
<event>
 7    1  0.2679104E-009  0.1223036E+03  0.7561462E-02  0.1239345E+00
         -2   -1    0    0    0  501 -0.00000000000E+00  0.00000000000E+00  0.45232262545E+02  0.45232262545E+02  0.00000000000E+00 0.  1.
          2   -1    0    0  501    0  0.00000000000E+00 -0.00000000000E+00 -0.43348430640E+03  0.43348430640E+03  0.00000000000E+00 0. -1.
         25    2    1    2    0    0 -0.35082608196E+02  0.79200689328E+02 -0.25846790159E+03  0.29992804754E+03  0.12509052307E+03 0.  0.
          5    1    3    3  502    0 -0.14882256294E+02  0.11040254125E+03 -0.21781417677E+03  0.24468488034E+03  0.41800000000E+01 0. -1.
         -5    1    3    3    0  502 -0.20200351901E+02 -0.31201851921E+02 -0.40653724818E+02  0.55243167196E+02  0.41800000000E+01 0. -1.
        -11    1    1    2    0    0  0.10936834483E+02 -0.68405456291E+02 -0.29881849521E+02  0.75444322051E+02  0.00000000000E+00 0.  1.
         11    1    1    2    0    0  0.24145773713E+02 -0.10795233037E+02 -0.99902292746E+02  0.10334419936E+03  0.00000000000E+00 0. -1.
</event>
<event>
 7    1  0.2679104E-009  0.1231412E+03  0.7561462E-02  0.1238003E+00
         -2   -1    0    0    0  501 -0.00000000000E+00  0.00000000000E+00  0.88632847798E+02  0.88632847798E+02  0.00000000000E+00 0.  1.
          2   -1    0    0  501    0  0.00000000000E+00 -0.00000000000E+00 -0.59109338717E+03  0.59109338717E+03  0.00000000000E+00 0. -1.
         25    2    1    2    0    0  0.63093158926E+02  0.95133196340E+02 -0.47195201155E+03  0.50141329200E+03  0.12508203882E+03 0.  0.
          5    1    3    3  502    0  0.30150093497E+02  0.18665326496E+02 -0.36033242788E+03  0.36209716035E+03  0.41800000000E+01 0.  1.
         -5    1    3    3    0  502  0.32943065430E+02  0.76467869844E+02 -0.11161958366E+03  0.13931613164E+03  0.41800000000E+01 0.  1.
        -11    1    1    2    0    0  0.28843736092E+01 -0.43064684339E+02  0.47120062606E+02  0.63899819627E+02  0.00000000000E+00 0.  1.
         11    1    1    2    0    0 -0.65977532536E+02 -0.52068512001E+02 -0.77628590432E+02  0.11441312335E+03  0.00000000000E+00 0. -1.
</event>
<event>
 7    1  0.2679104E-009  0.1159862E+03  0.7561462E-02  0.1249869E+00
         -2   -1    0    0    0  501 -0.00000000000E+00  0.00000000000E+00  0.98119197127E+02  0.98119197127E+02  0.00000000000E+00 0.  1.
          2   -1    0    0  501    0  0.00000000000E+00 -0.00000000000E+00 -0.30497048383E+03  0.30497048383E+03  0.00000000000E+00 0. -1.
         25    2    1    2    0    0  0.23950179098E+02 -0.46334947033E+02  0.33895602321E+02  0.13970312148E+03  0.12509001518E+03 0.  0.
          5    1    3    3  502    0  0.25099267884E+01 -0.87913052923E+02  0.27855461417E+02  0.92349356996E+02  0.41800000000E+01 0. -1.
         -5    1    3    3    0  502  0.21440252310E+02  0.41578105890E+02  0.60401409045E+01  0.47353764483E+02  0.41800000000E+01 0. -1.
        -11    1    1    2    0    0 -0.53389001741E+02  0.40336580734E+02 -0.10617083649E+03  0.12549769629E+03  0.00000000000E+00 0.  1.
         11    1    1    2    0    0  0.29438822643E+02  0.59983662986E+01 -0.13457605253E+03  0.13788886318E+03  0.00000000000E+00 0. -1.
</event>
<event>
 7    1  0.2679104E-009  0.1117646E+03  0.7561462E-02  0.1257337E+00
          2   -1    0    0  501    0  0.00000000000E+00  0.00000000000E+00  0.39692393474E+03  0.39692393474E+03  0.00000000000E+00 0.  1.
         -2   -1    0    0    0  501 -0.00000000000E+00 -0.00000000000E+00 -0.39523318290E+02  0.39523318290E+02  0.00000000000E+00 0. -1.
         25    2    1    2    0    0 -0.46354062466E+02 -0.36584113660E+02  0.16726480785E+03  0.21705119543E+03  0.12508640618E+03 0.  0.
          5    1    3    3  502    0 -0.77652016634E+02 -0.44714463794E+02  0.67987546798E+02  0.11255664298E+03  0.41800000000E+01 0.  1.
         -5    1    3    3    0  502  0.31297954168E+02  0.81303501342E+01  0.99277261056E+02  0.10449455245E+03  0.41800000000E+01 0.  1.
        -11    1    1    2    0    0 -0.98871159547E+01 -0.19456555048E+02  0.84364729426E+02  0.87141954117E+02  0.00000000000E+00 0.  1.
         11    1    1    2    0    0  0.56241178421E+02  0.56040668707E+02  0.10577107917E+03  0.13225410348E+03  0.00000000000E+00 0. -1.
</event>
<event>
 7    1  0.2679104E-009  0.9163397E+02  0.7561462E-02  0.1298942E+00
         -1   -1    0    0    0  501 -0.00000000000E+00  0.00000000000E+00  0.23654564461E+03  0.23654564461E+03  0.00000000000E+00 0.  1.
          1   -1    0    0  501    0  0.00000000000E+00 -0.00000000000E+00 -0.63272284284E+02  0.63272284284E+02  0.00000000000E+00 0. -1.
         25    2    1    2    0    0 -0.53801730049E+02  0.21126716774E+02  0.89641145102E+02  0.16440140930E+03  0.12510525235E+03 0.  0.
          5    1    3    3  502    0 -0.11190451702E+02  0.48363137267E+02  0.10080560198E+03  0.11244314584E+03  0.41800000000E+01 0.  1.
         -5    1    3    3    0  502 -0.42611278347E+02 -0.27236420492E+02 -0.11164456881E+02  0.51958263453E+02  0.41800000000E+01 0.  1.
        -11    1    1    2    0    0  0.12516361791E+02 -0.36550658322E+02  0.82762084953E+02  0.91335494973E+02  0.00000000000E+00 0.  1.
         11    1    1    2    0    0  0.41285368259E+02  0.15423941547E+02  0.87013026827E+00  0.44081024623E+02  0.00000000000E+00 0. -1.
</event>
<event>
 7    1  0.2679104E-009  0.9683686E+02  0.7561462E-02  0.1287092E+00
         -2   -1    0    0    0  501 -0.00000000000E+00  0.00000000000E+00  0.62380365895E+02  0.62380365895E+02  0.00000000000E+00 0.  1.
          2   -1    0    0  501    0  0.00000000000E+00 -0.00000000000E+00 -0.22966855621E+03  0.22966855621E+03  0.00000000000E+00 0. -1.
         25    2    1    2    0    0  0.40105992835E+02  0.29132390269E+02 -0.10626627093E+03  0.17145802315E+03  0.12509255190E+03 0.  0.
          5    1    3    3  502    0  0.78477657206E+02 -0.80795663928E+01 -0.77250295769E+02  0.11049480834E+03  0.41800000000E+01 0.  1.
         -5    1    3    3    0  502 -0.38371664371E+02  0.37211956662E+02 -0.29015975165E+02  0.60963214811E+02  0.41800000000E+01 0.  1.
        -11    1    1    2    0    0 -0.12060252588E+01 -0.21350725959E+02  0.20691682523E+02  0.29756574425E+02  0.00000000000E+00 0.  1.
         11    1    1    2    0    0 -0.38899967576E+02 -0.77816643107E+01 -0.81713601907E+02  0.90834324533E+02  0.00000000000E+00 0. -1.
</event>
<event>
 7    1  0.3622405E-009  0.8405422E+02  0.7561462E-02  0.1317925E+00
          2   -1    0    0  501    0  0.00000000000E+00  0.00000000000E+00  0.10336859811E+04  0.10336859811E+04  0.00000000000E+00 0. -1.
         -2   -1    0    0    0  501 -0.00000000000E+00 -0.00000000000E+00 -0.19257092402E+02  0.19257092402E+02  0.00000000000E+00 0.  1.
         25    2    1    2    0    0  0.39066263645E+02  0.24409814298E+02  0.84046850515E+03  0.85097151869E+03  0.12507280071E+03 0.  0.
          5    1    3    3  502    0  0.29431310094E+02  0.50667793592E+02  0.79669080616E+03  0.79885364137E+03  0.41800000000E+01 0. -1.
         -5    1    3    3    0  502  0.96349535507E+01 -0.26257979294E+02  0.43777698993E+02  0.52117877314E+02  0.41800000000E+01 0. -1.
        -11    1    1    2    0    0 -0.56252504782E+02 -0.71132982171E+01  0.49879489977E+02  0.75517592826E+02  0.00000000000E+00 0.  1.
         11    1    1    2    0    0  0.17186241138E+02 -0.17296516081E+02  0.12408089354E+03  0.12645396196E+03  0.00000000000E+00 0. -1.
</event>
<event>
 7    1  0.2679104E-009  0.1249515E+03  0.7561462E-02  0.1235145E+00
         -4   -1    0    0    0  501 -0.00000000000E+00  0.00000000000E+00  0.63950967138E+02  0.63950967138E+02  0.00000000000E+00 0.  1.
          4   -1    0    0  501    0  0.00000000000E+00 -0.00000000000E+00 -0.38994937859E+03  0.38994937859E+03  0.00000000000E+00 0. -1.
         25    2    1    2    0    0  0.45779461717E+01 -0.11400665575E+03 -0.19604562257E+03  0.25903566299E+03  0.12508842243E+03 0.  0.
          5    1    3    3  502    0  0.38910522551E+02 -0.62355750611E+02 -0.26149904820E+02  0.78125273257E+02  0.41800000000E+01 0. -1.
         -5    1    3    3    0  502 -0.34332576379E+02 -0.51650905135E+02 -0.16989571776E+03  0.18091038973E+03  0.41800000000E+01 0. -1.
        -11    1    1    2    0    0 -0.10984318639E+01  0.56702850625E+02 -0.44899690704E+01  0.56890945183E+02  0.00000000000E+00 0.  1.
         11    1    1    2    0    0 -0.34795143078E+01  0.57303805121E+02 -0.12546281981E+03  0.13797373756E+03  0.00000000000E+00 0. -1.
</event>
<event>
 7    1  0.2679104E-009  0.9961519E+02  0.7561462E-02  0.1281107E+00
          2   -1    0    0  501    0  0.00000000000E+00  0.00000000000E+00  0.55209102031E+03  0.55209102031E+03  0.00000000000E+00 0. -1.
         -2   -1    0    0    0  501 -0.00000000000E+00 -0.00000000000E+00 -0.23427927047E+02  0.23427927047E+02  0.00000000000E+00 0.  1.
         25    2    1    2    0    0  0.18973441618E+02  0.23088240649E+02  0.28396963695E+03  0.31173566226E+03  0.12508920847E+03 0.  0.
          5    1    3    3  502    0 -0.12013901403E+02 -0.33828979713E+02  0.23073697944E+02  0.42878918271E+02  0.41800000000E+01 0.  1.
         -5    1    3    3    0  502  0.30987343021E+02  0.56917220362E+02  0.26089593900E+03  0.26885674399E+03  0.41800000000E+01 0.  1.
        -11    1    1    2    0    0 -0.19635682806E+01 -0.58673736900E+02  0.15744268528E+03  0.16803172959E+03  0.00000000000E+00 0.  1.
         11    1    1    2    0    0 -0.17009873338E+02  0.35585496252E+02  0.87250771038E+02  0.95751555503E+02  0.00000000000E+00 0. -1.
</event>
<event>
 7    1  0.2679104E-009  0.2100101E+03  0.7561462E-02  0.1141558E+00
          4   -1    0    0  501    0  0.00000000000E+00  0.00000000000E+00  0.34214603069E+02  0.34214603069E+02  0.00000000000E+00 0. -1.
         -4   -1    0    0    0  501 -0.00000000000E+00 -0.00000000000E+00 -0.14280702938E+04  0.14280702938E+04  0.00000000000E+00 0.  1.
         25    2    1    2    0    0 -0.19079135823E+03 -0.19636616391E+02 -0.77321487041E+03  0.80640785495E+03  0.12508178770E+03 0.  0.
          5    1    3    3  502    0 -0.52859516403E+02 -0.64144604787E+02 -0.31432009009E+03  0.32515111907E+03  0.41800000000E+01 0.  1.
         -5    1    3    3    0  502 -0.13793184183E+03  0.44507988396E+02 -0.45889478032E+03  0.48125673588E+03  0.41800000000E+01 0.  1.
        -11    1    1    2    0    0  0.61663953067E+02  0.67869710207E+01 -0.88074786601E+02  0.10772963436E+03  0.00000000000E+00 0. -1.
         11    1    1    2    0    0  0.12912740517E+03  0.12849645370E+02 -0.53256603376E+03  0.54814740761E+03  0.00000000000E+00 0.  1.
</event>
<event>
 7    1  0.2679104E-009  0.9973537E+02  0.7561462E-02  0.1280853E+00
          4   -1    0    0  501    0  0.00000000000E+00  0.00000000000E+00  0.79362498586E+02  0.79362498586E+02  0.00000000000E+00 0. -1.
         -4   -1    0    0    0  501 -0.00000000000E+00 -0.00000000000E+00 -0.21345737157E+03  0.21345737157E+03  0.00000000000E+00 0.  1.
         25    2    1    2    0    0 -0.58864246608E+02  0.38693109737E+02 -0.56555002214E+02  0.15430133802E+03  0.12509307883E+03 0.  0.
          5    1    3    3  502    0  0.18236843227E+02  0.42354275320E+02 -0.61338060151E+02  0.76852437254E+02  0.41800000000E+01 0.  1.
         -5    1    3    3    0  502 -0.77101089835E+02 -0.36611655824E+01  0.47830579365E+01  0.77448900770E+02  0.41800000000E+01 0.  1.
        -11    1    1    2    0    0  0.15675491195E+02  0.28600100651E+01 -0.76950467389E+02  0.78582918711E+02  0.00000000000E+00 0.  1.
         11    1    1    2    0    0  0.43188755413E+02 -0.41553119803E+02 -0.58940337799E+00  0.59935613418E+02  0.00000000000E+00 0. -1.
</event>
<event>
 7    1  0.2679104E-009  0.1209088E+03  0.7561462E-02  0.1241605E+00
         -1   -1    0    0    0  501 -0.00000000000E+00  0.00000000000E+00  0.18967186963E+03  0.18967186963E+03  0.00000000000E+00 0.  1.
          1   -1    0    0  501    0  0.00000000000E+00 -0.00000000000E+00 -0.12899791433E+03  0.12899791433E+03  0.00000000000E+00 0. -1.
         25    2    1    2    0    0 -0.23339418212E+02  0.88108248493E+02 -0.33895180674E+02  0.15844518209E+03  0.12509276781E+03 0.  0.
          5    1    3    3  502    0  0.46282276025E+02  0.55200608614E+02 -0.37343715899E+02  0.81247657090E+02  0.41800000000E+01 0. -1.
         -5    1    3    3    0  502 -0.69621694237E+02  0.32907639879E+02  0.34485352254E+01  0.77197524999E+02  0.41800000000E+01 0. -1.
        -11    1    1    2    0    0  0.15910002169E+01 -0.36523370357E+02  0.97537801556E+02  0.10416386416E+03  0.00000000000E+00 0.  1.
         11    1    1    2    0    0  0.21748417995E+02 -0.51584878136E+02 -0.29686655732E+01  0.56060737712E+02  0.00000000000E+00 0. -1.
</event>
<event>
 7    1  0.2679104E-009  0.1557313E+03  0.7561462E-02  0.1193602E+00
         -2   -1    0    0    0  501 -0.00000000000E+00  0.00000000000E+00  0.19196132764E+03  0.19196132764E+03  0.00000000000E+00 0.  1.
          2   -1    0    0  501    0  0.00000000000E+00 -0.00000000000E+00 -0.27823543085E+03  0.27823543085E+03  0.00000000000E+00 0. -1.
         25    2    1    2    0    0 -0.11084428626E+03  0.51175167562E+02 -0.21121637684E+03  0.27415968372E+03  0.12508325532E+03 0.  0.
          5    1    3    3  502    0  0.27635407487E+02  0.14150366868E+02 -0.40587265373E+02  0.51271309130E+02  0.41800000000E+01 0.  1.
         -5    1    3    3    0  502 -0.13847969375E+03  0.37024800693E+02 -0.17062911147E+03  0.22288837459E+03  0.41800000000E+01 0.  1.
        -11    1    1    2    0    0  0.75975230155E+02 -0.64240160959E+02  0.12374374699E+03  0.15878144979E+03  0.00000000000E+00 0.  1.
         11    1    1    2    0    0  0.34869056109E+02  0.13064993398E+02  0.11985266450E+01  0.37255624978E+02  0.00000000000E+00 0. -1.
</event>
<event>
 7    1  0.2679104E-009  0.9638965E+02  0.7561462E-02  0.1288077E+00
          1   -1    0    0  501    0  0.00000000000E+00  0.00000000000E+00  0.36064053800E+02  0.36064053800E+02  0.00000000000E+00 0. -1.
         -1   -1    0    0    0  501 -0.00000000000E+00 -0.00000000000E+00 -0.43894828273E+03  0.43894828273E+03  0.00000000000E+00 0.  1.
         25    2    1    2    0    0  0.27477940503E+02 -0.50834316064E+02 -0.27527297948E+03  0.30782666048E+03  0.12507147861E+03 0.  0.
          5    1    3    3  502    0  0.47278665808E+02 -0.28659869346E+02 -0.27203958732E+03  0.27763225645E+03  0.41800000000E+01 0.  1.
         -5    1    3    3    0  502 -0.19800725305E+02 -0.22174446718E+02 -0.32333921658E+01  0.30194404030E+02  0.41800000000E+01 0.  1.
        -11    1    1    2    0    0 -0.58411306358E+02  0.15663477853E+02 -0.81217955398E+02  0.10125997002E+03  0.00000000000E+00 0. -1.
         11    1    1    2    0    0  0.30933365855E+02  0.35170838211E+02 -0.46393294049E+02  0.65925706036E+02  0.00000000000E+00 0.  1.
</event>
<event>
 7    1  0.2679104E-009  0.8324447E+02  0.7561462E-02  0.1320088E+00
          1   -1    0    0  501    0  0.00000000000E+00  0.00000000000E+00  0.20925389654E+03  0.20925389654E+03  0.00000000000E+00 0. -1.
         -1   -1    0    0    0  501 -0.00000000000E+00 -0.00000000000E+00 -0.97166406444E+02  0.97166406444E+02  0.00000000000E+00 0.  1.
         25    2    1    2    0    0  0.91907504622E-01 -0.70504039883E+02 -0.26804699279E+01  0.14361543987E+03  0.12508949421E+03 0.  0.
          5    1    3    3  502    0 -0.48315989435E+01 -0.77661126373E+02 -0.51792845209E+02  0.93565838385E+02  0.41800000000E+01 0. -1.
         -5    1    3    3    0  502  0.49235064481E+01  0.71570864904E+01  0.49112375281E+02  0.50049601482E+02  0.41800000000E+01 0. -1.
        -11    1    1    2    0    0 -0.16108397222E+02  0.18598319170E+02 -0.10128037747E+02  0.26607425385E+02  0.00000000000E+00 0.  1.
         11    1    1    2    0    0  0.16016489717E+02  0.51905720712E+02  0.12489599777E+03  0.13619743773E+03  0.00000000000E+00 0. -1.
</event>
<event>
 7    1  0.2679104E-009  0.1438576E+03  0.7561462E-02  0.1208231E+00
         -2   -1    0    0    0  501 -0.00000000000E+00  0.00000000000E+00  0.31958849037E+03  0.31958849037E+03  0.00000000000E+00 0.  1.
          2   -1    0    0  501    0  0.00000000000E+00 -0.00000000000E+00 -0.83779996027E+02  0.83779996027E+02  0.00000000000E+00 0. -1.
         25    2    1    2    0    0  0.93041591475E+02 -0.58905295268E+02  0.62358416323E+02  0.17794086980E+03  0.12509120475E+03 0.  0.
          5    1    3    3  502    0 -0.17612208937E+02  0.17324189382E+02 -0.78768360007E+01  0.26264698490E+02  0.41800000000E+01 0.  1.
         -5    1    3    3    0  502  0.11065380041E+03 -0.76229484649E+02  0.70235252324E+02  0.15167617131E+03  0.41800000000E+01 0.  1.
        -11    1    1    2    0    0 -0.75582326804E+02  0.99316145523E+01  0.15027254074E+03  0.16850270500E+03  0.00000000000E+00 0.  1.
         11    1    1    2    0    0 -0.17459264670E+02  0.48973680715E+02  0.23177537285E+02  0.56924911596E+02  0.00000000000E+00 0. -1.
</event>
<event>
 7    1  0.2679104E-009  0.1927793E+03  0.7561462E-02  0.1155978E+00
          2   -1    0    0  501    0  0.00000000000E+00  0.00000000000E+00  0.20222420096E+03  0.20222420096E+03  0.00000000000E+00 0. -1.
         -2   -1    0    0    0  501 -0.00000000000E+00 -0.00000000000E+00 -0.22364144578E+03  0.22364144578E+03  0.00000000000E+00 0.  1.
         25    2    1    2    0    0  0.13081301232E+03  0.11995168847E+03  0.26635908717E+02  0.21876370606E+03  0.12509051003E+03 0.  0.
          5    1    3    3  502    0  0.54494094710E+02  0.11943106468E+03  0.47274445212E+02  0.13959130037E+03  0.41800000000E+01 0.  1.
         -5    1    3    3    0  502  0.76318917611E+02  0.52062378590E+00 -0.20638536495E+02  0.79172405693E+02  0.41800000000E+01 0.  1.
        -11    1    1    2    0    0 -0.10438785953E+03 -0.10110086823E+03 -0.76245383250E+02  0.16410840698E+03  0.00000000000E+00 0.  1.
         11    1    1    2    0    0 -0.26425152787E+02 -0.18850820242E+02  0.28192229717E+02  0.42993533700E+02  0.00000000000E+00 0. -1.
</event>
<event>
 7    1  0.2679104E-009  0.1454648E+03  0.7561462E-02  0.1206159E+00
          2   -1    0    0  501    0  0.00000000000E+00  0.00000000000E+00  0.10166096091E+04  0.10166096091E+04  0.00000000000E+00 0.  1.
         -2   -1    0    0    0  501 -0.00000000000E+00 -0.00000000000E+00 -0.39532010429E+02  0.39532010429E+02  0.00000000000E+00 0. -1.
         25    2    1    2    0    0 -0.74767210638E+02  0.96574168863E+02  0.81516250871E+03  0.83369906982E+03  0.12509003772E+03 0.  0.
          5    1    3    3  502    0 -0.86239428921E+02  0.60580654570E+02  0.31695207566E+03  0.33404093383E+03  0.41800000000E+01 0.  1.
         -5    1    3    3    0  502  0.11472218284E+02  0.35993514293E+02  0.49821043304E+03  0.49965813599E+03  0.41800000000E+01 0.  1.
        -11    1    1    2    0    0  0.36389557050E+02 -0.10236042603E+03  0.91482001835E+02  0.14202398861E+03  0.00000000000E+00 0. -1.
         11    1    1    2    0    0  0.38377653588E+02  0.57862571694E+01  0.70433088148E+02  0.80418561122E+02  0.00000000000E+00 0.  1.
</event>
<event>
 7    1  0.2679104E-009  0.1518329E+03  0.7561462E-02  0.1198239E+00
         -1   -1    0    0    0  501 -0.00000000000E+00  0.00000000000E+00  0.13061738650E+03  0.13061738650E+03  0.00000000000E+00 0.  1.
          1   -1    0    0  501    0  0.00000000000E+00 -0.00000000000E+00 -0.30640071039E+03  0.30640071039E+03  0.00000000000E+00 0. -1.
         25    2    1    2    0    0  0.79927875694E+02 -0.93563112279E+02  0.41332865883E+02  0.18027560546E+03  0.12509343240E+03 0.  0.
          5    1    3    3  502    0  0.71798882331E+02 -0.11990053888E+03  0.53703485794E+02  0.14977568399E+03  0.41800000000E+01 0.  1.
         -5    1    3    3    0  502  0.81289933633E+01  0.26337426598E+02 -0.12370619910E+02  0.30499921473E+02  0.41800000000E+01 0.  1.
        -11    1    1    2    0    0 -0.46683318149E+02  0.12458705075E+02 -0.92898238033E+02  0.10471214903E+03  0.00000000000E+00 0.  1.
         11    1    1    2    0    0 -0.33244557545E+02  0.81104407204E+02 -0.12421795174E+03  0.15203034239E+03  0.00000000000E+00 0. -1.
</event>
<event>
 7    1  0.2679104E-009  0.5681250E+02  0.7561462E-02  0.1411717E+00
         -1   -1    0    0    0  501 -0.00000000000E+00  0.00000000000E+00  0.76311567824E+02  0.76311567824E+02  0.00000000000E+00 0.  1.
          1   -1    0    0  501    0  0.00000000000E+00 -0.00000000000E+00 -0.14200644776E+03  0.14200644776E+03  0.00000000000E+00 0. -1.
         25    2    1    2    0    0 -0.24822109162E+02  0.26438456278E+02 -0.24077075533E+02  0.13244849741E+03  0.12509104615E+03 0.  0.
          5    1    3    3  502    0  0.17828183791E+02  0.17995328902E+02 -0.66668807677E+02  0.71441432773E+02  0.41800000000E+01 0.  1.
         -5    1    3    3    0  502 -0.42650292953E+02  0.84431273759E+01  0.42591732144E+02  0.61007064639E+02  0.41800000000E+01 0.  1.
        -11    1    1    2    0    0  0.10304126318E+02 -0.27841448540E+02  0.10700095498E+02  0.31556509940E+02  0.00000000000E+00 0.  1.
         11    1    1    2    0    0  0.14517982844E+02  0.14029922613E+01 -0.52317899904E+02  0.54313008235E+02  0.00000000000E+00 0. -1.
</event>
<event>
 7    1  0.2713723E-009  0.1571338E+03  0.7561462E-02  0.1191971E+00
         -2   -1    0    0    0  501 -0.00000000000E+00  0.00000000000E+00  0.26219021885E+02  0.26219021885E+02  0.00000000000E+00 0.  1.
          2   -1    0    0  501    0  0.00000000000E+00 -0.00000000000E+00 -0.96255805541E+03  0.96255805541E+03  0.00000000000E+00 0. -1.
         25    2    1    2    0    0 -0.84199773832E+02  0.79196154719E+02 -0.48341479945E+03  0.51254171621E+03  0.12509000638E+03 0.  0.
          5    1    3    3  502    0  0.25466223197E+02 -0.10099110286E+02 -0.10318929252E+03  0.10684579095E+03  0.41800000000E+01 0. -1.
         -5    1    3    3    0  502 -0.10966599703E+03  0.89295265004E+02 -0.38022550693E+03  0.40569592527E+03  0.41800000000E+01 0. -1.
        -11    1    1    2    0    0  0.90929506700E+02 -0.30494917589E+02 -0.33538265135E+03  0.34882608563E+03  0.00000000000E+00 0. -1.
         11    1    1    2    0    0 -0.67297328673E+01 -0.48701237130E+02 -0.11754158272E+03  0.12740927545E+03  0.00000000000E+00 0.  1.
</event>
<event>
 7    1  0.2679104E-009  0.1082418E+03  0.7561462E-02  0.1263861E+00
          2   -1    0    0  501    0  0.00000000000E+00  0.00000000000E+00  0.92945301807E+03  0.92945301807E+03  0.00000000000E+00 0. -1.
         -2   -1    0    0    0  501 -0.00000000000E+00 -0.00000000000E+00 -0.21730657007E+02  0.21730657007E+02  0.00000000000E+00 0.  1.
         25    2    1    2    0    0 -0.80819360471E+02  0.29682359134E+02  0.57590445222E+03  0.59558743946E+03  0.12508256665E+03 0.  0.
          5    1    3    3  502    0 -0.41143614848E+02  0.48132377150E+01  0.40367968597E+02  0.57991461343E+02  0.41800000000E+01 0. -1.
         -5    1    3    3    0  502 -0.39675745623E+02  0.24869121419E+02  0.53553648363E+03  0.53759597812E+03  0.41800000000E+01 0. -1.
        -11    1    1    2    0    0  0.85860190976E+01  0.31826083074E+02  0.87756055015E+02  0.93742970295E+02  0.00000000000E+00 0.  1.
         11    1    1    2    0    0  0.72233341374E+02 -0.61508442208E+02  0.24406185382E+03  0.26185326532E+03  0.00000000000E+00 0. -1.
</event>
<event>
 7    1  0.2679104E-009  0.1184026E+03  0.7561462E-02  0.1245756E+00
          2   -1    0    0  501    0  0.00000000000E+00  0.00000000000E+00  0.97598284298E+03  0.97598284298E+03  0.00000000000E+00 0. -1.
         -2   -1    0    0    0  501 -0.00000000000E+00 -0.00000000000E+00 -0.16053973005E+02  0.16053973005E+02  0.00000000000E+00 0.  1.
         25    2    1    2    0    0  0.40571962956E+02  0.42485317216E+02  0.59201247031E+03  0.60792850646E+03  0.12508883886E+03 0.  0.
          5    1    3    3  502    0 -0.34137742323E+01 -0.39021722308E+02  0.26917029027E+03  0.27203761915E+03  0.41800000000E+01 0. -1.
         -5    1    3    3    0  502  0.43985737188E+02  0.81507039523E+02  0.32284218003E+03  0.33589088731E+03  0.41800000000E+01 0. -1.
        -11    1    1    2    0    0  0.27073305388E+02 -0.19073906068E+02  0.17997238430E+03  0.18299408971E+03  0.00000000000E+00 0. -1.
         11    1    1    2    0    0 -0.67645268343E+02 -0.23411411147E+02  0.18794401537E+03  0.20111421982E+03  0.00000000000E+00 0.  1.
</event>
<event>
 7    1  0.2679104E-009  0.1093638E+03  0.7561462E-02  0.1261753E+00
         -2   -1    0    0    0  501 -0.00000000000E+00  0.00000000000E+00  0.37463950502E+03  0.37463950502E+03  0.00000000000E+00 0.  1.
          2   -1    0    0  501    0  0.00000000000E+00 -0.00000000000E+00 -0.34235816926E+02  0.34235816926E+02  0.00000000000E+00 0. -1.
         25    2    1    2    0    0 -0.18879532716E+02 -0.48542406176E+01  0.24098858986E+03  0.27221719821E+03  0.12508677848E+03 0.  0.
          5    1    3    3  502    0 -0.72482252912E+02 -0.15728321212E+01  0.13268306426E+03  0.15125613617E+03  0.41800000000E+01 0. -1.
         -5    1    3    3    0  502  0.53602720196E+02 -0.32814084963E+01  0.10830552560E+03  0.12096106204E+03  0.41800000000E+01 0. -1.
        -11    1    1    2    0    0 -0.34640316490E+02 -0.11133535924E+02  0.27552287978E+02  0.45640286168E+02  0.00000000000E+00 0. -1.
         11    1    1    2    0    0  0.53519849206E+02  0.15987776541E+02  0.71862810259E+02  0.91017837570E+02  0.00000000000E+00 0.  1.
</event>
<event>
 7    1  0.2679104E-009  0.1046851E+03  0.7561462E-02  0.1270741E+00
         -2   -1    0    0    0  501 -0.00000000000E+00  0.00000000000E+00  0.56852049165E+02  0.56852049165E+02  0.00000000000E+00 0.  1.
          2   -1    0    0  501    0  0.00000000000E+00 -0.00000000000E+00 -0.39900907106E+03  0.39900907106E+03  0.00000000000E+00 0. -1.
         25    2    1    2    0    0 -0.99812222164E+02  0.24522990296E+02 -0.20750700713E+03  0.26319306903E+03  0.12509027473E+03 0.  0.
          5    1    3    3  502    0 -0.65699987835E+01 -0.36813852082E+01 -0.14948115203E+03  0.14972910436E+03  0.41800000000E+01 0.  1.
         -5    1    3    3    0  502 -0.93242223380E+02  0.28204375505E+02 -0.58025855095E+02  0.11346396467E+03  0.41800000000E+01 0.  1.
        -11    1    1    2    0    0  0.39765863119E+02 -0.48235681368E+01 -0.12174900018E+03  0.12816945706E+03  0.00000000000E+00 0. -1.
         11    1    1    2    0    0  0.60046359044E+02 -0.19699422160E+02 -0.12901014594E+02  0.64498594135E+02  0.00000000000E+00 0.  1.
</event>
<event>
 7    1  0.2679104E-009  0.6506582E+02  0.7561462E-02  0.1377724E+00
         -1   -1    0    0    0  501 -0.00000000000E+00  0.00000000000E+00  0.37510687179E+03  0.37510687179E+03  0.00000000000E+00 0.  1.
          1   -1    0    0  501    0  0.00000000000E+00 -0.00000000000E+00 -0.48725650742E+02  0.48725650742E+02  0.00000000000E+00 0. -1.
         25    2    1    2    0    0 -0.11252552709E+02 -0.12185661081E+02  0.30533236046E+03  0.33037836568E+03  0.12508758487E+03 0.  0.
          5    1    3    3  502    0  0.28278659886E+01  0.12862389599E+02  0.30064897112E+03  0.30096630066E+03  0.41800000000E+01 0. -1.
         -5    1    3    3    0  502 -0.14080418698E+02 -0.25048050680E+02  0.46833893360E+01  0.29412065029E+02  0.41800000000E+01 0. -1.
        -11    1    1    2    0    0  0.45629816329E+02 -0.95324618496E+01 -0.21029161800E+01  0.46662299810E+02  0.00000000000E+00 0. -1.
         11    1    1    2    0    0 -0.34377263620E+02  0.21718122930E+02  0.23151776770E+02  0.46791857039E+02  0.00000000000E+00 0.  1.
</event>
<event>
 7    1  0.2679104E-009  0.1236492E+03  0.7561462E-02  0.1237196E+00
          2   -1    0    0  501    0  0.00000000000E+00  0.00000000000E+00  0.16698267049E+03  0.16698267049E+03  0.00000000000E+00 0. -1.
         -2   -1    0    0    0  501 -0.00000000000E+00 -0.00000000000E+00 -0.11618932011E+03  0.11618932011E+03  0.00000000000E+00 0.  1.
         25    2    1    2    0    0  0.62337511068E+02 -0.53547356184E+02  0.13601089611E+01  0.14967376669E+03  0.12508837636E+03 0.  0.
          5    1    3    3  502    0  0.58037268858E+02 -0.79370366703E+02  0.37099743417E+02  0.10517529676E+03  0.41800000000E+01 0. -1.
         -5    1    3    3    0  502  0.43002422105E+01  0.25823010519E+02 -0.35739634456E+02  0.44498469933E+02  0.41800000000E+01 0. -1.
        -11    1    1    2    0    0 -0.79900438140E+02  0.16803836617E+02  0.42963912043E+02  0.92262379538E+02  0.00000000000E+00 0. -1.
         11    1    1    2    0    0  0.17562927071E+02  0.36743519568E+02  0.64693293750E+01  0.41235844360E+02  0.00000000000E+00 0.  1.
</event>
<event>
 7    1  0.2679104E-009  0.1461327E+03  0.7561462E-02  0.1205307E+00
         -1   -1    0    0    0  501 -0.00000000000E+00  0.00000000000E+00  0.20788136828E+03  0.20788136828E+03  0.00000000000E+00 0.  1.
          1   -1    0    0  501    0  0.00000000000E+00 -0.00000000000E+00 -0.11324971646E+03  0.11324971646E+03  0.00000000000E+00 0. -1.
         25    2    1    2    0    0 -0.14704805550E+02 -0.10349573321E+03  0.24896865939E+02  0.16490935368E+03  0.12509053881E+03 0.  0.
          5    1    3    3  502    0  0.22529833465E+02  0.20416889179E+02  0.17305360097E+02  0.35233374062E+02  0.41800000000E+01 0. -1.
         -5    1    3    3    0  502 -0.37234639015E+02 -0.12391262239E+03  0.75915058416E+01  0.12967597962E+03  0.41800000000E+01 0. -1.
        -11    1    1    2    0    0  0.14888323285E+02 -0.10440871192E+02  0.30890382548E+02  0.35845358074E+02  0.00000000000E+00 0.  1.
         11    1    1    2    0    0 -0.18351773571E+00  0.11393660440E+03  0.38844403333E+02  0.12037637298E+03  0.00000000000E+00 0. -1.
</event>
<event>
 7    1  0.2679104E-009  0.8791697E+02  0.7561462E-02  0.1307976E+00
          3   -1    0    0  501    0  0.00000000000E+00  0.00000000000E+00  0.27955834356E+03  0.27955834356E+03  0.00000000000E+00 0. -1.
         -3   -1    0    0    0  501 -0.00000000000E+00 -0.00000000000E+00 -0.52435314673E+02  0.52435314673E+02  0.00000000000E+00 0.  1.
         25    2    1    2    0    0  0.23474935143E+02  0.49277706632E+02  0.12611040654E+03  0.18582282362E+03  0.12508765802E+03 0.  0.
          5    1    3    3  502    0 -0.99881989815E+01  0.28957234439E+02 -0.18446214493E+02  0.36000288532E+02  0.41800000000E+01 0. -1.
         -5    1    3    3    0  502  0.33463134125E+02  0.20320472193E+02  0.14455662103E+03  0.14982253509E+03  0.41800000000E+01 0. -1.
        -11    1    1    2    0    0 -0.49036761943E+02 -0.60289287829E+02  0.77209478610E+02  0.10954773314E+03  0.00000000000E+00 0.  1.
         11    1    1    2    0    0  0.25561826799E+02  0.11011581197E+02  0.23803143734E+02  0.36623101472E+02  0.00000000000E+00 0. -1.
</event>
<event>
 7    1  0.2679104E-009  0.1041240E+03  0.7561462E-02  0.1271855E+00
          1   -1    0    0  501    0  0.00000000000E+00  0.00000000000E+00  0.50503105720E+03  0.50503105720E+03  0.00000000000E+00 0. -1.
         -1   -1    0    0    0  501 -0.00000000000E+00 -0.00000000000E+00 -0.30191908236E+02  0.30191908236E+02  0.00000000000E+00 0.  1.
         25    2    1    2    0    0 -0.24519169529E+02 -0.23331972704E+02  0.36898817822E+03  0.39108461654E+03  0.12509728617E+03 0.  0.
          5    1    3    3  502    0 -0.30689245668E+01  0.46235787724E+02  0.75591173244E+02  0.88761839981E+02  0.41800000000E+01 0. -1.
         -5    1    3    3    0  502 -0.21450244962E+02 -0.69567760428E+02  0.29339700498E+03  0.30232277656E+03  0.41800000000E+01 0. -1.
        -11    1    1    2    0    0  0.30138342819E+02  0.51721925210E+02  0.39416438600E+02  0.71673794983E+02  0.00000000000E+00 0.  1.
         11    1    1    2    0    0 -0.56191732906E+01 -0.28389952507E+02  0.66434532141E+02  0.72464553905E+02  0.00000000000E+00 0. -1.
</event>
<event>
 7    1  0.2679104E-009  0.9573204E+02  0.7561462E-02  0.1289536E+00
         -1   -1    0    0    0  501 -0.00000000000E+00  0.00000000000E+00  0.17520541100E+02  0.17520541100E+02  0.00000000000E+00 0.  1.
          1   -1    0    0  501    0  0.00000000000E+00 -0.00000000000E+00 -0.10323120958E+04  0.10323120958E+04  0.00000000000E+00 0. -1.
         25    2    1    2    0    0 -0.36533489360E+02 -0.62355734549E+02 -0.72426030971E+03  0.73852943327E+03  0.12509913711E+03 0.  0.
          5    1    3    3  502    0 -0.24013097296E+02  0.10171808928E+01 -0.57881948286E+03  0.57933334932E+03  0.41800000000E+01 0.  1.
         -5    1    3    3    0  502 -0.12520392063E+02 -0.63372915442E+02 -0.14544082685E+03  0.15919608395E+03  0.41800000000E+01 0.  1.
        -11    1    1    2    0    0  0.35708855746E+02 -0.40383579636E+01 -0.48710707443E+02  0.60532336262E+02  0.00000000000E+00 0.  1.
         11    1    1    2    0    0  0.82463361330E+00  0.66394092513E+02 -0.24182053750E+03  0.25077086733E+03  0.00000000000E+00 0. -1.
</event>
<event>
 7    1  0.2679104E-009  0.1205165E+03  0.7561462E-02  0.1242247E+00
         -1   -1    0    0    0  501 -0.00000000000E+00  0.00000000000E+00  0.47304723325E+03  0.47304723325E+03  0.00000000000E+00 0.  1.
          1   -1    0    0  501    0  0.00000000000E+00 -0.00000000000E+00 -0.46641072787E+02  0.46641072787E+02  0.00000000000E+00 0. -1.
         25    2    1    2    0    0 -0.21151244990E+02  0.94657948864E+02  0.27809081545E+03  0.31998432963E+03  0.12509183475E+03 0.  0.
          5    1    3    3  502    0 -0.39203974830E+02 -0.30734862465E+01  0.22000937870E+02  0.45253857596E+02  0.41800000000E+01 0. -1.
         -5    1    3    3    0  502  0.18052729839E+02  0.97731435111E+02  0.25608987758E+03  0.27473047203E+03  0.41800000000E+01 0. -1.
        -11    1    1    2    0    0  0.23610108117E+02 -0.34493684109E+02  0.13031757117E+03  0.13685730088E+03  0.00000000000E+00 0.  1.
         11    1    1    2    0    0 -0.24588631271E+01 -0.60164264755E+02  0.17997773838E+02  0.62846675525E+02  0.00000000000E+00 0. -1.
</event>
<event>
 7    1  0.2679104E-009  0.8781091E+02  0.7561462E-02  0.1308241E+00
         -2   -1    0    0    0  501 -0.00000000000E+00  0.00000000000E+00  0.18167879276E+02  0.18167879276E+02  0.00000000000E+00 0.  1.
          2   -1    0    0  501    0  0.00000000000E+00 -0.00000000000E+00 -0.79336722498E+03  0.79336722498E+03  0.00000000000E+00 0. -1.
         25    2    1    2    0    0  0.10744815759E+02  0.11753359218E+00 -0.61095314623E+03  0.62371961142E+03  0.12508773683E+03 0.  0.
          5    1    3    3  502    0 -0.13055419269E+02  0.49750523045E+02 -0.13417969754E+03  0.14376098966E+03  0.41800000000E+01 0. -1.
         -5    1    3    3    0  502  0.23800235028E+02 -0.49632989453E+02 -0.47677344869E+03  0.47995862177E+03  0.41800000000E+01 0. -1.
        -11    1    1    2    0    0  0.28778158327E+02 -0.41923032987E+01 -0.13760883711E+02  0.32173276553E+02  0.00000000000E+00 0. -1.
         11    1    1    2    0    0 -0.39522974087E+02  0.40747697066E+01 -0.15048531577E+03  0.15564221629E+03  0.00000000000E+00 0.  1.
</event>
<event>
 7    1  0.2679104E-009  0.1400035E+03  0.7561462E-02  0.1213324E+00
          1   -1    0    0  501    0  0.00000000000E+00  0.00000000000E+00  0.29679857670E+03  0.29679857670E+03  0.00000000000E+00 0. -1.
         -1   -1    0    0    0  501 -0.00000000000E+00 -0.00000000000E+00 -0.77317743747E+02  0.77317743747E+02  0.00000000000E+00 0.  1.
         25    2    1    2    0    0 -0.39951629392E+02  0.80906998386E+02  0.52505603759E+02  0.16293131624E+03  0.12509076828E+03 0.  0.
          5    1    3    3  502    0 -0.81996843349E+02  0.35427583298E+02  0.45871506738E+02  0.10050006720E+03  0.41800000000E+01 0. -1.
         -5    1    3    3    0  502  0.42045213958E+02  0.45479415088E+02  0.66340970210E+01  0.62431249041E+02  0.41800000000E+01 0. -1.
        -11    1    1    2    0    0 -0.29582460698E+02 -0.31471052665E+02  0.45428300911E+02  0.62683966534E+02  0.00000000000E+00 0. -1.
         11    1    1    2    0    0  0.69534090090E+02 -0.49435945721E+02  0.12154692829E+03  0.14850103767E+03  0.00000000000E+00 0.  1.
</event>
<event>
 7    1  0.2679104E-009  0.1740061E+03  0.7561462E-02  0.1173733E+00
          2   -1    0    0  501    0  0.00000000000E+00  0.00000000000E+00  0.85307267313E+03  0.85307267313E+03  0.00000000000E+00 0.  1.
         -2   -1    0    0    0  501 -0.00000000000E+00 -0.00000000000E+00 -0.47326269239E+02  0.47326269239E+02  0.00000000000E+00 0. -1.
         25    2    1    2    0    0  0.15216870660E+03  0.41134800997E+01  0.58454156364E+03  0.61685451291E+03  0.12509362286E+03 0.  0.
          5    1    3    3  502    0  0.89753068521E+02  0.52815681571E+02  0.21532627215E+03  0.23922371414E+03  0.41800000000E+01 0.  1.
         -5    1    3    3    0  502  0.62415638083E+02 -0.48702201471E+02  0.36921529150E+03  0.37763079877E+03  0.41800000000E+01 0.  1.
        -11    1    1    2    0    0 -0.62226613696E+02 -0.32489697135E+02  0.44121653010E+02  0.82912315950E+02  0.00000000000E+00 0. -1.
         11    1    1    2    0    0 -0.89942092909E+02  0.28376217035E+02  0.17708318724E+03  0.20063211352E+03  0.00000000000E+00 0.  1.
</event>
<event>
 7    1  0.2679104E-009  0.9369740E+02  0.7561462E-02  0.1294137E+00
          1   -1    0    0  501    0  0.00000000000E+00  0.00000000000E+00  0.37095046325E+02  0.37095046325E+02  0.00000000000E+00 0. -1.
         -1   -1    0    0    0  501 -0.00000000000E+00 -0.00000000000E+00 -0.34837222540E+03  0.34837222540E+03  0.00000000000E+00 0.  1.
         25    2    1    2    0    0 -0.88787270132E+01 -0.24505584477E+02 -0.21840655510E+03  0.25303873461E+03  0.12509125645E+03 0.  0.
          5    1    3    3  502    0  0.73504383128E+00  0.33641151820E+02 -0.84746630007E+01  0.34950818276E+02  0.41800000000E+01 0.  1.
         -5    1    3    3    0  502 -0.96137708445E+01 -0.58146736297E+02 -0.20993189210E+03  0.21808791633E+03  0.41800000000E+01 0.  1.
        -11    1    1    2    0    0  0.49630521213E+02  0.72867210667E+01 -0.48866810281E+02  0.70030351183E+02  0.00000000000E+00 0.  1.
         11    1    1    2    0    0 -0.40751794199E+02  0.17218863410E+02 -0.44003813696E+02  0.62398185931E+02  0.00000000000E+00 0. -1.
</event>
<event>
 7    1  0.2679104E-009  0.8619063E+02  0.7561462E-02  0.1312348E+00
         -3   -1    0    0    0  501 -0.00000000000E+00  0.00000000000E+00  0.17650981222E+03  0.17650981222E+03  0.00000000000E+00 0.  1.
          3   -1    0    0  501    0  0.00000000000E+00 -0.00000000000E+00 -0.68583234048E+02  0.68583234048E+02  0.00000000000E+00 0. -1.
         25    2    1    2    0    0 -0.99232562463E+01 -0.14368893791E+02  0.48789682446E+02  0.13539844893E+03  0.12508945094E+03 0.  0.
          5    1    3    3  502    0  0.15424914935E+02 -0.44206686613E+02 -0.23897172936E+02  0.52732403856E+02  0.41800000000E+01 0.  1.
         -5    1    3    3    0  502 -0.25348171181E+02  0.29837792822E+02  0.72686855382E+02  0.82666045073E+02  0.41800000000E+01 0.  1.
        -11    1    1    2    0    0 -0.25388281679E+02 -0.23235519448E+02  0.47620246985E+01  0.34743792106E+02  0.00000000000E+00 0. -1.
         11    1    1    2    0    0  0.35311537925E+02  0.37604413240E+02  0.54374871023E+02  0.74950805229E+02  0.00000000000E+00 0.  1.
</event>
<event>
 7    1  0.2679104E-009  0.8841348E+02  0.7561462E-02  0.1306740E+00
          1   -1    0    0  501    0  0.00000000000E+00  0.00000000000E+00  0.46082971017E+03  0.46082971017E+03  0.00000000000E+00 0. -1.
         -1   -1    0    0    0  501 -0.00000000000E+00 -0.00000000000E+00 -0.32812735533E+02  0.32812735533E+02  0.00000000000E+00 0.  1.
         25    2    1    2    0    0  0.25845744174E+02  0.52110363992E+02  0.27695532180E+03  0.30941070948E+03  0.12508894572E+03 0.  0.
          5    1    3    3  502    0 -0.42054675552E+01 -0.22127796006E+02  0.18899231064E+03  0.19037565809E+03  0.41800000000E+01 0.  1.
         -5    1    3    3    0  502  0.30051211730E+02  0.74238159999E+02  0.87963011157E+02  0.11903505138E+03  0.41800000000E+01 0.  1.
        -11    1    1    2    0    0  0.67663103491E+01 -0.37288462617E+02  0.10711395259E+02  0.39382056682E+02  0.00000000000E+00 0.  1.
         11    1    1    2    0    0 -0.32612054524E+02 -0.14821901376E+02  0.14035025758E+03  0.14484967954E+03  0.00000000000E+00 0. -1.
</event>
<event>
 7    1  0.2679104E-009  0.1187882E+03  0.7561462E-02  0.1245110E+00
         -1   -1    0    0    0  501 -0.00000000000E+00  0.00000000000E+00  0.80599375151E+01  0.80599375151E+01  0.00000000000E+00 0.  1.
          1   -1    0    0  501    0  0.00000000000E+00 -0.00000000000E+00 -0.26812685831E+04  0.26812685831E+04  0.00000000000E+00 0. -1.
         25    2    1    2    0    0 -0.16252928807E+02 -0.52341818010E+02 -0.22080194002E+04  0.22122389546E+04  0.12509075559E+03 0.  0.
          5    1    3    3  502    0  0.24085135292E+02 -0.79363337761E+02 -0.10903969534E+04  0.10935545809E+04  0.41800000000E+01 0. -1.
         -5    1    3    3    0  502 -0.40338064098E+02  0.27021519751E+02 -0.11176224468E+04  0.11186843737E+04  0.41800000000E+01 0. -1.
        -11    1    1    2    0    0 -0.19109590670E+02  0.65377485241E+02 -0.28985832902E+03  0.29775366150E+03  0.00000000000E+00 0. -1.
         11    1    1    2    0    0  0.35362519477E+02 -0.13035667230E+02 -0.17533091634E+03  0.17933590446E+03  0.00000000000E+00 0.  1.
</event>
<event>
 7    1  0.2679104E-009  0.1327609E+03  0.7561462E-02  0.1223416E+00
          1   -1    0    0  501    0  0.00000000000E+00  0.00000000000E+00  0.12574012368E+03  0.12574012368E+03  0.00000000000E+00 0. -1.
         -1   -1    0    0    0  501 -0.00000000000E+00 -0.00000000000E+00 -0.20340073686E+03  0.20340073686E+03  0.00000000000E+00 0.  1.
         25    2    1    2    0    0  0.10212936145E+02  0.10404731755E+03 -0.76983829133E+02  0.18028735401E+03  0.12508745627E+03 0.  0.
          5    1    3    3  502    0  0.15917578345E+02  0.11247282344E+03 -0.11912714969E+02  0.11429300281E+03  0.41800000000E+01 0.  1.
         -5    1    3    3    0  502 -0.57046421996E+01 -0.84255058942E+01 -0.65071114163E+02  0.65994351203E+02  0.41800000000E+01 0.  1.
        -11    1    1    2    0    0 -0.43179338934E+02 -0.98329653015E+02  0.20395501023E+02  0.10931217880E+03  0.00000000000E+00 0.  1.
         11    1    1    2    0    0  0.32966402789E+02 -0.57176645313E+01 -0.21072285074E+02  0.39541327731E+02  0.00000000000E+00 0. -1.
</event>
<event>
 7    1  0.2679104E-009  0.1174315E+03  0.7561462E-02  0.1247395E+00
          1   -1    0    0  501    0  0.00000000000E+00  0.00000000000E+00  0.44115415020E+02  0.44115415020E+02  0.00000000000E+00 0. -1.
         -1   -1    0    0    0  501 -0.00000000000E+00 -0.00000000000E+00 -0.44252509609E+03  0.44252509609E+03  0.00000000000E+00 0.  1.
         25    2    1    2    0    0 -0.55386503447E+02  0.42705556347E+02 -0.30947332626E+03  0.34103915517E+03  0.12507012587E+03 0.  0.
          5    1    3    3  502    0 -0.61426914539E+02  0.80976930166E+02 -0.25035058307E+03  0.27022845130E+03  0.41800000000E+01 0.  1.
         -5    1    3    3    0  502  0.60404110917E+01 -0.38271373819E+02 -0.59122743189E+02  0.70810703868E+02  0.41800000000E+01 0.  1.
        -11    1    1    2    0    0 -0.10202121097E+01  0.14086752420E+02 -0.58150191372E+02  0.59840807006E+02  0.00000000000E+00 0.  1.
         11    1    1    2    0    0  0.56406715557E+02 -0.56792308766E+02 -0.30786163442E+02  0.85760548939E+02  0.00000000000E+00 0. -1.
</event>
<event>
 7    1  0.2679104E-009  0.1238877E+03  0.7561462E-02  0.1236818E+00
          1   -1    0    0  501    0  0.00000000000E+00  0.00000000000E+00  0.13153614005E+04  0.13153614005E+04  0.00000000000E+00 0. -1.
         -1   -1    0    0    0  501 -0.00000000000E+00 -0.00000000000E+00 -0.13353212928E+02  0.13353212928E+02  0.00000000000E+00 0.  1.
         25    2    1    2    0    0 -0.56335273311E+02 -0.41416853061E+02  0.84385379765E+03  0.85593556293E+03  0.12508971714E+03 0.  0.
          5    1    3    3  502    0 -0.10379469699E+02  0.38575337876E+02  0.12811077642E+03  0.13425957515E+03  0.41800000000E+01 0. -1.
         -5    1    3    3    0  502 -0.45955803612E+02 -0.79992190936E+02  0.71574302123E+03  0.72167598778E+03  0.41800000000E+01 0. -1.
        -11    1    1    2    0    0  0.50209151825E+02  0.69935582009E+02  0.30738254011E+03  0.31921148244E+03  0.00000000000E+00 0.  1.
         11    1    1    2    0    0  0.61261214862E+01 -0.28518728949E+02  0.15077184985E+03  0.15356756810E+03  0.00000000000E+00 0. -1.
</event>
<event>
 7    1  0.2679104E-009  0.1337719E+03  0.7561462E-02  0.1221964E+00
          3   -1    0    0  501    0  0.00000000000E+00  0.00000000000E+00  0.23954127860E+03  0.23954127860E+03  0.00000000000E+00 0. -1.
         -3   -1    0    0    0  501 -0.00000000000E+00 -0.00000000000E+00 -0.11169104980E+03  0.11169104980E+03  0.00000000000E+00 0.  1.
         25    2    1    2    0    0 -0.10247262546E+03 -0.62904512279E+02  0.44296099690E+02  0.17907313311E+03  0.12508967152E+03 0.  0.
          5    1    3    3  502    0 -0.23810040379E+02 -0.59555797422E+02  0.71053601367E+02  0.95811782661E+02  0.41800000000E+01 0. -1.
         -5    1    3    3    0  502 -0.78662585079E+02 -0.33487148570E+01 -0.26757501677E+02  0.83261350448E+02  0.41800000000E+01 0. -1.
        -11    1    1    2    0    0  0.52445344362E+02  0.13591421430E+02 -0.10076595393E+02  0.55106974663E+02  0.00000000000E+00 0.  1.
         11    1    1    2    0    0  0.50027281095E+02  0.49313090848E+02  0.93630724499E+02  0.11705222062E+03  0.00000000000E+00 0. -1.
</event>
<event>
 7    1  0.2679104E-009  0.1141075E+03  0.7561462E-02  0.1253147E+00
          2   -1    0    0  501    0  0.00000000000E+00  0.00000000000E+00  0.16355054467E+02  0.16355054467E+02  0.00000000000E+00 0. -1.
         -2   -1    0    0    0  501 -0.00000000000E+00 -0.00000000000E+00 -0.10729889633E+04  0.10729889633E+04  0.00000000000E+00 0.  1.
         25    2    1    2    0    0  0.57337003273E+02 -0.39673333390E+02 -0.72644689068E+03  0.74042812149E+03  0.12508881961E+03 0.  0.
          5    1    3    3  502    0 -0.57619669782E+01  0.24418452919E+02 -0.35678413797E+02  0.43816466283E+02  0.41800000000E+01 0.  1.
         -5    1    3    3    0  502  0.63098970251E+02 -0.64091786310E+02 -0.69076847688E+03  0.69661165521E+03  0.41800000000E+01 0.  1.
        -11    1    1    2    0    0 -0.79417360716E+02  0.17242224237E+02 -0.24185750496E+03  0.25514596643E+03  0.00000000000E+00 0.  1.
         11    1    1    2    0    0  0.22080357443E+02  0.22431109154E+02 -0.88329513244E+02  0.93769929895E+02  0.00000000000E+00 0. -1.
</event>
<event>
 7    1  0.2679104E-009  0.7977507E+02  0.7561462E-02  0.1329691E+00
         -3   -1    0    0    0  501 -0.00000000000E+00  0.00000000000E+00  0.36434300291E+03  0.36434300291E+03  0.00000000000E+00 0.  1.
          3   -1    0    0  501    0  0.00000000000E+00 -0.00000000000E+00 -0.40856305196E+02  0.40856305196E+02  0.00000000000E+00 0. -1.
         25    2    1    2    0    0 -0.15936855097E+02 -0.15990920855E+02  0.26552626436E+03  0.29438365465E+03  0.12509135126E+03 0.  0.
          5    1    3    3  502    0 -0.25487938140E+02 -0.40352337606E+02  0.28222743314E+02  0.55605231598E+02  0.41800000000E+01 0.  1.
         -5    1    3    3    0  502  0.95510830424E+01  0.24361416751E+02  0.23730352105E+03  0.23877842305E+03  0.41800000000E+01 0.  1.
        -11    1    1    2    0    0 -0.33618887453E+02  0.10815536176E+02  0.48667885692E+02  0.60131260706E+02  0.00000000000E+00 0.  1.
         11    1    1    2    0    0  0.49555742551E+02  0.51753846790E+01  0.92925476585E+01  0.50684392749E+02  0.00000000000E+00 0. -1.
</event>
<event>
 7    1  0.2679104E-009  0.4282375E+03  0.7561462E-02  0.1034418E+00
          3   -1    0    0  501    0  0.00000000000E+00  0.00000000000E+00  0.52198846183E+03  0.52198846183E+03  0.00000000000E+00 0. -1.
         -3   -1    0    0    0  501 -0.00000000000E+00 -0.00000000000E+00 -0.35674334533E+03  0.35674334533E+03  0.00000000000E+00 0.  1.
         25    2    1    2    0    0 -0.41534552375E+03 -0.26374561994E+02  0.11503408285E+03  0.44954172300E+03  0.12508956343E+03 0.  0.
          5    1    3    3  502    0 -0.14944886560E+03 -0.66579556821E+02  0.22952217228E+02  0.16526366053E+03  0.41800000000E+01 0.  1.
         -5    1    3    3    0  502 -0.26589665815E+03  0.40204994827E+02  0.92081865627E+02  0.28427806247E+03  0.41800000000E+01 0.  1.
        -11    1    1    2    0    0  0.26785151759E+02 -0.18741011622E+02 -0.81462122702E+01  0.33690215876E+02  0.00000000000E+00 0.  1.
         11    1    1    2    0    0  0.38856037199E+03  0.45115573617E+02  0.58357245908E+02  0.39549986829E+03  0.00000000000E+00 0. -1.
</event>
<event>
 7    1  0.2679104E-009  0.1052776E+03  0.7561462E-02  0.1269574E+00
          2   -1    0    0  501    0  0.00000000000E+00  0.00000000000E+00  0.32928772658E+03  0.32928772658E+03  0.00000000000E+00 0. -1.
         -2   -1    0    0    0  501 -0.00000000000E+00 -0.00000000000E+00 -0.44191843799E+02  0.44191843799E+02  0.00000000000E+00 0.  1.
         25    2    1    2    0    0  0.47378087881E+02 -0.20760300745E+02  0.13560366272E+03  0.19160142562E+03  0.12508828746E+03 0.  0.
          5    1    3    3  502    0  0.45546034942E+01 -0.68130326168E+02  0.89870636298E+02  0.11294551530E+03  0.41800000000E+01 0. -1.
         -5    1    3    3    0  502  0.42823484387E+02  0.47370025423E+02  0.45733026426E+02  0.78655910329E+02  0.41800000000E+01 0. -1.
        -11    1    1    2    0    0 -0.19086242221E+02  0.39737771807E+02  0.13961284474E+03  0.14640738221E+03  0.00000000000E+00 0. -1.
         11    1    1    2    0    0 -0.28291845660E+02 -0.18977471062E+02  0.98793753206E+01  0.35470762544E+02  0.00000000000E+00 0.  1.
</event>
<event>
 7    1  0.2679104E-009  0.1213260E+03  0.7561462E-02  0.1240925E+00
          1   -1    0    0  501    0  0.00000000000E+00  0.00000000000E+00  0.50152769024E+02  0.50152769024E+02  0.00000000000E+00 0. -1.
         -1   -1    0    0    0  501 -0.00000000000E+00 -0.00000000000E+00 -0.51718581456E+03  0.51718581456E+03  0.00000000000E+00 0.  1.
         25    2    1    2    0    0  0.44452690572E+02  0.83764768101E+02 -0.39472540610E+03  0.42478945915E+03  0.12508141472E+03 0.  0.
          5    1    3    3  502    0  0.10225329847E+02  0.96477509875E+02 -0.36447705655E+03  0.37719154873E+03  0.41800000000E+01 0.  1.
         -5    1    3    3    0  502  0.34227360725E+02 -0.12712741773E+02 -0.30248349548E+02  0.47597910416E+02  0.41800000000E+01 0.  1.
        -11    1    1    2    0    0  0.12039971042E+02 -0.22077406199E+02 -0.50017960779E+02  0.55983650896E+02  0.00000000000E+00 0.  1.
         11    1    1    2    0    0 -0.56492661613E+02 -0.61687361902E+02 -0.22289678658E+02  0.86565473540E+02  0.00000000000E+00 0. -1.
</event>
<event>
 7    1  0.2679104E-009  0.9838908E+02  0.7561462E-02  0.1283720E+00
         -2   -1    0    0    0  501 -0.00000000000E+00  0.00000000000E+00  0.64732914772E+02  0.64732914772E+02  0.00000000000E+00 0.  1.
          2   -1    0    0  501    0  0.00000000000E+00 -0.00000000000E+00 -0.20027619038E+03  0.20027619038E+03  0.00000000000E+00 0. -1.
         25    2    1    2    0    0  0.15142935840E+02 -0.23371845643E+02 -0.89577273449E+02  0.15635740543E+03  0.12509196073E+03 0.  0.
          5    1    3    3  502    0  0.67763661656E+02  0.50221156810E+01 -0.44011852309E+02  0.81065720440E+02  0.41800000000E+01 0. -1.
         -5    1    3    3    0  502 -0.52620725815E+02 -0.28393961324E+02 -0.45565421140E+02  0.75291684990E+02  0.41800000000E+01 0. -1.
        -11    1    1    2    0    0 -0.25924240921E+01  0.44290801130E+02  0.11831233905E+02  0.45917031950E+02  0.00000000000E+00 0.  1.
         11    1    1    2    0    0 -0.12550511748E+02 -0.20918955487E+02 -0.57797236062E+02  0.62734667770E+02  0.00000000000E+00 0. -1.
</event>
<event>
 7    1  0.2679104E-009  0.1219783E+03  0.7561462E-02  0.1239869E+00
         -4   -1    0    0    0  501 -0.00000000000E+00  0.00000000000E+00  0.11663998745E+03  0.11663998745E+03  0.00000000000E+00 0.  1.
          4   -1    0    0  501    0  0.00000000000E+00 -0.00000000000E+00 -0.14934199772E+03  0.14934199772E+03  0.00000000000E+00 0. -1.
         25    2    1    2    0    0 -0.64722939828E+02 -0.32217538241E+02 -0.37201191098E+02  0.14918620968E+03  0.12508224426E+03 0.  0.
          5    1    3    3  502    0 -0.92418895237E+02 -0.13322870747E+02 -0.57531191255E+02  0.10975455093E+03  0.41800000000E+01 0.  1.
         -5    1    3    3    0  502  0.27695955409E+02 -0.18894667494E+02  0.20330000157E+02  0.39431658754E+02  0.41800000000E+01 0.  1.
        -11    1    1    2    0    0  0.13050891892E+02 -0.31834562150E+02  0.19077746695E+01  0.34458739539E+02  0.00000000000E+00 0. -1.
         11    1    1    2    0    0  0.51672047935E+02  0.64052100391E+02  0.25914061571E+01  0.82337035945E+02  0.00000000000E+00 0.  1.
</event>
<event>
 7    1  0.2679104E-009  0.1456972E+03  0.7561462E-02  0.1205862E+00
          1   -1    0    0  501    0  0.00000000000E+00  0.00000000000E+00  0.84182381550E+03  0.84182381550E+03  0.00000000000E+00 0. -1.
         -1   -1    0    0    0  501 -0.00000000000E+00 -0.00000000000E+00 -0.43136074371E+02  0.43136074371E+02  0.00000000000E+00 0.  1.
         25    2    1    2    0    0  0.42591106560E+02 -0.10164843475E+03  0.67722217684E+03  0.69744100656E+03  0.12509066382E+03 0.  0.
          5    1    3    3  502    0  0.81106894268E+02 -0.84826507994E+02  0.57439898265E+03  0.58628110017E+03  0.41800000000E+01 0. -1.
         -5    1    3    3    0  502 -0.38515787708E+02 -0.16821926761E+02  0.10282319420E+03  0.11115990638E+03  0.41800000000E+01 0. -1.
        -11    1    1    2    0    0 -0.51580828682E+02  0.30327075463E+02  0.19840894449E+02  0.63039467686E+02  0.00000000000E+00 0.  1.
         11    1    1    2    0    0  0.89897221213E+01  0.71321359292E+02  0.10162466984E+03  0.12447941563E+03  0.00000000000E+00 0. -1.
</event>
<event>
 7    1  0.2679104E-009  0.1856651E+03  0.7561462E-02  0.1162430E+00
         -1   -1    0    0    0  501 -0.00000000000E+00  0.00000000000E+00  0.73953372676E+03  0.73953372676E+03  0.00000000000E+00 0.  1.
          1   -1    0    0  501    0  0.00000000000E+00 -0.00000000000E+00 -0.56056037885E+02  0.56056037885E+02  0.00000000000E+00 0. -1.
         25    2    1    2    0    0  0.84720971583E+02 -0.13850683513E+03  0.46625238338E+03  0.50931443264E+03  0.12509244535E+03 0.  0.
          5    1    3    3  502    0 -0.31945626297E+02 -0.43262913506E+02  0.11006390575E+03  0.12257136074E+03  0.41800000000E+01 0.  1.
         -5    1    3    3    0  502  0.11666659788E+03 -0.95243921621E+02  0.35618847762E+03  0.38674307190E+03  0.41800000000E+01 0.  1.
        -11    1    1    2    0    0 -0.68535405515E+01  0.42782774394E+02  0.90297315175E+01  0.44259155598E+02  0.00000000000E+00 0. -1.
         11    1    1    2    0    0 -0.77867431032E+02  0.95724060733E+02  0.20819557398E+03  0.24201617641E+03  0.00000000000E+00 0.  1.
</event>
<event>
 7    1  0.2679104E-009  0.7968517E+02  0.7561462E-02  0.1329947E+00
         -1   -1    0    0    0  501 -0.00000000000E+00  0.00000000000E+00  0.57080886705E+02  0.57080886705E+02  0.00000000000E+00 0.  1.
          1   -1    0    0  501    0  0.00000000000E+00 -0.00000000000E+00 -0.27664890381E+03  0.27664890381E+03  0.00000000000E+00 0. -1.
         25    2    1    2    0    0  0.38179866153E+02 -0.25436547345E+02 -0.17481635495E+03  0.21980427686E+03  0.12509373304E+03 0.  0.
          5    1    3    3  502    0 -0.43934564189E+01 -0.47980855940E+02 -0.11819253734E+02  0.49785863002E+02  0.41800000000E+01 0.  1.
         -5    1    3    3    0  502  0.42573322572E+02  0.22544308595E+02 -0.16299710122E+03  0.17001841386E+03  0.41800000000E+01 0.  1.
        -11    1    1    2    0    0 -0.41237497076E+02  0.44865606623E+01  0.19819088560E+02  0.45972346721E+02  0.00000000000E+00 0.  1.
         11    1    1    2    0    0  0.30576309232E+01  0.20949986683E+02 -0.64570750707E+02  0.67953166930E+02  0.00000000000E+00 0. -1.
</event>
<event>
 7    1  0.2679104E-009  0.1622662E+03  0.7561462E-02  0.1186162E+00
         -2   -1    0    0    0  501 -0.00000000000E+00  0.00000000000E+00  0.80028641647E+02  0.80028641647E+02  0.00000000000E+00 0.  1.
          2   -1    0    0  501    0  0.00000000000E+00 -0.00000000000E+00 -0.50287881712E+03  0.50287881712E+03  0.00000000000E+00 0. -1.
         25    2    1    2    0    0  0.71765762431E+02  0.11252174120E+03 -0.71314960219E+02  0.19633043595E+03  0.12509336365E+03 0.  0.
          5    1    3    3  502    0  0.25928035431E+02  0.12426555179E+03 -0.76938160263E+02  0.14849627365E+03  0.41800000000E+01 0.  1.
         -5    1    3    3    0  502  0.45837727000E+02 -0.11743810594E+02  0.56232000441E+01  0.47834162295E+02  0.41800000000E+01 0.  1.
        -11    1    1    2    0    0  0.95048981271E+01 -0.39942046864E+02 -0.43398629772E+02  0.59742374092E+02  0.00000000000E+00 0.  1.
         11    1    1    2    0    0 -0.81270660558E+02 -0.72579694334E+02 -0.30813658548E+03  0.32683464873E+03  0.00000000000E+00 0. -1.
</event>
<event>
 7    1  0.2679104E-009  0.4906177E+02  0.7561462E-02  0.1450469E+00
         -2   -1    0    0    0  501 -0.00000000000E+00  0.00000000000E+00  0.60689136720E+02  0.60689136720E+02  0.00000000000E+00 0.  1.
          2   -1    0    0  501    0  0.00000000000E+00 -0.00000000000E+00 -0.25645190290E+03  0.25645190290E+03  0.00000000000E+00 0. -1.
         25    2    1    2    0    0 -0.16162823131E+02  0.48423018171E+01 -0.34745786069E+02  0.13091748364E+03  0.12508970035E+03 0.  0.
          5    1    3    3  502    0 -0.13899018928E+02  0.15495856389E+02  0.45298625784E+02  0.50027414388E+02  0.41800000000E+01 0. -1.
         -5    1    3    3    0  502 -0.22638042031E+01 -0.10653554572E+02 -0.80044411853E+02  0.80890069251E+02  0.41800000000E+01 0. -1.
        -11    1    1    2    0    0 -0.14463650367E+02 -0.24772469116E+02 -0.92808903387E+01  0.30149748482E+02  0.00000000000E+00 0.  1.
         11    1    1    2    0    0  0.30626473499E+02  0.19930167299E+02 -0.15173608977E+03  0.15607380750E+03  0.00000000000E+00 0. -1.
</event>
<event>
 7    1  0.2679104E-009  0.9886151E+02  0.7561462E-02  0.1282708E+00
         -3   -1    0    0    0  501 -0.00000000000E+00  0.00000000000E+00  0.11983158988E+03  0.11983158988E+03  0.00000000000E+00 0.  1.
          3   -1    0    0  501    0  0.00000000000E+00 -0.00000000000E+00 -0.11295052136E+03  0.11295052136E+03  0.00000000000E+00 0. -1.
         25    2    1    2    0    0 -0.25762947741E+02  0.12387765222E+02  0.36327536507E+02  0.13336366767E+03  0.12509593015E+03 0.  0.
          5    1    3    3  502    0  0.35121119430E+02 -0.21471243904E+02  0.47159068022E+02  0.62737209386E+02  0.41800000000E+01 0.  1.
         -5    1    3    3    0  502 -0.60884067171E+02  0.33859009126E+02 -0.10831531515E+02  0.70626458280E+02  0.41800000000E+01 0.  1.
        -11    1    1    2    0    0 -0.25996104680E+02  0.12819514312E+02 -0.30177680484E+02  0.41842918219E+02  0.00000000000E+00 0.  1.
         11    1    1    2    0    0  0.51759052420E+02 -0.25207279533E+02  0.73121250068E+00  0.57575525361E+02  0.00000000000E+00 0. -1.
</event>
<event>
 7    1  0.2679104E-009  0.8238223E+02  0.7561462E-02  0.1322424E+00
         -2   -1    0    0    0  501 -0.00000000000E+00  0.00000000000E+00  0.37431435612E+02  0.37431435612E+02  0.00000000000E+00 0. -1.
          2   -1    0    0  501    0  0.00000000000E+00 -0.00000000000E+00 -0.57138663725E+03  0.57138663725E+03  0.00000000000E+00 0.  1.
         25    2    1    2    0    0 -0.92107941877E+01  0.29596166244E+02 -0.49208950651E+03  0.50868455110E+03  0.12508844201E+03 0.  0.
          5    1    3    3  502    0  0.68711923943E+01 -0.20194841871E+02 -0.41413455848E+03  0.41470465376E+03  0.41800000000E+01 0. -1.
         -5    1    3    3    0  502 -0.16081986582E+02  0.49791008115E+02 -0.77954948032E+02  0.93979897341E+02  0.41800000000E+01 0. -1.
        -11    1    1    2    0    0  0.24052662535E+02  0.24564303913E+02 -0.11251471327E+02  0.36173625873E+02  0.00000000000E+00 0. -1.
         11    1    1    2    0    0 -0.14841868347E+02 -0.54160470157E+02 -0.30614223803E+02  0.63959895894E+02  0.00000000000E+00 0.  1.
</event>
<event>
 7    1  0.2679104E-009  0.1442346E+03  0.7561462E-02  0.1207742E+00
         -1   -1    0    0    0  501 -0.00000000000E+00  0.00000000000E+00  0.17568921151E+03  0.17568921151E+03  0.00000000000E+00 0.  1.
          1   -1    0    0  501    0  0.00000000000E+00 -0.00000000000E+00 -0.24700208117E+03  0.24700208117E+03  0.00000000000E+00 0. -1.
         25    2    1    2    0    0 -0.11917071723E+03 -0.44369721441E+02  0.88550296821E+02  0.19914313732E+03  0.12508597862E+03 0.  0.
          5    1    3    3  502    0  0.13337668213E+02 -0.63133812049E+01  0.55130031525E+02  0.57223639796E+02  0.41800000000E+01 0. -1.
         -5    1    3    3    0  502 -0.13250838544E+03 -0.38056340236E+02  0.33420265296E+02  0.14191949752E+03  0.41800000000E+01 0. -1.
        -11    1    1    2    0    0  0.39909128595E+02 -0.73230905420E+01 -0.34293067302E+01  0.40720097556E+02  0.00000000000E+00 0.  1.
         11    1    1    2    0    0  0.79261588630E+02  0.51692811983E+02 -0.15643385976E+03  0.18282805781E+03  0.00000000000E+00 0. -1.
</event>
<event>
 7    1  0.2679104E-009  0.7878030E+02  0.7561462E-02  0.1332549E+00
          2   -1    0    0  501    0  0.00000000000E+00  0.00000000000E+00  0.28127959994E+02  0.28127959994E+02  0.00000000000E+00 0. -1.
         -2   -1    0    0    0  501 -0.00000000000E+00 -0.00000000000E+00 -0.61459867840E+03  0.61459867840E+03  0.00000000000E+00 0.  1.
         25    2    1    2    0    0  0.75485743235E+01  0.23799433764E+02 -0.15360716636E+03  0.19966324703E+03  0.12508739600E+03 0.  0.
          5    1    3    3  502    0  0.17416546252E+02  0.41513559627E+02 -0.16830558173E+03  0.17427263972E+03  0.41800000000E+01 0.  1.
         -5    1    3    3    0  502 -0.98679719284E+01 -0.17714125863E+02  0.14698415369E+02  0.25390607308E+02  0.41800000000E+01 0.  1.
        -11    1    1    2    0    0 -0.48021031258E+02 -0.12355420114E+02 -0.17906939974E+03  0.18580776564E+03  0.00000000000E+00 0. -1.
         11    1    1    2    0    0  0.40472456934E+02 -0.11444013650E+02 -0.25379415231E+03  0.25725562572E+03  0.00000000000E+00 0.  1.
</event>
<event>
 7    1  0.2679104E-009  0.7429801E+02  0.7561462E-02  0.1346059E+00
         -2   -1    0    0    0  501 -0.00000000000E+00  0.00000000000E+00  0.31219157308E+02  0.31219157308E+02  0.00000000000E+00 0.  1.
          2   -1    0    0  501    0  0.00000000000E+00 -0.00000000000E+00 -0.42635779066E+03  0.42635779066E+03  0.00000000000E+00 0. -1.
         25    2    1    2    0    0  0.39287909271E+02  0.46371806658E+01 -0.24147727324E+03  0.27481298846E+03  0.12508341967E+03 0.  0.
          5    1    3    3  502    0  0.20201657222E+02 -0.24536580807E+02 -0.13002119799E+01  0.32082919184E+02  0.41800000000E+01 0. -1.
         -5    1    3    3    0  502  0.19086252049E+02  0.29173761472E+02 -0.24017706126E+03  0.24273006927E+03  0.41800000000E+01 0. -1.
        -11    1    1    2    0    0  0.28507513640E+01 -0.31386319268E+02 -0.14062292876E+02  0.34510518707E+02  0.00000000000E+00 0.  1.
         11    1    1    2    0    0 -0.42138660635E+02  0.26749138602E+02 -0.13959906724E+03  0.14825344081E+03  0.00000000000E+00 0. -1.
</event>
<event>
 7    1  0.2679104E-009  0.1359048E+03  0.7561462E-02  0.1218948E+00
          1   -1    0    0  501    0  0.00000000000E+00  0.00000000000E+00  0.10265624632E+04  0.10265624632E+04  0.00000000000E+00 0. -1.
         -1   -1    0    0    0  501 -0.00000000000E+00 -0.00000000000E+00 -0.25752462896E+02  0.25752462896E+02  0.00000000000E+00 0.  1.
         25    2    1    2    0    0 -0.11734039763E+02  0.87488906822E+02  0.81118706534E+03  0.82550822471E+03  0.12508947832E+03 0.  0.
          5    1    3    3  502    0 -0.10792304218E+02 -0.28801989957E+02  0.95383401055E+02  0.10030699902E+03  0.41800000000E+01 0.  1.
         -5    1    3    3    0  502 -0.94173554488E+00  0.11629089678E+03  0.71580366428E+03  0.72520122569E+03  0.41800000000E+01 0.  1.
        -11    1    1    2    0    0 -0.14128862167E+02  0.13866406453E+02  0.28193487716E+02  0.34449596858E+02  0.00000000000E+00 0.  1.
         11    1    1    2    0    0  0.25862901931E+02 -0.10135531328E+03  0.16142944729E+03  0.19235710457E+03  0.00000000000E+00 0. -1.
</event>
<event>
 7    1  0.2679104E-009  0.1369847E+03  0.7561462E-02  0.1217445E+00
         -1   -1    0    0    0  501 -0.00000000000E+00  0.00000000000E+00  0.31507697327E+02  0.31507697327E+02  0.00000000000E+00 0.  1.
          1   -1    0    0  501    0  0.00000000000E+00 -0.00000000000E+00 -0.11893959633E+04  0.11893959633E+04  0.00000000000E+00 0. -1.
         25    2    1    2    0    0  0.71211156763E+02  0.89868216151E+02 -0.94613148093E+03  0.96122935183E+03  0.12509901073E+03 0.  0.
          5    1    3    3  502    0  0.33319258013E+02 -0.18801865425E+02 -0.97521931083E+02  0.10484122539E+03  0.41800000000E+01 0. -1.
         -5    1    3    3    0  502  0.37891898749E+02  0.10867008158E+03 -0.84860954985E+03  0.85638812644E+03  0.41800000000E+01 0. -1.
        -11    1    1    2    0    0 -0.29779384294E+02 -0.66237884856E+02 -0.19666654301E+03  0.20964731875E+03  0.00000000000E+00 0. -1.
         11    1    1    2    0    0 -0.41431772468E+02 -0.23630331295E+02 -0.15090242006E+02  0.50026990023E+02  0.00000000000E+00 0.  1.
</event>
<event>
 7    1  0.2679104E-009  0.1369841E+03  0.7561462E-02  0.1217446E+00
          2   -1    0    0  501    0  0.00000000000E+00  0.00000000000E+00  0.83307840078E+03  0.83307840078E+03  0.00000000000E+00 0. -1.
         -2   -1    0    0    0  501 -0.00000000000E+00 -0.00000000000E+00 -0.22932592630E+02  0.22932592630E+02  0.00000000000E+00 0.  1.
         25    2    1    2    0    0 -0.66463763479E+01  0.83216265421E+02  0.49897579290E+03  0.52114814095E+03  0.12509764893E+03 0.  0.
          5    1    3    3  502    0  0.43978276132E+02  0.88905991390E+02  0.33105902611E+03  0.34562395062E+03  0.41800000000E+01 0. -1.
         -5    1    3    3    0  502 -0.50624652480E+02 -0.56897259690E+01  0.16791676680E+03  0.17552419033E+03  0.41800000000E+01 0. -1.
        -11    1    1    2    0    0 -0.30757967408E+02  0.16822247000E+01  0.84681492637E+02  0.90110141683E+02  0.00000000000E+00 0.  1.
         11    1    1    2    0    0  0.37404343755E+02 -0.84898490121E+02  0.22648852261E+03  0.24475271077E+03  0.00000000000E+00 0. -1.
</event>
<event>
 7    1  0.2679104E-009  0.9533472E+02  0.7561462E-02  0.1290424E+00
         -2   -1    0    0    0  501 -0.00000000000E+00  0.00000000000E+00  0.20359118608E+03  0.20359118608E+03  0.00000000000E+00 0.  1.
          2   -1    0    0  501    0  0.00000000000E+00 -0.00000000000E+00 -0.59222159296E+02  0.59222159296E+02  0.00000000000E+00 0. -1.
         25    2    1    2    0    0  0.22735339728E+02 -0.22771180381E+02  0.89564420297E+02  0.15717638521E+03  0.12508880188E+03 0.  0.
          5    1    3    3  502    0  0.22740993999E+01 -0.73002727825E+02  0.63420114882E+02  0.96820210543E+02  0.41800000000E+01 0.  1.
         -5    1    3    3    0  502  0.20461240328E+02  0.50231547444E+02  0.26144305415E+02  0.60356174664E+02  0.41800000000E+01 0.  1.
        -11    1    1    2    0    0 -0.12831591116E+02  0.40675270242E+02  0.68729024972E+02  0.80887614710E+02  0.00000000000E+00 0.  1.
         11    1    1    2    0    0 -0.99037486114E+01 -0.17904089861E+02 -0.13924418487E+02  0.24749345456E+02  0.00000000000E+00 0. -1.
</event>
<event>
 7    1  0.2679104E-009  0.9687673E+02  0.7561462E-02  0.1287004E+00
         -2   -1    0    0    0  501 -0.00000000000E+00  0.00000000000E+00  0.26795179574E+02  0.26795179574E+02  0.00000000000E+00 0.  1.
          2   -1    0    0  501    0  0.00000000000E+00 -0.00000000000E+00 -0.56427037217E+03  0.56427037217E+03  0.00000000000E+00 0. -1.
         25    2    1    2    0    0 -0.42537887001E+02  0.31769217150E+02 -0.24210318265E+03  0.27763404848E+03  0.12509180165E+03 0.  0.
          5    1    3    3  502    0 -0.12634639977E+02  0.62257082459E+02 -0.50431594693E+02  0.81218203544E+02  0.41800000000E+01 0. -1.
         -5    1    3    3    0  502 -0.29903247024E+02 -0.30487865309E+02 -0.19167158796E+03  0.19641584494E+03  0.41800000000E+01 0. -1.
        -11    1    1    2    0    0  0.55418898367E+02 -0.42958102692E+02 -0.28492290191E+03  0.29342411782E+03  0.00000000000E+00 0.  1.
         11    1    1    2    0    0 -0.12881011366E+02  0.11188885542E+02 -0.10449108031E+02  0.20007385440E+02  0.00000000000E+00 0. -1.
</event>
<event>
 7    1  0.2679104E-009  0.8582596E+02  0.7561462E-02  0.1313287E+00
         -1   -1    0    0    0  501 -0.00000000000E+00  0.00000000000E+00  0.26225551178E+02  0.26225551178E+02  0.00000000000E+00 0.  1.
          1   -1    0    0  501    0  0.00000000000E+00 -0.00000000000E+00 -0.45479795958E+03  0.45479795958E+03  0.00000000000E+00 0. -1.
         25    2    1    2    0    0  0.38845525002E+01  0.10547960911E+02 -0.27421517159E+03  0.30161281375E+03  0.12509987954E+03 0.  0.
          5    1    3    3  502    0  0.48101693759E+02 -0.11030115530E+02 -0.23019090483E+03  0.23545861942E+03  0.41800000000E+01 0. -1.
         -5    1    3    3    0  502 -0.44217141259E+02  0.21578076441E+02 -0.44024266755E+02  0.66154194329E+02  0.41800000000E+01 0. -1.
        -11    1    1    2    0    0 -0.66522976543E+01 -0.41319094034E+02 -0.30572286524E+02  0.51828421731E+02  0.00000000000E+00 0.  1.
         11    1    1    2    0    0  0.27677451540E+01  0.30771133123E+02 -0.12378495029E+03  0.12758227528E+03  0.00000000000E+00 0. -1.
</event>
<event>
 7    1  0.2679104E-009  0.7384618E+02  0.7561462E-02  0.1347482E+00
         -2   -1    0    0    0  501 -0.00000000000E+00  0.00000000000E+00  0.41975887924E+02  0.41975887924E+02  0.00000000000E+00 0.  1.
          2   -1    0    0  501    0  0.00000000000E+00 -0.00000000000E+00 -0.33326416656E+03  0.33326416656E+03  0.00000000000E+00 0. -1.
         25    2    1    2    0    0 -0.25155275330E+02  0.38396501539E+02 -0.13349755747E+03  0.18861368069E+03  0.12508574453E+03 0.  0.
          5    1    3    3  502    0 -0.27346629753E+02  0.47061699985E+02 -0.15533616411E+03  0.16464943986E+03  0.41800000000E+01 0.  1.
         -5    1    3    3    0  502  0.21913544236E+01 -0.86651984464E+01  0.21838606646E+02  0.23964240830E+02  0.41800000000E+01 0.  1.
        -11    1    1    2    0    0 -0.23969957428E+02 -0.71474673456E+01 -0.85547945907E+01  0.26435386493E+02  0.00000000000E+00 0.  1.
         11    1    1    2    0    0  0.49125232758E+02 -0.31249034193E+02 -0.14923592658E+03  0.16019098730E+03  0.00000000000E+00 0. -1.
</event>
<event>
 7    1  0.2679104E-009  0.9634687E+02  0.7561462E-02  0.1288171E+00
          2   -1    0    0  501    0  0.00000000000E+00  0.00000000000E+00  0.25833092037E+03  0.25833092037E+03  0.00000000000E+00 0. -1.
         -2   -1    0    0    0  501 -0.00000000000E+00 -0.00000000000E+00 -0.53780881866E+02  0.53780881866E+02  0.00000000000E+00 0.  1.
         25    2    1    2    0    0  0.98477440009E+01  0.19926122470E+02  0.58322115890E+02  0.13979321586E+03  0.12508655235E+03 0.  0.
          5    1    3    3  502    0 -0.13928452479E+02 -0.47661086732E+02  0.44283450048E+02  0.66663913214E+02  0.41800000000E+01 0. -1.
         -5    1    3    3    0  502  0.23776196480E+02  0.67587209202E+02  0.14038665843E+02  0.73129302646E+02  0.41800000000E+01 0. -1.
        -11    1    1    2    0    0  0.41489413048E+01  0.24328151624E+02  0.71414776934E+01  0.25691893255E+02  0.00000000000E+00 0.  1.
         11    1    1    2    0    0 -0.13996685306E+02 -0.44254274094E+02  0.13908644492E+03  0.14662669312E+03  0.00000000000E+00 0. -1.
</event>
<event>
 7    1  0.2679104E-009  0.1489485E+03  0.7561462E-02  0.1201771E+00
          1   -1    0    0  501    0  0.00000000000E+00  0.00000000000E+00  0.77158749256E+02  0.77158749256E+02  0.00000000000E+00 0. -1.
         -1   -1    0    0    0  501 -0.00000000000E+00 -0.00000000000E+00 -0.74399519604E+03  0.74399519604E+03  0.00000000000E+00 0.  1.
         25    2    1    2    0    0  0.23350203030E+02 -0.11739161446E+03 -0.64592223770E+03  0.66872199734E+03  0.12509016525E+03 0.  0.
          5    1    3    3  502    0  0.65586261499E+02 -0.10188945760E+03 -0.37661720986E+03  0.39565264365E+03  0.41800000000E+01 0.  1.
         -5    1    3    3    0  502 -0.42236058468E+02 -0.15502156865E+02 -0.26930502785E+03  0.27306935369E+03  0.41800000000E+01 0.  1.
        -11    1    1    2    0    0 -0.39170977375E+02  0.10254001404E+03  0.14680448886E+02  0.11074446048E+03  0.00000000000E+00 0. -1.
         11    1    1    2    0    0  0.15820774345E+02  0.14851600418E+02 -0.35594657968E+02  0.41687487472E+02  0.00000000000E+00 0.  1.
</event>
<event>
 7    1  0.2679104E-009  0.1488277E+03  0.7561462E-02  0.1201921E+00
         -2   -1    0    0    0  501 -0.00000000000E+00  0.00000000000E+00  0.84415837649E+02  0.84415837649E+02  0.00000000000E+00 0.  1.
          2   -1    0    0  501    0  0.00000000000E+00 -0.00000000000E+00 -0.29543132717E+03  0.29543132717E+03  0.00000000000E+00 0. -1.
         25    2    1    2    0    0 -0.30323061418E+02 -0.10348414495E+03 -0.16412368258E+03  0.23283565646E+03  0.12508958161E+03 0.  0.
          5    1    3    3  502    0 -0.27733252517E+01 -0.12381863895E+03 -0.97010400456E+02  0.15737610010E+03  0.41800000000E+01 0. -1.
         -5    1    3    3    0  502 -0.27549736167E+02  0.20334494003E+02 -0.67113282121E+02  0.75459556361E+02  0.41800000000E+01 0. -1.
        -11    1    1    2    0    0 -0.31245811218E+02  0.40619167693E+02 -0.19857647710E+02  0.54959473026E+02  0.00000000000E+00 0.  1.
         11    1    1    2    0    0  0.61568872636E+02  0.62864977259E+02 -0.27034159235E+02  0.92052035334E+02  0.00000000000E+00 0. -1.
</event>
<event>
 7    1  0.2679104E-009  0.1394706E+03  0.7561462E-02  0.1214043E+00
          2   -1    0    0  501    0  0.00000000000E+00  0.00000000000E+00  0.36966241473E+03  0.36966241473E+03  0.00000000000E+00 0. -1.
         -2   -1    0    0    0  501 -0.00000000000E+00 -0.00000000000E+00 -0.77565826436E+02  0.77565826436E+02  0.00000000000E+00 0.  1.
         25    2    1    2    0    0 -0.25921632366E+02 -0.12063218050E+03  0.20839272904E+03  0.27257732120E+03  0.12508721964E+03 0.  0.
          5    1    3    3  502    0 -0.23170763795E+02 -0.51964072057E+02  0.43308447869E+01  0.57213439821E+02  0.41800000000E+01 0. -1.
         -5    1    3    3    0  502 -0.27508685712E+01 -0.68668108439E+02  0.20406188426E+03  0.21536388138E+03  0.41800000000E+01 0. -1.
        -11    1    1    2    0    0  0.59723209279E+02  0.85456213775E+02  0.52378948181E+02  0.11667553476E+03  0.00000000000E+00 0. -1.
         11    1    1    2    0    0 -0.33801576913E+02  0.35175966721E+02  0.31324911071E+02  0.57975385209E+02  0.00000000000E+00 0.  1.
</event>
<event>
 7    1  0.2679104E-009  0.9046283E+02  0.7561462E-02  0.1301735E+00
         -2   -1    0    0    0  501 -0.00000000000E+00  0.00000000000E+00  0.52054420254E+02  0.52054420254E+02  0.00000000000E+00 0.  1.
          2   -1    0    0  501    0  0.00000000000E+00 -0.00000000000E+00 -0.27226060346E+03  0.27226060346E+03  0.00000000000E+00 0. -1.
         25    2    1    2    0    0 -0.47743212059E+02 -0.10847285126E+02 -0.13649958672E+03  0.19151215711E+03  0.12509073209E+03 0.  0.
          5    1    3    3  502    0 -0.79913772960E+02 -0.29228241041E+02 -0.53703765641E+02  0.10070783498E+03  0.41800000000E+01 0. -1.
         -5    1    3    3    0  502  0.32170560902E+02  0.18380955915E+02 -0.82795821077E+02  0.90804322127E+02  0.41800000000E+01 0. -1.
        -11    1    1    2    0    0  0.36250964975E+02 -0.72872394449E+01 -0.99501169649E+02  0.10614951287E+03  0.00000000000E+00 0. -1.
         11    1    1    2    0    0  0.11492247083E+02  0.18134524571E+02  0.15794573156E+02  0.26653353741E+02  0.00000000000E+00 0.  1.
</event>
<event>
 7    1  0.2679104E-009  0.1098046E+03  0.7561462E-02  0.1260932E+00
          1   -1    0    0  501    0  0.00000000000E+00  0.00000000000E+00  0.20423838772E+03  0.20423838772E+03  0.00000000000E+00 0. -1.
         -1   -1    0    0    0  501 -0.00000000000E+00 -0.00000000000E+00 -0.88768047681E+02  0.88768047681E+02  0.00000000000E+00 0.  1.
         25    2    1    2    0    0  0.55507352370E+02 -0.56878563423E+02  0.63246176228E+02  0.16113817173E+03  0.12509674031E+03 0.  0.
          5    1    3    3  502    0  0.62657948995E+02 -0.27097458411E+02 -0.20881839988E+02  0.71510939484E+02  0.41800000000E+01 0.  1.
         -5    1    3    3    0  502 -0.71505966248E+01 -0.29781105012E+02  0.84128016216E+02  0.89627232247E+02  0.41800000000E+01 0.  1.
        -11    1    1    2    0    0 -0.52366666871E+02 -0.10032273023E+02  0.30621225819E+02  0.61486370618E+02  0.00000000000E+00 0. -1.
         11    1    1    2    0    0 -0.31406854994E+01  0.66910836446E+02  0.21602937988E+02  0.70381893048E+02  0.00000000000E+00 0.  1.
</event>
<event>
 7    1  0.2679104E-009  0.9073596E+02  0.7561462E-02  0.1301079E+00
          2   -1    0    0  501    0  0.00000000000E+00  0.00000000000E+00  0.18867665302E+03  0.18867665302E+03  0.00000000000E+00 0. -1.
         -2   -1    0    0    0  501 -0.00000000000E+00 -0.00000000000E+00 -0.10770167548E+03  0.10770167548E+03  0.00000000000E+00 0.  1.
         25    2    1    2    0    0 -0.31251085331E+02  0.68691803006E+02 -0.73565539797E+01  0.14627455438E+03  0.12508769819E+03 0.  0.
          5    1    3    3  502    0 -0.47747985898E+02  0.16048629840E+02 -0.53960060221E+02  0.73936386009E+02  0.41800000000E+01 0.  1.
         -5    1    3    3    0  502  0.16496900567E+02  0.52643173165E+02  0.46603506241E+02  0.72338168370E+02  0.41800000000E+01 0.  1.
        -11    1    1    2    0    0  0.17942160807E+02 -0.44658221781E+02 -0.90064261003E+01  0.48963186356E+02  0.00000000000E+00 0.  1.
         11    1    1    2    0    0  0.13308924524E+02 -0.24033581225E+02  0.97337957620E+02  0.10114058776E+03  0.00000000000E+00 0. -1.
</event>
<event>
 7    1  0.2679104E-009  0.1661897E+03  0.7561462E-02  0.1181881E+00
          1   -1    0    0  501    0  0.00000000000E+00  0.00000000000E+00  0.21474190967E+03  0.21474190967E+03  0.00000000000E+00 0.  1.
         -1   -1    0    0    0  501 -0.00000000000E+00 -0.00000000000E+00 -0.45795467828E+03  0.45795467828E+03  0.00000000000E+00 0. -1.
         25    2    1    2    0    0 -0.13038337583E+03 -0.21685778084E+02  0.15787686337E+03  0.24092048495E+03  0.12508988136E+03 0.  0.
          5    1    3    3  502    0 -0.13348395822E+03  0.16326535843E+02  0.86692495632E+02  0.16005494080E+03  0.41800000000E+01 0. -1.
         -5    1    3    3    0  502  0.31005823906E+01 -0.38012313927E+02  0.71184367742E+02  0.80865544159E+02  0.41800000000E+01 0. -1.
        -11    1    1    2    0    0  0.14284860161E+03  0.27888563022E+02 -0.35659285289E+03  0.38515186312E+03  0.00000000000E+00 0.  1.
         11    1    1    2    0    0 -0.12465225784E+02 -0.62027849377E+01 -0.44496779090E+02  0.46624239878E+02  0.00000000000E+00 0. -1.
</event>
<event>
 7    1  0.2679104E-009  0.1466681E+03  0.7561462E-02  0.1204628E+00
         -1   -1    0    0    0  501 -0.00000000000E+00  0.00000000000E+00  0.11236884886E+03  0.11236884886E+03  0.00000000000E+00 0.  1.
          1   -1    0    0  501    0  0.00000000000E+00 -0.00000000000E+00 -0.26299930642E+03  0.26299930642E+03  0.00000000000E+00 0. -1.
         25    2    1    2    0    0 -0.10489964429E+03 -0.80463262957E+02 -0.10386462672E+03  0.20955850679E+03  0.12509450437E+03 0.  0.
          5    1    3    3  502    0 -0.25504347263E+02 -0.32760405790E+02  0.26613659184E+02  0.49492172835E+02  0.41800000000E+01 0. -1.
         -5    1    3    3    0  502 -0.79395297030E+02 -0.47702857167E+02 -0.13047828590E+03  0.16006633395E+03  0.41800000000E+01 0. -1.
        -11    1    1    2    0    0  0.15168360978E+02  0.66343045428E+02 -0.16055655066E+02  0.69923264448E+02  0.00000000000E+00 0.  1.
         11    1    1    2    0    0  0.89731283314E+02  0.14120217529E+02 -0.30710175776E+02  0.95886384041E+02  0.00000000000E+00 0. -1.
</event>
<event>
 7    1  0.2679104E-009  0.1267137E+03  0.7561462E-02  0.1232415E+00
          2   -1    0    0  501    0  0.00000000000E+00  0.00000000000E+00  0.22537385404E+03  0.22537385404E+03  0.00000000000E+00 0. -1.
         -2   -1    0    0    0  501 -0.00000000000E+00 -0.00000000000E+00 -0.90588783487E+02  0.90588783487E+02  0.00000000000E+00 0.  1.
         25    2    1    2    0    0  0.88548006182E+02  0.28530484746E+02  0.71817937699E+02  0.17163677589E+03  0.12508648490E+03 0.  0.
          5    1    3    3  502    0  0.43022587385E+02  0.59282009033E+02 -0.89020462707E+01  0.73905469676E+02  0.41800000000E+01 0. -1.
         -5    1    3    3    0  502  0.45525418797E+02 -0.30751524287E+02  0.80719983970E+02  0.97731306216E+02  0.41800000000E+01 0. -1.
        -11    1    1    2    0    0 -0.51225176417E+02  0.27115682251E+02  0.48966996712E+02  0.75875198121E+02  0.00000000000E+00 0. -1.
         11    1    1    2    0    0 -0.37322829764E+02 -0.55646166997E+02  0.14000136137E+02  0.68450663510E+02  0.00000000000E+00 0.  1.
</event>
<event>
 7    1  0.2679104E-009  0.1550840E+03  0.7561462E-02  0.1194361E+00
         -2   -1    0    0    0  501 -0.00000000000E+00  0.00000000000E+00  0.35355255682E+02  0.35355255682E+02  0.00000000000E+00 0.  1.
          2   -1    0    0  501    0  0.00000000000E+00 -0.00000000000E+00 -0.90946494430E+03  0.90946494430E+03  0.00000000000E+00 0. -1.
         25    2    1    2    0    0 -0.54896434099E+02 -0.13232234982E+03 -0.58068110539E+03  0.61103300439E+03  0.12509182050E+03 0.  0.
          5    1    3    3  502    0 -0.19599945105E+02 -0.31931176765E+01 -0.29301586057E+03  0.29371775703E+03  0.41800000000E+01 0.  1.
         -5    1    3    3    0  502 -0.35296488995E+02 -0.12912923214E+03 -0.28766524482E+03  0.31731524736E+03  0.41800000000E+01 0.  1.
        -11    1    1    2    0    0  0.68012514804E+02  0.98803828605E+02 -0.19448453944E+03  0.22849974792E+03  0.00000000000E+00 0.  1.
         11    1    1    2    0    0 -0.13116080704E+02  0.33518521212E+02 -0.98944043785E+02  0.10528744767E+03  0.00000000000E+00 0. -1.
</event>
<event>
 7    1  0.2679104E-009  0.1612990E+03  0.7561462E-02  0.1187238E+00
          3   -1    0    0  501    0  0.00000000000E+00  0.00000000000E+00  0.42120573889E+02  0.42120573889E+02  0.00000000000E+00 0. -1.
         -3   -1    0    0    0  501 -0.00000000000E+00 -0.00000000000E+00 -0.69704643547E+03  0.69704643547E+03  0.00000000000E+00 0.  1.
         25    2    1    2    0    0  0.77285606895E+02 -0.10291287925E+03 -0.29155528252E+03  0.34236798446E+03  0.12508888146E+03 0.  0.
          5    1    3    3  502    0 -0.23910027557E+02 -0.34440895582E+01 -0.10566729595E+03  0.10847396464E+03  0.41800000000E+01 0.  1.
         -5    1    3    3    0  502  0.10119563445E+03 -0.99468789696E+02 -0.18588798657E+03  0.23389401982E+03  0.41800000000E+01 0.  1.
        -11    1    1    2    0    0 -0.86291323319E+02  0.44629710394E+02 -0.18539411297E+03  0.20930594988E+03  0.00000000000E+00 0.  1.
         11    1    1    2    0    0  0.90057164246E+01  0.58283168861E+02 -0.17797646608E+03  0.18749307502E+03  0.00000000000E+00 0. -1.
</event>
<event>
 7    1  0.2679104E-009  0.2062303E+03  0.7561462E-02  0.1144586E+00
          1   -1    0    0  501    0  0.00000000000E+00  0.00000000000E+00  0.16713673784E+03  0.16713673784E+03  0.00000000000E+00 0. -1.
         -1   -1    0    0    0  501 -0.00000000000E+00 -0.00000000000E+00 -0.86891386521E+03  0.86891386521E+03  0.00000000000E+00 0.  1.
         25    2    1    2    0    0  0.17542882538E+03  0.55751152141E+02 -0.78448242244E+03  0.81544089436E+03  0.12509083634E+03 0.  0.
          5    1    3    3  502    0  0.16929093754E+03  0.62606708263E+01 -0.54301699678E+03  0.56884404605E+03  0.41800000000E+01 0.  1.
         -5    1    3    3    0  502  0.61378878396E+01  0.49490481314E+02 -0.24146542566E+03  0.24659684831E+03  0.41800000000E+01 0.  1.
        -11    1    1    2    0    0 -0.63479110499E+02 -0.50095950522E+02 -0.73827452049E+00  0.80868700853E+02  0.00000000000E+00 0.  1.
         11    1    1    2    0    0 -0.11194971488E+03 -0.56552016192E+01  0.83443569592E+02  0.13974100784E+03  0.00000000000E+00 0. -1.
</event>
<event>
 7    1  0.2679104E-009  0.1044134E+03  0.7561462E-02  0.1271280E+00
          2   -1    0    0  501    0  0.00000000000E+00  0.00000000000E+00  0.52961617480E+03  0.52961617480E+03  0.00000000000E+00 0. -1.
         -2   -1    0    0    0  501 -0.00000000000E+00 -0.00000000000E+00 -0.26597942813E+02  0.26597942813E+02  0.00000000000E+00 0.  1.
         25    2    1    2    0    0  0.22201719197E+01  0.45822128105E+02  0.31215830596E+03  0.33940116733E+03  0.12508296375E+03 0.  0.
          5    1    3    3  502    0  0.42091002798E+02 -0.25476172154E+02  0.14749671832E+03  0.15554241280E+03  0.41800000000E+01 0. -1.
         -5    1    3    3    0  502 -0.39870830878E+02  0.71298300259E+02  0.16466158764E+03  0.18385875453E+03  0.41800000000E+01 0. -1.
        -11    1    1    2    0    0 -0.26039677679E+02 -0.47078846564E+02  0.48391994831E+02  0.72362060302E+02  0.00000000000E+00 0.  1.
         11    1    1    2    0    0  0.23819505759E+02  0.12567184591E+01  0.14246793120E+03  0.14445088998E+03  0.00000000000E+00 0. -1.
</event>
<event>
 7    1  0.2679104E-009  0.1378462E+03  0.7561462E-02  0.1216257E+00
         -1   -1    0    0    0  501 -0.00000000000E+00  0.00000000000E+00  0.13756694932E+03  0.13756694932E+03  0.00000000000E+00 0.  1.
          1   -1    0    0  501    0  0.00000000000E+00 -0.00000000000E+00 -0.15310529864E+03  0.15310529864E+03  0.00000000000E+00 0. -1.
         25    2    1    2    0    0  0.90824699685E+02  0.28219072011E+02 -0.98709113948E+01  0.15745211871E+03  0.12509313609E+03 0.  0.
          5    1    3    3  502    0  0.10330070801E+03  0.56758336621E+02  0.12898767515E+02  0.11864398701E+03  0.41800000000E+01 0.  1.
         -5    1    3    3    0  502 -0.12476008322E+02 -0.28539264611E+02 -0.22769678909E+02  0.38808131697E+02  0.41800000000E+01 0.  1.
        -11    1    1    2    0    0  0.16153936155E+02 -0.35604110829E+01  0.14021538803E+02  0.21684781087E+02  0.00000000000E+00 0.  1.
         11    1    1    2    0    0 -0.10697863584E+03 -0.24658660928E+02 -0.19688976730E+02  0.11153534816E+03  0.00000000000E+00 0. -1.
</event>
<event>
 7    1  0.2679104E-009  0.1575786E+03  0.7561462E-02  0.1191458E+00
          2   -1    0    0  501    0  0.00000000000E+00  0.00000000000E+00  0.38082695930E+03  0.38082695930E+03  0.00000000000E+00 0. -1.
         -2   -1    0    0    0  501 -0.00000000000E+00 -0.00000000000E+00 -0.75265959957E+02  0.75265959957E+02  0.00000000000E+00 0.  1.
         25    2    1    2    0    0 -0.12518301265E+03 -0.28634258012E+02  0.18878717601E+03  0.26034495456E+03  0.12509272621E+03 0.  0.
          5    1    3    3  502    0 -0.13659305175E+03 -0.82247896271E+01  0.19258781556E+03  0.23628975444E+03  0.41800000000E+01 0. -1.
         -5    1    3    3    0  502  0.11410039098E+02 -0.20409468385E+02 -0.38006395483E+01  0.24055200123E+02  0.41800000000E+01 0. -1.
        -11    1    1    2    0    0  0.48391598370E+02 -0.30828833829E+02  0.26696610137E+02  0.63284064194E+02  0.00000000000E+00 0.  1.
         11    1    1    2    0    0  0.76791414283E+02  0.59463091841E+02  0.90077213198E+02  0.13246390050E+03  0.00000000000E+00 0. -1.
</event>
<event>
 7    1  0.2679104E-009  0.1364502E+03  0.7561462E-02  0.1218187E+00
         -2   -1    0    0    0  501 -0.00000000000E+00  0.00000000000E+00  0.57784078146E+02  0.57784078146E+02  0.00000000000E+00 0.  1.
          2   -1    0    0  501    0  0.00000000000E+00 -0.00000000000E+00 -0.56808828684E+03  0.56808828684E+03  0.00000000000E+00 0. -1.
         25    2    1    2    0    0  0.10656115127E+02 -0.95124263729E+02 -0.45644970793E+03  0.48286345175E+03  0.12509435971E+03 0.  0.
          5    1    3    3  502    0  0.56128212475E+02 -0.67086060776E+02 -0.16773156297E+03  0.18921486571E+03  0.41800000000E+01 0. -1.
         -5    1    3    3    0  502 -0.45472097347E+02 -0.28038202952E+02 -0.28871814496E+03  0.29364858605E+03  0.41800000000E+01 0. -1.
        -11    1    1    2    0    0 -0.36535962526E+02  0.99047043829E+02 -0.36954497041E+02  0.11185181402E+03  0.00000000000E+00 0.  1.
         11    1    1    2    0    0  0.25879847398E+02 -0.39227801002E+01 -0.16900003719E+02  0.31157099203E+02  0.00000000000E+00 0. -1.
</event>
<event>
 7    1  0.2679104E-009  0.1351838E+03  0.7561462E-02  0.1219960E+00
         -2   -1    0    0    0  501 -0.00000000000E+00  0.00000000000E+00  0.38674690297E+02  0.38674690297E+02  0.00000000000E+00 0.  1.
          2   -1    0    0  501    0  0.00000000000E+00 -0.00000000000E+00 -0.49996109634E+03  0.49996109634E+03  0.00000000000E+00 0. -1.
         25    2    1    2    0    0  0.87221463247E+02 -0.25584362004E+02 -0.20907428287E+03  0.26004125164E+03  0.12508898259E+03 0.  0.
          5    1    3    3  502    0  0.38581764117E+02 -0.75290253422E+02 -0.10728526397E+03  0.13669226404E+03  0.41800000000E+01 0. -1.
         -5    1    3    3    0  502  0.48639699131E+02  0.49705891417E+02 -0.10178901890E+03  0.12334898760E+03  0.41800000000E+01 0. -1.
        -11    1    1    2    0    0 -0.92126643901E+02  0.22547176230E+01 -0.17493437592E+03  0.19772313508E+03  0.00000000000E+00 0. -1.
         11    1    1    2    0    0  0.49051806535E+01  0.23329644381E+02 -0.77277747248E+02  0.80871399913E+02  0.00000000000E+00 0.  1.
</event>
<event>
 7    1  0.2679104E-009  0.1136896E+03  0.7561462E-02  0.1253886E+00
         -1   -1    0    0    0  501 -0.00000000000E+00  0.00000000000E+00  0.71661111511E+02  0.71661111511E+02  0.00000000000E+00 0.  1.
          1   -1    0    0  501    0  0.00000000000E+00 -0.00000000000E+00 -0.33769893177E+03  0.33769893177E+03  0.00000000000E+00 0. -1.
         25    2    1    2    0    0  0.68039592477E+02  0.68519043835E+02 -0.22312952164E+03  0.27342217805E+03  0.12509459824E+03 0.  0.
          5    1    3    3  502    0  0.12996283614E+02 -0.10065563218E+02  0.11099225438E+02  0.20270277650E+02  0.41800000000E+01 0. -1.
         -5    1    3    3    0  502  0.55043308862E+02  0.78584607053E+02 -0.23422874708E+03  0.25315190040E+03  0.41800000000E+01 0. -1.
        -11    1    1    2    0    0 -0.34827248592E+02 -0.72987359271E+02 -0.57661628231E+02  0.99322480980E+02  0.00000000000E+00 0. -1.
         11    1    1    2    0    0 -0.33212343884E+02  0.44683154365E+01  0.14753329615E+02  0.36615384251E+02  0.00000000000E+00 0.  1.
</event>
<event>
 7    1  0.2679104E-009  0.1560420E+03  0.7561462E-02  0.1193239E+00
         -4   -1    0    0    0  501 -0.00000000000E+00  0.00000000000E+00  0.56891746562E+03  0.56891746562E+03  0.00000000000E+00 0.  1.
          4   -1    0    0  501    0  0.00000000000E+00 -0.00000000000E+00 -0.53268531617E+02  0.53268531617E+02  0.00000000000E+00 0. -1.
         25    2    1    2    0    0 -0.11564159363E+03  0.42403358892E+01  0.14419524943E+03  0.22322774842E+03  0.12508956424E+03 0.  0.
          5    1    3    3  502    0 -0.14422336732E+02  0.52295824061E+02  0.70492591851E+02  0.89047936062E+02  0.41800000000E+01 0. -1.
         -5    1    3    3    0  502 -0.10121925690E+03 -0.48055488172E+02  0.73702657582E+02  0.13417981236E+03  0.41800000000E+01 0. -1.
        -11    1    1    2    0    0  0.85254950046E+02 -0.43654658999E+02  0.24147016135E+03  0.25977292889E+03  0.00000000000E+00 0. -1.
         11    1    1    2    0    0  0.30386643585E+02  0.39414323109E+02  0.12998352322E+03  0.13918531992E+03  0.00000000000E+00 0.  1.
</event>
<event>
 7    1  0.2679104E-009  0.9321969E+02  0.7561462E-02  0.1295237E+00
         -2   -1    0    0    0  501 -0.00000000000E+00  0.00000000000E+00  0.70935742805E+02  0.70935742805E+02  0.00000000000E+00 0.  1.
          2   -1    0    0  501    0  0.00000000000E+00 -0.00000000000E+00 -0.16959833541E+03  0.16959833541E+03  0.00000000000E+00 0. -1.
         25    2    1    2    0    0  0.12915022860E+02  0.12576094601E+01 -0.64901513850E+02  0.14151955459E+03  0.12508876222E+03 0.  0.
          5    1    3    3  502    0 -0.49311205468E+02 -0.24204255573E+02 -0.45408236536E+02  0.71392025590E+02  0.41800000000E+01 0.  1.
         -5    1    3    3    0  502  0.62226228328E+02  0.25461865033E+02 -0.19493277314E+02  0.70127528998E+02  0.41800000000E+01 0.  1.
        -11    1    1    2    0    0 -0.30260168786E+00  0.30144094496E+02  0.19506923944E+02  0.35906518663E+02  0.00000000000E+00 0.  1.
         11    1    1    2    0    0 -0.12612421172E+02 -0.31401703956E+02 -0.53268002702E+02  0.63108004968E+02  0.00000000000E+00 0. -1.
</event>
<event>
 7    1  0.2679104E-009  0.1416969E+03  0.7561462E-02  0.1211064E+00
         -2   -1    0    0    0  501 -0.00000000000E+00  0.00000000000E+00  0.15600710261E+04  0.15600710261E+04  0.00000000000E+00 0.  1.
          2   -1    0    0  501    0  0.00000000000E+00 -0.00000000000E+00 -0.13562234877E+02  0.13562234877E+02  0.00000000000E+00 0. -1.
         25    2    1    2    0    0  0.65937353538E+02  0.67724225471E+02  0.94231166393E+03  0.95526565371E+03  0.12508753682E+03 0.  0.
          5    1    3    3  502    0 -0.31267707603E+02 -0.31136274384E+01  0.11671468116E+03  0.12094276917E+03  0.41800000000E+01 0.  1.
         -5    1    3    3    0  502  0.97205061142E+02  0.70837852910E+02  0.82559698277E+03  0.83432288454E+03  0.41800000000E+01 0.  1.
        -11    1    1    2    0    0 -0.66270686275E+02 -0.27071076891E+01  0.32517743399E+03  0.33187271034E+03  0.00000000000E+00 0.  1.
         11    1    1    2    0    0  0.33333273687E+00 -0.65017117782E+02  0.27901969326E+03  0.28649489688E+03  0.00000000000E+00 0. -1.
</event>
<event>
 7    1  0.2679104E-009  0.1374144E+03  0.7561462E-02  0.1216851E+00
         -3   -1    0    0    0  501 -0.00000000000E+00  0.00000000000E+00  0.25250442267E+02  0.25250442267E+02  0.00000000000E+00 0.  1.
          3   -1    0    0  501    0  0.00000000000E+00 -0.00000000000E+00 -0.17863393444E+04  0.17863393444E+04  0.00000000000E+00 0. -1.
         25    2    1    2    0    0  0.10739565813E+03 -0.26715294856E+02 -0.15340397142E+04  0.15431050896E+04  0.12509172008E+03 0.  0.
          5    1    3    3  502    0  0.12926048745E+01  0.34241617798E+02 -0.16334113938E+03  0.16694897254E+03  0.41800000000E+01 0.  1.
         -5    1    3    3    0  502  0.10610305325E+03 -0.60956912654E+02 -0.13706985748E+04  0.13761561171E+04  0.41800000000E+01 0.  1.
        -11    1    1    2    0    0 -0.24116946025E+02 -0.10930512845E+02 -0.13927293908E+03  0.14176760828E+03  0.00000000000E+00 0. -1.
         11    1    1    2    0    0 -0.83278712101E+02  0.37645807700E+02 -0.87776248815E+02  0.12671708876E+03  0.00000000000E+00 0.  1.
</event>
<event>
 7    1  0.2679104E-009  0.1008164E+03  0.7561462E-02  0.1278588E+00
          1   -1    0    0  501    0  0.00000000000E+00  0.00000000000E+00  0.19952369838E+03  0.19952369838E+03  0.00000000000E+00 0. -1.
         -1   -1    0    0    0  501 -0.00000000000E+00 -0.00000000000E+00 -0.93673402829E+02  0.93673402829E+02  0.00000000000E+00 0.  1.
         25    2    1    2    0    0 -0.65754002250E+02 -0.24574143863E+02  0.10538421014E+03  0.17799000232E+03  0.12508849596E+03 0.  0.
          5    1    3    3  502    0  0.19785999025E+02  0.17047124389E+02  0.72626276742E+02  0.77292552557E+02  0.41800000000E+01 0. -1.
         -5    1    3    3    0  502 -0.85540001274E+02 -0.41621268252E+02  0.32757933399E+02  0.10069744977E+03  0.41800000000E+01 0. -1.
        -11    1    1    2    0    0  0.23748179304E+02  0.29273985728E+02  0.41662125668E+02  0.56184294744E+02  0.00000000000E+00 0. -1.
         11    1    1    2    0    0  0.42005822946E+02 -0.46998418647E+01 -0.41196040263E+02  0.59022804137E+02  0.00000000000E+00 0.  1.
</event>
<event>
 7    1  0.2679104E-009  0.2466156E+03  0.7561462E-02  0.1115463E+00
          1   -1    0    0  501    0  0.00000000000E+00  0.00000000000E+00  0.23808214768E+04  0.23808214768E+04  0.00000000000E+00 0. -1.
         -1   -1    0    0    0  501 -0.00000000000E+00 -0.00000000000E+00 -0.28074307179E+02  0.28074307179E+02  0.00000000000E+00 0.  1.
         25    2    1    2    0    0 -0.21665007406E+03 -0.82895747673E+02  0.14942589205E+04  0.15173218739E+04  0.12508792142E+03 0.  0.
          5    1    3    3  502    0 -0.17249277624E+03 -0.75556037065E+01  0.11008584362E+04  0.11143238372E+04  0.41800000000E+01 0. -1.
         -5    1    3    3    0  502 -0.44157297822E+02 -0.75340143967E+02  0.39340048426E+03  0.40299803679E+03  0.41800000000E+01 0. -1.
        -11    1    1    2    0    0  0.99647177220E+02  0.25950864017E+02  0.49228360512E+03  0.50293752608E+03  0.00000000000E+00 0. -1.
         11    1    1    2    0    0  0.11700289684E+03  0.56944883656E+02  0.36620464400E+03  0.38863638395E+03  0.00000000000E+00 0.  1.
</event>
<event>
 7    1  0.2679104E-009  0.1325122E+03  0.7561462E-02  0.1223775E+00
         -1   -1    0    0    0  501 -0.00000000000E+00  0.00000000000E+00  0.24505565330E+03  0.24505565330E+03  0.00000000000E+00 0.  1.
          1   -1    0    0  501    0  0.00000000000E+00 -0.00000000000E+00 -0.15039709192E+03  0.15039709192E+03  0.00000000000E+00 0. -1.
         25    2    1    2    0    0 -0.51397341947E+02 -0.87802813273E+02  0.17462454215E+03  0.23767872263E+03  0.12508566543E+03 0.  0.
          5    1    3    3  502    0 -0.73956763888E+02 -0.64641140978E+02  0.52855684964E+02  0.11162112643E+03  0.41800000000E+01 0. -1.
         -5    1    3    3    0  502  0.22559421941E+02 -0.23161672295E+02  0.12176885718E+03  0.12605759621E+03  0.41800000000E+01 0. -1.
        -11    1    1    2    0    0  0.48583664581E+00  0.82967248650E+02 -0.36439463456E+02  0.90618071502E+02  0.00000000000E+00 0.  1.
         11    1    1    2    0    0  0.50911505301E+02  0.48355646225E+01 -0.43526517306E+02  0.67155951084E+02  0.00000000000E+00 0. -1.
</event>
<event>
 7    1  0.2679104E-009  0.1049115E+03  0.7561462E-02  0.1270294E+00
          1   -1    0    0  501    0  0.00000000000E+00  0.00000000000E+00  0.68502939495E+03  0.68502939495E+03  0.00000000000E+00 0. -1.
         -1   -1    0    0    0  501 -0.00000000000E+00 -0.00000000000E+00 -0.27409194526E+02  0.27409194526E+02  0.00000000000E+00 0.  1.
         25    2    1    2    0    0  0.10677416919E+02 -0.66692534517E+02  0.49199666629E+03  0.51212331565E+03  0.12509064475E+03 0.  0.
          5    1    3    3  502    0  0.56849723164E+02  0.44407650534E+01  0.20629424401E+03  0.21407101376E+03  0.41800000000E+01 0. -1.
         -5    1    3    3    0  502 -0.46172306244E+02 -0.71133299571E+02  0.28570242228E+03  0.29805230190E+03  0.41800000000E+01 0. -1.
        -11    1    1    2    0    0 -0.79424801517E+01  0.33257997939E+02  0.30637274227E+01  0.34330217646E+02  0.00000000000E+00 0.  1.
         11    1    1    2    0    0 -0.27349367678E+01  0.33434536578E+02  0.16255980672E+03  0.16598505618E+03  0.00000000000E+00 0. -1.
</event>
<event>
 7    1  0.2679104E-009  0.1083329E+03  0.7561462E-02  0.1263689E+00
          3   -1    0    0  501    0  0.00000000000E+00  0.00000000000E+00  0.28440426039E+03  0.28440426039E+03  0.00000000000E+00 0. -1.
         -3   -1    0    0    0  501 -0.00000000000E+00 -0.00000000000E+00 -0.45385444791E+02  0.45385444791E+02  0.00000000000E+00 0.  1.
         25    2    1    2    0    0 -0.30880260611E+02  0.16655643597E+02  0.13611270520E+03  0.18816083602E+03  0.12508729246E+03 0.  0.
          5    1    3    3  502    0  0.33815681809E+02  0.45188877283E+02  0.78952981616E+02  0.97142064382E+02  0.41800000000E+01 0.  1.
         -5    1    3    3    0  502 -0.64695942420E+02 -0.28533233686E+02  0.57159723585E+02  0.91018771638E+02  0.41800000000E+01 0.  1.
        -11    1    1    2    0    0 -0.14383961488E+02  0.24272412210E+02  0.89600236514E+01  0.29602877671E+02  0.00000000000E+00 0.  1.
         11    1    1    2    0    0  0.45264222098E+02 -0.40928055807E+02  0.93946086748E+02  0.11202599149E+03  0.00000000000E+00 0. -1.
</event>
<event>
 7    1  0.2679104E-009  0.1176198E+03  0.7561462E-02  0.1247076E+00
         -2   -1    0    0    0  501 -0.00000000000E+00  0.00000000000E+00  0.41232876363E+02  0.41232876363E+02  0.00000000000E+00 0.  1.
          2   -1    0    0  501    0  0.00000000000E+00 -0.00000000000E+00 -0.64146193619E+03  0.64146193619E+03  0.00000000000E+00 0. -1.
         25    2    1    2    0    0 -0.79134162928E+01 -0.44472321874E+02 -0.55460701567E+03  0.57033005078E+03  0.12508803067E+03 0.  0.
          5    1    3    3  502    0 -0.53238114196E+02  0.17318454510E+02 -0.24574637957E+03  0.25207733167E+03  0.41800000000E+01 0.  1.
         -5    1    3    3    0  502  0.45324697903E+02 -0.61790776384E+02 -0.30886063610E+03  0.31825271910E+03  0.41800000000E+01 0.  1.
        -11    1    1    2    0    0 -0.27386910856E+00 -0.28711880983E+02 -0.88017922318E+01  0.30031960648E+02  0.00000000000E+00 0.  1.
         11    1    1    2    0    0  0.81872854013E+01  0.73184202857E+02 -0.36820251924E+02  0.82332801129E+02  0.00000000000E+00 0. -1.
</event>
<event>
 7    1  0.2679104E-009  0.1166382E+03  0.7561462E-02  0.1248748E+00
          1   -1    0    0  501    0  0.00000000000E+00  0.00000000000E+00  0.96343825683E+02  0.96343825683E+02  0.00000000000E+00 0. -1.
         -1   -1    0    0    0  501 -0.00000000000E+00 -0.00000000000E+00 -0.22227776088E+03  0.22227776088E+03  0.00000000000E+00 0.  1.
         25    2    1    2    0    0  0.62620600870E+02 -0.65087792188E+02 -0.26766926032E+02  0.15659312171E+03  0.12508867691E+03 0.  0.
          5    1    3    3  502    0 -0.85146461509E+01 -0.57881514323E+02 -0.54234709962E+02  0.79885199280E+02  0.41800000000E+01 0. -1.
         -5    1    3    3    0  502  0.71135247021E+02 -0.72062778652E+01  0.27467783929E+02  0.76707922429E+02  0.41800000000E+01 0. -1.
        -11    1    1    2    0    0 -0.59593448366E+02  0.28093415624E+02 -0.11569700856E+02  0.66891532106E+02  0.00000000000E+00 0.  1.
         11    1    1    2    0    0 -0.30271525040E+01  0.36994376565E+02 -0.87597308305E+02  0.95136932744E+02  0.00000000000E+00 0. -1.
</event>
<event>
 7    1  0.2679104E-009  0.2072512E+03  0.7561462E-02  0.1143761E+00
         -2   -1    0    0    0  501 -0.00000000000E+00  0.00000000000E+00  0.23652936127E+03  0.23652936127E+03  0.00000000000E+00 0. -1.
          2   -1    0    0  501    0  0.00000000000E+00 -0.00000000000E+00 -0.31990816614E+03  0.31990816614E+03  0.00000000000E+00 0.  1.
         25    2    1    2    0    0  0.11014578026E+03 -0.16885428698E+03  0.11089775873E+03  0.26189559272E+03  0.12508847051E+03 0.  0.
          5    1    3    3  502    0  0.10569055455E+03 -0.13201352307E+03  0.13587083636E+03  0.21697101228E+03  0.41800000000E+01 0. -1.
         -5    1    3    3    0  502  0.44552257122E+01 -0.36840763910E+02 -0.24973077635E+02  0.44924580445E+02  0.41800000000E+01 0. -1.
        -11    1    1    2    0    0 -0.98981679197E+02  0.17005991929E+03 -0.20114070568E+03  0.28138111601E+03  0.00000000000E+00 0.  1.
         11    1    1    2    0    0 -0.11164101064E+02 -0.12056323085E+01  0.68641420796E+01  0.13160818680E+02  0.00000000000E+00 0. -1.
</event>
<event>
 7    1  0.2679104E-009  0.1034387E+03  0.7561462E-02  0.1273227E+00
          2   -1    0    0  501    0  0.00000000000E+00  0.00000000000E+00  0.18768324673E+03  0.18768324673E+03  0.00000000000E+00 0.  1.
         -2   -1    0    0    0  501 -0.00000000000E+00 -0.00000000000E+00 -0.88430986333E+02  0.88430986333E+02  0.00000000000E+00 0. -1.
         25    2    1    2    0    0  0.46538600131E+02 -0.46326225400E+02  0.82575550833E+02  0.16363979226E+03  0.12508916641E+03 0.  0.
          5    1    3    3  502    0 -0.22121244049E+02 -0.56295679683E+02  0.71142372193E+01  0.61046193661E+02  0.41800000000E+01 0. -1.
         -5    1    3    3    0  502  0.68659844181E+02  0.99694542825E+01  0.75461313614E+02  0.10259359860E+03  0.41800000000E+01 0. -1.
        -11    1    1    2    0    0 -0.30975377811E+02  0.51706384494E+02  0.48022795596E+02  0.77066290457E+02  0.00000000000E+00 0.  1.
         11    1    1    2    0    0 -0.15563222321E+02 -0.53801590936E+01 -0.31346086035E+02  0.35408150341E+02  0.00000000000E+00 0. -1.
</event>
<event>
 7    1  0.2679104E-009  0.6694959E+02  0.7561462E-02  0.1370784E+00
          1   -1    0    0  501    0  0.00000000000E+00  0.00000000000E+00  0.27448771147E+02  0.27448771147E+02  0.00000000000E+00 0. -1.
         -1   -1    0    0    0  501 -0.00000000000E+00 -0.00000000000E+00 -0.48081559914E+03  0.48081559914E+03  0.00000000000E+00 0.  1.
         25    2    1    2    0    0  0.41453217809E+02 -0.24635584348E+01 -0.23140880188E+03  0.26631222189E+03  0.12509087718E+03 0.  0.
          5    1    3    3  502    0  0.32789888912E+02 -0.12342871046E+02 -0.24465830691E+03  0.24718956860E+03  0.41800000000E+01 0. -1.
         -5    1    3    3    0  502  0.86633288970E+01  0.98793126113E+01  0.13249505036E+02  0.19122653293E+02  0.41800000000E+01 0. -1.
        -11    1    1    2    0    0 -0.58157042887E+02 -0.15610089821E+02 -0.20034502180E+03  0.20919857624E+03  0.00000000000E+00 0.  1.
         11    1    1    2    0    0  0.16703825078E+02  0.18073648256E+02 -0.21613004318E+02  0.32753572159E+02  0.00000000000E+00 0. -1.
</event>
<event>
 7    1  0.2679104E-009  0.1071798E+03  0.7561462E-02  0.1265883E+00
          4   -1    0    0  501    0  0.00000000000E+00  0.00000000000E+00  0.70650864780E+03  0.70650864780E+03  0.00000000000E+00 0. -1.
         -4   -1    0    0    0  501 -0.00000000000E+00 -0.00000000000E+00 -0.27396806321E+02  0.27396806321E+02  0.00000000000E+00 0.  1.
         25    2    1    2    0    0 -0.36090306842E+02 -0.50720629195E+02  0.54190348268E+03  0.55962881113E+03  0.12509967722E+03 0.  0.
          5    1    3    3  502    0  0.36107046222E+02 -0.32684943721E+00  0.29948194898E+03  0.30167985644E+03  0.41800000000E+01 0. -1.
         -5    1    3    3    0  502 -0.72197353065E+02 -0.50393779758E+02  0.24242153369E+03  0.25794895469E+03  0.41800000000E+01 0. -1.
        -11    1    1    2    0    0 -0.14434107475E+02  0.33515920924E+02  0.10676993132E+03  0.11283385418E+03  0.00000000000E+00 0.  1.
         11    1    1    2    0    0  0.50524414317E+02  0.17204708271E+02  0.30438427474E+02  0.61442788803E+02  0.00000000000E+00 0. -1.
</event>
<event>
 7    1  0.2679104E-009  0.9278668E+02  0.7561462E-02  0.1296240E+00
         -1   -1    0    0    0  501 -0.00000000000E+00  0.00000000000E+00  0.13071578033E+03  0.13071578033E+03  0.00000000000E+00 0.  1.
          1   -1    0    0  501    0  0.00000000000E+00 -0.00000000000E+00 -0.15624475020E+03  0.15624475020E+03  0.00000000000E+00 0. -1.
         25    2    1    2    0    0 -0.92516662847E+01  0.50812658165E+02  0.62852211333E+02  0.14922188604E+03  0.12509696737E+03 0.  0.
          5    1    3    3  502    0 -0.34533249775E+02  0.19320257506E+02 -0.28706649473E+02  0.49064873526E+02  0.41800000000E+01 0.  1.
         -5    1    3    3    0  502  0.25281583490E+02  0.31492400659E+02  0.91558860806E+02  0.10015701251E+03  0.41800000000E+01 0.  1.
        -11    1    1    2    0    0  0.10843690934E+02 -0.77596821788E+02 -0.60030168654E+02  0.98703969188E+02  0.00000000000E+00 0.  1.
         11    1    1    2    0    0 -0.15920246491E+01  0.26784163624E+02 -0.28351012551E+02  0.39034675305E+02  0.00000000000E+00 0. -1.
</event>
<event>
 7    1  0.2679104E-009  0.1242721E+03  0.7561462E-02  0.1236211E+00
          1   -1    0    0  501    0  0.00000000000E+00  0.00000000000E+00  0.10260408176E+03  0.10260408176E+03  0.00000000000E+00 0. -1.
         -1   -1    0    0    0  501 -0.00000000000E+00 -0.00000000000E+00 -0.28558682661E+03  0.28558682661E+03  0.00000000000E+00 0.  1.
         25    2    1    2    0    0  0.11833917608E+03 -0.17919990127E+02 -0.16049232496E+03  0.23607527354E+03  0.12509381185E+03 0.  0.
          5    1    3    3  502    0  0.76794078649E+02  0.11496955958E+02 -0.11546173843E+02  0.78614865276E+02  0.41800000000E+01 0. -1.
         -5    1    3    3    0  502  0.41545097428E+02 -0.29416946085E+02 -0.14894615112E+03  0.15746040826E+03  0.41800000000E+01 0. -1.
        -11    1    1    2    0    0 -0.73278620179E+02  0.12086394722E+02  0.32255508165E+02  0.80970704083E+02  0.00000000000E+00 0. -1.
         11    1    1    2    0    0 -0.45060555898E+02  0.58335954053E+01 -0.54745928051E+02  0.71144930750E+02  0.00000000000E+00 0.  1.
</event>
<event>
 7    1  0.2679104E-009  0.1687733E+03  0.7561462E-02  0.1179133E+00
          1   -1    0    0  501    0  0.00000000000E+00  0.00000000000E+00  0.36771800201E+02  0.36771800201E+02  0.00000000000E+00 0. -1.
         -1   -1    0    0    0  501 -0.00000000000E+00 -0.00000000000E+00 -0.10552472376E+04  0.10552472376E+04  0.00000000000E+00 0.  1.
         25    2    1    2    0    0  0.23416718340E+02 -0.14814272168E+03 -0.67280997811E+03  0.70058184461E+03  0.12508815155E+03 0.  0.
          5    1    3    3  502    0  0.32880218071E+02 -0.13167312259E+03 -0.32493407440E+03  0.35216266847E+03  0.41800000000E+01 0.  1.
         -5    1    3    3    0  502 -0.94634997306E+01 -0.16469599094E+02 -0.34787590371E+03  0.34841917614E+03  0.41800000000E+01 0.  1.
        -11    1    1    2    0    0  0.37059786047E+02  0.94389756284E+02 -0.21562791203E+03  0.23828187149E+03  0.00000000000E+00 0. -1.
         11    1    1    2    0    0 -0.60476504387E+02  0.53752965395E+02 -0.13003754728E+03  0.15315532173E+03  0.00000000000E+00 0.  1.
</event>
<event>
 7    1  0.2761703E-009  0.9467776E+02  0.7561462E-02  0.1291904E+00
         -1   -1    0    0    0  501 -0.00000000000E+00  0.00000000000E+00  0.14848287146E+02  0.14848287146E+02  0.00000000000E+00 0.  1.
          1   -1    0    0  501    0  0.00000000000E+00 -0.00000000000E+00 -0.10443639595E+04  0.10443639595E+04  0.00000000000E+00 0. -1.
         25    2    1    2    0    0 -0.23994574872E+02 -0.15235705135E+02 -0.80290956920E+03  0.81309243600E+03  0.12509063449E+03 0.  0.
          5    1    3    3  502    0 -0.30950799217E+01 -0.60493660292E+02 -0.22586754010E+03  0.23388604175E+03  0.41800000000E+01 0. -1.
         -5    1    3    3    0  502 -0.20899494951E+02  0.45257955157E+02 -0.57704202910E+03  0.57920639426E+03  0.41800000000E+01 0. -1.
        -11    1    1    2    0    0 -0.16865762813E+02  0.30615956266E+02 -0.17530460313E+03  0.17875540443E+03  0.00000000000E+00 0. -1.
         11    1    1    2    0    0  0.40860337685E+02 -0.15380251132E+02 -0.51301500044E+02  0.67364406235E+02  0.00000000000E+00 0.  1.
</event>
<event>
 7    1  0.2679104E-009  0.9811790E+02  0.7561462E-02  0.1284304E+00
         -1   -1    0    0    0  501 -0.00000000000E+00  0.00000000000E+00  0.61037308643E+02  0.61037308643E+02  0.00000000000E+00 0.  1.
          1   -1    0    0  501    0  0.00000000000E+00 -0.00000000000E+00 -0.24365755197E+03  0.24365755197E+03  0.00000000000E+00 0. -1.
         25    2    1    2    0    0 -0.25359854241E+02 -0.21242908901E+02 -0.46547532205E+02  0.13750617154E+03  0.12508753363E+03 0.  0.
          5    1    3    3  502    0 -0.37939254850E+02 -0.52640979480E+02 -0.70456022703E+02  0.95874831495E+02  0.41800000000E+01 0.  1.
         -5    1    3    3    0  502  0.12579400609E+02  0.31398070579E+02  0.23908490498E+02  0.41631340042E+02  0.41800000000E+01 0.  1.
        -11    1    1    2    0    0 -0.32795979477E+02  0.21059885574E+02 -0.53500672621E+02  0.66192273123E+02  0.00000000000E+00 0.  1.
         11    1    1    2    0    0  0.58155833718E+02  0.18302332714E+00 -0.82572038501E+02  0.10099641595E+03  0.00000000000E+00 0. -1.
</event>
<event>
 7    1  0.2679104E-009  0.1171484E+03  0.7561462E-02  0.1247877E+00
         -1   -1    0    0    0  501 -0.00000000000E+00  0.00000000000E+00  0.37910812673E+02  0.37910812673E+02  0.00000000000E+00 0.  1.
          1   -1    0    0  501    0  0.00000000000E+00 -0.00000000000E+00 -0.55181003320E+03  0.55181003320E+03  0.00000000000E+00 0. -1.
         25    2    1    2    0    0 -0.34868110706E+02 -0.88300175668E+02 -0.28995153650E+03  0.32974502027E+03  0.12508868338E+03 0.  0.
          5    1    3    3  502    0 -0.39120021740E+02 -0.82195187511E+01 -0.21878370548E+03  0.22244486681E+03  0.41800000000E+01 0.  1.
         -5    1    3    3    0  502  0.42519110337E+01 -0.80080656917E+02 -0.71167831019E+02  0.10730015346E+03  0.41800000000E+01 0.  1.
        -11    1    1    2    0    0  0.52210321430E+02  0.77249647142E+02 -0.11005324714E+03  0.14423987955E+03  0.00000000000E+00 0.  1.
         11    1    1    2    0    0 -0.17342210724E+02  0.11050528526E+02 -0.11389443689E+03  0.11573594605E+03  0.00000000000E+00 0. -1.
</event>
<event>
 7    1  0.2787057E-009  0.1147917E+03  0.7561462E-02  0.1251945E+00
         -3   -1    0    0    0  501 -0.00000000000E+00  0.00000000000E+00  0.94420430707E+02  0.94420430707E+02  0.00000000000E+00 0.  1.
          3   -1    0    0  501    0  0.00000000000E+00 -0.00000000000E+00 -0.19687636040E+03  0.19687636040E+03  0.00000000000E+00 0. -1.
         25    2    1    2    0    0 -0.80933755731E+02  0.70289229606E-01 -0.71955584641E+02  0.16545506665E+03  0.12508994828E+03 0.  0.
          5    1    3    3  502    0 -0.10932989879E+02 -0.56640422332E+02 -0.19040244799E+02  0.60890648146E+02  0.41800000000E+01 0.  1.
         -5    1    3    3    0  502 -0.70000765853E+02  0.56710711562E+02 -0.52915339842E+02  0.10456441850E+03  0.41800000000E+01 0.  1.
        -11    1    1    2    0    0  0.34616488633E+02  0.49584560285E+01 -0.60889743583E+02  0.70217152072E+02  0.00000000000E+00 0. -1.
         11    1    1    2    0    0  0.46317267098E+02 -0.50287452581E+01  0.30389398530E+02  0.55624572388E+02  0.00000000000E+00 0.  1.
</event>
<event>
 7    1  0.2679104E-009  0.1109715E+03  0.7561462E-02  0.1258781E+00
         -1   -1    0    0    0  501 -0.00000000000E+00  0.00000000000E+00  0.43252479908E+02  0.43252479908E+02  0.00000000000E+00 0.  1.
          1   -1    0    0  501    0  0.00000000000E+00 -0.00000000000E+00 -0.56101003209E+03  0.56101003209E+03  0.00000000000E+00 0. -1.
         25    2    1    2    0    0 -0.33157284237E+02  0.50777403868E+01 -0.72569590188E+02  0.14845233426E+03  0.12508621500E+03 0.  0.
          5    1    3    3  502    0 -0.62490703593E+02  0.43022785625E+02 -0.64436419718E+02  0.99627168506E+02  0.41800000000E+01 0. -1.
         -5    1    3    3    0  502  0.29333419356E+02 -0.37945045238E+02 -0.81331704709E+01  0.48825165756E+02  0.41800000000E+01 0. -1.
        -11    1    1    2    0    0 -0.79658610341E+01  0.37667901882E+02 -0.17158888859E+03  0.17585525998E+03  0.00000000000E+00 0.  1.
         11    1    1    2    0    0  0.41123145271E+02 -0.42745642269E+02 -0.27359907340E+03  0.27995491775E+03  0.00000000000E+00 0. -1.
</event>
<event>
 7    1  0.2679104E-009  0.3108142E+03  0.7561462E-02  0.1079956E+00
          1   -1    0    0  501    0  0.00000000000E+00  0.00000000000E+00  0.17299256044E+03  0.17299256044E+03  0.00000000000E+00 0. -1.
         -1   -1    0    0    0  501 -0.00000000000E+00 -0.00000000000E+00 -0.77820461201E+03  0.77820461201E+03  0.00000000000E+00 0.  1.
         25    2    1    2    0    0 -0.23625013205E+03  0.19141420006E+03 -0.81426644778E+02  0.33872128119E+03  0.12509311320E+03 0.  0.
          5    1    3    3  502    0 -0.96086081894E+02  0.81032414463E+02 -0.98080779685E+02  0.15948698715E+03  0.41800000000E+01 0.  1.
         -5    1    3    3    0  502 -0.14016405016E+03  0.11038178560E+03  0.16654134907E+02  0.17923429403E+03  0.41800000000E+01 0.  1.
        -11    1    1    2    0    0  0.17118847302E+03 -0.18496404502E+03 -0.41168477045E+03  0.48270233215E+03  0.00000000000E+00 0. -1.
         11    1    1    2    0    0  0.65061659029E+02 -0.64501550442E+01 -0.11210063635E+03  0.12977355912E+03  0.00000000000E+00 0.  1.
</event>
<event>
 7    1  0.2679104E-009  0.1634786E+03  0.7561462E-02  0.1184824E+00
          4   -1    0    0  501    0  0.00000000000E+00  0.00000000000E+00  0.35889583809E+03  0.35889583809E+03  0.00000000000E+00 0.  1.
         -4   -1    0    0    0  501 -0.00000000000E+00 -0.00000000000E+00 -0.22626078045E+03  0.22626078045E+03  0.00000000000E+00 0. -1.
         25    2    1    2    0    0 -0.92191754354E+02  0.10823203706E+03 -0.16416519992E+03  0.25062432898E+03  0.12509535560E+03 0.  0.
          5    1    3    3  502    0 -0.66545985302E+02  0.13198845938E+03 -0.10354703382E+03  0.18052363330E+03  0.41800000000E+01 0. -1.
         -5    1    3    3    0  502 -0.25645769052E+02 -0.23756422316E+02 -0.60618166109E+02  0.70100695674E+02  0.41800000000E+01 0. -1.
        -11    1    1    2    0    0  0.90664269540E+02 -0.97906555725E+02  0.29521912278E+03  0.32397535999E+03  0.00000000000E+00 0.  1.
         11    1    1    2    0    0  0.15274848140E+01 -0.10325481340E+02  0.15811347888E+01  0.10556929571E+02  0.00000000000E+00 0. -1.
</event>
<event>
 7    1  0.2679104E-009  0.1600289E+03  0.7561462E-02  0.1188664E+00
         -2   -1    0    0    0  501 -0.00000000000E+00  0.00000000000E+00  0.48393578191E+03  0.48393578191E+03  0.00000000000E+00 0.  1.
          2   -1    0    0  501    0  0.00000000000E+00 -0.00000000000E+00 -0.82701576392E+02  0.82701576392E+02  0.00000000000E+00 0. -1.
         25    2    1    2    0    0 -0.65852686455E+02  0.13913062169E+03  0.30455674683E+03  0.36345045966E+03  0.12509004110E+03 0.  0.
          5    1    3    3  502    0 -0.11462338728E+02  0.79660193377E+02  0.25797833761E+03  0.27027287450E+03  0.41800000000E+01 0. -1.
         -5    1    3    3    0  502 -0.54390347726E+02  0.59470428315E+02  0.46578409221E+02  0.93177585155E+02  0.41800000000E+01 0. -1.
        -11    1    1    2    0    0  0.55846780479E+02 -0.73139283065E+02  0.10058267687E+03  0.13632715248E+03  0.00000000000E+00 0.  1.
         11    1    1    2    0    0  0.10005905976E+02 -0.65991338627E+02 -0.39052181777E+01  0.66859746165E+02  0.00000000000E+00 0. -1.
</event>
<event>
 7    1  0.2679104E-009  0.1741571E+03  0.7561462E-02  0.1173581E+00
         -2   -1    0    0    0  501 -0.00000000000E+00  0.00000000000E+00  0.39682405119E+02  0.39682405119E+02  0.00000000000E+00 0.  1.
          2   -1    0    0  501    0  0.00000000000E+00 -0.00000000000E+00 -0.10013286389E+04  0.10013286389E+04  0.00000000000E+00 0. -1.
         25    2    1    2    0    0 -0.16675590642E+02  0.15036198126E+03 -0.68943400172E+03  0.71683567104E+03  0.12508931137E+03 0.  0.
          5    1    3    3  502    0  0.63387397982E+01 -0.21385340241E+02 -0.68394646616E+02  0.72061171827E+02  0.41800000000E+01 0. -1.
         -5    1    3    3    0  502 -0.23014330441E+02  0.17174732150E+03 -0.62103935511E+03  0.64477449922E+03  0.41800000000E+01 0. -1.
        -11    1    1    2    0    0  0.18130490754E+02 -0.85100428514E+02 -0.23132962328E+03  0.24715216414E+03  0.00000000000E+00 0. -1.
         11    1    1    2    0    0 -0.14549001116E+01 -0.65261552749E+02 -0.40882608801E+02  0.77023208866E+02  0.00000000000E+00 0.  1.
</event>
<event>
 7    1  0.2679104E-009  0.1062988E+03  0.7561462E-02  0.1267582E+00
         -1   -1    0    0    0  501 -0.00000000000E+00  0.00000000000E+00  0.18769240026E+03  0.18769240026E+03  0.00000000000E+00 0.  1.
          1   -1    0    0  501    0  0.00000000000E+00 -0.00000000000E+00 -0.68370446101E+02  0.68370446101E+02  0.00000000000E+00 0. -1.
         25    2    1    2    0    0 -0.17188967517E+01  0.28990797171E+02  0.83328968376E+02  0.15308501370E+03  0.12509150061E+03 0.  0.
          5    1    3    3  502    0 -0.98458082108E+00  0.72647354565E+02  0.81388828494E+02  0.10917976611E+03  0.41800000000E+01 0. -1.
         -5    1    3    3    0  502 -0.73431593067E+00 -0.43656557394E+02  0.19401398822E+01  0.43905247593E+02  0.41800000000E+01 0. -1.
        -11    1    1    2    0    0  0.46596435798E+02 -0.14367806532E+02  0.12939535699E+02  0.50448917508E+02  0.00000000000E+00 0. -1.
         11    1    1    2    0    0 -0.44877539046E+02 -0.14622990639E+02  0.23053450086E+02  0.52528915151E+02  0.00000000000E+00 0.  1.
</event>
<event>
 7    1  0.2679104E-009  0.1060565E+03  0.7561462E-02  0.1268052E+00
         -2   -1    0    0    0  501 -0.00000000000E+00  0.00000000000E+00  0.24295376255E+02  0.24295376255E+02  0.00000000000E+00 0.  1.
          2   -1    0    0  501    0  0.00000000000E+00 -0.00000000000E+00 -0.81269948601E+03  0.81269948601E+03  0.00000000000E+00 0. -1.
         25    2    1    2    0    0 -0.87852979407E+02  0.30037745215E+01 -0.42300715567E+03  0.44978860762E+03  0.12509024399E+03 0.  0.
          5    1    3    3  502    0 -0.10470532024E+02  0.13524557984E+02 -0.31986582094E+03  0.32035006089E+03  0.41800000000E+01 0.  1.
         -5    1    3    3    0  502 -0.77382447383E+02 -0.10520783462E+02 -0.10314133473E+03  0.12943854672E+03  0.41800000000E+01 0.  1.
        -11    1    1    2    0    0  0.24258542955E+01 -0.27360619511E+02 -0.31972286287E+02  0.42151101522E+02  0.00000000000E+00 0.  1.
         11    1    1    2    0    0  0.85427125111E+02  0.24356844990E+02 -0.33342466779E+03  0.34505515312E+03  0.00000000000E+00 0. -1.
</event>
<event>
 7    1  0.2679104E-009  0.1434945E+03  0.7561462E-02  0.1208703E+00
         -2   -1    0    0    0  501 -0.00000000000E+00  0.00000000000E+00  0.50452951642E+03  0.50452951642E+03  0.00000000000E+00 0.  1.
          2   -1    0    0  501    0  0.00000000000E+00 -0.00000000000E+00 -0.49746936751E+02  0.49746936751E+02  0.00000000000E+00 0. -1.
         25    2    1    2    0    0  0.11090894331E+03 -0.28890379293E+02  0.22667178365E+03  0.28313062915E+03  0.12508959964E+03 0.  0.
          5    1    3    3  502    0  0.36132997517E+02 -0.70219433483E+02  0.14335553338E+03  0.16372123777E+03  0.41800000000E+01 0. -1.
         -5    1    3    3    0  502  0.74775945795E+02  0.41329054190E+02  0.83316250274E+02  0.11940939138E+03  0.41800000000E+01 0. -1.
        -11    1    1    2    0    0 -0.49414507753E+02 -0.88722950393E+01  0.25998602390E+02  0.56537054415E+02  0.00000000000E+00 0. -1.
         11    1    1    2    0    0 -0.61494435560E+02  0.37762674333E+02  0.20211219363E+03  0.21460876961E+03  0.00000000000E+00 0.  1.
</event>
<event>
 7    1  0.2679104E-009  0.1845483E+03  0.7561462E-02  0.1163472E+00
         -1   -1    0    0    0  501 -0.00000000000E+00  0.00000000000E+00  0.36076210428E+03  0.36076210428E+03  0.00000000000E+00 0. -1.
          1   -1    0    0  501    0  0.00000000000E+00 -0.00000000000E+00 -0.12641071809E+03  0.12641071809E+03  0.00000000000E+00 0.  1.
         25    2    1    2    0    0  0.22972391786E+02 -0.16483965663E+03  0.21139857886E+03  0.29670862863E+03  0.12508720150E+03 0.  0.
          5    1    3    3  502    0  0.44825771177E+02 -0.29182081410E+02  0.12772153522E+02  0.55150194402E+02  0.41800000000E+01 0. -1.
         -5    1    3    3    0  502 -0.21853379390E+02 -0.13565757522E+03  0.19862642533E+03  0.24155843423E+03  0.41800000000E+01 0. -1.
        -11    1    1    2    0    0 -0.45016669681E+02  0.11368054485E+03 -0.14812485764E+02  0.12316321107E+03  0.00000000000E+00 0.  1.
         11    1    1    2    0    0  0.22044277895E+02  0.51159111779E+02  0.37765293100E+02  0.67300982674E+02  0.00000000000E+00 0. -1.
</event>
<event>
 7    1  0.2679104E-009  0.2057719E+03  0.7561462E-02  0.1144959E+00
         -1   -1    0    0    0  501 -0.00000000000E+00  0.00000000000E+00  0.55497635387E+03  0.55497635387E+03  0.00000000000E+00 0.  1.
          1   -1    0    0  501    0  0.00000000000E+00 -0.00000000000E+00 -0.88981992123E+02  0.88981992123E+02  0.00000000000E+00 0. -1.
         25    2    1    2    0    0 -0.53444999135E+02  0.18456881542E+03  0.27437009797E+03  0.35755950918E+03  0.12509131220E+03 0.  0.
          5    1    3    3  502    0  0.12372793345E+02  0.60876032746E+02  0.17079080613E+02  0.64561170781E+02  0.41800000000E+01 0.  1.
         -5    1    3    3    0  502 -0.65817792480E+02  0.12369278267E+03  0.25729101735E+03  0.29299833840E+03  0.41800000000E+01 0.  1.
        -11    1    1    2    0    0  0.96224093965E+01 -0.15708313631E+03  0.11932556264E+03  0.19750010728E+03  0.00000000000E+00 0. -1.
         11    1    1    2    0    0  0.43822589738E+02 -0.27485679106E+02  0.72298701138E+02  0.88898729538E+02  0.00000000000E+00 0.  1.
</event>
<event>
 7    1  0.2679104E-009  0.1125450E+03  0.7561462E-02  0.1255928E+00
          1   -1    0    0  501    0  0.00000000000E+00  0.00000000000E+00  0.94675281413E+02  0.94675281413E+02  0.00000000000E+00 0. -1.
         -1   -1    0    0    0  501 -0.00000000000E+00 -0.00000000000E+00 -0.14061400800E+03  0.14061400800E+03  0.00000000000E+00 0.  1.
         25    2    1    2    0    0 -0.16005708526E+02 -0.30179094459E+02 -0.45825394607E+02  0.13753636229E+03  0.12509725701E+03 0.  0.
          5    1    3    3  502    0  0.48871919247E+02 -0.38333039594E+02 -0.10607113696E+02  0.63149581759E+02  0.41800000000E+01 0.  1.
         -5    1    3    3    0  502 -0.64877627773E+02  0.81539451356E+01 -0.35218280912E+02  0.74386780526E+02  0.41800000000E+01 0.  1.
        -11    1    1    2    0    0  0.42249861915E+02  0.49239118224E+02  0.42778902273E+01  0.65021857403E+02  0.00000000000E+00 0. -1.
         11    1    1    2    0    0 -0.26244153390E+02 -0.19060023765E+02 -0.43912222097E+01  0.32731069728E+02  0.00000000000E+00 0.  1.
</event>
<event>
 7    1  0.2679104E-009  0.1331481E+03  0.7561462E-02  0.1222858E+00
         -1   -1    0    0    0  501 -0.00000000000E+00  0.00000000000E+00  0.93927851247E+02  0.93927851247E+02  0.00000000000E+00 0.  1.
          1   -1    0    0  501    0  0.00000000000E+00 -0.00000000000E+00 -0.24977833846E+03  0.24977833846E+03  0.00000000000E+00 0. -1.
         25    2    1    2    0    0  0.56711295783E+02 -0.83469061397E+02 -0.36283732763E+02  0.16476816928E+03  0.12509510408E+03 0.  0.
          5    1    3    3  502    0 -0.15335759188E+02  0.18147237718E+02 -0.31978968075E+02  0.40057889932E+02  0.41800000000E+01 0.  1.
         -5    1    3    3    0  502  0.72047054971E+02 -0.10161629911E+03 -0.43047646882E+01  0.12471027935E+03  0.41800000000E+01 0.  1.
        -11    1    1    2    0    0 -0.69306510220E+02  0.63929723056E+02 -0.12348077853E+03  0.15536378122E+03  0.00000000000E+00 0. -1.
         11    1    1    2    0    0  0.12595214437E+02  0.19539338341E+02  0.39140240835E+01  0.23574239203E+02  0.00000000000E+00 0.  1.
</event>
<event>
 7    1  0.2679104E-009  0.1632707E+03  0.7561462E-02  0.1185053E+00
          2   -1    0    0  501    0  0.00000000000E+00  0.00000000000E+00  0.46158065410E+03  0.46158065410E+03  0.00000000000E+00 0. -1.
         -2   -1    0    0    0  501 -0.00000000000E+00 -0.00000000000E+00 -0.73652859561E+02  0.73652859561E+02  0.00000000000E+00 0.  1.
         25    2    1    2    0    0  0.69490282621E+02 -0.11157936497E+03  0.30182422565E+03  0.35217534752E+03  0.12510299016E+03 0.  0.
          5    1    3    3  502    0  0.10390733090E+03 -0.63401026228E+02  0.19301780365E+03  0.22823183053E+03  0.41800000000E+01 0. -1.
         -5    1    3    3    0  502 -0.34417048276E+02 -0.48178338738E+02  0.10880642199E+03  0.12394351698E+03  0.41800000000E+01 0. -1.
        -11    1    1    2    0    0 -0.75879662998E+02  0.69720363012E+02  0.94583190569E+02  0.13987362944E+03  0.00000000000E+00 0. -1.
         11    1    1    2    0    0  0.63893803766E+01  0.41859001954E+02 -0.84796216779E+01  0.43184536700E+02  0.00000000000E+00 0.  1.
</event>
<event>
 7    1  0.2679104E-009  0.1040366E+03  0.7561462E-02  0.1272029E+00
         -1   -1    0    0    0  501 -0.00000000000E+00  0.00000000000E+00  0.19534158752E+03  0.19534158752E+03  0.00000000000E+00 0.  1.
          1   -1    0    0  501    0  0.00000000000E+00 -0.00000000000E+00 -0.68941902035E+02  0.68941902035E+02  0.00000000000E+00 0. -1.
         25    2    1    2    0    0 -0.30092647895E+02 -0.31448114528E+02  0.90003506646E+02  0.16013328779E+03  0.12508991680E+03 0.  0.
          5    1    3    3  502    0  0.29752506558E+02 -0.44210791346E+02  0.28080179197E+01  0.53527218147E+02  0.41800000000E+01 0. -1.
         -5    1    3    3    0  502 -0.59845154454E+02  0.12762676818E+02  0.87195488726E+02  0.10660606965E+03  0.41800000000E+01 0. -1.
        -11    1    1    2    0    0 -0.26355020843E+02  0.25251123491E+02  0.29531173573E+02  0.46949936888E+02  0.00000000000E+00 0.  1.
         11    1    1    2    0    0  0.56447668738E+02  0.61969910374E+01  0.68650052613E+01  0.57200264870E+02  0.00000000000E+00 0. -1.
</event>
<event>
 7    1  0.2679104E-009  0.1086338E+03  0.7561462E-02  0.1263121E+00
         -1   -1    0    0    0  501 -0.00000000000E+00  0.00000000000E+00  0.86363531600E+02  0.86363531600E+02  0.00000000000E+00 0.  1.
          1   -1    0    0  501    0  0.00000000000E+00 -0.00000000000E+00 -0.25766606403E+03  0.25766606403E+03  0.00000000000E+00 0. -1.
         25    2    1    2    0    0 -0.47771779067E+01  0.59529149368E+02 -0.18624540816E+03  0.23216823660E+03  0.12509275348E+03 0.  0.
          5    1    3    3  502    0  0.32271702412E+02  0.69055787944E+02 -0.17675178822E+03  0.19253267688E+03  0.41800000000E+01 0. -1.
         -5    1    3    3    0  502 -0.37048880319E+02 -0.95266385757E+01 -0.94936199412E+01  0.39635559729E+02  0.41800000000E+01 0. -1.
        -11    1    1    2    0    0 -0.18185484654E+02  0.15554581927E+02  0.22672652328E+02  0.32965224625E+02  0.00000000000E+00 0.  1.
         11    1    1    2    0    0  0.22962662560E+02 -0.75083731295E+02 -0.77297765922E+01  0.78896134400E+02  0.00000000000E+00 0. -1.
</event>
<event>
 7    1  0.2679104E-009  0.8547343E+02  0.7561462E-02  0.1314199E+00
         -3   -1    0    0    0  501 -0.00000000000E+00  0.00000000000E+00  0.26955635731E+02  0.26955635731E+02  0.00000000000E+00 0.  1.
          3   -1    0    0  501    0  0.00000000000E+00 -0.00000000000E+00 -0.53036847943E+03  0.53036847943E+03  0.00000000000E+00 0. -1.
         25    2    1    2    0    0 -0.32650330934E+02  0.21203824349E+01 -0.36188269987E+03  0.38428521762E+03  0.12508197265E+03 0.  0.
          5    1    3    3  502    0  0.29031961409E+02 -0.37057505374E+01 -0.17514613071E+02  0.34363082535E+02  0.41800000000E+01 0. -1.
         -5    1    3    3    0  502 -0.61682292343E+02  0.58261329723E+01 -0.34436808680E+03  0.34992213508E+03  0.41800000000E+01 0. -1.
        -11    1    1    2    0    0  0.38267924716E+01  0.33356142972E+02 -0.11958586688E+02  0.35641049510E+02  0.00000000000E+00 0.  1.
         11    1    1    2    0    0  0.28823538463E+02 -0.35476525407E+02 -0.12957155714E+03  0.13739784803E+03  0.00000000000E+00 0. -1.
</event>
<event>
 7    1  0.2679104E-009  0.1380028E+03  0.7561462E-02  0.1216042E+00
          1   -1    0    0  501    0  0.00000000000E+00  0.00000000000E+00  0.62477311497E+02  0.62477311497E+02  0.00000000000E+00 0. -1.
         -1   -1    0    0    0  501 -0.00000000000E+00 -0.00000000000E+00 -0.36051141883E+03  0.36051141883E+03  0.00000000000E+00 0.  1.
         25    2    1    2    0    0  0.17456825934E+02  0.10124105479E+03 -0.17680532143E+03  0.23971509995E+03  0.12509482607E+03 0.  0.
          5    1    3    3  502    0  0.55593226191E+02  0.81439825776E+02 -0.16919481878E+03  0.19587600957E+03  0.41800000000E+01 0. -1.
         -5    1    3    3    0  502 -0.38136400256E+02  0.19801229014E+02 -0.76105026490E+01  0.43839090382E+02  0.41800000000E+01 0. -1.
        -11    1    1    2    0    0  0.74312258889E+00  0.15736088289E+02 -0.29748739195E+02  0.33662504207E+02  0.00000000000E+00 0.  1.
         11    1    1    2    0    0 -0.18199948523E+02 -0.11697714308E+03 -0.91480046710E+02  0.14961112617E+03  0.00000000000E+00 0. -1.
</event>
<event>
 7    1  0.2679104E-009  0.2028304E+03  0.7561462E-02  0.1147373E+00
          1   -1    0    0  501    0  0.00000000000E+00  0.00000000000E+00  0.28445469546E+03  0.28445469546E+03  0.00000000000E+00 0. -1.
         -1   -1    0    0    0  501 -0.00000000000E+00 -0.00000000000E+00 -0.17457647787E+03  0.17457647787E+03  0.00000000000E+00 0.  1.
         25    2    1    2    0    0  0.14446398122E+03  0.12578219279E+03  0.22667392538E+02  0.22988704737E+03  0.12507294660E+03 0.  0.
          5    1    3    3  502    0  0.18615663974E+01 -0.12684421824E+02 -0.22294265327E+02  0.26055069620E+02  0.41800000000E+01 0.  1.
         -5    1    3    3    0  502  0.14260241482E+03  0.13846661462E+03  0.44961657865E+02  0.20383197775E+03  0.41800000000E+01 0.  1.
        -11    1    1    2    0    0 -0.77305822311E+02 -0.84529316964E+02  0.41260334610E+01  0.11462294597E+03  0.00000000000E+00 0.  1.
         11    1    1    2    0    0 -0.67158158907E+02 -0.41252875828E+02  0.83084791594E+02  0.11452117999E+03  0.00000000000E+00 0. -1.
</event>
<event>
 7    1  0.2679104E-009  0.1027203E+03  0.7561462E-02  0.1274677E+00
         -2   -1    0    0    0  501 -0.00000000000E+00  0.00000000000E+00  0.50775115372E+02  0.50775115372E+02  0.00000000000E+00 0.  1.
          2   -1    0    0  501    0  0.00000000000E+00 -0.00000000000E+00 -0.26426866247E+03  0.26426866247E+03  0.00000000000E+00 0. -1.
         25    2    1    2    0    0 -0.36342888885E+02  0.39534407047E+01 -0.14800536158E+03  0.19719364449E+03  0.12507322298E+03 0.  0.
          5    1    3    3  502    0 -0.75840754262E+02  0.15669056413E+02 -0.54091360513E+02  0.94555206192E+02  0.41800000000E+01 0.  1.
         -5    1    3    3    0  502  0.39497865377E+02 -0.11715615709E+02 -0.93914001063E+02  0.10263843830E+03  0.41800000000E+01 0.  1.
        -11    1    1    2    0    0 -0.24749886376E+02 -0.55372561776E+01 -0.47992715554E+02  0.54281846209E+02  0.00000000000E+00 0. -1.
         11    1    1    2    0    0  0.61092775261E+02  0.15838154729E+01 -0.17495469965E+02  0.63568287139E+02  0.00000000000E+00 0.  1.
</event>
<event>
 7    1  0.2679104E-009  0.1391505E+03  0.7561462E-02  0.1214477E+00
          1   -1    0    0  501    0  0.00000000000E+00  0.00000000000E+00  0.55704363062E+03  0.55704363062E+03  0.00000000000E+00 0.  1.
         -1   -1    0    0    0  501 -0.00000000000E+00 -0.00000000000E+00 -0.40430865024E+02  0.40430865024E+02  0.00000000000E+00 0. -1.
         25    2    1    2    0    0  0.55933161377E+02 -0.85926219683E+02  0.30223564825E+03  0.34279108794E+03  0.12509000411E+03 0.  0.
          5    1    3    3  502    0  0.21498198624E+02 -0.10420536566E+03  0.27542475188E+03  0.29529171530E+03  0.41800000000E+01 0. -1.
         -5    1    3    3    0  502  0.34434962754E+02  0.18279145977E+02  0.26810896379E+02  0.47499372650E+02  0.41800000000E+01 0. -1.
        -11    1    1    2    0    0 -0.70572192792E+02  0.33390700380E+02  0.15804388352E+03  0.17627604030E+03  0.00000000000E+00 0.  1.
         11    1    1    2    0    0  0.14639031414E+02  0.52535519302E+02  0.56333233828E+02  0.78407367400E+02  0.00000000000E+00 0. -1.
</event>
<event>
 7    1  0.2679104E-009  0.1030273E+03  0.7561462E-02  0.1274056E+00
         -3   -1    0    0    0  501 -0.00000000000E+00  0.00000000000E+00  0.25255937134E+03  0.25255937134E+03  0.00000000000E+00 0.  1.
          3   -1    0    0  501    0  0.00000000000E+00 -0.00000000000E+00 -0.68733094456E+02  0.68733094456E+02  0.00000000000E+00 0. -1.
         25    2    1    2    0    0 -0.24283262405E+02 -0.41335397862E+02  0.17281770088E+03  0.21865690831E+03  0.12508634564E+03 0.  0.
          5    1    3    3  502    0  0.32909929366E+02 -0.31680956955E+02  0.14885118269E+03  0.15575908793E+03  0.41800000000E+01 0.  1.
         -5    1    3    3    0  502 -0.57193191771E+02 -0.96544409077E+01  0.23966518186E+02  0.62897820377E+02  0.41800000000E+01 0.  1.
        -11    1    1    2    0    0 -0.19119684396E+02 -0.19492908879E+02  0.36851370788E+01  0.27552060962E+02  0.00000000000E+00 0.  1.
         11    1    1    2    0    0  0.43402946801E+02  0.60828306742E+02  0.73234389232E+01  0.75083496520E+02  0.00000000000E+00 0. -1.
</event>
<event>
 7    1  0.2679104E-009  0.8649780E+02  0.7561462E-02  0.1311561E+00
          1   -1    0    0  501    0  0.00000000000E+00  0.00000000000E+00  0.74897550025E+02  0.74897550025E+02  0.00000000000E+00 0. -1.
         -1   -1    0    0    0  501 -0.00000000000E+00 -0.00000000000E+00 -0.19804993404E+03  0.19804993404E+03  0.00000000000E+00 0.  1.
         25    2    1    2    0    0  0.91638653118E+01 -0.13692233609E+02 -0.10979051436E+03  0.16724445888E+03  0.12508116683E+03 0.  0.
          5    1    3    3  502    0  0.38676275152E+02  0.42533759899E+02 -0.75399535674E+02  0.94908046922E+02  0.41800000000E+01 0.  1.
         -5    1    3    3    0  502 -0.29512409841E+02 -0.56225993508E+02 -0.34390978685E+02  0.72336411961E+02  0.41800000000E+01 0.  1.
        -11    1    1    2    0    0 -0.65136434671E+01 -0.18398130142E+02  0.39355823800E+02  0.43929484528E+02  0.00000000000E+00 0. -1.
         11    1    1    2    0    0 -0.26502218447E+01  0.32090363751E+02 -0.52717693460E+02  0.61773540657E+02  0.00000000000E+00 0.  1.
</event>
<event>
 7    1  0.2679104E-009  0.5718569E+02  0.7561462E-02  0.1410037E+00
          1   -1    0    0  501    0  0.00000000000E+00  0.00000000000E+00  0.70694362963E+02  0.70694362963E+02  0.00000000000E+00 0. -1.
         -1   -1    0    0    0  501 -0.00000000000E+00 -0.00000000000E+00 -0.20896176702E+03  0.20896176702E+03  0.00000000000E+00 0.  1.
         25    2    1    2    0    0 -0.44988876123E+02  0.22160635701E+02 -0.38228545715E+02  0.14009267444E+03  0.12509773369E+03 0.  0.
          5    1    3    3  502    0 -0.93251613181E+01 -0.39774456129E+01 -0.79027131908E+02  0.79784326060E+02  0.41800000000E+01 0.  1.
         -5    1    3    3    0  502 -0.35663714805E+02  0.26138081314E+02  0.40798586194E+02  0.60308348376E+02  0.41800000000E+01 0.  1.
        -11    1    1    2    0    0  0.24169933240E+02  0.50885125146E+01 -0.10225889651E+03  0.10519962237E+03  0.00000000000E+00 0.  1.
         11    1    1    2    0    0  0.20818942883E+02 -0.27249148215E+02  0.22200381624E+01  0.34363833178E+02  0.00000000000E+00 0. -1.
</event>
<event>
 7    1  0.2679104E-009  0.1250553E+03  0.7561462E-02  0.1234983E+00
          2   -1    0    0  501    0  0.00000000000E+00  0.00000000000E+00  0.71931886432E+02  0.71931886432E+02  0.00000000000E+00 0. -1.
         -2   -1    0    0    0  501 -0.00000000000E+00 -0.00000000000E+00 -0.35683888043E+03  0.35683888043E+03  0.00000000000E+00 0.  1.
         25    2    1    2    0    0  0.69930607662E+02  0.94384506109E+02 -0.16197088566E+03  0.23596845449E+03  0.12509124204E+03 0.  0.
          5    1    3    3  502    0  0.48058407133E+02  0.61262923558E+02 -0.17692631037E+03  0.19334722134E+03  0.41800000000E+01 0. -1.
         -5    1    3    3    0  502  0.21872200529E+02  0.33121582551E+02  0.14955424717E+02  0.42621233149E+02  0.41800000000E+01 0. -1.
        -11    1    1    2    0    0 -0.80998099530E+02 -0.87272580474E+02 -0.13127259167E+03  0.17722778776E+03  0.00000000000E+00 0.  1.
         11    1    1    2    0    0  0.11067491867E+02 -0.71119256351E+01  0.83364833307E+01  0.15574524609E+02  0.00000000000E+00 0. -1.
</event>
<event>
 7    1  0.2679104E-009  0.1252339E+03  0.7561462E-02  0.1234704E+00
         -2   -1    0    0    0  501 -0.00000000000E+00  0.00000000000E+00  0.15668512330E+02  0.15668512330E+02  0.00000000000E+00 0.  1.
          2   -1    0    0  501    0  0.00000000000E+00 -0.00000000000E+00 -0.10264516552E+04  0.10264516552E+04  0.00000000000E+00 0. -1.
         25    2    1    2    0    0  0.30988399194E+02  0.55438240326E+02 -0.57878287004E+03  0.59554216314E+03  0.12508868075E+03 0.  0.
          5    1    3    3  502    0  0.50167305079E+02 -0.23833847364E+02 -0.29637502270E+03  0.30156332214E+03  0.41800000000E+01 0. -1.
         -5    1    3    3    0  502 -0.19178905885E+02  0.79272087690E+02 -0.28240784734E+03  0.29397884100E+03  0.41800000000E+01 0. -1.
        -11    1    1    2    0    0 -0.49899203215E+02 -0.72245759195E+02 -0.32879355749E+03  0.34031541789E+03  0.00000000000E+00 0.  1.
         11    1    1    2    0    0  0.18910804021E+02  0.16807518869E+02 -0.10320671533E+03  0.10626258649E+03  0.00000000000E+00 0. -1.
</event>
<event>
 7    1  0.2679104E-009  0.1108370E+03  0.7561462E-02  0.1259028E+00
         -1   -1    0    0    0  501 -0.00000000000E+00  0.00000000000E+00  0.32754272816E+03  0.32754272816E+03  0.00000000000E+00 0.  1.
          1   -1    0    0  501    0  0.00000000000E+00 -0.00000000000E+00 -0.62832814087E+02  0.62832814087E+02  0.00000000000E+00 0. -1.
         25    2    1    2    0    0  0.72217271527E+02  0.44901620027E+02  0.19875874956E+03  0.24976737128E+03  0.12508880621E+03 0.  0.
          5    1    3    3  502    0 -0.15533997571E+02  0.30735579381E+02  0.13731581526E+03  0.14163010429E+03  0.41800000000E+01 0. -1.
         -5    1    3    3    0  502  0.87751269098E+02  0.14166040646E+02  0.61442934301E+02  0.10813726699E+03  0.41800000000E+01 0. -1.
        -11    1    1    2    0    0 -0.40352474536E+02  0.30019080330E+01 -0.13372638361E+02  0.42616441778E+02  0.00000000000E+00 0. -1.
         11    1    1    2    0    0 -0.31864796991E+02 -0.47903528060E+02  0.79323802867E+02  0.97991729187E+02  0.00000000000E+00 0.  1.
</event>
<event>
 7    1  0.2679104E-009  0.7263217E+02  0.7561462E-02  0.1351364E+00
          3   -1    0    0  501    0  0.00000000000E+00  0.00000000000E+00  0.10135653568E+03  0.10135653568E+03  0.00000000000E+00 0. -1.
         -3   -1    0    0    0  501 -0.00000000000E+00 -0.00000000000E+00 -0.13252422578E+03  0.13252422578E+03  0.00000000000E+00 0.  1.
         25    2    1    2    0    0  0.31081325467E+02 -0.59508988489E+01  0.78077342602E+01  0.12926650792E+03  0.12508959735E+03 0.  0.
          5    1    3    3  502    0  0.97058158314E+01 -0.22265406054E+02 -0.55298887053E+02  0.60542468376E+02  0.41800000000E+01 0. -1.
         -5    1    3    3    0  502  0.21375509636E+02  0.16314507206E+02  0.63106621313E+02  0.68724039543E+02  0.41800000000E+01 0. -1.
        -11    1    1    2    0    0  0.23019896986E+01  0.43271501042E+02 -0.32411681699E+02  0.54113206055E+02  0.00000000000E+00 0. -1.
         11    1    1    2    0    0 -0.33383315166E+02 -0.37320602193E+02 -0.65637426693E+01  0.50501047487E+02  0.00000000000E+00 0.  1.
</event>
<event>
 7    1  0.2679104E-009  0.3426776E+03  0.7561462E-02  0.1065661E+00
         -2   -1    0    0    0  501 -0.00000000000E+00  0.00000000000E+00  0.14936490950E+03  0.14936490950E+03  0.00000000000E+00 0.  1.
          2   -1    0    0  501    0  0.00000000000E+00 -0.00000000000E+00 -0.82297351689E+03  0.82297351689E+03  0.00000000000E+00 0. -1.
         25    2    1    2    0    0 -0.31399008131E+03  0.93839786335E+02 -0.26050306158E+03  0.43692549425E+03  0.12508543390E+03 0.  0.
          5    1    3    3  502    0 -0.21637832852E+03  0.28079995761E+01 -0.14664567486E+03  0.26143812321E+03  0.41800000000E+01 0.  1.
         -5    1    3    3    0  502 -0.97611752793E+02  0.91031786758E+02 -0.11385738672E+03  0.17548737104E+03  0.41800000000E+01 0.  1.
        -11    1    1    2    0    0  0.12098079647E+03 -0.48945158942E+00 -0.10585921395E+03  0.16075685321E+03  0.00000000000E+00 0.  1.
         11    1    1    2    0    0  0.19300928485E+03 -0.93350334745E+02 -0.30724633186E+03  0.37465607892E+03  0.00000000000E+00 0. -1.
</event>
<event>
 7    1  0.2679104E-009  0.1743581E+03  0.7561462E-02  0.1173378E+00
         -2   -1    0    0    0  501 -0.00000000000E+00  0.00000000000E+00  0.40153593034E+03  0.40153593034E+03  0.00000000000E+00 0.  1.
          2   -1    0    0  501    0  0.00000000000E+00 -0.00000000000E+00 -0.82775971975E+02  0.82775971975E+02  0.00000000000E+00 0. -1.
         25    2    1    2    0    0  0.92801841019E+02  0.11182652464E+03  0.14778369224E+03  0.24208452268E+03  0.12509013996E+03 0.  0.
          5    1    3    3  502    0  0.62592197236E+02 -0.73492907475E+01  0.23991298892E+02  0.67563674055E+02  0.41800000000E+01 0.  1.
         -5    1    3    3    0  502  0.30209643783E+02  0.11917581539E+03  0.12379239335E+03  0.17452084862E+03  0.41800000000E+01 0.  1.
        -11    1    1    2    0    0  0.12415485404E+02 -0.15761787962E+02  0.54906388248E+02  0.58457588969E+02  0.00000000000E+00 0.  1.
         11    1    1    2    0    0 -0.10521732642E+03 -0.96064736682E+02  0.11606987787E+03  0.18376979067E+03  0.00000000000E+00 0. -1.
</event>
<event>
 7    1  0.2679104E-009  0.2155027E+03  0.7561462E-02  0.1137281E+00
          1   -1    0    0  501    0  0.00000000000E+00  0.00000000000E+00  0.27006538714E+03  0.27006538714E+03  0.00000000000E+00 0.  1.
         -1   -1    0    0    0  501 -0.00000000000E+00 -0.00000000000E+00 -0.21888687979E+03  0.21888687979E+03  0.00000000000E+00 0. -1.
         25    2    1    2    0    0  0.19663562506E+03 -0.20195184299E+02  0.11717013878E+03  0.26162785411E+03  0.12508748183E+03 0.  0.
          5    1    3    3  502    0  0.74840964604E+02  0.49318974155E+02  0.22912072509E+02  0.92606515220E+02  0.41800000000E+01 0. -1.
         -5    1    3    3    0  502  0.12179466046E+03 -0.69514158454E+02  0.94258066272E+02  0.16902133889E+03  0.41800000000E+01 0. -1.
        -11    1    1    2    0    0 -0.49799517963E+02 -0.10681933040E+02  0.19609303301E+02  0.54576739172E+02  0.00000000000E+00 0.  1.
         11    1    1    2    0    0 -0.14683610710E+03  0.30877117339E+02 -0.85600934733E+02  0.17274767365E+03  0.00000000000E+00 0. -1.
</event>
<event>
 7    1  0.2833045E-009  0.1620017E+03  0.7561462E-02  0.1186455E+00
          2   -1    0    0  501    0  0.00000000000E+00  0.00000000000E+00  0.81798875310E+03  0.81798875310E+03  0.00000000000E+00 0.  1.
         -2   -1    0    0    0  501 -0.00000000000E+00 -0.00000000000E+00 -0.52080641572E+02  0.52080641572E+02  0.00000000000E+00 0. -1.
         25    2    1    2    0    0  0.89234770337E+01 -0.12096743146E+03  0.13307531055E+03  0.21924668153E+03  0.12508925281E+03 0.  0.
          5    1    3    3  502    0  0.57138697785E+02 -0.19858175082E+02  0.33293554329E+02  0.69174497194E+02  0.41800000000E+01 0.  1.
         -5    1    3    3    0  502 -0.48215220752E+02 -0.10110925638E+03  0.99781756223E+02  0.15007218434E+03  0.41800000000E+01 0.  1.
        -11    1    1    2    0    0 -0.49849040741E+02  0.69094370863E+02  0.32532579103E+03  0.33629723349E+03  0.00000000000E+00 0. -1.
         11    1    1    2    0    0  0.40925563708E+02  0.51873060594E+02  0.30750700995E+03  0.31452547965E+03  0.00000000000E+00 0.  1.
</event>
<event>
 7    1  0.2679104E-009  0.1252744E+03  0.7561462E-02  0.1234641E+00
         -1   -1    0    0    0  501 -0.00000000000E+00  0.00000000000E+00  0.43991648657E+02  0.43991648657E+02  0.00000000000E+00 0.  1.
          1   -1    0    0  501    0  0.00000000000E+00 -0.00000000000E+00 -0.10020433269E+04  0.10020433269E+04  0.00000000000E+00 0. -1.
         25    2    1    2    0    0 -0.20824371662E+02  0.11235535066E+03 -0.84455360019E+03  0.86138016989E+03  0.12509050411E+03 0.  0.
          5    1    3    3  502    0 -0.22216963537E+02  0.59922887731E+02 -0.75349893753E+03  0.75621588664E+03  0.41800000000E+01 0. -1.
         -5    1    3    3    0  502  0.13925918756E+01  0.52432462932E+02 -0.91054662654E+02  0.10516428325E+03  0.41800000000E+01 0. -1.
        -11    1    1    2    0    0 -0.23851829985E+02 -0.62737920664E+02 -0.93233517343E+02  0.11488013422E+03  0.00000000000E+00 0. -1.
         11    1    1    2    0    0  0.44676201646E+02 -0.49617429999E+02 -0.20264560708E+02  0.69774671436E+02  0.00000000000E+00 0.  1.
</event>
<event>
 7    1  0.2679104E-009  0.1471754E+03  0.7561462E-02  0.1203987E+00
         -3   -1    0    0    0  501 -0.00000000000E+00  0.00000000000E+00  0.11846043830E+03  0.11846043830E+03  0.00000000000E+00 0.  1.
          3   -1    0    0  501    0  0.00000000000E+00 -0.00000000000E+00 -0.21257764699E+03  0.21257764699E+03  0.00000000000E+00 0. -1.
         25    2    1    2    0    0 -0.11447415236E+03  0.18320170929E+02 -0.44188293784E+02  0.17618118690E+03  0.12508894870E+03 0.  0.
          5    1    3    3  502    0 -0.14133716960E+03  0.20381143158E+02 -0.32461457597E+02  0.14650189465E+03  0.41800000000E+01 0. -1.
         -5    1    3    3    0  502  0.26863017235E+02 -0.20609722282E+01 -0.11726836187E+02  0.29679292250E+02  0.41800000000E+01 0. -1.
        -11    1    1    2    0    0  0.64511162228E+02  0.12234283926E+02  0.15067283461E+02  0.67367579637E+02  0.00000000000E+00 0.  1.
         11    1    1    2    0    0  0.49962990136E+02 -0.30554454855E+02 -0.64996198369E+02  0.87489318761E+02  0.00000000000E+00 0. -1.
</event>
<event>
 7    1  0.2679104E-009  0.2677507E+03  0.7561462E-02  0.1102574E+00
         -1   -1    0    0    0  501 -0.00000000000E+00  0.00000000000E+00  0.61774093507E+02  0.61774093507E+02  0.00000000000E+00 0.  1.
          1   -1    0    0  501    0  0.00000000000E+00 -0.00000000000E+00 -0.15006896301E+04  0.15006896301E+04  0.00000000000E+00 0. -1.
         25    2    1    2    0    0 -0.20213976254E+03  0.16102073277E+03 -0.10363966865E+04  0.10754328763E+04  0.12509843929E+03 0.  0.
          5    1    3    3  502    0 -0.16379942998E+03  0.86651737353E+02 -0.86527475552E+03  0.88490488290E+03  0.41800000000E+01 0. -1.
         -5    1    3    3    0  502 -0.38340332560E+02  0.74368995416E+02 -0.17112193101E+03  0.19052799335E+03  0.41800000000E+01 0. -1.
        -11    1    1    2    0    0  0.61830794186E+02 -0.89784856720E+02 -0.10997223793E+03  0.15484915473E+03  0.00000000000E+00 0.  1.
         11    1    1    2    0    0  0.14030896835E+03 -0.71235876049E+02 -0.29254661214E+03  0.33218169262E+03  0.00000000000E+00 0. -1.
</event>
<event>
 7    1  0.2679104E-009  0.1082879E+03  0.7561462E-02  0.1263774E+00
          1   -1    0    0  501    0  0.00000000000E+00  0.00000000000E+00  0.83614186149E+03  0.83614186149E+03  0.00000000000E+00 0. -1.
         -1   -1    0    0    0  501 -0.00000000000E+00 -0.00000000000E+00 -0.17610752894E+02  0.17610752894E+02  0.00000000000E+00 0.  1.
         25    2    1    2    0    0  0.24648381086E+02  0.11717173655E+02  0.59191497644E+03  0.60560409568E+03  0.12509255182E+03 0.  0.
          5    1    3    3  502    0 -0.46603741059E+02  0.40818152193E+01  0.35382063981E+03  0.35692448425E+03  0.41800000000E+01 0. -1.
         -5    1    3    3    0  502  0.71252122144E+02  0.76353584352E+01  0.23809433663E+03  0.24867961143E+03  0.41800000000E+01 0. -1.
        -11    1    1    2    0    0  0.35144305975E+02 -0.14382427335E+02  0.58969982788E+02  0.70138686390E+02  0.00000000000E+00 0.  1.
         11    1    1    2    0    0 -0.59792687060E+02  0.26652536809E+01  0.16764614937E+03  0.17800983231E+03  0.00000000000E+00 0. -1.
</event>
<event>
 7    1  0.2679104E-009  0.1033822E+03  0.7561462E-02  0.1273340E+00
          1   -1    0    0  501    0  0.00000000000E+00  0.00000000000E+00  0.17718140284E+02  0.17718140284E+02  0.00000000000E+00 0. -1.
         -1   -1    0    0    0  501 -0.00000000000E+00 -0.00000000000E+00 -0.69995024865E+03  0.69995024865E+03  0.00000000000E+00 0.  1.
         25    2    1    2    0    0  0.64561356507E+01  0.49951103757E+00 -0.39052130246E+03  0.41012033653E+03  0.12509944668E+03 0.  0.
          5    1    3    3  502    0 -0.35680966466E+02  0.40030999926E+02 -0.96789107007E+02  0.11073037505E+03  0.41800000000E+01 0. -1.
         -5    1    3    3    0  502  0.42137102116E+02 -0.39531488888E+02 -0.29373219545E+03  0.29938996148E+03  0.41800000000E+01 0. -1.
        -11    1    1    2    0    0 -0.44623045289E+02  0.23025687656E+02 -0.12004047072E+03  0.13011961064E+03  0.00000000000E+00 0.  1.
         11    1    1    2    0    0  0.38166909638E+02 -0.23525198694E+02 -0.17167033518E+03  0.17742844176E+03  0.00000000000E+00 0. -1.
</event>
<event>
 7    1  0.2679104E-009  0.1389881E+03  0.7561462E-02  0.1214697E+00
          1   -1    0    0  501    0  0.00000000000E+00  0.00000000000E+00  0.22874570055E+03  0.22874570055E+03  0.00000000000E+00 0. -1.
         -1   -1    0    0    0  501 -0.00000000000E+00 -0.00000000000E+00 -0.13558215735E+03  0.13558215735E+03  0.00000000000E+00 0.  1.
         25    2    1    2    0    0 -0.83400428609E+02  0.84784749721E+02 -0.18927648505E+02  0.17364880588E+03  0.12510622138E+03 0.  0.
          5    1    3    3  502    0 -0.62563058019E+02  0.81705645679E+02 -0.65713016303E+02  0.12217046155E+03  0.41800000000E+01 0. -1.
         -5    1    3    3    0  502 -0.20837370590E+02  0.30791040417E+01  0.46785367798E+02  0.51478344329E+02  0.41800000000E+01 0. -1.
        -11    1    1    2    0    0  0.16465857814E+02  0.22000793287E+02  0.27605819566E+02  0.38951773422E+02  0.00000000000E+00 0. -1.
         11    1    1    2    0    0  0.66934570795E+02 -0.10678554301E+03  0.84485372139E+02  0.15172727859E+03  0.00000000000E+00 0.  1.
</event>
<event>
 7    1  0.2679104E-009  0.1006305E+03  0.7561462E-02  0.1278976E+00
          1   -1    0    0  501    0  0.00000000000E+00  0.00000000000E+00  0.45944797086E+03  0.45944797086E+03  0.00000000000E+00 0. -1.
         -1   -1    0    0    0  501 -0.00000000000E+00 -0.00000000000E+00 -0.32702088708E+02  0.32702088708E+02  0.00000000000E+00 0.  1.
         25    2    1    2    0    0 -0.28725020655E+02  0.41693651631E+02  0.19175683538E+03  0.23447951981E+03  0.12508586610E+03 0.  0.
          5    1    3    3  502    0 -0.10185125219E+02  0.84271563922E+02  0.14727637766E+03  0.17003892812E+03  0.41800000000E+01 0.  1.
         -5    1    3    3    0  502 -0.18539895436E+02 -0.42577912292E+02  0.44480457720E+02  0.64440591686E+02  0.41800000000E+01 0.  1.
        -11    1    1    2    0    0  0.41813222086E+02 -0.26110611892E+02  0.23190665945E+03  0.23708818674E+03  0.00000000000E+00 0. -1.
         11    1    1    2    0    0 -0.13088201431E+02 -0.15583039738E+02  0.30823873259E+01  0.20582353019E+02  0.00000000000E+00 0.  1.
</event>
<event>
 7    1  0.2679104E-009  0.1682851E+03  0.7561462E-02  0.1179648E+00
          2   -1    0    0  501    0  0.00000000000E+00  0.00000000000E+00  0.59063789153E+03  0.59063789153E+03  0.00000000000E+00 0.  1.
         -2   -1    0    0    0  501 -0.00000000000E+00 -0.00000000000E+00 -0.68013086932E+02  0.68013086932E+02  0.00000000000E+00 0. -1.
         25    2    1    2    0    0 -0.14689615709E+03  0.85647225468E+01  0.14023593901E+03  0.23867671708E+03  0.12509444930E+03 0.  0.
          5    1    3    3  502    0 -0.16171756792E+03  0.28469995434E+02  0.13579371269E+03  0.21312089813E+03  0.41800000000E+01 0.  1.
         -5    1    3    3    0  502  0.14821410828E+02 -0.19905272888E+02  0.44422263254E+01  0.25555818954E+02  0.41800000000E+01 0.  1.
        -11    1    1    2    0    0  0.99311964450E+02 -0.58966403393E+01  0.34597920616E+03  0.35999895520E+03  0.00000000000E+00 0.  1.
         11    1    1    2    0    0  0.47584192639E+02 -0.26680822074E+01  0.36409659422E+02  0.59975306177E+02  0.00000000000E+00 0. -1.
</event>
<event>
 7    1  0.2679104E-009  0.7674676E+02  0.7561462E-02  0.1338546E+00
          1   -1    0    0  501    0  0.00000000000E+00  0.00000000000E+00  0.48711671188E+03  0.48711671188E+03  0.00000000000E+00 0. -1.
         -1   -1    0    0    0  501 -0.00000000000E+00 -0.00000000000E+00 -0.33681261126E+02  0.33681261126E+02  0.00000000000E+00 0.  1.
         25    2    1    2    0    0 -0.53040828917E+02  0.19723383652E+02  0.29510782551E+03  0.32548306838E+03  0.12509299633E+03 0.  0.
          5    1    3    3  502    0 -0.33608776401E+02  0.12758107650E+02  0.30135036390E+03  0.30351578770E+03  0.41800000000E+01 0.  1.
         -5    1    3    3    0  502 -0.19432052516E+02  0.69652760015E+01 -0.62425383928E+01  0.21967280677E+02  0.41800000000E+01 0.  1.
        -11    1    1    2    0    0 -0.20562667590E+02 -0.53467446057E+01  0.12857869646E+01  0.21285305363E+02  0.00000000000E+00 0.  1.
         11    1    1    2    0    0  0.73603496507E+02 -0.14376639046E+02  0.15704183828E+03  0.17402959926E+03  0.00000000000E+00 0. -1.
</event>
<event>
 7    1  0.2679104E-009  0.1007487E+03  0.7561462E-02  0.1278729E+00
          1   -1    0    0  501    0  0.00000000000E+00  0.00000000000E+00  0.32326080320E+03  0.32326080320E+03  0.00000000000E+00 0. -1.
         -1   -1    0    0    0  501 -0.00000000000E+00 -0.00000000000E+00 -0.38103594544E+02  0.38103594544E+02  0.00000000000E+00 0.  1.
         25    2    1    2    0    0  0.17258489474E+02 -0.13707874165E+02  0.16642294553E+03  0.20935460137E+03  0.12508793324E+03 0.  0.
          5    1    3    3  502    0  0.68073006109E+02  0.12415700047E+02  0.82768417128E+02  0.10796373022E+03  0.41800000000E+01 0.  1.
         -5    1    3    3    0  502 -0.50814516635E+02 -0.26123574212E+02  0.83654528403E+02  0.10139087115E+03  0.41800000000E+01 0.  1.
        -11    1    1    2    0    0 -0.44706352757E+02  0.11990752821E+01  0.20404140114E+02  0.49157142840E+02  0.00000000000E+00 0.  1.
         11    1    1    2    0    0  0.27447863284E+02  0.12508798883E+02  0.98330123008E+02  0.10285265353E+03  0.00000000000E+00 0. -1.
</event>
<event>
 7    1  0.2679104E-009  0.9289653E+02  0.7561462E-02  0.1295985E+00
          2   -1    0    0  501    0  0.00000000000E+00  0.00000000000E+00  0.14872612462E+03  0.14872612462E+03  0.00000000000E+00 0. -1.
         -2   -1    0    0    0  501 -0.00000000000E+00 -0.00000000000E+00 -0.81360985184E+02  0.81360985184E+02  0.00000000000E+00 0.  1.
         25    2    1    2    0    0 -0.74249206693E+01 -0.18051957241E+02  0.44691455429E+02  0.13426300804E+03  0.12509287163E+03 0.  0.
          5    1    3    3  502    0 -0.49296809244E+02 -0.19228643344E+02  0.67906362436E+02  0.86189689556E+02  0.41800000000E+01 0.  1.
         -5    1    3    3    0  502  0.41871888574E+02  0.11766861025E+01 -0.23214907007E+02  0.48073318487E+02  0.41800000000E+01 0.  1.
        -11    1    1    2    0    0  0.22519655044E+02 -0.31553975228E+02 -0.11015835034E+01  0.38781460805E+02  0.00000000000E+00 0.  1.
         11    1    1    2    0    0 -0.15094734375E+02  0.49605932469E+02  0.23775267510E+02  0.57042640955E+02  0.00000000000E+00 0. -1.
</event>
<event>
 7    1  0.2679104E-009  0.1203842E+03  0.7561462E-02  0.1242465E+00
          2   -1    0    0  501    0  0.00000000000E+00  0.00000000000E+00  0.91418848971E+01  0.91418848971E+01  0.00000000000E+00 0. -1.
         -2   -1    0    0    0  501 -0.00000000000E+00 -0.00000000000E+00 -0.19181265072E+04  0.19181265072E+04  0.00000000000E+00 0.  1.
         25    2    1    2    0    0  0.58942436196E+02  0.13566472792E+02 -0.14125686054E+04  0.14193854317E+04  0.12508668435E+03 0.  0.
          5    1    3    3  502    0  0.77797212478E+02 -0.32369259029E+02 -0.10539702254E+04  0.10573414225E+04  0.41800000000E+01 0. -1.
         -5    1    3    3    0  502 -0.18854776281E+02  0.45935731821E+02 -0.35859838000E+03  0.36204400918E+03  0.41800000000E+01 0. -1.
        -11    1    1    2    0    0 -0.82317473175E+02 -0.98912865360E+01 -0.40914957891E+03  0.41746542595E+03  0.00000000000E+00 0.  1.
         11    1    1    2    0    0  0.23375036978E+02 -0.36751862561E+01 -0.87266437935E+02  0.90417534459E+02  0.00000000000E+00 0. -1.
</event>
<event>
 7    1  0.2679104E-009  0.3072045E+03  0.7561462E-02  0.1081694E+00
         -2   -1    0    0    0  501 -0.00000000000E+00  0.00000000000E+00  0.35723155882E+03  0.35723155882E+03  0.00000000000E+00 0. -1.
          2   -1    0    0  501    0  0.00000000000E+00 -0.00000000000E+00 -0.29105997896E+03  0.29105997896E+03  0.00000000000E+00 0.  1.
         25    2    1    2    0    0  0.51786041795E+02  0.28687513121E+03  0.11747534124E+03  0.33827156730E+03  0.12509221562E+03 0.  0.
          5    1    3    3  502    0 -0.59095052671E+01  0.22216778098E+03  0.11759991426E+03  0.25147695201E+03  0.41800000000E+01 0.  1.
         -5    1    3    3    0  502  0.57695547062E+02  0.64707350227E+02 -0.12457301243E+00  0.86794615286E+02  0.41800000000E+01 0.  1.
        -11    1    1    2    0    0 -0.68847890470E+02 -0.12626842806E+03 -0.32245265854E+02  0.14738895860E+03  0.00000000000E+00 0.  1.
         11    1    1    2    0    0  0.17061848675E+02 -0.16060670315E+03 -0.19058495524E+02  0.16263101189E+03  0.00000000000E+00 0. -1.
</event>
<event>
 7    1  0.2679104E-009  0.1059022E+03  0.7561462E-02  0.1268352E+00
          1   -1    0    0  501    0  0.00000000000E+00  0.00000000000E+00  0.41793703277E+03  0.41793703277E+03  0.00000000000E+00 0. -1.
         -1   -1    0    0    0  501 -0.00000000000E+00 -0.00000000000E+00 -0.44450183632E+02  0.44450183632E+02  0.00000000000E+00 0.  1.
         25    2    1    2    0    0 -0.76454695925E+02 -0.33584432510E+02  0.18936108332E+03  0.24182352601E+03  0.12509101974E+03 0.  0.
          5    1    3    3  502    0 -0.19596518266E+02  0.32985988093E+02  0.13089382650E+03  0.13646525255E+03  0.41800000000E+01 0. -1.
         -5    1    3    3    0  502 -0.56858177659E+02 -0.66570420603E+02  0.58467256818E+02  0.10535827346E+03  0.41800000000E+01 0. -1.
        -11    1    1    2    0    0  0.26197255606E+02  0.21456376275E+02  0.51273334239E+01  0.34248530365E+02  0.00000000000E+00 0.  1.
         11    1    1    2    0    0  0.50257440319E+02  0.12128056235E+02  0.17899843240E+03  0.18631516003E+03  0.00000000000E+00 0. -1.
</event>
<event>
 7    1  0.2679104E-009  0.1021631E+03  0.7561462E-02  0.1275812E+00
         -1   -1    0    0    0  501 -0.00000000000E+00  0.00000000000E+00  0.19474777361E+03  0.19474777361E+03  0.00000000000E+00 0.  1.
          1   -1    0    0  501    0  0.00000000000E+00 -0.00000000000E+00 -0.84896212563E+02  0.84896212563E+02  0.00000000000E+00 0. -1.
         25    2    1    2    0    0  0.62749498512E+02 -0.27364948116E+02  0.60951171130E+02  0.15507687067E+03  0.12508977019E+03 0.  0.
          5    1    3    3  502    0  0.30050201617E+02 -0.73052716686E+02  0.59038658797E+02  0.98705367964E+02  0.41800000000E+01 0.  1.
         -5    1    3    3    0  502  0.32699296894E+02  0.45687768571E+02  0.19125123334E+01  0.56371502710E+02  0.41800000000E+01 0.  1.
        -11    1    1    2    0    0 -0.23974599381E+02  0.14563595782E+02  0.72267265330E+02  0.77520560987E+02  0.00000000000E+00 0.  1.
         11    1    1    2    0    0 -0.38774899131E+02  0.12801352334E+02 -0.23366875417E+02  0.47046554507E+02  0.00000000000E+00 0. -1.
</event>
<event>
 7    1  0.2679104E-009  0.1158690E+03  0.7561462E-02  0.1250072E+00
          1   -1    0    0  501    0  0.00000000000E+00  0.00000000000E+00  0.50228678315E+02  0.50228678315E+02  0.00000000000E+00 0. -1.
         -1   -1    0    0    0  501 -0.00000000000E+00 -0.00000000000E+00 -0.43828455373E+03  0.43828455373E+03  0.00000000000E+00 0.  1.
         25    2    1    2    0    0 -0.51329474617E+02  0.27256739447E+02 -0.34445608262E+03  0.37104628589E+03  0.12509080145E+03 0.  0.
          5    1    3    3  502    0  0.76343729410E+01  0.59720802043E+02 -0.94299576952E+02  0.11195865514E+03  0.41800000000E+01 0.  1.
         -5    1    3    3    0  502 -0.58963847558E+02 -0.32464062596E+02 -0.25015650567E+03  0.25908763075E+03  0.41800000000E+01 0.  1.
        -11    1    1    2    0    0  0.23793464705E+02  0.31253911142E+02  0.34560347456E+00  0.39281743420E+02  0.00000000000E+00 0. -1.
         11    1    1    2    0    0  0.27536009912E+02 -0.58510650590E+02 -0.43945396275E+02  0.78185202744E+02  0.00000000000E+00 0.  1.
</event>
<event>
 7    1  0.2679104E-009  0.7058195E+02  0.7561462E-02  0.1358125E+00
         -2   -1    0    0    0  501 -0.00000000000E+00  0.00000000000E+00  0.17626874780E+02  0.17626874780E+02  0.00000000000E+00 0.  1.
          2   -1    0    0  501    0  0.00000000000E+00 -0.00000000000E+00 -0.82698505112E+03  0.82698505112E+03  0.00000000000E+00 0. -1.
         25    2    1    2    0    0 -0.44882110446E+02  0.25566272897E+02 -0.50228515523E+03  0.52020260058E+03  0.12510927359E+03 0.  0.
          5    1    3    3  502    0 -0.96267843315E+00 -0.39803276753E+01  0.64471682691E+01  0.87067868274E+01  0.41800000000E+01 0.  1.
         -5    1    3    3    0  502 -0.43919432013E+02  0.29546600573E+02 -0.50873232350E+03  0.51149581375E+03  0.41800000000E+01 0.  1.
        -11    1    1    2    0    0 -0.16492498331E+02 -0.26662645065E+01 -0.85193987089E+01  0.18753442936E+02  0.00000000000E+00 0.  1.
         11    1    1    2    0    0  0.61374608776E+02 -0.22900008391E+02 -0.29855362241E+03  0.30565588239E+03  0.00000000000E+00 0. -1.
</event>
<event>
 7    1  0.3252323E-009  0.1370387E+03  0.7561462E-02  0.1217370E+00
         -2   -1    0    0    0  501 -0.00000000000E+00  0.00000000000E+00  0.78724019485E+02  0.78724019485E+02  0.00000000000E+00 0.  1.
          2   -1    0    0  501    0  0.00000000000E+00 -0.00000000000E+00 -0.26404354593E+03  0.26404354593E+03  0.00000000000E+00 0. -1.
         25    2    1    2    0    0  0.70463068800E+02 -0.62170222687E+02 -0.87054357575E+02  0.17904192161E+03  0.12508943947E+03 0.  0.
          5    1    3    3  502    0  0.52902927576E+02  0.23097182665E+02 -0.29950119628E+01  0.57953792713E+02  0.41800000000E+01 0.  1.
         -5    1    3    3    0  502  0.17560141224E+02 -0.85267405353E+02 -0.84059345612E+02  0.12108812890E+03  0.41800000000E+01 0.  1.
        -11    1    1    2    0    0 -0.60552627684E+02 -0.53609874062E+01 -0.32450050850E+02  0.68908393579E+02  0.00000000000E+00 0.  1.
         11    1    1    2    0    0 -0.99104411161E+01  0.67531210093E+02 -0.65815118016E+02  0.94817250220E+02  0.00000000000E+00 0. -1.
</event>
<event>
 7    1  0.2679104E-009  0.1036302E+03  0.7561462E-02  0.1272842E+00
          2   -1    0    0  501    0  0.00000000000E+00  0.00000000000E+00  0.77593494917E+03  0.77593494917E+03  0.00000000000E+00 0. -1.
         -2   -1    0    0    0  501 -0.00000000000E+00 -0.00000000000E+00 -0.21974558879E+02  0.21974558879E+02  0.00000000000E+00 0.  1.
         25    2    1    2    0    0 -0.71688153190E+02 -0.10875572496E+02  0.44248733676E+03  0.46551071139E+03  0.12509080639E+03 0.  0.
          5    1    3    3  502    0 -0.22815252411E+02  0.33502082082E+02  0.38219369447E+02  0.55866965617E+02  0.41800000000E+01 0.  1.
         -5    1    3    3    0  502 -0.48872900780E+02 -0.44377654577E+02  0.40426796732E+03  0.40964374578E+03  0.41800000000E+01 0.  1.
        -11    1    1    2    0    0  0.48727091048E+02 -0.27272680251E+02  0.85768383951E+02  0.10234424349E+03  0.00000000000E+00 0.  1.
         11    1    1    2    0    0  0.22961062142E+02  0.38148252747E+02  0.22570466958E+03  0.23005455317E+03  0.00000000000E+00 0. -1.
</event>
<event>
 7    1  0.2679104E-009  0.2248983E+03  0.7561462E-02  0.1130283E+00
          3   -1    0    0  501    0  0.00000000000E+00  0.00000000000E+00  0.22144273783E+03  0.22144273783E+03  0.00000000000E+00 0. -1.
         -3   -1    0    0    0  501 -0.00000000000E+00 -0.00000000000E+00 -0.27440913088E+03  0.27440913088E+03  0.00000000000E+00 0.  1.
         25    2    1    2    0    0 -0.75353175750E+02  0.20387614844E+03 -0.62303158795E+02  0.25840419940E+03  0.12508981443E+03 0.  0.
          5    1    3    3  502    0 -0.26025045575E+02  0.11229402265E+03  0.30096075123E+02  0.11920778774E+03  0.41800000000E+01 0.  1.
         -5    1    3    3    0  502 -0.49328130176E+02  0.91582125796E+02 -0.92399233917E+02  0.13919641166E+03  0.41800000000E+01 0.  1.
        -11    1    1    2    0    0 -0.14669446150E+02 -0.14330274929E+02 -0.16102727537E+02  0.26073880878E+02  0.00000000000E+00 0.  1.
         11    1    1    2    0    0  0.90022621901E+02 -0.18954587351E+03  0.25439493284E+02  0.21137378844E+03  0.00000000000E+00 0. -1.
</event>
<event>
 7    1  0.2679104E-009  0.9463252E+02  0.7561462E-02  0.1292006E+00
          1   -1    0    0  501    0  0.00000000000E+00  0.00000000000E+00  0.16979813289E+03  0.16979813289E+03  0.00000000000E+00 0. -1.
         -1   -1    0    0    0  501 -0.00000000000E+00 -0.00000000000E+00 -0.79885850618E+02  0.79885850618E+02  0.00000000000E+00 0.  1.
         25    2    1    2    0    0  0.30846453013E+02 -0.14176458920E+02  0.77114813971E+02  0.15081994338E+03  0.12508990821E+03 0.  0.
          5    1    3    3  502    0  0.60343988267E+02 -0.31710860923E+02  0.22209862991E+01  0.68332867645E+02  0.41800000000E+01 0. -1.
         -5    1    3    3    0  502 -0.29497535254E+02  0.17534402003E+02  0.74893827672E+02  0.82487075733E+02  0.41800000000E+01 0. -1.
        -11    1    1    2    0    0  0.28998422208E+01 -0.30372960225E+02  0.27499224149E+02  0.41074726128E+02  0.00000000000E+00 0. -1.
         11    1    1    2    0    0 -0.33746295234E+02  0.44549419145E+02 -0.14701755845E+02  0.57789314004E+02  0.00000000000E+00 0.  1.
</event>
<event>
 7    1  0.2679104E-009  0.1538413E+03  0.7561462E-02  0.1195831E+00
          1   -1    0    0  501    0  0.00000000000E+00  0.00000000000E+00  0.34844293873E+03  0.34844293873E+03  0.00000000000E+00 0. -1.
         -1   -1    0    0    0  501 -0.00000000000E+00 -0.00000000000E+00 -0.10944283058E+03  0.10944283058E+03  0.00000000000E+00 0.  1.
         25    2    1    2    0    0  0.13316110255E+03 -0.80610208239E+01  0.23330707548E+03  0.29643854686E+03  0.12508701494E+03 0.  0.
          5    1    3    3  502    0  0.34230220903E+02 -0.49293465309E+02  0.31521144567E+02  0.67916188792E+02  0.41800000000E+01 0.  1.
         -5    1    3    3    0  502  0.98930881643E+02  0.41232444486E+02  0.20178593092E+03  0.22852235807E+03  0.41800000000E+01 0.  1.
        -11    1    1    2    0    0 -0.28111249545E+02 -0.16204570168E+02 -0.33585551766E+02  0.46699247668E+02  0.00000000000E+00 0.  1.
         11    1    1    2    0    0 -0.10504985300E+03  0.24265590992E+02  0.39278584439E+02  0.11474797479E+03  0.00000000000E+00 0. -1.
</event>
<event>
 7    1  0.2679104E-009  0.1705261E+03  0.7561462E-02  0.1177300E+00
         -2   -1    0    0    0  501 -0.00000000000E+00  0.00000000000E+00  0.39904045796E+02  0.39904045796E+02  0.00000000000E+00 0.  1.
          2   -1    0    0  501    0  0.00000000000E+00 -0.00000000000E+00 -0.14656736576E+04  0.14656736576E+04  0.00000000000E+00 0. -1.
         25    2    1    2    0    0  0.52988023515E+02 -0.15822190913E+03 -0.11677950406E+04  0.11862692677E+04  0.12509042854E+03 0.  0.
          5    1    3    3  502    0  0.49325822890E+02 -0.90205072579E+02 -0.99774485897E+03  0.10030365237E+04  0.41800000000E+01 0.  1.
         -5    1    3    3    0  502  0.36622006250E+01 -0.68016836555E+02 -0.17005018165E+03  0.18323274393E+03  0.41800000000E+01 0.  1.
        -11    1    1    2    0    0 -0.48053901926E+02  0.94647891232E+02 -0.88387118113E+02  0.13812922737E+03  0.00000000000E+00 0.  1.
         11    1    1    2    0    0 -0.49341215885E+01  0.63574017903E+02 -0.16958745304E+03  0.18117920834E+03  0.00000000000E+00 0. -1.
</event>
<event>
 7    1  0.2679104E-009  0.8272090E+02  0.7561462E-02  0.1321503E+00
         -2   -1    0    0    0  501 -0.00000000000E+00  0.00000000000E+00  0.28612378162E+02  0.28612378162E+02  0.00000000000E+00 0.  1.
          2   -1    0    0  501    0  0.00000000000E+00 -0.00000000000E+00 -0.52118284634E+03  0.52118284634E+03  0.00000000000E+00 0. -1.
         25    2    1    2    0    0  0.10008736211E+02  0.51144029495E+02 -0.28027204221E+03  0.31131296526E+03  0.12508980031E+03 0.  0.
          5    1    3    3  502    0  0.16587835582E+02  0.55407992145E+02 -0.29137695677E+03  0.29709124056E+03  0.41800000000E+01 0.  1.
         -5    1    3    3    0  502 -0.65790993713E+01 -0.42639626505E+01  0.11104914561E+02  0.14221724699E+02  0.41800000000E+01 0.  1.
        -11    1    1    2    0    0  0.30875688415E+02 -0.48634059864E+02 -0.17045821142E+03  0.17992937991E+03  0.00000000000E+00 0. -1.
         11    1    1    2    0    0 -0.40884424626E+02 -0.25099696302E+01 -0.41840214551E+02  0.58552879333E+02  0.00000000000E+00 0.  1.
</event>
<event>
 7    1  0.2679104E-009  0.1074534E+03  0.7561462E-02  0.1265360E+00
          2   -1    0    0  501    0  0.00000000000E+00  0.00000000000E+00  0.49705010962E+03  0.49705010962E+03  0.00000000000E+00 0. -1.
         -2   -1    0    0    0  501 -0.00000000000E+00 -0.00000000000E+00 -0.32700439119E+02  0.32700439119E+02  0.00000000000E+00 0.  1.
         25    2    1    2    0    0 -0.42649039489E+02 -0.31227894811E+02  0.34014491609E+03  0.36624477735E+03  0.12507018432E+03 0.  0.
          5    1    3    3  502    0  0.15322222588E+02 -0.48356299795E+02  0.26435686554E+03  0.26921204838E+03  0.41800000000E+01 0. -1.
         -5    1    3    3    0  502 -0.57971262077E+02  0.17128404983E+02  0.75788050548E+02  0.97032728963E+02  0.41800000000E+01 0. -1.
        -11    1    1    2    0    0 -0.22834146638E+02 -0.11155570560E+02  0.48769069334E+02  0.54993337151E+02  0.00000000000E+00 0.  1.
         11    1    1    2    0    0  0.65483186127E+02  0.42383465372E+02  0.75435685072E+02  0.10851243424E+03  0.00000000000E+00 0. -1.
</event>
<event>
 7    1  0.2679104E-009  0.9606192E+02  0.7561462E-02  0.1288802E+00
         -1   -1    0    0    0  501 -0.00000000000E+00  0.00000000000E+00  0.27591795801E+02  0.27591795801E+02  0.00000000000E+00 0.  1.
          1   -1    0    0  501    0  0.00000000000E+00 -0.00000000000E+00 -0.49543435978E+03  0.49543435978E+03  0.00000000000E+00 0. -1.
         25    2    1    2    0    0  0.19856251255E+02  0.37005274727E+02 -0.31892299635E+03  0.34514448342E+03  0.12509666567E+03 0.  0.
          5    1    3    3  502    0 -0.33554494069E+02  0.19186376319E+02 -0.25861193791E+02  0.46693627539E+02  0.41800000000E+01 0. -1.
         -5    1    3    3    0  502  0.53410745324E+02  0.17818898408E+02 -0.29306180256E+03  0.29845085588E+03  0.41800000000E+01 0. -1.
        -11    1    1    2    0    0 -0.35123876291E+02  0.18164526073E+02 -0.52116227443E+02  0.65419705411E+02  0.00000000000E+00 0. -1.
         11    1    1    2    0    0  0.15267625036E+02 -0.55169800800E+02 -0.96803340185E+02  0.11246196675E+03  0.00000000000E+00 0.  1.
</event>
<event>
 7    1  0.2679104E-009  0.1729188E+03  0.7561462E-02  0.1174838E+00
          1   -1    0    0  501    0  0.00000000000E+00  0.00000000000E+00  0.24119640364E+03  0.24119640364E+03  0.00000000000E+00 0. -1.
         -1   -1    0    0    0  501 -0.00000000000E+00 -0.00000000000E+00 -0.14750687583E+03  0.14750687583E+03  0.00000000000E+00 0.  1.
         25    2    1    2    0    0  0.77268578634E+02  0.13888985731E+03  0.10142645891E+02  0.20250949430E+03  0.12508555596E+03 0.  0.
          5    1    3    3  502    0  0.90833633451E+02  0.72219615138E+02 -0.34368066565E+02  0.12109937314E+03  0.41800000000E+01 0. -1.
         -5    1    3    3    0  502 -0.13565054816E+02  0.66670242177E+02  0.44510712456E+02  0.81410121161E+02  0.41800000000E+01 0. -1.
        -11    1    1    2    0    0 -0.49679633952E+02 -0.11416607091E+03  0.82062145304E+02  0.14911791800E+03  0.00000000000E+00 0.  1.
         11    1    1    2    0    0 -0.27588944682E+02 -0.24723786402E+02  0.14847366128E+01  0.37075867158E+02  0.00000000000E+00 0. -1.
</event>
<event>
 7    1  0.2679104E-009  0.2025466E+03  0.7561462E-02  0.1147608E+00
          2   -1    0    0  501    0  0.00000000000E+00  0.00000000000E+00  0.40857262819E+03  0.40857262819E+03  0.00000000000E+00 0. -1.
         -2   -1    0    0    0  501 -0.00000000000E+00 -0.00000000000E+00 -0.12729911961E+03  0.12729911961E+03  0.00000000000E+00 0.  1.
         25    2    1    2    0    0 -0.42363915343E+02  0.16840792763E+03  0.26370879364E+03  0.33962476124E+03  0.12508684659E+03 0.  0.
          5    1    3    3  502    0 -0.38996584845E+02 -0.22525037703E+01  0.78112542099E+02  0.87434827363E+02  0.41800000000E+01 0. -1.
         -5    1    3    3    0  502 -0.33673304977E+01  0.17066043140E+03  0.18559625154E+03  0.25218993387E+03  0.41800000000E+01 0. -1.
        -11    1    1    2    0    0 -0.23407044456E+02 -0.88634401247E+02  0.20281887219E+01  0.91695476247E+02  0.00000000000E+00 0.  1.
         11    1    1    2    0    0  0.65770959799E+02 -0.79773526382E+02  0.15536526217E+02  0.10455151032E+03  0.00000000000E+00 0. -1.
</event>
<event>
 7    1  0.2679104E-009  0.6456509E+02  0.7561462E-02  0.1379615E+00
         -2   -1    0    0    0  501 -0.00000000000E+00  0.00000000000E+00  0.17982311764E+02  0.17982311764E+02  0.00000000000E+00 0.  1.
          2   -1    0    0  501    0  0.00000000000E+00 -0.00000000000E+00 -0.73177317789E+03  0.73177317789E+03  0.00000000000E+00 0. -1.
         25    2    1    2    0    0 -0.88622341937E+00 -0.65656754722E+01 -0.50639171884E+03  0.52165468091E+03  0.12508852751E+03 0.  0.
          5    1    3    3  502    0 -0.18757763258E+02 -0.19643105772E+02 -0.49613273015E+03  0.49689321148E+03  0.41800000000E+01 0.  1.
         -5    1    3    3    0  502  0.17871539838E+02  0.13077430300E+02 -0.10258988694E+02  0.24761469433E+02  0.41800000000E+01 0.  1.
        -11    1    1    2    0    0  0.16576541552E+02 -0.32791885238E+02 -0.16153421280E+03  0.16566047015E+03  0.00000000000E+00 0.  1.
         11    1    1    2    0    0 -0.15690318132E+02  0.39357560711E+02 -0.45864934493E+02  0.62440338598E+02  0.00000000000E+00 0. -1.
</event>
<event>
 7    1  0.2679104E-009  0.2111450E+03  0.7561462E-02  0.1140662E+00
          2   -1    0    0  501    0  0.00000000000E+00  0.00000000000E+00  0.11089698643E+04  0.11089698643E+04  0.00000000000E+00 0. -1.
         -2   -1    0    0    0  501 -0.00000000000E+00 -0.00000000000E+00 -0.81394240627E+02  0.81394240627E+02  0.00000000000E+00 0.  1.
         25    2    1    2    0    0  0.18742939551E+03 -0.25254493111E+02  0.93328291053E+03  0.96043308936E+03  0.12508860986E+03 0.  0.
          5    1    3    3  502    0  0.18302800984E+03  0.37319257706E+01  0.64065320229E+03  0.66630862043E+03  0.41800000000E+01 0. -1.
         -5    1    3    3    0  502  0.44013856726E+01 -0.28986418882E+02  0.29262970825E+03  0.29412446893E+03  0.41800000000E+01 0. -1.
        -11    1    1    2    0    0 -0.11441145070E+03  0.59447160526E+02  0.53823077145E+02  0.13971710196E+03  0.00000000000E+00 0.  1.
         11    1    1    2    0    0 -0.73017944813E+02 -0.34192667415E+02  0.40469635974E+02  0.90213913592E+02  0.00000000000E+00 0. -1.
</event>
<event>
 7    1  0.2679104E-009  0.1109801E+03  0.7561462E-02  0.1258766E+00
          2   -1    0    0  501    0  0.00000000000E+00  0.00000000000E+00  0.31683538594E+03  0.31683538594E+03  0.00000000000E+00 0. -1.
         -2   -1    0    0    0  501 -0.00000000000E+00 -0.00000000000E+00 -0.47980833394E+02  0.47980833394E+02  0.00000000000E+00 0.  1.
         25    2    1    2    0    0 -0.42973964148E+02  0.82679557222E+01  0.95663660144E+02  0.16343672060E+03  0.12507959499E+03 0.  0.
          5    1    3    3  502    0 -0.87341012618E+02  0.52720724227E+01  0.68050548154E+02  0.11092608682E+03  0.41800000000E+01 0. -1.
         -5    1    3    3    0  502  0.44367048469E+02  0.29958832995E+01  0.27613111990E+02  0.52510633784E+02  0.41800000000E+01 0. -1.
        -11    1    1    2    0    0  0.28579344511E+02  0.34366601617E+02  0.13549743744E+03  0.14267935307E+03  0.00000000000E+00 0. -1.
         11    1    1    2    0    0  0.14394619637E+02 -0.42634557339E+02  0.37693454967E+02  0.58700145667E+02  0.00000000000E+00 0.  1.
</event>
<event>
 7    1  0.2679104E-009  0.1107342E+03  0.7561462E-02  0.1259216E+00
         -1   -1    0    0    0  501 -0.00000000000E+00  0.00000000000E+00  0.21258996326E+03  0.21258996326E+03  0.00000000000E+00 0.  1.
          1   -1    0    0  501    0  0.00000000000E+00 -0.00000000000E+00 -0.89749507425E+02  0.89749507425E+02  0.00000000000E+00 0. -1.
         25    2    1    2    0    0 -0.10102776067E+02  0.45200622465E+02  0.14577056793E+03  0.19759079990E+03  0.12509157995E+03 0.  0.
          5    1    3    3  502    0 -0.18041561648E+02 -0.35242923061E+02  0.92467090440E+02  0.10067371448E+03  0.41800000000E+01 0.  1.
         -5    1    3    3    0  502  0.79387855815E+01  0.80443545526E+02  0.53303477493E+02  0.96917085419E+02  0.41800000000E+01 0.  1.
        -11    1    1    2    0    0  0.34815787183E+02 -0.61807786422E+02 -0.78473357746E+01  0.71371718337E+02  0.00000000000E+00 0. -1.
         11    1    1    2    0    0 -0.24713011117E+02  0.16607163957E+02 -0.15082776324E+02  0.33376952449E+02  0.00000000000E+00 0.  1.
</event>
<event>
 7    1  0.2679104E-009  0.8207524E+02  0.7561462E-02  0.1323263E+00
          1   -1    0    0  501    0  0.00000000000E+00  0.00000000000E+00  0.70786974232E+03  0.70786974232E+03  0.00000000000E+00 0. -1.
         -1   -1    0    0    0  501 -0.00000000000E+00 -0.00000000000E+00 -0.17315380641E+02  0.17315380641E+02  0.00000000000E+00 0.  1.
         25    2    1    2    0    0 -0.11352367423E+02  0.17224631672E+02  0.34320593345E+03  0.36587489379E+03  0.12509420836E+03 0.  0.
          5    1    3    3  502    0 -0.40422547483E+02  0.79166477831E+01  0.32960895697E+03  0.33219902554E+03  0.41800000000E+01 0.  1.
         -5    1    3    3    0  502  0.29070180060E+02  0.93079838887E+01  0.13596976485E+02  0.33675868249E+02  0.41800000000E+01 0.  1.
        -11    1    1    2    0    0 -0.23188317324E+02 -0.42991781553E+02  0.18483171826E+03  0.19117728792E+03  0.00000000000E+00 0. -1.
         11    1    1    2    0    0  0.34540684747E+02  0.25767149881E+02  0.16251670996E+03  0.16813294125E+03  0.00000000000E+00 0.  1.
</event>
<event>
 7    1  0.2679104E-009  0.1041731E+03  0.7561462E-02  0.1271757E+00
          2   -1    0    0  501    0  0.00000000000E+00  0.00000000000E+00  0.50670665932E+02  0.50670665932E+02  0.00000000000E+00 0. -1.
         -2   -1    0    0    0  501 -0.00000000000E+00 -0.00000000000E+00 -0.25796368434E+03  0.25796368434E+03  0.00000000000E+00 0.  1.
         25    2    1    2    0    0  0.11031685501E+02  0.96313394941E+01 -0.73868651990E+02  0.14600282627E+03  0.12508311935E+03 0.  0.
          5    1    3    3  502    0 -0.28344261198E+02 -0.43881348332E+02 -0.92276249225E+01  0.53212699011E+02  0.41800000000E+01 0.  1.
         -5    1    3    3    0  502  0.39375946699E+02  0.53512687826E+02 -0.64641027068E+02  0.92790127262E+02  0.41800000000E+01 0.  1.
        -11    1    1    2    0    0 -0.12867544104E+02 -0.48642388106E+02 -0.96776836169E+02  0.10907525673E+03  0.00000000000E+00 0.  1.
         11    1    1    2    0    0  0.18358586026E+01  0.39011048612E+02 -0.36647530252E+02  0.53556267273E+02  0.00000000000E+00 0. -1.
</event>
<event>
 7    1  0.2679104E-009  0.1113034E+03  0.7561462E-02  0.1258175E+00
         -2   -1    0    0    0  501 -0.00000000000E+00  0.00000000000E+00  0.14025745318E+02  0.14025745318E+02  0.00000000000E+00 0.  1.
          2   -1    0    0  501    0  0.00000000000E+00 -0.00000000000E+00 -0.12460555458E+04  0.12460555458E+04  0.00000000000E+00 0. -1.
         25    2    1    2    0    0 -0.27731020026E+02  0.13473734670E+02 -0.10016704436E+04  0.10099213653E+04  0.12508771158E+03 0.  0.
          5    1    3    3  502    0  0.48831421719E+02  0.16956518336E+02 -0.37558610055E+03  0.37914960449E+03  0.41800000000E+01 0.  1.
         -5    1    3    3    0  502 -0.76562441744E+02 -0.34827836657E+01 -0.62608434304E+03  0.63077176083E+03  0.41800000000E+01 0.  1.
        -11    1    1    2    0    0  0.27577057879E+02  0.35535867712E+02 -0.14401236477E+03  0.15087363328E+03  0.00000000000E+00 0.  1.
         11    1    1    2    0    0  0.15396214665E+00 -0.49009602382E+02 -0.86346992139E+02  0.99286292515E+02  0.00000000000E+00 0. -1.
</event>
<event>
 7    1  0.2679104E-009  0.1360377E+03  0.7561462E-02  0.1218762E+00
          2   -1    0    0  501    0  0.00000000000E+00  0.00000000000E+00  0.32029886660E+03  0.32029886660E+03  0.00000000000E+00 0.  1.
         -2   -1    0    0    0  501 -0.00000000000E+00 -0.00000000000E+00 -0.59116999552E+02  0.59116999552E+02  0.00000000000E+00 0. -1.
         25    2    1    2    0    0  0.30187523516E+02 -0.79916054531E+02  0.12856850692E+03  0.19868574743E+03  0.12509317692E+03 0.  0.
          5    1    3    3  502    0  0.77970022357E+02 -0.39700860788E+02  0.87570696680E+02  0.12386114020E+03  0.41800000000E+01 0.  1.
         -5    1    3    3    0  502 -0.47782498841E+02 -0.40215193744E+02  0.40997810235E+02  0.74824607232E+02  0.41800000000E+01 0.  1.
        -11    1    1    2    0    0 -0.58540965308E+02  0.33367216405E+02  0.84082043028E+02  0.10775066454E+03  0.00000000000E+00 0.  1.
         11    1    1    2    0    0  0.28353441792E+02  0.46548838127E+02  0.48531317102E+02  0.72979454178E+02  0.00000000000E+00 0. -1.
</event>
<event>
 7    1  0.2679104E-009  0.1134006E+03  0.7561462E-02  0.1254399E+00
          2   -1    0    0  501    0  0.00000000000E+00  0.00000000000E+00  0.26495411892E+03  0.26495411892E+03  0.00000000000E+00 0. -1.
         -2   -1    0    0    0  501 -0.00000000000E+00 -0.00000000000E+00 -0.72069882841E+02  0.72069882841E+02  0.00000000000E+00 0.  1.
         25    2    1    2    0    0  0.15062485951E+01 -0.81721485028E+02  0.80593305832E+02  0.16976641685E+03  0.12507871699E+03 0.  0.
          5    1    3    3  502    0  0.44344221454E+02 -0.74960962746E+02  0.89872432188E+02  0.12522013568E+03  0.41800000000E+01 0.  1.
         -5    1    3    3    0  502 -0.42837972859E+02 -0.67605222824E+01 -0.92791263559E+01  0.44546281171E+02  0.41800000000E+01 0.  1.
        -11    1    1    2    0    0  0.18765161173E+02  0.70316372755E+02  0.25047600169E+02  0.76966913836E+02  0.00000000000E+00 0.  1.
         11    1    1    2    0    0 -0.20271409768E+02  0.11405112273E+02  0.87243330075E+02  0.90290671071E+02  0.00000000000E+00 0. -1.
</event>
<event>
 7    1  0.2679104E-009  0.1024062E+03  0.7561462E-02  0.1275316E+00
          2   -1    0    0  501    0  0.00000000000E+00  0.00000000000E+00  0.26943718238E+03  0.26943718238E+03  0.00000000000E+00 0. -1.
         -2   -1    0    0    0  501 -0.00000000000E+00 -0.00000000000E+00 -0.50193690113E+02  0.50193690113E+02  0.00000000000E+00 0.  1.
         25    2    1    2    0    0 -0.11087961391E+02 -0.30995106446E+02  0.87400489574E+02  0.15610803424E+03  0.12508890145E+03 0.  0.
          5    1    3    3  502    0 -0.42008549509E+02  0.35745879021E+02  0.31781950193E+02  0.63796950216E+02  0.41800000000E+01 0. -1.
         -5    1    3    3    0  502  0.30920588118E+02 -0.66740985467E+02  0.55618539381E+02  0.92311084023E+02  0.41800000000E+01 0. -1.
        -11    1    1    2    0    0 -0.25094573239E+02 -0.40848513797E+01  0.35311665999E+01  0.25668906374E+02  0.00000000000E+00 0.  1.
         11    1    1    2    0    0  0.36182534631E+02  0.35079957826E+02  0.12831183610E+03  0.13785393188E+03  0.00000000000E+00 0. -1.
</event>
<event>
 7    1  0.2679104E-009  0.9861629E+02  0.7561462E-02  0.1283233E+00
         -2   -1    0    0    0  501 -0.00000000000E+00  0.00000000000E+00  0.10965520819E+03  0.10965520819E+03  0.00000000000E+00 0. -1.
          2   -1    0    0  501    0  0.00000000000E+00 -0.00000000000E+00 -0.11922217916E+03  0.11922217916E+03  0.00000000000E+00 0.  1.
         25    2    1    2    0    0  0.32258010272E+02  0.10660361838E+02 -0.19193210859E+02  0.13103700057E+03  0.12509234043E+03 0.  0.
          5    1    3    3  502    0 -0.24554430781E+02 -0.43031029064E+02  0.25731219087E+01  0.49786372529E+02  0.41800000000E+01 0.  1.
         -5    1    3    3    0  502  0.56812441053E+02  0.53691390901E+02 -0.21766332768E+02  0.81250628044E+02  0.41800000000E+01 0.  1.
        -11    1    1    2    0    0 -0.25284191977E+02 -0.35414531770E+02  0.39257001187E+02  0.58605388546E+02  0.00000000000E+00 0. -1.
         11    1    1    2    0    0 -0.69738182951E+01  0.24754169932E+02 -0.29630761303E+02  0.39234998229E+02  0.00000000000E+00 0.  1.
</event>
<event>
 7    1  0.2679104E-009  0.1803931E+03  0.7561462E-02  0.1167423E+00
          2   -1    0    0  501    0  0.00000000000E+00  0.00000000000E+00  0.27490113034E+03  0.27490113034E+03  0.00000000000E+00 0. -1.
         -2   -1    0    0    0  501 -0.00000000000E+00 -0.00000000000E+00 -0.18315405338E+03  0.18315405338E+03  0.00000000000E+00 0.  1.
         25    2    1    2    0    0 -0.13989983460E+03 -0.79671437065E+02  0.16310707970E+03  0.26109427891E+03  0.12508717532E+03 0.  0.
          5    1    3    3  502    0 -0.15569654436E+03 -0.83495384146E+02  0.11677807663E+03  0.21181946247E+03  0.41800000000E+01 0.  1.
         -5    1    3    3    0  502  0.15796709761E+02  0.38239470808E+01  0.46329003065E+02  0.49274816444E+02  0.41800000000E+01 0.  1.
        -11    1    1    2    0    0  0.87855152536E+02  0.74117289290E+02 -0.86351488874E+01  0.11526693453E+03  0.00000000000E+00 0. -1.
         11    1    1    2    0    0  0.52044682061E+02  0.55541477747E+01 -0.62724853854E+02  0.81693970275E+02  0.00000000000E+00 0.  1.
</event>
<event>
 7    1  0.2679104E-009  0.9287232E+02  0.7561462E-02  0.1296041E+00
         -1   -1    0    0    0  501 -0.00000000000E+00  0.00000000000E+00  0.40883522613E+02  0.40883522613E+02  0.00000000000E+00 0.  1.
          1   -1    0    0  501    0  0.00000000000E+00 -0.00000000000E+00 -0.44680506823E+03  0.44680506823E+03  0.00000000000E+00 0. -1.
         25    2    1    2    0    0 -0.33735232072E+02  0.43931795850E+02 -0.33240078058E+03  0.35945224996E+03  0.12509025741E+03 0.  0.
          5    1    3    3  502    0  0.19490669093E+02  0.66452626514E+02 -0.24464192623E+03  0.25428917047E+03  0.41800000000E+01 0.  1.
         -5    1    3    3    0  502 -0.53225901166E+02 -0.22520830664E+02 -0.87758854351E+02  0.10516307948E+03  0.41800000000E+01 0.  1.
        -11    1    1    2    0    0  0.23209218731E+02 -0.41605643718E+02 -0.93836471697E+02  0.10523773488E+03  0.00000000000E+00 0. -1.
         11    1    1    2    0    0  0.10526013342E+02 -0.23261521320E+01  0.20315706664E+02  0.22998605999E+02  0.00000000000E+00 0.  1.
</event>
<event>
 7    1  0.2679104E-009  0.8197369E+02  0.7561462E-02  0.1323542E+00
         -2   -1    0    0    0  501 -0.00000000000E+00  0.00000000000E+00  0.87193062624E+02  0.87193062624E+02  0.00000000000E+00 0.  1.
          2   -1    0    0  501    0  0.00000000000E+00 -0.00000000000E+00 -0.17300408282E+03  0.17300408282E+03  0.00000000000E+00 0. -1.
         25    2    1    2    0    0  0.12073051817E+02  0.25493433301E+02  0.39089659034E+01  0.12828859245E+03  0.12508800589E+03 0.  0.
          5    1    3    3  502    0 -0.31572831352E+00 -0.24885009171E+02 -0.48345689088E+02  0.54535689408E+02  0.41800000000E+01 0. -1.
         -5    1    3    3    0  502  0.12388780130E+02  0.50378442472E+02  0.52254654991E+02  0.73752903043E+02  0.41800000000E+01 0. -1.
        -11    1    1    2    0    0  0.24880728936E+02  0.17163745102E+02 -0.58030110443E+01  0.30778559997E+02  0.00000000000E+00 0.  1.
         11    1    1    2    0    0 -0.36953780753E+02 -0.42657178403E+02 -0.83916975057E+02  0.10112999300E+03  0.00000000000E+00 0. -1.
</event>
<event>
 7    1  0.2679104E-009  0.1268646E+03  0.7561462E-02  0.1232184E+00
         -1   -1    0    0    0  501 -0.00000000000E+00  0.00000000000E+00  0.60248045931E+02  0.60248045931E+02  0.00000000000E+00 0.  1.
          1   -1    0    0  501    0  0.00000000000E+00 -0.00000000000E+00 -0.47897045961E+03  0.47897045961E+03  0.00000000000E+00 0. -1.
         25    2    1    2    0    0 -0.11272016205E+03  0.53215303905E+02 -0.16114883595E+03  0.23906908372E+03  0.12508947182E+03 0.  0.
          5    1    3    3  502    0 -0.80265029270E+02  0.49861042488E+02 -0.23383915308E+02  0.97431403443E+02  0.41800000000E+01 0.  1.
         -5    1    3    3    0  502 -0.32455132779E+02  0.33542614164E+01 -0.13776492065E+03  0.14163768028E+03  0.41800000000E+01 0.  1.
        -11    1    1    2    0    0  0.64993565719E+02 -0.41481331653E+02 -0.63308998524E+02  0.99764190744E+02  0.00000000000E+00 0.  1.
         11    1    1    2    0    0  0.47726596330E+02 -0.11733972252E+02 -0.19426457921E+03  0.20038523108E+03  0.00000000000E+00 0. -1.
</event>
<event>
 7    1  0.2679104E-009  0.1488617E+03  0.7561462E-02  0.1201879E+00
          1   -1    0    0  501    0  0.00000000000E+00  0.00000000000E+00  0.21781898755E+03  0.21781898755E+03  0.00000000000E+00 0. -1.
         -1   -1    0    0    0  501 -0.00000000000E+00 -0.00000000000E+00 -0.16556365356E+03  0.16556365356E+03  0.00000000000E+00 0.  1.
         25    2    1    2    0    0 -0.13972280592E+03  0.31118883924E+02  0.88661408625E+02  0.20976034047E+03  0.12509079753E+03 0.  0.
          5    1    3    3  502    0 -0.12483415412E+02  0.97704460444E+01  0.78590788551E+02  0.80282511927E+02  0.41800000000E+01 0.  1.
         -5    1    3    3    0  502 -0.12723939051E+03  0.21348437879E+02  0.10070620074E+02  0.12947782855E+03  0.41800000000E+01 0.  1.
        -11    1    1    2    0    0  0.10074307042E+03 -0.45702677851E+02  0.10252676819E+02  0.11109913763E+03  0.00000000000E+00 0. -1.
         11    1    1    2    0    0  0.38979735498E+02  0.14583793927E+02 -0.46658751450E+02  0.62523163001E+02  0.00000000000E+00 0.  1.
</event>
<event>
 7    1  0.2679104E-009  0.1049309E+03  0.7561462E-02  0.1270256E+00
          2   -1    0    0  501    0  0.00000000000E+00  0.00000000000E+00  0.85225519312E+03  0.85225519312E+03  0.00000000000E+00 0. -1.
         -2   -1    0    0    0  501 -0.00000000000E+00 -0.00000000000E+00 -0.29501251766E+02  0.29501251766E+02  0.00000000000E+00 0.  1.
         25    2    1    2    0    0 -0.22308884857E+02 -0.37018604455E+02  0.74197206760E+03  0.75368425691E+03  0.12509734853E+03 0.  0.
          5    1    3    3  502    0 -0.73093066652E+02 -0.16504592678E+02  0.35615089597E+03  0.36397243174E+03  0.41800000000E+01 0. -1.
         -5    1    3    3    0  502  0.50784181795E+02 -0.20514011777E+02  0.38582117163E+03  0.38971182517E+03  0.41800000000E+01 0. -1.
        -11    1    1    2    0    0  0.55919169626E+01  0.55026914870E+02  0.86660807531E+02  0.10280722960E+03  0.00000000000E+00 0. -1.
         11    1    1    2    0    0  0.16716967894E+02 -0.18008310415E+02 -0.58789337697E+01  0.25264958378E+02  0.00000000000E+00 0.  1.
</event>
<event>
 7    1  0.2679104E-009  0.1615681E+03  0.7561462E-02  0.1186938E+00
         -1   -1    0    0    0  501 -0.00000000000E+00  0.00000000000E+00  0.11232683369E+03  0.11232683369E+03  0.00000000000E+00 0.  1.
          1   -1    0    0  501    0  0.00000000000E+00 -0.00000000000E+00 -0.25388904697E+03  0.25388904697E+03  0.00000000000E+00 0. -1.
         25    2    1    2    0    0  0.11151850161E+03  0.56781913677E+02 -0.43050202888E+02  0.18209761172E+03  0.12508260591E+03 0.  0.
          5    1    3    3  502    0 -0.25184034299E+02  0.11590600827E+02  0.82020338166E+01  0.29211699194E+02  0.41800000000E+01 0. -1.
         -5    1    3    3    0  502  0.13670253591E+03  0.45191312850E+02 -0.51252236705E+02  0.15288591252E+03  0.41800000000E+01 0. -1.
        -11    1    1    2    0    0 -0.33316853391E+02 -0.64380440559E+02 -0.25451486727E+02  0.76828588579E+02  0.00000000000E+00 0.  1.
         11    1    1    2    0    0 -0.78201648220E+02  0.75985268826E+01 -0.73060523659E+02  0.10728968036E+03  0.00000000000E+00 0. -1.
</event>
<event>
 7    1  0.2679104E-009  0.1093919E+03  0.7561462E-02  0.1261700E+00
         -2   -1    0    0    0  501 -0.00000000000E+00  0.00000000000E+00  0.23167175190E+02  0.23167175190E+02  0.00000000000E+00 0.  1.
          2   -1    0    0  501    0  0.00000000000E+00 -0.00000000000E+00 -0.65052148519E+03  0.65052148519E+03  0.00000000000E+00 0. -1.
         25    2    1    2    0    0 -0.41697118875E+02 -0.34384717361E+02 -0.29241356254E+03  0.32260501833E+03  0.12508935919E+03 0.  0.
          5    1    3    3  502    0 -0.76971202662E+02 -0.16987938397E+02 -0.25921415086E+03  0.27096605783E+03  0.41800000000E+01 0.  1.
         -5    1    3    3    0  502  0.35274083787E+02 -0.17396778965E+02 -0.33199411681E+02  0.51638960498E+02  0.41800000000E+01 0.  1.
        -11    1    1    2    0    0 -0.21742022297E+01 -0.25760313883E+02 -0.46631682587E+02  0.53318240290E+02  0.00000000000E+00 0.  1.
         11    1    1    2    0    0  0.43871321105E+02  0.60145031244E+02 -0.28830906487E+03  0.29776540175E+03  0.00000000000E+00 0. -1.
</event>
<event>
 7    1  0.2735643E-009  0.1019505E+03  0.7561462E-02  0.1276247E+00
          2   -1    0    0  501    0  0.00000000000E+00  0.00000000000E+00  0.49720924979E+03  0.49720924979E+03  0.00000000000E+00 0. -1.
         -2   -1    0    0    0  501 -0.00000000000E+00 -0.00000000000E+00 -0.30029886117E+02  0.30029886117E+02  0.00000000000E+00 0.  1.
         25    2    1    2    0    0 -0.34408346952E+02  0.85208533161E+01  0.35832478079E+03  0.38118320168E+03  0.12508974953E+03 0.  0.
          5    1    3    3  502    0 -0.72752180846E+02  0.34379509322E+02  0.18581701508E+03  0.20253460439E+03  0.41800000000E+01 0.  1.
         -5    1    3    3    0  502  0.38343833894E+02 -0.25858656005E+02  0.17250776570E+03  0.17864859730E+03  0.41800000000E+01 0.  1.
        -11    1    1    2    0    0  0.13718766788E+02  0.30098137302E+02  0.51489856434E+01  0.33475580419E+02  0.00000000000E+00 0.  1.
         11    1    1    2    0    0  0.20689580164E+02 -0.38618990618E+02  0.10370559724E+03  0.11258035380E+03  0.00000000000E+00 0. -1.
</event>
<event>
 7    1  0.2679104E-009  0.1194765E+03  0.7561462E-02  0.1243963E+00
         -2   -1    0    0    0  501 -0.00000000000E+00  0.00000000000E+00  0.94198960659E+02  0.94198960659E+02  0.00000000000E+00 0.  1.
          2   -1    0    0  501    0  0.00000000000E+00 -0.00000000000E+00 -0.20620704138E+03  0.20620704138E+03  0.00000000000E+00 0. -1.
         25    2    1    2    0    0  0.71774732800E+02 -0.38562107158E+02 -0.10019789568E+03  0.17978925580E+03  0.12508361134E+03 0.  0.
          5    1    3    3  502    0 -0.12819205885E+02 -0.50997330380E+02 -0.72809141085E+02  0.89909416476E+02  0.41800000000E+01 0. -1.
         -5    1    3    3    0  502  0.84593938684E+02  0.12435223222E+02 -0.27388754595E+02  0.89879839324E+02  0.41800000000E+01 0. -1.
        -11    1    1    2    0    0  0.13239581263E+01 -0.11771868885E+02 -0.27997580762E+02  0.30400563987E+02  0.00000000000E+00 0.  1.
         11    1    1    2    0    0 -0.73098690926E+02  0.50333976043E+02  0.16187395725E+02  0.90216182250E+02  0.00000000000E+00 0. -1.
</event>
<event>
 7    1  0.2679104E-009  0.1539365E+03  0.7561462E-02  0.1195718E+00
         -1   -1    0    0    0  501 -0.00000000000E+00  0.00000000000E+00  0.15612546156E+03  0.15612546156E+03  0.00000000000E+00 0.  1.
          1   -1    0    0  501    0  0.00000000000E+00 -0.00000000000E+00 -0.17871544223E+03  0.17871544223E+03  0.00000000000E+00 0. -1.
         25    2    1    2    0    0  0.10259994176E+03  0.71982584340E+02 -0.78372075704E+01  0.17725161980E+03  0.12509386237E+03 0.  0.
          5    1    3    3  502    0  0.87088117444E+02  0.91134648617E+02 -0.43748644156E+02  0.13349636940E+03  0.41800000000E+01 0. -1.
         -5    1    3    3    0  502  0.15511824317E+02 -0.19152064277E+02  0.35911436586E+02  0.43755250398E+02  0.41800000000E+01 0. -1.
        -11    1    1    2    0    0 -0.89978455911E+02 -0.94783005403E+02 -0.14825515278E+02  0.13152846287E+03  0.00000000000E+00 0. -1.
         11    1    1    2    0    0 -0.12621485850E+02  0.22800421063E+02  0.72742179176E-01  0.26060821114E+02  0.00000000000E+00 0.  1.
</event>
<event>
 7    1  0.2679104E-009  0.1275083E+03  0.7561462E-02  0.1231201E+00
          2   -1    0    0  501    0  0.00000000000E+00  0.00000000000E+00  0.11515379837E+04  0.11515379837E+04  0.00000000000E+00 0. -1.
         -2   -1    0    0    0  501 -0.00000000000E+00 -0.00000000000E+00 -0.24905135070E+02  0.24905135070E+02  0.00000000000E+00 0.  1.
         25    2    1    2    0    0  0.72562074354E+02  0.73029914758E+02  0.88369497435E+03  0.89842346382E+03  0.12509712052E+03 0.  0.
          5    1    3    3  502    0 -0.14758863436E+02  0.19291400258E+02  0.31132351378E+02  0.39707403291E+02  0.41800000000E+01 0.  1.
         -5    1    3    3    0  502  0.87320937790E+02  0.53738514500E+02  0.85256262297E+03  0.85871606052E+03  0.41800000000E+01 0.  1.
        -11    1    1    2    0    0 -0.28503130268E+02 -0.78350440882E+02  0.19811476057E+03  0.21494343064E+03  0.00000000000E+00 0. -1.
         11    1    1    2    0    0 -0.44058944086E+02  0.53205261242E+01  0.44823113762E+02  0.63076224360E+02  0.00000000000E+00 0.  1.
</event>
<event>
 7    1  0.2679104E-009  0.2288959E+03  0.7561462E-02  0.1127419E+00
          1   -1    0    0  501    0  0.00000000000E+00  0.00000000000E+00  0.33096772411E+03  0.33096772411E+03  0.00000000000E+00 0. -1.
         -1   -1    0    0    0  501 -0.00000000000E+00 -0.00000000000E+00 -0.20147008902E+03  0.20147008902E+03  0.00000000000E+00 0.  1.
         25    2    1    2    0    0 -0.14086164151E+03  0.17540784697E+03  0.13367112711E+03  0.29004624902E+03  0.12509572942E+03 0.  0.
          5    1    3    3  502    0 -0.80317536553E+02  0.14278731360E+03  0.31602168817E+02  0.16689905055E+03  0.41800000000E+01 0.  1.
         -5    1    3    3    0  502 -0.60544104953E+02  0.32620533377E+02  0.10206895829E+03  0.12314719847E+03  0.41800000000E+01 0.  1.
        -11    1    1    2    0    0  0.10282955439E+03 -0.12478902429E+03  0.38272771517E+02  0.16616564891E+03  0.00000000000E+00 0.  1.
         11    1    1    2    0    0  0.38032087114E+02 -0.50618822687E+02 -0.42446263535E+02  0.76225915203E+02  0.00000000000E+00 0. -1.
</event>
<event>
 7    1  0.2679104E-009  0.9727178E+02  0.7561462E-02  0.1286140E+00
         -3   -1    0    0    0  501 -0.00000000000E+00  0.00000000000E+00  0.10298054926E+03  0.10298054926E+03  0.00000000000E+00 0.  1.
          3   -1    0    0  501    0  0.00000000000E+00 -0.00000000000E+00 -0.26501399547E+03  0.26501399547E+03  0.00000000000E+00 0. -1.
         25    2    1    2    0    0 -0.40334876198E+02 -0.43260710037E+02 -0.20610257814E+03  0.24824279438E+03  0.12509125059E+03 0.  0.
          5    1    3    3  502    0  0.21022414032E+01  0.18183599544E+02 -0.15845419054E+03  0.15956273252E+03  0.41800000000E+01 0. -1.
         -5    1    3    3    0  502 -0.42437117601E+02 -0.61444309580E+02 -0.47648387603E+02  0.88680061858E+02  0.41800000000E+01 0. -1.
        -11    1    1    2    0    0 -0.16637461418E+02  0.40673804411E+02 -0.53737711268E+01  0.44272349202E+02  0.00000000000E+00 0. -1.
         11    1    1    2    0    0  0.56972337616E+02  0.25869056258E+01  0.49442903060E+02  0.75479401145E+02  0.00000000000E+00 0.  1.
</event>
<event>
 7    1  0.2679104E-009  0.2842480E+03  0.7561462E-02  0.1093391E+00
          2   -1    0    0  501    0  0.00000000000E+00  0.00000000000E+00  0.98074226557E+03  0.98074226557E+03  0.00000000000E+00 0. -1.
         -2   -1    0    0    0  501 -0.00000000000E+00 -0.00000000000E+00 -0.10080010675E+03  0.10080010675E+03  0.00000000000E+00 0.  1.
         25    2    1    2    0    0  0.20884024443E+03  0.18362362459E+03  0.27874846927E+03  0.41313505989E+03  0.12509190776E+03 0.  0.
          5    1    3    3  502    0  0.58479341022E+02  0.58593418815E+02  0.14146453016E+02  0.84086958488E+02  0.41800000000E+01 0.  1.
         -5    1    3    3    0  502  0.15036090341E+03  0.12503020577E+03  0.26460201625E+03  0.32904810140E+03  0.41800000000E+01 0.  1.
        -11    1    1    2    0    0 -0.17078031833E+03 -0.99437201160E+02  0.44550761301E+03  0.48737122130E+03  0.00000000000E+00 0.  1.
         11    1    1    2    0    0 -0.38059926102E+02 -0.84186423427E+02  0.15568607654E+03  0.18103609114E+03  0.00000000000E+00 0. -1.
</event>
<event>
 7    1  0.2679104E-009  0.1260571E+03  0.7561462E-02  0.1233426E+00
          1   -1    0    0  501    0  0.00000000000E+00  0.00000000000E+00  0.45910447508E+03  0.45910447508E+03  0.00000000000E+00 0. -1.
         -1   -1    0    0    0  501 -0.00000000000E+00 -0.00000000000E+00 -0.57768689255E+02  0.57768689255E+02  0.00000000000E+00 0.  1.
         25    2    1    2    0    0 -0.62337053367E+01  0.95845996521E+02  0.96763196472E+02  0.18503052196E+03  0.12509142150E+03 0.  0.
          5    1    3    3  502    0  0.26139471437E+02  0.11514004977E+03  0.61241110891E+02  0.13307309680E+03  0.41800000000E+01 0. -1.
         -5    1    3    3    0  502 -0.32373176774E+02 -0.19294053248E+02  0.35522085581E+02  0.51957425159E+02  0.41800000000E+01 0. -1.
        -11    1    1    2    0    0  0.25078497578E+01 -0.45438401729E+02  0.34568448273E+02  0.57148187006E+02  0.00000000000E+00 0.  1.
         11    1    1    2    0    0  0.37258555789E+01 -0.50407594792E+02  0.27000414108E+03  0.27469445537E+03  0.00000000000E+00 0. -1.
</event>
<event>
 7    1  0.2679104E-009  0.7175731E+02  0.7561462E-02  0.1354217E+00
          1   -1    0    0  501    0  0.00000000000E+00  0.00000000000E+00  0.14641372933E+03  0.14641372933E+03  0.00000000000E+00 0. -1.
         -1   -1    0    0    0  501 -0.00000000000E+00 -0.00000000000E+00 -0.95661892818E+02  0.95661892818E+02  0.00000000000E+00 0.  1.
         25    2    1    2    0    0 -0.26457516574E+02 -0.23042246922E+02  0.48512112857E+02  0.13868217017E+03  0.12509346068E+03 0.  0.
          5    1    3    3  502    0 -0.48703701257E+02  0.89145134947E+01 -0.24824184355E+02  0.55544861112E+02  0.41800000000E+01 0.  1.
         -5    1    3    3    0  502  0.22246184684E+02 -0.31956760416E+02  0.73336297213E+02  0.83137309063E+02  0.41800000000E+01 0.  1.
        -11    1    1    2    0    0  0.23682109595E+01  0.29603118440E+02  0.44977518045E+02  0.53897404149E+02  0.00000000000E+00 0. -1.
         11    1    1    2    0    0  0.24089305614E+02 -0.65608715187E+01 -0.42737794395E+02  0.49496047820E+02  0.00000000000E+00 0.  1.
</event>
<event>
 7    1  0.2679104E-009  0.1074444E+03  0.7561462E-02  0.1265377E+00
          1   -1    0    0  501    0  0.00000000000E+00  0.00000000000E+00  0.22088028808E+03  0.22088028808E+03  0.00000000000E+00 0. -1.
         -1   -1    0    0    0  501 -0.00000000000E+00 -0.00000000000E+00 -0.81531837468E+02  0.81531837468E+02  0.00000000000E+00 0.  1.
         25    2    1    2    0    0  0.18650280265E+02  0.29942168912E+02  0.15617269484E+03  0.20317820306E+03  0.12508838936E+03 0.  0.
          5    1    3    3  502    0 -0.34667301614E+02 -0.28429975444E+02  0.87370399973E+02  0.98291121147E+02  0.41800000000E+01 0. -1.
         -5    1    3    3    0  502  0.53317581879E+02  0.58372144356E+02  0.68802294868E+02  0.10488708192E+03  0.41800000000E+01 0. -1.
        -11    1    1    2    0    0 -0.45891740248E+02 -0.40762269625E+02  0.65694256864E+01  0.61731449050E+02  0.00000000000E+00 0.  1.
         11    1    1    2    0    0  0.27241459984E+02  0.10820100713E+02 -0.23393669916E+02  0.37502473433E+02  0.00000000000E+00 0. -1.
</event>
<event>
 7    1  0.2679104E-009  0.4297489E+03  0.7561462E-02  0.1033939E+00
          1   -1    0    0  501    0  0.00000000000E+00  0.00000000000E+00  0.32451494993E+04  0.32451494993E+04  0.00000000000E+00 0. -1.
         -1   -1    0    0    0  501 -0.00000000000E+00 -0.00000000000E+00 -0.64133000846E+02  0.64133000846E+02  0.00000000000E+00 0.  1.
         25    2    1    2    0    0  0.53777144177E+02  0.41672855945E+03  0.10956473273E+04  0.11801041556E+04  0.12509228050E+03 0.  0.
          5    1    3    3  502    0 -0.35355715883E+02  0.20990476466E+03  0.55252771283E+03  0.59212699881E+03  0.41800000000E+01 0. -1.
         -5    1    3    3    0  502  0.89132860060E+02  0.20682379479E+03  0.54311961448E+03  0.58797715676E+03  0.41800000000E+01 0. -1.
        -11    1    1    2    0    0  0.24665299634E+01 -0.73195507294E+02  0.22812902686E+03  0.23959657542E+03  0.00000000000E+00 0. -1.
         11    1    1    2    0    0 -0.56243674140E+02 -0.34353305215E+03  0.18572401443E+04  0.18895817692E+04  0.00000000000E+00 0.  1.
</event>
<event>
 7    1  0.2679104E-009  0.1563236E+03  0.7561462E-02  0.1192911E+00
          2   -1    0    0  501    0  0.00000000000E+00  0.00000000000E+00  0.14877607924E+04  0.14877607924E+04  0.00000000000E+00 0. -1.
         -2   -1    0    0    0  501 -0.00000000000E+00 -0.00000000000E+00 -0.17562807221E+02  0.17562807221E+02  0.00000000000E+00 0.  1.
         25    2    1    2    0    0  0.11796705688E+03  0.18502523899E+02  0.89562633644E+03  0.91216802822E+03  0.12508160247E+03 0.  0.
          5    1    3    3  502    0 -0.10411951868E+02  0.36483335585E+02  0.12481067438E+03  0.13051673976E+03  0.41800000000E+01 0.  1.
         -5    1    3    3    0  502  0.12837900875E+03 -0.17980811686E+02  0.77081566206E+03  0.78165128846E+03  0.41800000000E+01 0.  1.
        -11    1    1    2    0    0 -0.88429177782E+02 -0.50009360939E+02  0.44950908543E+03  0.46084604105E+03  0.00000000000E+00 0. -1.
         11    1    1    2    0    0 -0.29537879097E+02  0.31506837040E+02  0.12506256331E+03  0.13230953036E+03  0.00000000000E+00 0.  1.
</event>
<event>
 7    1  0.2679104E-009  0.2072400E+03  0.7561462E-02  0.1143770E+00
         -2   -1    0    0    0  501 -0.00000000000E+00  0.00000000000E+00  0.69326367322E+02  0.69326367322E+02  0.00000000000E+00 0. -1.
          2   -1    0    0  501    0  0.00000000000E+00 -0.00000000000E+00 -0.10156467137E+04  0.10156467137E+04  0.00000000000E+00 0.  1.
         25    2    1    2    0    0 -0.16606892865E+03 -0.10821755051E+03 -0.77528252049E+03  0.80993973229E+03  0.12509778606E+03 0.  0.
          5    1    3    3  502    0 -0.11559144889E+03 -0.99492288795E+02 -0.35325786863E+03  0.38479695001E+03  0.41800000000E+01 0.  1.
         -5    1    3    3    0  502 -0.50477479755E+02 -0.87252617124E+01 -0.42202465186E+03  0.42514278229E+03  0.41800000000E+01 0.  1.
        -11    1    1    2    0    0  0.10516431633E+03  0.26241134280E+02 -0.11701014002E+03  0.15949765962E+03  0.00000000000E+00 0.  1.
         11    1    1    2    0    0  0.60904612321E+02  0.81976416228E+02 -0.54027685895E+02  0.11553568913E+03  0.00000000000E+00 0. -1.
</event>
<event>
 7    1  0.2679104E-009  0.1286804E+03  0.7561462E-02  0.1229427E+00
          2   -1    0    0  501    0  0.00000000000E+00  0.00000000000E+00  0.99115950170E+02  0.99115950170E+02  0.00000000000E+00 0.  1.
         -2   -1    0    0    0  501 -0.00000000000E+00 -0.00000000000E+00 -0.26320320656E+03  0.26320320656E+03  0.00000000000E+00 0. -1.
         25    2    1    2    0    0 -0.33754060377E+02  0.10014035816E+03 -0.25703470267E+02  0.16575263526E+03  0.12508333137E+03 0.  0.
          5    1    3    3  502    0  0.24302291265E+02  0.88178958403E+02 -0.46630824098E+02  0.10275230519E+03  0.41800000000E+01 0. -1.
         -5    1    3    3    0  502 -0.58056351642E+02  0.11961399752E+02  0.20927353832E+02  0.63000330066E+02  0.41800000000E+01 0. -1.
        -11    1    1    2    0    0  0.98576406899E+01 -0.48260843313E+02 -0.12976774249E+03  0.13880183380E+03  0.00000000000E+00 0. -1.
         11    1    1    2    0    0  0.23896419687E+02 -0.51879514842E+02 -0.86160436415E+01  0.57764687675E+02  0.00000000000E+00 0.  1.
</event>
<event>
 7    1  0.2679104E-009  0.1049030E+03  0.7561462E-02  0.1270311E+00
          1   -1    0    0  501    0  0.00000000000E+00  0.00000000000E+00  0.11007176926E+03  0.11007176926E+03  0.00000000000E+00 0. -1.
         -1   -1    0    0    0  501 -0.00000000000E+00 -0.00000000000E+00 -0.12772551346E+03  0.12772551346E+03  0.00000000000E+00 0.  1.
         25    2    1    2    0    0 -0.56888896879E+01  0.25527405342E+02 -0.53982665768E+02  0.13872757158E+03  0.12508876458E+03 0.  0.
          5    1    3    3  502    0  0.37239408968E+01 -0.45673681244E+02  0.41940542270E+01  0.46206226691E+02  0.41800000000E+01 0.  1.
         -5    1    3    3    0  502 -0.94128305847E+01  0.71201086586E+02 -0.58176719995E+02  0.92521344889E+02  0.41800000000E+01 0.  1.
        -11    1    1    2    0    0 -0.17746155848E+02  0.28150755266E+02  0.17163182797E+02  0.37442835271E+02  0.00000000000E+00 0. -1.
         11    1    1    2    0    0  0.23435045536E+02 -0.53678160608E+02  0.19165738771E+02  0.61626875859E+02  0.00000000000E+00 0.  1.
</event>
<event>
 7    1  0.2679104E-009  0.1913104E+03  0.7561462E-02  0.1157285E+00
          4   -1    0    0  501    0  0.00000000000E+00  0.00000000000E+00  0.51335186405E+03  0.51335186405E+03  0.00000000000E+00 0. -1.
         -4   -1    0    0    0  501 -0.00000000000E+00 -0.00000000000E+00 -0.81165666802E+02  0.81165666802E+02  0.00000000000E+00 0.  1.
         25    2    1    2    0    0  0.74038204117E+02  0.15529272902E+03  0.20424623708E+03  0.29489303655E+03  0.12509152763E+03 0.  0.
          5    1    3    3  502    0  0.74145584243E+02  0.22510532451E+02  0.96588167446E+02  0.12389930680E+03  0.41800000000E+01 0.  1.
         -5    1    3    3    0  502 -0.10738012599E+00  0.13278219657E+03  0.10765806964E+03  0.17099372975E+03  0.41800000000E+01 0.  1.
        -11    1    1    2    0    0 -0.38955031406E+02 -0.73834595629E+02  0.18089326358E+03  0.19922704333E+03  0.00000000000E+00 0. -1.
         11    1    1    2    0    0 -0.35083172712E+02 -0.81458133390E+02  0.47046696580E+02  0.10039745097E+03  0.00000000000E+00 0.  1.
</event>
<event>
 7    1  0.2679104E-009  0.1312112E+03  0.7561462E-02  0.1225670E+00
          1   -1    0    0  501    0  0.00000000000E+00  0.00000000000E+00  0.20122090937E+03  0.20122090937E+03  0.00000000000E+00 0. -1.
         -1   -1    0    0    0  501 -0.00000000000E+00 -0.00000000000E+00 -0.11259168868E+03  0.11259168868E+03  0.00000000000E+00 0.  1.
         25    2    1    2    0    0 -0.94908713988E+02 -0.21415039283E+02  0.12558021841E+02  0.15897164952E+03  0.12509202028E+03 0.  0.
          5    1    3    3  502    0 -0.11329530526E+03 -0.22968399791E+02  0.42766013924E+02  0.12332792843E+03  0.41800000000E+01 0. -1.
         -5    1    3    3    0  502  0.18386591272E+02  0.15533605082E+01 -0.30207992083E+02  0.35643721090E+02  0.41800000000E+01 0. -1.
        -11    1    1    2    0    0  0.50492514270E+02 -0.30902372331E+02  0.60139390473E+02  0.84387184450E+02  0.00000000000E+00 0. -1.
         11    1    1    2    0    0  0.44416199718E+02  0.52317411615E+02  0.15931808371E+02  0.70453764083E+02  0.00000000000E+00 0.  1.
</event>
<event>
 7    1  0.2679104E-009  0.7990482E+02  0.7561462E-02  0.1329322E+00
         -2   -1    0    0    0  501 -0.00000000000E+00  0.00000000000E+00  0.57214153561E+02  0.57214153561E+02  0.00000000000E+00 0.  1.
          2   -1    0    0  501    0  0.00000000000E+00 -0.00000000000E+00 -0.29636205442E+03  0.29636205442E+03  0.00000000000E+00 0. -1.
         25    2    1    2    0    0 -0.89218185029E+01  0.69948111237E+02 -0.12359042132E+03  0.18945904178E+03  0.12509116340E+03 0.  0.
          5    1    3    3  502    0 -0.16141733295E+02  0.87047491314E+01 -0.12620093115E+03  0.12759496712E+03  0.41800000000E+01 0.  1.
         -5    1    3    3    0  502  0.72199147921E+01  0.61243362106E+02  0.26105098349E+01  0.61864074657E+02  0.41800000000E+01 0.  1.
        -11    1    1    2    0    0  0.17712912190E+02 -0.14057403812E+02  0.11252466498E+02  0.25258184069E+02  0.00000000000E+00 0.  1.
         11    1    1    2    0    0 -0.87910936874E+01 -0.55890707425E+02 -0.12680994604E+03  0.13885898213E+03  0.00000000000E+00 0. -1.
</event>
<event>
 7    1  0.2679104E-009  0.1088728E+03  0.7561462E-02  0.1262672E+00
          1   -1    0    0  501    0  0.00000000000E+00  0.00000000000E+00  0.11708280299E+03  0.11708280299E+03  0.00000000000E+00 0. -1.
         -1   -1    0    0    0  501 -0.00000000000E+00 -0.00000000000E+00 -0.12816881398E+03  0.12816881398E+03  0.00000000000E+00 0.  1.
         25    2    1    2    0    0 -0.44392036888E+02 -0.34965738337E+02 -0.19798552131E+02  0.13868419634E+03  0.12509223737E+03 0.  0.
          5    1    3    3  502    0 -0.78858084480E+02 -0.46469810225E+02 -0.36304526774E+02  0.98557251455E+02  0.41800000000E+01 0.  1.
         -5    1    3    3    0  502  0.34466047592E+02  0.11504071888E+02  0.16505974643E+02  0.40126944882E+02  0.41800000000E+01 0.  1.
        -11    1    1    2    0    0  0.55181233682E+02  0.23959243730E+01 -0.23014480774E+02  0.59836237595E+02  0.00000000000E+00 0.  1.
         11    1    1    2    0    0 -0.10789196794E+02  0.32569813964E+02  0.31727021911E+02  0.46731183041E+02  0.00000000000E+00 0. -1.
</event>
<event>
 7    1  0.2679104E-009  0.1181563E+03  0.7561462E-02  0.1246170E+00
          1   -1    0    0  501    0  0.00000000000E+00  0.00000000000E+00  0.22973311247E+03  0.22973311247E+03  0.00000000000E+00 0. -1.
         -1   -1    0    0    0  501 -0.00000000000E+00 -0.00000000000E+00 -0.75584664731E+02  0.75584664731E+02  0.00000000000E+00 0.  1.
         25    2    1    2    0    0 -0.33042900758E+02 -0.47167524679E+02  0.30132050779E+02  0.14096848656E+03  0.12509022761E+03 0.  0.
          5    1    3    3  502    0 -0.71043767339E+02 -0.54450207177E+02 -0.32919466942E+01  0.89668005735E+02  0.41800000000E+01 0. -1.
         -5    1    3    3    0  502  0.38000866581E+02  0.72826824976E+01  0.33423997473E+02  0.51300480820E+02  0.41800000000E+01 0. -1.
        -11    1    1    2    0    0  0.42038820002E+01  0.70540856979E+02  0.78726075978E+02  0.10578979235E+03  0.00000000000E+00 0.  1.
         11    1    1    2    0    0  0.28839018758E+02 -0.23373332299E+02  0.45290320977E+02  0.58559498289E+02  0.00000000000E+00 0. -1.
</event>
<event>
 7    1  0.2679104E-009  0.1415143E+03  0.7561462E-02  0.1211306E+00
         -2   -1    0    0    0  501 -0.00000000000E+00  0.00000000000E+00  0.38760859218E+02  0.38760859218E+02  0.00000000000E+00 0.  1.
          2   -1    0    0  501    0  0.00000000000E+00 -0.00000000000E+00 -0.66015559165E+03  0.66015559165E+03  0.00000000000E+00 0. -1.
         25    2    1    2    0    0 -0.44233937459E+02 -0.10220653928E+03 -0.39124537797E+03  0.42558735600E+03  0.12509529933E+03 0.  0.
          5    1    3    3  502    0 -0.30980936931E+02  0.16796201486E+02 -0.17315004765E+03  0.17674937691E+03  0.41800000000E+01 0.  1.
         -5    1    3    3    0  502 -0.13253000529E+02 -0.11900274076E+03 -0.21809533032E+03  0.24883797909E+03  0.41800000000E+01 0.  1.
        -11    1    1    2    0    0  0.18316535998E+02 -0.37093307776E+01 -0.36327867454E-01  0.18688390661E+02  0.00000000000E+00 0.  1.
         11    1    1    2    0    0  0.25917401462E+02  0.10591587005E+03 -0.23011302660E+03  0.25464070420E+03  0.00000000000E+00 0. -1.
</event>
<event>
 7    1  0.2679104E-009  0.1266878E+03  0.7561462E-02  0.1232455E+00
         -1   -1    0    0    0  501 -0.00000000000E+00  0.00000000000E+00  0.22832831844E+02  0.22832831844E+02  0.00000000000E+00 0.  1.
          1   -1    0    0  501    0  0.00000000000E+00 -0.00000000000E+00 -0.73439017747E+03  0.73439017747E+03  0.00000000000E+00 0. -1.
         25    2    1    2    0    0  0.45353520658E+02  0.51577039528E+02 -0.42390473424E+03  0.44728192100E+03  0.12509500510E+03 0.  0.
          5    1    3    3  502    0  0.25216774561E+02 -0.40499208157E+02 -0.12598347361E+03  0.13477900283E+03  0.41800000000E+01 0. -1.
         -5    1    3    3    0  502  0.20136746097E+02  0.92076247685E+02 -0.29792126063E+03  0.31250291818E+03  0.41800000000E+01 0. -1.
        -11    1    1    2    0    0  0.17499071982E+02 -0.44588774493E+02 -0.16681160926E+03  0.17355255491E+03  0.00000000000E+00 0. -1.
         11    1    1    2    0    0 -0.62852592640E+02 -0.69882650350E+01 -0.12084100213E+03  0.13638853341E+03  0.00000000000E+00 0.  1.
</event>
<event>
 7    1  0.2679104E-009  0.1079821E+03  0.7561462E-02  0.1264353E+00
          2   -1    0    0  501    0  0.00000000000E+00  0.00000000000E+00  0.39962977272E+03  0.39962977272E+03  0.00000000000E+00 0.  1.
         -2   -1    0    0    0  501 -0.00000000000E+00 -0.00000000000E+00 -0.50152500868E+02  0.50152500868E+02  0.00000000000E+00 0. -1.
         25    2    1    2    0    0 -0.56325092979E+01  0.87787236457E+02  0.22544760166E+03  0.27241923865E+03  0.12508915400E+03 0.  0.
          5    1    3    3  502    0  0.22077747931E+02  0.91605249890E+02  0.78322413505E+02  0.12260025130E+03  0.41800000000E+01 0. -1.
         -5    1    3    3    0  502 -0.27710257229E+02 -0.38180134330E+01  0.14712518815E+03  0.14981898735E+03  0.41800000000E+01 0. -1.
        -11    1    1    2    0    0 -0.12801709935E+02 -0.44668796467E+02  0.12186048122E+03  0.13041917819E+03  0.00000000000E+00 0.  1.
         11    1    1    2    0    0  0.18434219232E+02 -0.43118439991E+02  0.21691889715E+01  0.46943856752E+02  0.00000000000E+00 0. -1.
</event>
<event>
 7    1  0.2679104E-009  0.9175741E+02  0.7561462E-02  0.1298651E+00
         -1   -1    0    0    0  501 -0.00000000000E+00  0.00000000000E+00  0.10159390015E+02  0.10159390015E+02  0.00000000000E+00 0.  1.
          1   -1    0    0  501    0  0.00000000000E+00 -0.00000000000E+00 -0.16000515771E+04  0.16000515771E+04  0.00000000000E+00 0. -1.
         25    2    1    2    0    0 -0.17227445546E+02 -0.43828422086E+01 -0.12897120321E+04  0.12958859414E+04  0.12508898079E+03 0.  0.
          5    1    3    3  502    0  0.36098744347E+01 -0.44546268493E+02 -0.10958822060E+04  0.10968011138E+04  0.41800000000E+01 0.  1.
         -5    1    3    3    0  502 -0.20837319980E+02  0.40163426284E+02 -0.19382982608E+03  0.19908482763E+03  0.41800000000E+01 0.  1.
        -11    1    1    2    0    0 -0.28334586542E+02  0.29713462066E+02 -0.13704788632E+03  0.14306593504E+03  0.00000000000E+00 0.  1.
         11    1    1    2    0    0  0.45562032088E+02 -0.25330619857E+02 -0.16313226862E+03  0.17125909066E+03  0.00000000000E+00 0. -1.
</event>
<event>
 7    1  0.2679104E-009  0.1655822E+03  0.7561462E-02  0.1182535E+00
         -1   -1    0    0    0  501 -0.00000000000E+00  0.00000000000E+00  0.74978692507E+02  0.74978692507E+02  0.00000000000E+00 0.  1.
          1   -1    0    0  501    0  0.00000000000E+00 -0.00000000000E+00 -0.48133156408E+03  0.48133156408E+03  0.00000000000E+00 0. -1.
         25    2    1    2    0    0  0.13561389374E+03 -0.42897785860E+02 -0.30655349923E+03  0.36035263480E+03  0.12509046849E+03 0.  0.
          5    1    3    3  502    0  0.38421726616E+02 -0.54867253761E+02 -0.21856543550E+03  0.22863719428E+03  0.41800000000E+01 0.  1.
         -5    1    3    3    0  502  0.97192167124E+02  0.11969467901E+02 -0.87988063730E+02  0.13171544052E+03  0.41800000000E+01 0.  1.
        -11    1    1    2    0    0 -0.60079458024E+02 -0.24424460154E+02 -0.22567826875E+02  0.68668787234E+02  0.00000000000E+00 0.  1.
         11    1    1    2    0    0 -0.75534435716E+02  0.67322246015E+02 -0.77231545467E+02  0.12728883456E+03  0.00000000000E+00 0. -1.
</event>
<event>
 7    1  0.2679104E-009  0.1215696E+03  0.7561462E-02  0.1240530E+00
          2   -1    0    0  501    0  0.00000000000E+00  0.00000000000E+00  0.24510639701E+03  0.24510639701E+03  0.00000000000E+00 0. -1.
         -2   -1    0    0    0  501 -0.00000000000E+00 -0.00000000000E+00 -0.72590669862E+02  0.72590669862E+02  0.00000000000E+00 0.  1.
         25    2    1    2    0    0  0.56633351463E+02  0.26845610201E+02  0.41181501757E+02  0.14584794385E+03  0.12509070050E+03 0.  0.
          5    1    3    3  502    0  0.73931950392E+02 -0.24665092305E+02  0.46889343216E+02  0.91051540209E+02  0.41800000000E+01 0. -1.
         -5    1    3    3    0  502 -0.17298598929E+02  0.51510702506E+02 -0.57078414588E+01  0.54796403639E+02  0.41800000000E+01 0. -1.
        -11    1    1    2    0    0 -0.81637169295E+02 -0.25597076861E+02  0.96716916750E+02  0.12912784262E+03  0.00000000000E+00 0.  1.
         11    1    1    2    0    0  0.25003817833E+02 -0.12485333401E+01  0.34617308643E+02  0.42721280404E+02  0.00000000000E+00 0. -1.
</event>
<event>
 7    1  0.2679104E-009  0.1365103E+03  0.7561462E-02  0.1218103E+00
         -2   -1    0    0    0  501 -0.00000000000E+00  0.00000000000E+00  0.29607180748E+02  0.29607180748E+02  0.00000000000E+00 0.  1.
          2   -1    0    0  501    0  0.00000000000E+00 -0.00000000000E+00 -0.86727485918E+03  0.86727485918E+03  0.00000000000E+00 0. -1.
         25    2    1    2    0    0 -0.32618539812E+02  0.10192672615E+03 -0.31035963499E+03  0.35131185010E+03  0.12507552258E+03 0.  0.
          5    1    3    3  502    0  0.39723912347E+01 -0.27828062488E+02 -0.72499435405E+02  0.77870543134E+02  0.41800000000E+01 0.  1.
         -5    1    3    3    0  502 -0.36590931047E+02  0.12975478864E+03 -0.23786019958E+03  0.27344130697E+03  0.41800000000E+01 0.  1.
        -11    1    1    2    0    0  0.18071503060E+02 -0.87080757443E+02 -0.51222647565E+03  0.51988998826E+03  0.00000000000E+00 0. -1.
         11    1    1    2    0    0  0.14547036752E+02 -0.14845968711E+02 -0.15081567798E+02  0.25680201566E+02  0.00000000000E+00 0.  1.
</event>
<event>
 7    1  0.2679104E-009  0.1063427E+03  0.7561462E-02  0.1267497E+00
         -1   -1    0    0    0  501 -0.00000000000E+00  0.00000000000E+00  0.25751985802E+03  0.25751985802E+03  0.00000000000E+00 0.  1.
          1   -1    0    0  501    0  0.00000000000E+00 -0.00000000000E+00 -0.79175812302E+02  0.79175812302E+02  0.00000000000E+00 0. -1.
         25    2    1    2    0    0  0.10182945699E+02  0.33918662770E+02  0.19823659594E+03  0.23706709639E+03  0.12509553211E+03 0.  0.
          5    1    3    3  502    0 -0.18574734428E+02 -0.35245219734E+02  0.12864839181E+03  0.13474096403E+03  0.41800000000E+01 0. -1.
         -5    1    3    3    0  502  0.28757680127E+02  0.69163882504E+02  0.69588204137E+02  0.10232613236E+03  0.41800000000E+01 0. -1.
        -11    1    1    2    0    0 -0.45610764331E+02  0.39095488109E+01 -0.10251894139E+02  0.46911914566E+02  0.00000000000E+00 0.  1.
         11    1    1    2    0    0  0.35427818632E+02 -0.37828211581E+02 -0.96406560886E+01  0.52716659361E+02  0.00000000000E+00 0. -1.
</event>
<event>
 7    1  0.2679104E-009  0.1105451E+03  0.7561462E-02  0.1259564E+00
          1   -1    0    0  501    0  0.00000000000E+00  0.00000000000E+00  0.65617721287E+03  0.65617721287E+03  0.00000000000E+00 0.  1.
         -1   -1    0    0    0  501 -0.00000000000E+00 -0.00000000000E+00 -0.23986854428E+02  0.23986854428E+02  0.00000000000E+00 0. -1.
         25    2    1    2    0    0 -0.40071162628E+02 -0.46082877044E+02  0.32786905599E+03  0.35619414422E+03  0.12508725304E+03 0.  0.
          5    1    3    3  502    0 -0.66880582436E+02 -0.49668753589E+02  0.11775036727E+03  0.14430044623E+03  0.41800000000E+01 0.  1.
         -5    1    3    3    0  502  0.26809419807E+02  0.35858765454E+01  0.21011868871E+03  0.21189369799E+03  0.41800000000E+01 0.  1.
        -11    1    1    2    0    0 -0.13722845671E+02 -0.20526067425E+02  0.53106489805E+02  0.58565648606E+02  0.00000000000E+00 0. -1.
         11    1    1    2    0    0  0.53794008299E+02  0.66608944469E+02  0.25121481265E+03  0.26540427447E+03  0.00000000000E+00 0.  1.
</event>
<event>
 7    1  0.2679104E-009  0.9762153E+02  0.7561462E-02  0.1285379E+00
         -2   -1    0    0    0  501 -0.00000000000E+00  0.00000000000E+00  0.19653796482E+02  0.19653796482E+02  0.00000000000E+00 0.  1.
          2   -1    0    0  501    0  0.00000000000E+00 -0.00000000000E+00 -0.98657059093E+03  0.98657059093E+03  0.00000000000E+00 0. -1.
         25    2    1    2    0    0  0.45465904460E+02  0.19662342413E+02 -0.79504131580E+03  0.80634556648E+03  0.12509485429E+03 0.  0.
          5    1    3    3  502    0 -0.11200621192E+02 -0.25034821543E+02 -0.55405266505E+03  0.55474681094E+03  0.41800000000E+01 0. -1.
         -5    1    3    3    0  502  0.56666525651E+02  0.44697163956E+02 -0.24098865075E+03  0.25159875553E+03  0.41800000000E+01 0. -1.
        -11    1    1    2    0    0  0.11461919560E+01 -0.43043486573E+02 -0.43000035415E+02  0.60852761138E+02  0.00000000000E+00 0.  1.
         11    1    1    2    0    0 -0.46612096416E+02  0.23381144160E+02 -0.12887544323E+03  0.13902605979E+03  0.00000000000E+00 0. -1.
</event>
<event>
 7    1  0.2679104E-009  0.8682113E+02  0.7561462E-02  0.1310738E+00
         -2   -1    0    0    0  501 -0.00000000000E+00  0.00000000000E+00  0.22651574863E+03  0.22651574863E+03  0.00000000000E+00 0.  1.
          2   -1    0    0  501    0  0.00000000000E+00 -0.00000000000E+00 -0.66582242733E+02  0.66582242733E+02  0.00000000000E+00 0. -1.
         25    2    1    2    0    0  0.14965965437E+02 -0.66376102248E+02  0.95204490895E+02  0.17129346078E+03  0.12509111698E+03 0.  0.
          5    1    3    3  502    0  0.45844130534E+02 -0.56342593984E+02  0.11272356518E+03  0.13416499822E+03  0.41800000000E+01 0. -1.
         -5    1    3    3    0  502 -0.30878165097E+02 -0.10033508264E+02 -0.17519074285E+02  0.37128462554E+02  0.41800000000E+01 0. -1.
        -11    1    1    2    0    0 -0.43413445874E+01  0.27801709175E+02  0.75329383922E+02  0.80413297333E+02  0.00000000000E+00 0.  1.
         11    1    1    2    0    0 -0.10624620849E+02  0.38574393073E+02 -0.10600368919E+02  0.41391233255E+02  0.00000000000E+00 0. -1.
</event>
<event>
 7    1  0.2679104E-009  0.7971185E+02  0.7561462E-02  0.1329871E+00
          2   -1    0    0  501    0  0.00000000000E+00  0.00000000000E+00  0.22916299779E+03  0.22916299779E+03  0.00000000000E+00 0.  1.
         -2   -1    0    0    0  501 -0.00000000000E+00 -0.00000000000E+00 -0.75437634349E+02  0.75437634349E+02  0.00000000000E+00 0. -1.
         25    2    1    2    0    0  0.50702511460E+02  0.35060889679E+02  0.12802541052E+03  0.18931094594E+03  0.12509243726E+03 0.  0.
          5    1    3    3  502    0 -0.19611941607E+02  0.13234530176E+02 -0.15049296495E+02  0.28350216358E+02  0.41800000000E+01 0.  1.
         -5    1    3    3    0  502  0.70314453066E+02  0.21826359504E+02  0.14307470702E+03  0.16096072958E+03  0.41800000000E+01 0.  1.
        -11    1    1    2    0    0 -0.24603578047E+02 -0.17711189219E+02 -0.35408762802E+02  0.46613332421E+02  0.00000000000E+00 0. -1.
         11    1    1    2    0    0 -0.26098933413E+02 -0.17349700461E+02  0.61108715721E+02  0.68676353780E+02  0.00000000000E+00 0.  1.
</event>
<event>
 7    1  0.2679104E-009  0.2673059E+03  0.7561462E-02  0.1102831E+00
          1   -1    0    0  501    0  0.00000000000E+00  0.00000000000E+00  0.36254953039E+03  0.36254953039E+03  0.00000000000E+00 0. -1.
         -1   -1    0    0    0  501 -0.00000000000E+00 -0.00000000000E+00 -0.22972969150E+03  0.22972969150E+03  0.00000000000E+00 0.  1.
         25    2    1    2    0    0 -0.24623277294E+03 -0.28108963585E+02 -0.33515722688E+02  0.27962702083E+03  0.12508906750E+03 0.  0.
          5    1    3    3  502    0 -0.19382822256E+03 -0.70415108030E+02 -0.45158388825E+02  0.21115023036E+03  0.41800000000E+01 0.  1.
         -5    1    3    3    0  502 -0.52404550382E+02  0.42306144444E+02  0.11642666137E+02  0.68476790471E+02  0.41800000000E+01 0.  1.
        -11    1    1    2    0    0  0.33553301599E+02 -0.24778225798E+02  0.47990559446E+02  0.63583632468E+02  0.00000000000E+00 0. -1.
         11    1    1    2    0    0  0.21267947134E+03  0.52887189384E+02  0.11834500213E+03  0.24906856859E+03  0.00000000000E+00 0.  1.
</event>
<event>
 7    1  0.2679104E-009  0.1413368E+03  0.7561462E-02  0.1211541E+00
          2   -1    0    0  501    0  0.00000000000E+00  0.00000000000E+00  0.57826248344E+03  0.57826248344E+03  0.00000000000E+00 0.  1.
         -2   -1    0    0    0  501 -0.00000000000E+00 -0.00000000000E+00 -0.42111092573E+02  0.42111092573E+02  0.00000000000E+00 0. -1.
         25    2    1    2    0    0  0.33771862154E+02  0.10035897841E+03  0.21796576280E+03  0.27270328673E+03  0.12508215548E+03 0.  0.
          5    1    3    3  502    0  0.11442693702E+02 -0.18878076173E+02 -0.84127681608E+00  0.22483263683E+02  0.41800000000E+01 0. -1.
         -5    1    3    3    0  502  0.22329168452E+02  0.11923705458E+03  0.21880703961E+03  0.25022002304E+03  0.41800000000E+01 0. -1.
        -11    1    1    2    0    0 -0.17944856705E+02 -0.11552119362E+03  0.28326478341E+03  0.30644102464E+03  0.00000000000E+00 0.  1.
         11    1    1    2    0    0 -0.15827005449E+02  0.15162215218E+02  0.34920844660E+02  0.41229264650E+02  0.00000000000E+00 0. -1.
</event>
<event>
 7    1  0.2679104E-009  0.1024324E+03  0.7561462E-02  0.1275263E+00
          1   -1    0    0  501    0  0.00000000000E+00  0.00000000000E+00  0.15657106946E+03  0.15657106946E+03  0.00000000000E+00 0.  1.
         -1   -1    0    0    0  501 -0.00000000000E+00 -0.00000000000E+00 -0.98410676734E+02  0.98410676734E+02  0.00000000000E+00 0. -1.
         25    2    1    2    0    0 -0.31505773673E+02 -0.40443380824E+02 -0.52670874689E+01  0.13528996357E+03  0.12508937287E+03 0.  0.
          5    1    3    3  502    0  0.20922019057E+02 -0.69038500075E+02 -0.17125499063E+02  0.74261702729E+02  0.41800000000E+01 0. -1.
         -5    1    3    3    0  502 -0.52427792730E+02  0.28595119251E+02  0.11858411594E+02  0.61028260839E+02  0.41800000000E+01 0. -1.
        -11    1    1    2    0    0  0.20607639746E+02 -0.87245170372E+01  0.65571436454E+02  0.69284957185E+02  0.00000000000E+00 0.  1.
         11    1    1    2    0    0  0.10898133927E+02  0.49167897861E+02 -0.21439562547E+01  0.50406825447E+02  0.00000000000E+00 0. -1.
</event>
<event>
 7    1  0.4110688E-009  0.1315668E+03  0.7561462E-02  0.1225149E+00
          1   -1    0    0  501    0  0.00000000000E+00  0.00000000000E+00  0.51527662003E+03  0.51527662003E+03  0.00000000000E+00 0. -1.
         -1   -1    0    0    0  501 -0.00000000000E+00 -0.00000000000E+00 -0.49591951480E+02  0.49591951480E+02  0.00000000000E+00 0.  1.
         25    2    1    2    0    0 -0.82708001193E+02  0.74361377050E+02  0.18461639617E+03  0.24920016593E+03  0.12508909267E+03 0.  0.
          5    1    3    3  502    0  0.21688648262E+02 -0.15556664279E+00 -0.25804767698E+01  0.22238545923E+02  0.41800000000E+01 0.  1.
         -5    1    3    3    0  502 -0.10439664946E+03  0.74516943693E+02  0.18719687294E+03  0.22696162000E+03  0.41800000000E+01 0.  1.
        -11    1    1    2    0    0  0.22500144036E+02 -0.10127155513E+02  0.40599181351E+01  0.25005973200E+02  0.00000000000E+00 0.  1.
         11    1    1    2    0    0  0.60207857156E+02 -0.64234221537E+02  0.27700835424E+03  0.29066243239E+03  0.00000000000E+00 0. -1.
</event>
<event>
 7    1  0.2679104E-009  0.1110159E+03  0.7561462E-02  0.1258700E+00
          1   -1    0    0  501    0  0.00000000000E+00  0.00000000000E+00  0.39438253474E+03  0.39438253474E+03  0.00000000000E+00 0. -1.
         -1   -1    0    0    0  501 -0.00000000000E+00 -0.00000000000E+00 -0.34841364831E+02  0.34841364831E+02  0.00000000000E+00 0.  1.
         25    2    1    2    0    0  0.41209169905E+02 -0.18145540861E+02  0.22044160233E+03  0.25743143837E+03  0.12509591955E+03 0.  0.
          5    1    3    3  502    0  0.80036516730E+02 -0.43518819878E+01  0.90089862606E+02  0.12065835500E+03  0.41800000000E+01 0.  1.
         -5    1    3    3    0  502 -0.38827346825E+02 -0.13793658874E+02  0.13035173972E+03  0.13677308337E+03  0.41800000000E+01 0.  1.
        -11    1    1    2    0    0  0.25336364298E+02  0.22195415549E+02  0.54681593345E+02  0.64223395098E+02  0.00000000000E+00 0. -1.
         11    1    1    2    0    0 -0.66545534203E+02 -0.40498746875E+01  0.84417974237E+02  0.10756906610E+03  0.00000000000E+00 0.  1.
</event>
<event>
 7    1  0.2679104E-009  0.1378265E+03  0.7561462E-02  0.1216284E+00
          1   -1    0    0  501    0  0.00000000000E+00  0.00000000000E+00  0.18208251135E+03  0.18208251135E+03  0.00000000000E+00 0. -1.
         -1   -1    0    0    0  501 -0.00000000000E+00 -0.00000000000E+00 -0.10632932753E+03  0.10632932753E+03  0.00000000000E+00 0.  1.
         25    2    1    2    0    0 -0.83314907665E+02 -0.24345422706E+02  0.33408606392E+02  0.15587599936E+03  0.12508844371E+03 0.  0.
          5    1    3    3  502    0 -0.16442115936E+02  0.48346078750E+02  0.23968139582E+02  0.56565277529E+02  0.41800000000E+01 0. -1.
         -5    1    3    3    0  502 -0.66872791729E+02 -0.72691501455E+02  0.94404668101E+01  0.99310721833E+02  0.41800000000E+01 0. -1.
        -11    1    1    2    0    0  0.60461726750E+02 -0.29342888902E+02  0.21134116743E+02  0.70450524634E+02  0.00000000000E+00 0.  1.
         11    1    1    2    0    0  0.22853180915E+02  0.53688311608E+02  0.21210460687E+02  0.62085314880E+02  0.00000000000E+00 0. -1.
</event>
<event>
 7    1  0.2679104E-009  0.1128677E+03  0.7561462E-02  0.1255350E+00
          1   -1    0    0  501    0  0.00000000000E+00  0.00000000000E+00  0.59831771593E+03  0.59831771593E+03  0.00000000000E+00 0. -1.
         -1   -1    0    0    0  501 -0.00000000000E+00 -0.00000000000E+00 -0.31452262929E+02  0.31452262929E+02  0.00000000000E+00 0.  1.
         25    2    1    2    0    0  0.49590788271E+02 -0.16351178703E+02  0.44635907815E+03  0.46648653120E+03  0.12508656929E+03 0.  0.
          5    1    3    3  502    0 -0.40284046411E+02 -0.84229834235E+01  0.93334324408E+02  0.10209074178E+03  0.41800000000E+01 0. -1.
         -5    1    3    3    0  502  0.89874834683E+02 -0.79281952794E+01  0.35302475375E+03  0.36439578942E+03  0.41800000000E+01 0. -1.
        -11    1    1    2    0    0 -0.15438885614E+02 -0.31604690391E+02  0.90726925012E+02  0.97306683048E+02  0.00000000000E+00 0. -1.
         11    1    1    2    0    0 -0.34151902657E+02  0.47955869094E+02  0.29779449837E+02  0.65976764609E+02  0.00000000000E+00 0.  1.
</event>
<event>
 7    1  0.2679104E-009  0.1078803E+03  0.7561462E-02  0.1264546E+00
          1   -1    0    0  501    0  0.00000000000E+00  0.00000000000E+00  0.27105116444E+02  0.27105116444E+02  0.00000000000E+00 0. -1.
         -1   -1    0    0    0  501 -0.00000000000E+00 -0.00000000000E+00 -0.48583170182E+03  0.48583170182E+03  0.00000000000E+00 0.  1.
         25    2    1    2    0    0 -0.28693559307E+01  0.72422802082E+01 -0.17916369588E+03  0.21865205848E+03  0.12509360068E+03 0.  0.
          5    1    3    3  502    0  0.60660651098E+02  0.15665712279E+01 -0.97984603369E+02  0.11532832971E+03  0.41800000000E+01 0. -1.
         -5    1    3    3    0  502 -0.63530007029E+02  0.56757089803E+01 -0.81179092514E+02  0.10332372877E+03  0.41800000000E+01 0. -1.
        -11    1    1    2    0    0 -0.41541195473E+02 -0.18075400713E+02 -0.11865206401E+03  0.12700670583E+03  0.00000000000E+00 0. -1.
         11    1    1    2    0    0  0.44410551403E+02  0.10833120504E+02 -0.16091082549E+03  0.16727805396E+03  0.00000000000E+00 0.  1.
</event>
<event>
 7    1  0.2679104E-009  0.9903471E+02  0.7561462E-02  0.1282339E+00
         -1   -1    0    0    0  501 -0.00000000000E+00  0.00000000000E+00  0.24054294089E+02  0.24054294089E+02  0.00000000000E+00 0.  1.
          1   -1    0    0  501    0  0.00000000000E+00 -0.00000000000E+00 -0.49268679273E+03  0.49268679273E+03  0.00000000000E+00 0. -1.
         25    2    1    2    0    0 -0.22341237572E+02  0.20037761700E+02 -0.33574783117E+03  0.35954734432E+03  0.12508814445E+03 0.  0.
          5    1    3    3  502    0 -0.47139729996E+02  0.55744146555E+02 -0.27610610045E+03  0.28562495537E+03  0.41800000000E+01 0.  1.
         -5    1    3    3    0  502  0.24798492425E+02 -0.35706384855E+02 -0.59641730711E+02  0.73922388950E+02  0.41800000000E+01 0.  1.
        -11    1    1    2    0    0  0.50532475373E+02 -0.14097655015E+02 -0.65581001923E+02  0.83982990882E+02  0.00000000000E+00 0.  1.
         11    1    1    2    0    0 -0.28191237801E+02 -0.59401066850E+01 -0.67303665555E+02  0.73210751624E+02  0.00000000000E+00 0. -1.
</event>
<event>
 7    1  0.2679104E-009  0.7890063E+02  0.7561462E-02  0.1332201E+00
         -1   -1    0    0    0  501 -0.00000000000E+00  0.00000000000E+00  0.12629599589E+03  0.12629599589E+03  0.00000000000E+00 0.  1.
          1   -1    0    0  501    0  0.00000000000E+00 -0.00000000000E+00 -0.11680612263E+03  0.11680612263E+03  0.00000000000E+00 0. -1.
         25    2    1    2    0    0 -0.41542352195E+00 -0.26126781891E+02 -0.43562802649E+02  0.13501338098E+03  0.12509242167E+03 0.  0.
          5    1    3    3  502    0  0.19060410759E+02  0.32393252908E+02  0.22929133822E+02  0.44224876145E+02  0.41800000000E+01 0.  1.
         -5    1    3    3    0  502 -0.19475834280E+02 -0.58520034798E+02 -0.66491936471E+02  0.90788504831E+02  0.41800000000E+01 0.  1.
        -11    1    1    2    0    0 -0.14935428312E+02  0.36636288236E+02  0.71609647604E+02  0.81812140080E+02  0.00000000000E+00 0.  1.
         11    1    1    2    0    0  0.15350851834E+02 -0.10509506345E+02 -0.18556971693E+02  0.26276597459E+02  0.00000000000E+00 0. -1.
</event>
<event>
 7    1  0.2679104E-009  0.1266245E+03  0.7561462E-02  0.1232552E+00
          2   -1    0    0  501    0  0.00000000000E+00  0.00000000000E+00  0.10413430934E+04  0.10413430934E+04  0.00000000000E+00 0. -1.
         -2   -1    0    0    0  501 -0.00000000000E+00 -0.00000000000E+00 -0.21274932713E+02  0.21274932713E+02  0.00000000000E+00 0.  1.
         25    2    1    2    0    0  0.72285210228E+02  0.25174106763E+02  0.78478260929E+03  0.79836756145E+03  0.12509249400E+03 0.  0.
          5    1    3    3  502    0 -0.22738903445E+02  0.33044824083E+02  0.39571232659E+03  0.39776216002E+03  0.41800000000E+01 0. -1.
         -5    1    3    3    0  502  0.95024113673E+02 -0.78707173201E+01  0.38907028270E+03  0.40060540142E+03  0.41800000000E+01 0. -1.
        -11    1    1    2    0    0 -0.63948420122E+02  0.23474061759E+02  0.16360529046E+03  0.17722054925E+03  0.00000000000E+00 0. -1.
         11    1    1    2    0    0 -0.83367901064E+01 -0.48648168522E+02  0.71680260969E+02  0.87029915445E+02  0.00000000000E+00 0.  1.
</event>
<event>
 7    1  0.2679104E-009  0.1213631E+03  0.7561462E-02  0.1240865E+00
          4   -1    0    0  501    0  0.00000000000E+00  0.00000000000E+00  0.70482113052E+02  0.70482113052E+02  0.00000000000E+00 0. -1.
         -4   -1    0    0    0  501 -0.00000000000E+00 -0.00000000000E+00 -0.26448316454E+03  0.26448316454E+03  0.00000000000E+00 0.  1.
         25    2    1    2    0    0 -0.38090373647E+02 -0.70901475711E+02 -0.87268786569E+02  0.17245474979E+03  0.12508758449E+03 0.  0.
          5    1    3    3  502    0 -0.38943923853E+02  0.27996072767E+02 -0.40771228873E+02  0.63088626544E+02  0.41800000000E+01 0.  1.
         -5    1    3    3    0  502  0.85355020540E+00 -0.98897548478E+02 -0.46497557695E+02  0.10936612325E+03  0.41800000000E+01 0. -1.
        -11    1    1    2    0    0  0.17507248624E+01  0.56461897958E+02 -0.10960107052E+03  0.12330209089E+03  0.00000000000E+00 0.  1.
         11    1    1    2    0    0  0.36339648785E+02  0.14439577754E+02  0.28688055979E+01  0.39208436912E+02  0.00000000000E+00 0. -1.
</event>
<event>
 7    1  0.2679104E-009  0.8614775E+02  0.7561462E-02  0.1312458E+00
          3   -1    0    0  501    0  0.00000000000E+00  0.00000000000E+00  0.24714453256E+03  0.24714453256E+03  0.00000000000E+00 0.  1.
         -3   -1    0    0    0  501 -0.00000000000E+00 -0.00000000000E+00 -0.51387875113E+02  0.51387875113E+02  0.00000000000E+00 0. -1.
         25    2    1    2    0    0  0.15290427075E+02 -0.43498252446E+01  0.14033565754E+03  0.18867055627E+03  0.12509901633E+03 0.  0.
          5    1    3    3  502    0 -0.37124223863E+01  0.50384511836E+02  0.18983738935E+02  0.54131653003E+02  0.41800000000E+01 0. -1.
         -5    1    3    3    0  502  0.19002849462E+02 -0.54734337081E+02  0.12135191861E+03  0.13453890327E+03  0.41800000000E+01 0. -1.
        -11    1    1    2    0    0 -0.29829956242E+02 -0.19458262320E+02 -0.11445680059E+02  0.37409274971E+02  0.00000000000E+00 0. -1.
         11    1    1    2    0    0  0.14539529166E+02  0.23808087564E+02  0.66866679965E+02  0.72452576430E+02  0.00000000000E+00 0.  1.
</event>
<event>
 7    1  0.2679104E-009  0.1005236E+03  0.7561462E-02  0.1279199E+00
         -2   -1    0    0    0  501 -0.00000000000E+00  0.00000000000E+00  0.71047435586E+02  0.71047435586E+02  0.00000000000E+00 0. -1.
          2   -1    0    0  501    0  0.00000000000E+00 -0.00000000000E+00 -0.29663812082E+03  0.29663812082E+03  0.00000000000E+00 0.  1.
         25    2    1    2    0    0  0.76515169700E+02 -0.11028755503E+02 -0.50023598475E+02  0.15532544121E+03  0.12508967839E+03 0.  0.
          5    1    3    3  502    0  0.40154848275E+02  0.80291966853E+01 -0.89316821064E+02  0.98345547761E+02  0.41800000000E+01 0. -1.
         -5    1    3    3    0  502  0.36360321425E+02 -0.19057952188E+02  0.39293222588E+02  0.56979893446E+02  0.41800000000E+01 0. -1.
        -11    1    1    2    0    0  0.64130217966E+01 -0.26738625541E+02 -0.52062722624E+02  0.58877907838E+02  0.00000000000E+00 0. -1.
         11    1    1    2    0    0 -0.82928191496E+02  0.37767381044E+02 -0.12350436413E+03  0.15348220736E+03  0.00000000000E+00 0.  1.
</event>
<event>
 7    1  0.2679104E-009  0.1501722E+03  0.7561462E-02  0.1200262E+00
         -3   -1    0    0    0  501 -0.00000000000E+00  0.00000000000E+00  0.23751732146E+03  0.23751732146E+03  0.00000000000E+00 0.  1.
          3   -1    0    0  501    0  0.00000000000E+00 -0.00000000000E+00 -0.11625380130E+03  0.11625380130E+03  0.00000000000E+00 0. -1.
         25    2    1    2    0    0 -0.12458081302E+03  0.56064628301E+01  0.81367574062E+02  0.19447232893E+03  0.12508794192E+03 0.  0.
          5    1    3    3  502    0 -0.32834928401E+02 -0.43103903875E+02  0.71835609914E+02  0.90077224114E+02  0.41800000000E+01 0.  1.
         -5    1    3    3    0  502 -0.91745884620E+02  0.48710366705E+02  0.95319641475E+01  0.10439510482E+03  0.41800000000E+01 0.  1.
        -11    1    1    2    0    0  0.64631781479E+02  0.31120555367E+02  0.51145013266E+02  0.88099764617E+02  0.00000000000E+00 0.  1.
         11    1    1    2    0    0  0.59949031541E+02 -0.36727018197E+02 -0.11249067166E+02  0.71199029210E+02  0.00000000000E+00 0. -1.
</event>
<event>
 7    1  0.2679104E-009  0.1634971E+03  0.7561462E-02  0.1184804E+00
          1   -1    0    0  501    0  0.00000000000E+00  0.00000000000E+00  0.10893895653E+04  0.10893895653E+04  0.00000000000E+00 0. -1.
         -1   -1    0    0    0  501 -0.00000000000E+00 -0.00000000000E+00 -0.30399989532E+02  0.30399989532E+02  0.00000000000E+00 0.  1.
         25    2    1    2    0    0 -0.95213994221E+02  0.78963177626E+02  0.78517943730E+03  0.80464616102E+03  0.12509119699E+03 0.  0.
          5    1    3    3  502    0  0.15333992134E+02  0.61860913636E+02  0.27161816730E+03  0.27902653128E+03  0.41800000000E+01 0.  1.
         -5    1    3    3    0  502 -0.11054798636E+03  0.17102263990E+02  0.51356126999E+03  0.52561962973E+03  0.41800000000E+01 0.  1.
        -11    1    1    2    0    0  0.10895843258E+03 -0.82872665656E+02  0.26523431831E+03  0.29847790932E+03  0.00000000000E+00 0. -1.
         11    1    1    2    0    0 -0.13744438356E+02  0.39094880300E+01  0.85758201770E+01  0.16665484514E+02  0.00000000000E+00 0.  1.
</event>
<event>
 7    1  0.2679104E-009  0.8503856E+02  0.7561462E-02  0.1315332E+00
          1   -1    0    0  501    0  0.00000000000E+00  0.00000000000E+00  0.53476951892E+02  0.53476951892E+02  0.00000000000E+00 0. -1.
         -1   -1    0    0    0  501 -0.00000000000E+00 -0.00000000000E+00 -0.32954514399E+03  0.32954514399E+03  0.00000000000E+00 0.  1.
         25    2    1    2    0    0  0.17139758834E+02 -0.13894420734E+02 -0.25878464066E+03  0.28827471225E+03  0.12508394470E+03 0.  0.
          5    1    3    3  502    0  0.47479106987E+02 -0.24083038536E+02 -0.24883358290E+03  0.25449927843E+03  0.41800000000E+01 0.  1.
         -5    1    3    3    0  502 -0.30339348153E+02  0.10188617803E+02 -0.99510577627E+01  0.33775433819E+02  0.41800000000E+01 0.  1.
        -11    1    1    2    0    0  0.11351892237E+02 -0.29995894596E+02 -0.26513610416E+02  0.41612386224E+02  0.00000000000E+00 0.  1.
         11    1    1    2    0    0 -0.28491651070E+02  0.43890315329E+02  0.92300589801E+01  0.53134997405E+02  0.00000000000E+00 0. -1.
</event>
<event>
 7    1  0.2679104E-009  0.1016655E+03  0.7561462E-02  0.1276832E+00
          2   -1    0    0  501    0  0.00000000000E+00  0.00000000000E+00  0.36599037971E+02  0.36599037971E+02  0.00000000000E+00 0.  1.
         -2   -1    0    0    0  501 -0.00000000000E+00 -0.00000000000E+00 -0.37644212285E+03  0.37644212285E+03  0.00000000000E+00 0. -1.
         25    2    1    2    0    0 -0.25625698515E+02 -0.21856801256E+02 -0.23898030369E+03  0.27183455568E+03  0.12509214175E+03 0.  0.
          5    1    3    3  502    0 -0.15941961427E+02 -0.74237771666E+02 -0.14472205993E+03  0.16348498374E+03  0.41800000000E+01 0.  1.
         -5    1    3    3    0  502 -0.96837370879E+01  0.52380970410E+02 -0.94258243752E+02  0.10834957194E+03  0.41800000000E+01 0.  1.
        -11    1    1    2    0    0  0.35784010225E+02 -0.12594575189E+02 -0.42982237818E+01  0.38178442080E+02  0.00000000000E+00 0.  1.
         11    1    1    2    0    0 -0.10158311710E+02  0.34451376445E+02 -0.96564557415E+02  0.10302816307E+03  0.00000000000E+00 0. -1.
</event>
<event>
 7    1  0.2679104E-009  0.1682731E+03  0.7561462E-02  0.1179661E+00
          1   -1    0    0  501    0  0.00000000000E+00  0.00000000000E+00  0.61576677383E+02  0.61576677383E+02  0.00000000000E+00 0. -1.
         -1   -1    0    0    0  501 -0.00000000000E+00 -0.00000000000E+00 -0.63702527268E+03  0.63702527268E+03  0.00000000000E+00 0.  1.
         25    2    1    2    0    0  0.22187461587E+02 -0.15933263460E+03 -0.22327213358E+03  0.30228619206E+03  0.12508926562E+03 0.  0.
          5    1    3    3  502    0  0.14610429907E+02 -0.79017493212E+02 -0.20391854638E+03  0.21922015157E+03  0.41800000000E+01 0.  1.
         -5    1    3    3    0  502  0.75770316795E+01 -0.80315141388E+02 -0.19353587206E+02  0.83066040492E+02  0.41800000000E+01 0.  1.
        -11    1    1    2    0    0 -0.29851062279E+02  0.20397713108E+02 -0.36708120592E+02  0.51523186398E+02  0.00000000000E+00 0.  1.
         11    1    1    2    0    0  0.76636006925E+01  0.13893492149E+03 -0.31546834112E+03  0.34479257160E+03  0.00000000000E+00 0. -1.
</event>
<event>
 7    1  0.2679104E-009  0.1137851E+03  0.7561462E-02  0.1253717E+00
         -2   -1    0    0    0  501 -0.00000000000E+00  0.00000000000E+00  0.46623292919E+02  0.46623292919E+02  0.00000000000E+00 0.  1.
          2   -1    0    0  501    0  0.00000000000E+00 -0.00000000000E+00 -0.37177143476E+03  0.37177143476E+03  0.00000000000E+00 0. -1.
         25    2    1    2    0    0 -0.39561838446E+02 -0.61984829316E+02 -0.21649940488E+03  0.26062814957E+03  0.12509109444E+03 0.  0.
          5    1    3    3  502    0 -0.77354305691E+02 -0.72022390836E+02 -0.15855048614E+03  0.19059549430E+03  0.41800000000E+01 0.  1.
         -5    1    3    3    0  502  0.37792467246E+02  0.10037561520E+02 -0.57948918733E+02  0.70032655270E+02  0.41800000000E+01 0.  1.
        -11    1    1    2    0    0  0.39572054723E+02  0.27979888197E+02 -0.50468200053E+01  0.48726707776E+02  0.00000000000E+00 0.  1.
         11    1    1    2    0    0 -0.10216277473E-01  0.34004941119E+02 -0.10360191696E+03  0.10903987033E+03  0.00000000000E+00 0. -1.
</event>
<event>
 7    1  0.2679104E-009  0.3889873E+03  0.7561462E-02  0.1047661E+00
         -2   -1    0    0    0  501 -0.00000000000E+00  0.00000000000E+00  0.31221636691E+03  0.31221636691E+03  0.00000000000E+00 0.  1.
          2   -1    0    0  501    0  0.00000000000E+00 -0.00000000000E+00 -0.67037136712E+03  0.67037136712E+03  0.00000000000E+00 0. -1.
         25    2    1    2    0    0 -0.10098697922E+03 -0.36120278219E+03  0.75233713208E+02  0.40245848896E+03  0.12508758491E+03 0.  0.
          5    1    3    3  502    0  0.26785869914E+02 -0.65156914307E+02 -0.29969132475E+01  0.70635403291E+02  0.41800000000E+01 0.  1.
         -5    1    3    3    0  502 -0.12777284913E+03 -0.29604586788E+03  0.78230626456E+02  0.33182308567E+03  0.41800000000E+01 0.  1.
        -11    1    1    2    0    0  0.10186170824E+03  0.20677633198E+03 -0.24206056460E+03  0.33425375989E+03  0.00000000000E+00 0.  1.
         11    1    1    2    0    0 -0.87472902282E+00  0.15442645021E+03 -0.19132814883E+03  0.24587548517E+03  0.00000000000E+00 0. -1.
</event>
<event>
 7    1  0.2679104E-009  0.8926756E+02  0.7561462E-02  0.1304635E+00
         -2   -1    0    0    0  501 -0.00000000000E+00  0.00000000000E+00  0.19521576394E+02  0.19521576394E+02  0.00000000000E+00 0. -1.
          2   -1    0    0  501    0  0.00000000000E+00 -0.00000000000E+00 -0.74204340797E+03  0.74204340797E+03  0.00000000000E+00 0.  1.
         25    2    1    2    0    0  0.17031103209E+02 -0.50632046741E+02 -0.40639044710E+03  0.42854800416E+03  0.12508610529E+03 0.  0.
          5    1    3    3  502    0 -0.32722776378E+02 -0.39344004433E+02 -0.62577935245E+02  0.80945667940E+02  0.41800000000E+01 0. -1.
         -5    1    3    3    0  502  0.49753879587E+02 -0.11288042307E+02 -0.34381251186E+03  0.34760233621E+03  0.41800000000E+01 0. -1.
        -11    1    1    2    0    0 -0.34121188369E+02  0.47722433436E+02 -0.30858096857E+03  0.31410810291E+03  0.00000000000E+00 0. -1.
         11    1    1    2    0    0  0.17090085160E+02  0.29096133045E+01 -0.75504158985E+01  0.18908877296E+02  0.00000000000E+00 0.  1.
</event>
<event>
 7    1  0.2679104E-009  0.1506929E+03  0.7561462E-02  0.1199624E+00
          4   -1    0    0  501    0  0.00000000000E+00  0.00000000000E+00  0.92721533090E+02  0.92721533090E+02  0.00000000000E+00 0. -1.
         -4   -1    0    0    0  501 -0.00000000000E+00 -0.00000000000E+00 -0.29564153781E+03  0.29564153781E+03  0.00000000000E+00 0.  1.
         25    2    1    2    0    0  0.10741521773E+03 -0.37869934824E+02 -0.48444450936E+02  0.17597698540E+03  0.12509545796E+03 0.  0.
          5    1    3    3  502    0  0.99923482562E+02 -0.76650571851E+02 -0.51538289135E+02  0.13613845959E+03  0.41800000000E+01 0.  1.
         -5    1    3    3    0  502  0.74917351686E+01  0.38780637028E+02  0.30938381995E+01  0.39838525813E+02  0.41800000000E+01 0.  1.
        -11    1    1    2    0    0 -0.31731296465E+01  0.31033866760E+02 -0.75301797177E+01  0.32091638232E+02  0.00000000000E+00 0. -1.
         11    1    1    2    0    0 -0.10424208808E+03  0.68360680635E+01 -0.14694537407E+03  0.18029444726E+03  0.00000000000E+00 0.  1.
</event>
<event>
 7    1  0.2679104E-009  0.2619877E+03  0.7561462E-02  0.1105955E+00
          2   -1    0    0  501    0  0.00000000000E+00  0.00000000000E+00  0.53474204080E+03  0.53474204080E+03  0.00000000000E+00 0.  1.
         -2   -1    0    0    0  501 -0.00000000000E+00 -0.00000000000E+00 -0.23597080563E+03  0.23597080563E+03  0.00000000000E+00 0. -1.
         25    2    1    2    0    0  0.22118582285E+03  0.10680284757E+03  0.40351221033E+03  0.48867129446E+03  0.12509002224E+03 0.  0.
          5    1    3    3  502    0  0.12119732913E+03  0.10890103491E+03  0.17472222480E+03  0.23894257936E+03  0.41800000000E+01 0.  1.
         -5    1    3    3    0  502  0.99988493723E+02 -0.20981873383E+01  0.22878998552E+03  0.24972871509E+03  0.41800000000E+01 0.  1.
        -11    1    1    2    0    0 -0.14409914164E+03 -0.11361320317E+03 -0.84677782101E+02  0.20209613884E+03  0.00000000000E+00 0.  1.
         11    1    1    2    0    0 -0.77086681216E+02  0.68103555945E+01 -0.20063193061E+02  0.79945413127E+02  0.00000000000E+00 0. -1.
</event>
<event>
 7    1  0.2679104E-009  0.1050930E+03  0.7561462E-02  0.1269936E+00
          1   -1    0    0  501    0  0.00000000000E+00  0.00000000000E+00  0.10070629386E+03  0.10070629386E+03  0.00000000000E+00 0. -1.
         -1   -1    0    0    0  501 -0.00000000000E+00 -0.00000000000E+00 -0.14248443486E+03  0.14248443486E+03  0.00000000000E+00 0.  1.
         25    2    1    2    0    0  0.45543158132E+02 -0.19656238448E+02 -0.12410075088E+02  0.13513392627E+03  0.12508645452E+03 0.  0.
          5    1    3    3  502    0  0.63618237015E+02  0.18105614340E+02  0.32310661264E+02  0.73732927399E+02  0.41800000000E+01 0. -1.
         -5    1    3    3    0  502 -0.18075078883E+02 -0.37761852789E+02 -0.44720736352E+02  0.61400998873E+02  0.41800000000E+01 0. -1.
        -11    1    1    2    0    0 -0.59384901625E+02 -0.17725978985E+02 -0.28428271414E+02  0.68183161320E+02  0.00000000000E+00 0.  1.
         11    1    1    2    0    0  0.13841743494E+02  0.37382217434E+02 -0.93979449778E+00  0.39873641129E+02  0.00000000000E+00 0. -1.
</event>
<event>
 7    1  0.2679104E-009  0.1222092E+03  0.7561462E-02  0.1239496E+00
         -2   -1    0    0    0  501 -0.00000000000E+00  0.00000000000E+00  0.12222118766E+03  0.12222118766E+03  0.00000000000E+00 0.  1.
          2   -1    0    0  501    0  0.00000000000E+00 -0.00000000000E+00 -0.18001844311E+03  0.18001844311E+03  0.00000000000E+00 0. -1.
         25    2    1    2    0    0 -0.75070838402E+02  0.49324963723E+02  0.19417427541E+02  0.15523077704E+03  0.12510385616E+03 0.  0.
          5    1    3    3  502    0 -0.35810710521E+02 -0.19211629425E+02  0.54989738525E+02  0.68504287722E+02  0.41800000000E+01 0.  1.
         -5    1    3    3    0  502 -0.39260127881E+02  0.68536593148E+02 -0.35572310984E+02  0.86726489323E+02  0.41800000000E+01 0.  1.
        -11    1    1    2    0    0  0.57306793339E+02  0.13756606928E+02 -0.43926610829E+02  0.73504149107E+02  0.00000000000E+00 0.  1.
         11    1    1    2    0    0  0.17764045063E+02 -0.63081570651E+02 -0.33288072159E+02  0.73504704617E+02  0.00000000000E+00 0. -1.
</event>
<event>
 7    1  0.2679104E-009  0.1368345E+03  0.7561462E-02  0.1217653E+00
         -3   -1    0    0    0  501 -0.00000000000E+00  0.00000000000E+00  0.13031118989E+04  0.13031118989E+04  0.00000000000E+00 0.  1.
          3   -1    0    0  501    0  0.00000000000E+00 -0.00000000000E+00 -0.17651637785E+02  0.17651637785E+02  0.00000000000E+00 0. -1.
         25    2    1    2    0    0 -0.35092479780E+02  0.92340823714E+02  0.84655787550E+03  0.86143256198E+03  0.12509001719E+03 0.  0.
          5    1    3    3  502    0 -0.68856624256E+02  0.52655457249E+02  0.29770416542E+03  0.31009526664E+03  0.41800000000E+01 0.  1.
         -5    1    3    3    0  502  0.33764144476E+02  0.39685366465E+02  0.54885371008E+03  0.55133729534E+03  0.41800000000E+01 0.  1.
        -11    1    1    2    0    0  0.65555924170E+02 -0.74796916061E+02  0.30040125568E+03  0.31643810179E+03  0.00000000000E+00 0. -1.
         11    1    1    2    0    0 -0.30463444389E+02 -0.17543907653E+02  0.13850112995E+03  0.14289287294E+03  0.00000000000E+00 0.  1.
</event>
<event>
 7    1  0.2679104E-009  0.1096455E+03  0.7561462E-02  0.1261228E+00
         -2   -1    0    0    0  501 -0.00000000000E+00  0.00000000000E+00  0.30617425841E+02  0.30617425841E+02  0.00000000000E+00 0.  1.
          2   -1    0    0  501    0  0.00000000000E+00 -0.00000000000E+00 -0.52086190573E+03  0.52086190573E+03  0.00000000000E+00 0. -1.
         25    2    1    2    0    0 -0.88719179551E+01 -0.43263022945E+02 -0.16278537941E+03  0.20999586336E+03  0.12509509502E+03 0.  0.
          5    1    3    3  502    0  0.57025461313E+02 -0.20177550607E+02 -0.57298972188E+02  0.83424704976E+02  0.41800000000E+01 0.  1.
         -5    1    3    3    0  502 -0.65897379268E+02 -0.23085472338E+02 -0.10548640722E+03  0.12657115839E+03  0.41800000000E+01 0.  1.
        -11    1    1    2    0    0  0.32828073131E+01  0.65600040479E+02 -0.29131770024E+03  0.29863044823E+03  0.00000000000E+00 0. -1.
         11    1    1    2    0    0  0.55891106420E+01 -0.22337017534E+02 -0.36141400235E+02  0.42853019976E+02  0.00000000000E+00 0.  1.
</event>
<event>
 7    1  0.2679104E-009  0.1436588E+03  0.7561462E-02  0.1208489E+00
         -1   -1    0    0    0  501 -0.00000000000E+00  0.00000000000E+00  0.10461082975E+04  0.10461082975E+04  0.00000000000E+00 0.  1.
          1   -1    0    0  501    0  0.00000000000E+00 -0.00000000000E+00 -0.24195767211E+02  0.24195767211E+02  0.00000000000E+00 0. -1.
         25    2    1    2    0    0  0.10205355289E+03  0.28723911738E+02  0.71387991709E+03  0.73246934028E+03  0.12508720021E+03 0.  0.
          5    1    3    3  502    0 -0.26437100231E+02 -0.65078099049E+00  0.20665946866E+03  0.20838654508E+03  0.41800000000E+01 0. -1.
         -5    1    3    3    0  502  0.12849065312E+03  0.29374692728E+02  0.50722044844E+03  0.52408279520E+03  0.41800000000E+01 0. -1.
        -11    1    1    2    0    0 -0.26185992503E+02 -0.44075115311E+02  0.65069401717E+02  0.82839296429E+02  0.00000000000E+00 0.  1.
         11    1    1    2    0    0 -0.75867560389E+02  0.15351203573E+02  0.24296321148E+03  0.25499542800E+03  0.00000000000E+00 0. -1.
</event>
<event>
 7    1  0.2679104E-009  0.1357696E+03  0.7561462E-02  0.1219137E+00
         -2   -1    0    0    0  501 -0.00000000000E+00  0.00000000000E+00  0.40756016389E+02  0.40756016389E+02  0.00000000000E+00 0.  1.
          2   -1    0    0  501    0  0.00000000000E+00 -0.00000000000E+00 -0.51133506256E+03  0.51133506256E+03  0.00000000000E+00 0. -1.
         25    2    1    2    0    0 -0.47127361874E+02 -0.79993549947E+02 -0.25797586252E+03  0.30136160620E+03  0.12508923127E+03 0.  0.
          5    1    3    3  502    0 -0.88777055619E+02 -0.38684611573E+02 -0.15722581667E+03  0.18470326095E+03  0.41800000000E+01 0.  1.
         -5    1    3    3    0  502  0.41649693745E+02 -0.41308938375E+02 -0.10075004585E+03  0.11665834525E+03  0.41800000000E+01 0.  1.
        -11    1    1    2    0    0 -0.16048313042E+02  0.34183223955E+02 -0.19599039392E+02  0.42546016224E+02  0.00000000000E+00 0.  1.
         11    1    1    2    0    0  0.63175674916E+02  0.45810325993E+02 -0.19300414426E+03  0.20818345652E+03  0.00000000000E+00 0. -1.
</event>
<event>
 7    1  0.2679104E-009  0.9710034E+02  0.7561462E-02  0.1286514E+00
         -2   -1    0    0    0  501 -0.00000000000E+00  0.00000000000E+00  0.79133806508E+02  0.79133806508E+02  0.00000000000E+00 0. -1.
          2   -1    0    0  501    0  0.00000000000E+00 -0.00000000000E+00 -0.16127388332E+03  0.16127388332E+03  0.00000000000E+00 0.  1.
         25    2    1    2    0    0 -0.21312981318E+02  0.12671660067E+02 -0.49378734959E+02  0.13673894772E+03  0.12507784063E+03 0.  0.
          5    1    3    3  502    0 -0.59955699286E+02  0.40404363453E+02 -0.51627234464E+02  0.88938418028E+02  0.41800000000E+01 0. -1.
         -5    1    3    3    0  502  0.38642717968E+02 -0.27732703386E+02  0.22484995050E+01  0.47800529695E+02  0.41800000000E+01 0. -1.
        -11    1    1    2    0    0  0.27604603172E+02  0.24150108066E+02  0.17829125338E+02  0.40781362731E+02  0.00000000000E+00 0. -1.
         11    1    1    2    0    0 -0.62916218536E+01 -0.36821768133E+02 -0.50590467188E+02  0.62887379372E+02  0.00000000000E+00 0.  1.
</event>
<event>
 7    1  0.2679104E-009  0.1480651E+03  0.7561462E-02  0.1202871E+00
         -1   -1    0    0    0  501 -0.00000000000E+00  0.00000000000E+00  0.26218240980E+03  0.26218240980E+03  0.00000000000E+00 0. -1.
          1   -1    0    0  501    0  0.00000000000E+00 -0.00000000000E+00 -0.11242321436E+03  0.11242321436E+03  0.00000000000E+00 0.  1.
         25    2    1    2    0    0 -0.10225548178E+03 -0.27848277316E+00 -0.12936008092E+02  0.16208258107E+03  0.12508861529E+03 0.  0.
          5    1    3    3  502    0 -0.12483185938E+03  0.24929677127E+02 -0.12561280376E+02  0.12798335862E+03  0.41800000000E+01 0.  1.
         -5    1    3    3    0  502  0.22576377601E+02 -0.25208159901E+02 -0.37472771625E+00  0.34099222454E+02  0.41800000000E+01 0.  1.
        -11    1    1    2    0    0  0.11534983308E+03  0.13405495538E+02  0.12563307848E+03  0.17108173985E+03  0.00000000000E+00 0.  1.
         11    1    1    2    0    0 -0.13094351302E+02 -0.13127012765E+02  0.37062125053E+02  0.41441303233E+02  0.00000000000E+00 0. -1.
</event>
<event>
 7    1  0.2679104E-009  0.1208860E+03  0.7561462E-02  0.1241643E+00
          2   -1    0    0  501    0  0.00000000000E+00  0.00000000000E+00  0.44249209355E+03  0.44249209355E+03  0.00000000000E+00 0. -1.
         -2   -1    0    0    0  501 -0.00000000000E+00 -0.00000000000E+00 -0.36316418925E+02  0.36316418925E+02  0.00000000000E+00 0.  1.
         25    2    1    2    0    0 -0.18103063265E+02 -0.57898372805E+02  0.27097363867E+03  0.30455907182E+03  0.12509825299E+03 0.  0.
          5    1    3    3  502    0  0.45941466158E+02  0.82110413779E+01  0.94606903827E+02  0.10557451475E+03  0.41800000000E+01 0.  1.
         -5    1    3    3    0  502 -0.64044529423E+02 -0.66109414183E+02  0.17636673484E+03  0.19898455706E+03  0.41800000000E+01 0.  1.
        -11    1    1    2    0    0  0.48369144633E+02  0.53614594912E+02  0.62943760555E+02  0.95791523284E+02  0.00000000000E+00 0.  1.
         11    1    1    2    0    0 -0.30266081368E+02  0.42837778928E+01  0.72258275407E+02  0.78457917377E+02  0.00000000000E+00 0. -1.
</event>
<event>
 7    1  0.2679104E-009  0.2005448E+03  0.7561462E-02  0.1149280E+00
          2   -1    0    0  501    0  0.00000000000E+00  0.00000000000E+00  0.12814729876E+04  0.12814729876E+04  0.00000000000E+00 0. -1.
         -2   -1    0    0    0  501 -0.00000000000E+00 -0.00000000000E+00 -0.42477350412E+02  0.42477350412E+02  0.00000000000E+00 0.  1.
         25    2    1    2    0    0 -0.15372012327E+03 -0.12407828838E+03  0.80796588373E+03  0.84111933381E+03  0.12509023337E+03 0.  0.
          5    1    3    3  502    0 -0.73516833300E+02 -0.76312575772E+02  0.20349919341E+03  0.22947271759E+03  0.41800000000E+01 0.  1.
         -5    1    3    3    0  502 -0.80203289966E+02 -0.47765712610E+02  0.60446669032E+03  0.61164661622E+03  0.41800000000E+01 0.  1.
        -11    1    1    2    0    0  0.71696925187E+02  0.32679352687E+02  0.26403984900E+03  0.27554569681E+03  0.00000000000E+00 0.  1.
         11    1    1    2    0    0  0.82023198079E+02  0.91398935695E+02  0.16698990446E+03  0.20728530739E+03  0.00000000000E+00 0. -1.
</event>
<event>
 7    1  0.2679104E-009  0.2046710E+03  0.7561462E-02  0.1145857E+00
          2   -1    0    0  501    0  0.00000000000E+00  0.00000000000E+00  0.19532796489E+03  0.19532796489E+03  0.00000000000E+00 0. -1.
         -2   -1    0    0    0  501 -0.00000000000E+00 -0.00000000000E+00 -0.33242772581E+03  0.33242772581E+03  0.00000000000E+00 0.  1.
         25    2    1    2    0    0  0.98822857339E+02 -0.16160410780E+03 -0.20494389247E+03  0.30582907027E+03  0.12509027289E+03 0.  0.
          5    1    3    3  502    0  0.10423576097E+02 -0.11572080767E+03 -0.62587216437E+02  0.13204010121E+03  0.41800000000E+01 0.  1.
         -5    1    3    3    0  502  0.88399281241E+02 -0.45883300130E+02 -0.14235667604E+03  0.17378896906E+03  0.41800000000E+01 0.  1.
        -11    1    1    2    0    0 -0.59620460290E+02  0.60438841443E+02 -0.13973876890E+02  0.86039072958E+02  0.00000000000E+00 0.  1.
         11    1    1    2    0    0 -0.39202397048E+02  0.10116526636E+03  0.81818008437E+02  0.13588754747E+03  0.00000000000E+00 0. -1.
</event>
<event>
 7    1  0.2679104E-009  0.1196246E+03  0.7561462E-02  0.1243718E+00
         -1   -1    0    0    0  501 -0.00000000000E+00  0.00000000000E+00  0.20118526424E+03  0.20118526424E+03  0.00000000000E+00 0.  1.
          1   -1    0    0  501    0  0.00000000000E+00 -0.00000000000E+00 -0.13767629741E+03  0.13767629741E+03  0.00000000000E+00 0. -1.
         25    2    1    2    0    0  0.88424253441E+02  0.78163339163E+02  0.78175912903E+02  0.18891005238E+03  0.12508868192E+03 0.  0.
          5    1    3    3  502    0  0.52371170789E+02  0.46624091752E+02  0.11052528330E+03  0.13095745916E+03  0.41800000000E+01 0.  1.
         -5    1    3    3    0  502  0.36053082653E+02  0.31539247411E+02 -0.32349370393E+02  0.57952593220E+02  0.41800000000E+01 0.  1.
        -11    1    1    2    0    0 -0.75263915956E+02 -0.77059972570E+02 -0.45099472796E+02  0.11677696204E+03  0.00000000000E+00 0. -1.
         11    1    1    2    0    0 -0.13160337486E+02 -0.11033665931E+01  0.30432526731E+02  0.33174547229E+02  0.00000000000E+00 0.  1.
</event>
<event>
 7    1  0.2679104E-009  0.3020478E+03  0.7561462E-02  0.1084221E+00
          2   -1    0    0  501    0  0.00000000000E+00  0.00000000000E+00  0.19565397835E+04  0.19565397835E+04  0.00000000000E+00 0. -1.
         -2   -1    0    0    0  501 -0.00000000000E+00 -0.00000000000E+00 -0.65811746873E+02  0.65811746873E+02  0.00000000000E+00 0.  1.
         25    2    1    2    0    0  0.14296770014E+02  0.28330764977E+03  0.14969535859E+04  0.15287198772E+04  0.12508717954E+03 0.  0.
          5    1    3    3  502    0 -0.23377467990E+02  0.26506677737E+03  0.13435255002E+04  0.13696295647E+04  0.41800000000E+01 0.  1.
         -5    1    3    3    0  502  0.37674238004E+02  0.18240872398E+02  0.15342808570E+03  0.15909031246E+03  0.41800000000E+01 0.  1.
        -11    1    1    2    0    0 -0.48346282675E+02 -0.20291518951E+03  0.25201770990E+03  0.32714654711E+03  0.00000000000E+00 0.  1.
         11    1    1    2    0    0  0.34049512661E+02 -0.80392460261E+02  0.14175674081E+03  0.16648510607E+03  0.00000000000E+00 0. -1.
</event>
<event>
 7    1  0.2679104E-009  0.1332631E+03  0.7561462E-02  0.1222693E+00
         -2   -1    0    0    0  501 -0.00000000000E+00  0.00000000000E+00  0.44651198699E+02  0.44651198699E+02  0.00000000000E+00 0.  1.
          2   -1    0    0  501    0  0.00000000000E+00 -0.00000000000E+00 -0.61006062421E+03  0.61006062421E+03  0.00000000000E+00 0. -1.
         25    2    1    2    0    0 -0.84499521752E+02  0.23990510151E+02 -0.46220096965E+03  0.48681920452E+03  0.12508991879E+03 0.  0.
          5    1    3    3  502    0 -0.10565724553E+03  0.33142259818E+02 -0.25163169241E+03  0.27495062092E+03  0.41800000000E+01 0.  1.
         -5    1    3    3    0  502  0.21157723775E+02 -0.91517496677E+01 -0.21056927724E+03  0.21186858359E+03  0.41800000000E+01 0.  1.
        -11    1    1    2    0    0  0.42514725910E+02 -0.62317128473E+02 -0.55054662924E+02  0.93391339695E+02  0.00000000000E+00 0. -1.
         11    1    1    2    0    0  0.41984795842E+02  0.38326618322E+02 -0.48153792939E+02  0.74501278703E+02  0.00000000000E+00 0.  1.
</event>
<event>
 7    1  0.2679104E-009  0.1179066E+03  0.7561462E-02  0.1246591E+00
         -1   -1    0    0    0  501 -0.00000000000E+00  0.00000000000E+00  0.38510054515E+02  0.38510054515E+02  0.00000000000E+00 0.  1.
          1   -1    0    0  501    0  0.00000000000E+00 -0.00000000000E+00 -0.52545511533E+03  0.52545511533E+03  0.00000000000E+00 0. -1.
         25    2    1    2    0    0 -0.71258796604E+02 -0.50227903032E+02 -0.32759997436E+03  0.36134346506E+03  0.12508676272E+03 0.  0.
          5    1    3    3  502    0 -0.54632761839E+01 -0.69956465592E+02 -0.91292327681E+02  0.11521942526E+03  0.41800000000E+01 0. -1.
         -5    1    3    3    0  502 -0.65795520420E+02  0.19728562560E+02 -0.23630764668E+03  0.24612403980E+03  0.41800000000E+01 0. -1.
        -11    1    1    2    0    0  0.77293449967E+01  0.28547874263E+02  0.15024854763E+00  0.29576113227E+02  0.00000000000E+00 0.  1.
         11    1    1    2    0    0  0.63529451608E+02  0.21680028770E+02 -0.15949533500E+03  0.17304559156E+03  0.00000000000E+00 0. -1.
</event>
<event>
 7    1  0.2679104E-009  0.9745267E+02  0.7561462E-02  0.1285746E+00
          1   -1    0    0  501    0  0.00000000000E+00  0.00000000000E+00  0.84006884535E+03  0.84006884535E+03  0.00000000000E+00 0. -1.
         -1   -1    0    0    0  501 -0.00000000000E+00 -0.00000000000E+00 -0.21869915621E+02  0.21869915621E+02  0.00000000000E+00 0.  1.
         25    2    1    2    0    0  0.43829473352E+02 -0.38098419156E+02  0.69529294597E+03  0.70883906238E+03  0.12509205958E+03 0.  0.
          5    1    3    3  502    0  0.12040037594E+02 -0.81522530784E+02  0.36913873916E+03  0.37824828708E+03  0.41800000000E+01 0.  1.
         -5    1    3    3    0  502  0.31789435758E+02  0.43424111628E+02  0.32615420680E+03  0.33059077530E+03  0.41800000000E+01 0.  1.
        -11    1    1    2    0    0 -0.13379206865E+02  0.79464042738E+01 -0.64390734173E+01  0.16840729904E+02  0.00000000000E+00 0.  1.
         11    1    1    2    0    0 -0.30450266486E+02  0.30152014882E+02  0.12934505718E+03  0.13625896868E+03  0.00000000000E+00 0. -1.
</event>
<event>
 7    1  0.2679104E-009  0.1113992E+03  0.7561462E-02  0.1258000E+00
          2   -1    0    0  501    0  0.00000000000E+00  0.00000000000E+00  0.47893021131E+02  0.47893021131E+02  0.00000000000E+00 0. -1.
         -2   -1    0    0    0  501 -0.00000000000E+00 -0.00000000000E+00 -0.32727062169E+03  0.32727062169E+03  0.00000000000E+00 0.  1.
         25    2    1    2    0    0  0.49793395713E+02 -0.20944141717E+02 -0.20353395843E+03  0.24493227213E+03  0.12509079250E+03 0.  0.
          5    1    3    3  502    0 -0.21342328126E+02  0.35562515623E+02 -0.92126809048E+02  0.10111878576E+03  0.41800000000E+01 0.  1.
         -5    1    3    3    0  502  0.71135723839E+02 -0.56506657341E+02 -0.11140714938E+03  0.14381348638E+03  0.41800000000E+01 0.  1.
        -11    1    1    2    0    0  0.18738157217E+02  0.86984382451E+00 -0.51459521866E+02  0.54771868280E+02  0.00000000000E+00 0.  1.
         11    1    1    2    0    0 -0.68531552931E+02  0.20074297893E+02 -0.24384120262E+02  0.75459502410E+02  0.00000000000E+00 0. -1.
</event>
<event>
 7    1  0.2679104E-009  0.9684238E+02  0.7561462E-02  0.1287080E+00
          1   -1    0    0  501    0  0.00000000000E+00  0.00000000000E+00  0.15417896721E+03  0.15417896721E+03  0.00000000000E+00 0. -1.
         -1   -1    0    0    0  501 -0.00000000000E+00 -0.00000000000E+00 -0.11889401821E+03  0.11889401821E+03  0.00000000000E+00 0.  1.
         25    2    1    2    0    0 -0.72700755887E+02  0.31099101442E+01 -0.15667816997E+02  0.14556215989E+03  0.12509112860E+03 0.  0.
          5    1    3    3  502    0 -0.94940638657E+02  0.38336741646E+01 -0.47648777848E+02  0.10637810093E+03  0.41800000000E+01 0. -1.
         -5    1    3    3    0  502  0.22239882771E+02 -0.72376402049E+00  0.31980960850E+02  0.39184058964E+02  0.41800000000E+01 0. -1.
        -11    1    1    2    0    0  0.23505163079E+02 -0.11268165901E+02 -0.25348227620E+02  0.36359275262E+02  0.00000000000E+00 0.  1.
         11    1    1    2    0    0  0.49195592808E+02  0.81582557566E+01  0.76300993621E+02  0.91151550268E+02  0.00000000000E+00 0. -1.
</event>
<event>
 7    1  0.2679104E-009  0.1607270E+03  0.7561462E-02  0.1187878E+00
          1   -1    0    0  501    0  0.00000000000E+00  0.00000000000E+00  0.18804726183E+04  0.18804726183E+04  0.00000000000E+00 0. -1.
         -1   -1    0    0    0  501 -0.00000000000E+00 -0.00000000000E+00 -0.19750197964E+02  0.19750197964E+02  0.00000000000E+00 0.  1.
         25    2    1    2    0    0 -0.81857047181E+02  0.11709344622E+03  0.13080108520E+04  0.13217228483E+04  0.12508975771E+03 0.  0.
          5    1    3    3  502    0  0.14579812135E+02  0.19401372309E+02  0.60056719290E+03  0.60107188402E+03  0.41800000000E+01 0.  1.
         -5    1    3    3    0  502 -0.96436859316E+02  0.97692073912E+02  0.70744365912E+03  0.72065096431E+03  0.41800000000E+01 0.  1.
        -11    1    1    2    0    0  0.34278110005E+02 -0.10492298194E+03  0.27232198035E+03  0.29384193361E+03  0.00000000000E+00 0. -1.
         11    1    1    2    0    0  0.47578937176E+02 -0.12170464277E+02  0.28038958793E+03  0.28465803428E+03  0.00000000000E+00 0.  1.
</event>
<event>
 7    1  0.2679104E-009  0.1288733E+03  0.7561462E-02  0.1229137E+00
          2   -1    0    0  501    0  0.00000000000E+00  0.00000000000E+00  0.30025078978E+03  0.30025078978E+03  0.00000000000E+00 0. -1.
         -2   -1    0    0    0  501 -0.00000000000E+00 -0.00000000000E+00 -0.97061652167E+02  0.97061652167E+02  0.00000000000E+00 0.  1.
         25    2    1    2    0    0 -0.61813502849E+02 -0.83867228996E+02  0.20205429131E+03  0.25947663636E+03  0.12509023522E+03 0.  0.
          5    1    3    3  502    0  0.29983109342E+02 -0.42297947248E+02  0.30016394763E+02  0.60054637971E+02  0.41800000000E+01 0.  1.
         -5    1    3    3    0  502 -0.91796612191E+02 -0.41569281748E+02  0.17203789655E+03  0.19942199839E+03  0.41800000000E+01 0.  1.
        -11    1    1    2    0    0  0.34217776788E+02  0.36323063915E+02 -0.44137555090E+02  0.66620905051E+02  0.00000000000E+00 0.  1.
         11    1    1    2    0    0  0.27595726061E+02  0.47544165081E+02  0.45272401393E+02  0.71214900533E+02  0.00000000000E+00 0. -1.
</event>
<event>
 7    1  0.2679104E-009  0.9297040E+02  0.7561462E-02  0.1295814E+00
          2   -1    0    0  501    0  0.00000000000E+00  0.00000000000E+00  0.55950895405E+03  0.55950895405E+03  0.00000000000E+00 0. -1.
         -2   -1    0    0    0  501 -0.00000000000E+00 -0.00000000000E+00 -0.22182665169E+02  0.22182665169E+02  0.00000000000E+00 0.  1.
         25    2    1    2    0    0 -0.13555850680E+02  0.69832889129E+01  0.37682846673E+03  0.39734077398E+03  0.12508984738E+03 0.  0.
          5    1    3    3  502    0  0.41296302180E+02 -0.36676661476E+02  0.18189830666E+03  0.19014475653E+03  0.41800000000E+01 0.  1.
         -5    1    3    3    0  502 -0.54852152860E+02  0.43659950389E+02  0.19493016007E+03  0.20719601745E+03  0.41800000000E+01 0.  1.
        -11    1    1    2    0    0  0.40669220707E+01 -0.32677382942E+02  0.14803018454E+02  0.36103747263E+02  0.00000000000E+00 0.  1.
         11    1    1    2    0    0  0.94889286092E+01  0.25694094029E+02  0.14569480370E+03  0.14824709798E+03  0.00000000000E+00 0. -1.
</event>
<event>
 7    1  0.2966466E-009  0.1040332E+03  0.7561462E-02  0.1272036E+00
         -2   -1    0    0    0  501 -0.00000000000E+00  0.00000000000E+00  0.10400916172E+02  0.10400916172E+02  0.00000000000E+00 0.  1.
          2   -1    0    0  501    0  0.00000000000E+00 -0.00000000000E+00 -0.12734403636E+04  0.12734403636E+04  0.00000000000E+00 0. -1.
         25    2    1    2    0    0 -0.25852214186E+02 -0.20872769112E+02 -0.85303458751E+03  0.86279739397E+03  0.12508927251E+03 0.  0.
          5    1    3    3  502    0  0.38061060416E+02 -0.39163589182E+02 -0.24083034569E+03  0.24698007783E+03  0.41800000000E+01 0. -1.
         -5    1    3    3    0  502 -0.63913274602E+02  0.18290820069E+02 -0.61220424181E+03  0.61581731614E+03  0.41800000000E+01 0. -1.
        -11    1    1    2    0    0 -0.27493303156E+02 -0.40753401039E+01 -0.60071668057E+02  0.66189843772E+02  0.00000000000E+00 0.  1.
         11    1    1    2    0    0  0.53345517343E+02  0.24948109216E+02 -0.34993319184E+03  0.35485404201E+03  0.00000000000E+00 0. -1.
</event>
<event>
 7    1  0.2679104E-009  0.1145714E+03  0.7561462E-02  0.1252331E+00
          2   -1    0    0  501    0  0.00000000000E+00  0.00000000000E+00  0.11431048805E+03  0.11431048805E+03  0.00000000000E+00 0. -1.
         -2   -1    0    0    0  501 -0.00000000000E+00 -0.00000000000E+00 -0.18122440804E+03  0.18122440804E+03  0.00000000000E+00 0.  1.
         25    2    1    2    0    0 -0.75464358356E+02 -0.21412400556E+02 -0.90033242312E+02  0.17293724551E+03  0.12509174987E+03 0.  0.
          5    1    3    3  502    0 -0.97006307610E+02  0.20970689773E+02 -0.67927348271E+02  0.12033948059E+03  0.41800000000E+01 0. -1.
         -5    1    3    3    0  502  0.21541949254E+02 -0.42383090328E+02 -0.22105894040E+02  0.52597764922E+02  0.41800000000E+01 0. -1.
        -11    1    1    2    0    0  0.64475176945E+02  0.26822689244E+02 -0.24055067563E+02  0.73858996580E+02  0.00000000000E+00 0.  1.
         11    1    1    2    0    0  0.10989181411E+02 -0.54102886883E+01  0.47174389890E+02  0.48738653996E+02  0.00000000000E+00 0. -1.
</event>
<event>
 7    1  0.2679104E-009  0.7949176E+02  0.7561462E-02  0.1330500E+00
          2   -1    0    0  501    0  0.00000000000E+00  0.00000000000E+00  0.23894776393E+03  0.23894776393E+03  0.00000000000E+00 0. -1.
         -2   -1    0    0    0  501 -0.00000000000E+00 -0.00000000000E+00 -0.62583822353E+02  0.62583822353E+02  0.00000000000E+00 0.  1.
         25    2    1    2    0    0 -0.93055213546E+01  0.53615267900E+02  0.12239118030E+03  0.18327112676E+03  0.12509002842E+03 0.  0.
          5    1    3    3  502    0 -0.60879619929E+01 -0.47335166411E+00 -0.25056915774E+02  0.26126782640E+02  0.41800000000E+01 0.  1.
         -5    1    3    3    0  502 -0.32175593616E+01  0.54088619564E+02  0.14744809607E+03  0.15714434412E+03  0.41800000000E+01 0.  1.
        -11    1    1    2    0    0  0.37782777897E+02 -0.57183633599E+02  0.57343540909E+02  0.89363235960E+02  0.00000000000E+00 0. -1.
         11    1    1    2    0    0 -0.28477256543E+02  0.35683656998E+01 -0.33707796336E+01  0.28897223557E+02  0.00000000000E+00 0.  1.
</event>
<event>
 7    1  0.2679104E-009  0.8597246E+02  0.7561462E-02  0.1312909E+00
          1   -1    0    0  501    0  0.00000000000E+00  0.00000000000E+00  0.24549226192E+03  0.24549226192E+03  0.00000000000E+00 0. -1.
         -1   -1    0    0    0  501 -0.00000000000E+00 -0.00000000000E+00 -0.80016132022E+02  0.80016132022E+02  0.00000000000E+00 0.  1.
         25    2    1    2    0    0  0.56600434690E+02 -0.61417549729E+01  0.17278614767E+03  0.22078128001E+03  0.12509192786E+03 0.  0.
          5    1    3    3  502    0  0.62750291494E+02 -0.27223377111E+02  0.18358264565E+03  0.19595604488E+03  0.41800000000E+01 0. -1.
         -5    1    3    3    0  502 -0.61498568040E+01  0.21081622139E+02 -0.10796497973E+02  0.24825235129E+02  0.41800000000E+01 0. -1.
        -11    1    1    2    0    0 -0.53233184272E+02 -0.18374552367E+02 -0.36000387484E+02  0.66838790993E+02  0.00000000000E+00 0.  1.
         11    1    1    2    0    0 -0.33672504184E+01  0.24516307340E+02  0.28690369712E+02  0.37888322940E+02  0.00000000000E+00 0. -1.
</event>
<event>
 7    1  0.3298909E-009  0.1354205E+03  0.7561462E-02  0.1219627E+00
         -1   -1    0    0    0  501 -0.00000000000E+00  0.00000000000E+00  0.35003464385E+02  0.35003464385E+02  0.00000000000E+00 0.  1.
          1   -1    0    0  501    0  0.00000000000E+00 -0.00000000000E+00 -0.58788617958E+03  0.58788617958E+03  0.00000000000E+00 0. -1.
         25    2    1    2    0    0  0.17994243362E+02  0.90711069312E+02 -0.33007403507E+03  0.36489619451E+03  0.12509225897E+03 0.  0.
          5    1    3    3  502    0  0.60051790630E+02  0.92806214602E+02 -0.26628027231E+03  0.28834331421E+03  0.41800000000E+01 0. -1.
         -5    1    3    3    0  502 -0.42057547268E+02 -0.20951452906E+01 -0.63793762751E+02  0.76552880298E+02  0.41800000000E+01 0. -1.
        -11    1    1    2    0    0 -0.43315871679E+02 -0.31657223986E+02 -0.48892007948E+02  0.72587003045E+02  0.00000000000E+00 0.  1.
         11    1    1    2    0    0  0.25321628317E+02 -0.59053845326E+02 -0.17391667219E+03  0.18540644642E+03  0.00000000000E+00 0. -1.
</event>
<event>
 7    1  0.2679104E-009  0.1384660E+03  0.7561462E-02  0.1215408E+00
         -1   -1    0    0    0  501 -0.00000000000E+00  0.00000000000E+00  0.94812593559E+02  0.94812593559E+02  0.00000000000E+00 0.  1.
          1   -1    0    0  501    0  0.00000000000E+00 -0.00000000000E+00 -0.25802154405E+03  0.25802154405E+03  0.00000000000E+00 0. -1.
         25    2    1    2    0    0 -0.10908957449E+03  0.94270001051E+01 -0.10220905590E+03  0.19515006823E+03  0.12508978547E+03 0.  0.
          5    1    3    3  502    0 -0.16208425699E+02 -0.43983799202E+02 -0.67814268170E+02  0.82544139848E+02  0.41800000000E+01 0.  1.
         -5    1    3    3    0  502 -0.92881148796E+02  0.53410799307E+02 -0.34394787733E+02  0.11260592839E+03  0.41800000000E+01 0.  1.
        -11    1    1    2    0    0  0.10822542817E+03  0.48586282646E+01 -0.79441738601E+02  0.13434038634E+03  0.00000000000E+00 0. -1.
         11    1    1    2    0    0  0.86414632602E+00 -0.14285628370E+02  0.18441844014E+02  0.23343683031E+02  0.00000000000E+00 0.  1.
</event>
<event>
 7    1  0.2679104E-009  0.1944927E+03  0.7561462E-02  0.1154471E+00
         -4   -1    0    0    0  501 -0.00000000000E+00  0.00000000000E+00  0.75884180316E+03  0.75884180316E+03  0.00000000000E+00 0.  1.
          4   -1    0    0  501    0  0.00000000000E+00 -0.00000000000E+00 -0.67722096034E+02  0.67722096034E+02  0.00000000000E+00 0. -1.
         25    2    1    2    0    0  0.74956802946E+02 -0.15697111915E+03  0.18436552055E+03  0.28265974045E+03  0.12508968443E+03 0.  0.
          5    1    3    3  502    0  0.49362436390E+02 -0.17273190226E+03  0.17517473926E+03  0.25095143327E+03  0.41800000000E+01 0. -1.
         -5    1    3    3    0  502  0.25594366556E+02  0.15760783111E+02  0.91907812882E+01  0.31708307182E+02  0.41800000000E+01 0. -1.
        -11    1    1    2    0    0 -0.74245631123E+02  0.11449439864E+03  0.46392884195E+03  0.48358179397E+03  0.00000000000E+00 0.  1.
         11    1    1    2    0    0 -0.71117182309E+00  0.42476720501E+02  0.42825344621E+02  0.60322364773E+02  0.00000000000E+00 0. -1.
</event>
<event>
 7    1  0.2679104E-009  0.9675358E+02  0.7561462E-02  0.1287275E+00
          2   -1    0    0  501    0  0.00000000000E+00  0.00000000000E+00  0.32503928986E+03  0.32503928986E+03  0.00000000000E+00 0. -1.
         -2   -1    0    0    0  501 -0.00000000000E+00 -0.00000000000E+00 -0.39882121485E+02  0.39882121485E+02  0.00000000000E+00 0.  1.
         25    2    1    2    0    0  0.18603342595E+02  0.41176951850E+01  0.23168115789E+03  0.26398258674E+03  0.12509039696E+03 0.  0.
          5    1    3    3  502    0  0.79461347323E+01  0.59530021223E+02  0.16968047545E+03  0.18004416301E+03  0.41800000000E+01 0.  1.
         -5    1    3    3    0  502  0.10657207863E+02 -0.55412326038E+02  0.62000682443E+02  0.83938423739E+02  0.41800000000E+01 0.  1.
        -11    1    1    2    0    0 -0.45888538205E+00  0.34263966883E+02  0.46736526350E+02  0.57952850642E+02  0.00000000000E+00 0. -1.
         11    1    1    2    0    0 -0.18144457213E+02 -0.38381662068E+02  0.67394841331E+01  0.42985973957E+02  0.00000000000E+00 0.  1.
</event>
<event>
 7    1  0.2679104E-009  0.1294991E+03  0.7561462E-02  0.1228201E+00
         -1   -1    0    0    0  501 -0.00000000000E+00  0.00000000000E+00  0.13450903491E+03  0.13450903491E+03  0.00000000000E+00 0.  1.
          1   -1    0    0  501    0  0.00000000000E+00 -0.00000000000E+00 -0.19479785492E+03  0.19479785492E+03  0.00000000000E+00 0. -1.
         25    2    1    2    0    0 -0.61669745189E+02  0.95504150737E+02  0.87840990000E+01  0.16925991559E+03  0.12509020085E+03 0.  0.
          5    1    3    3  502    0 -0.28906740059E+02  0.55964578271E+02  0.66637890374E+02  0.91791690667E+02  0.41800000000E+01 0.  1.
         -5    1    3    3    0  502 -0.32763005130E+02  0.39539572466E+02 -0.57853791374E+02  0.77468224920E+02  0.41800000000E+01 0.  1.
        -11    1    1    2    0    0  0.23892887186E+01 -0.83914110210E+02 -0.41590827125E+02  0.93686090184E+02  0.00000000000E+00 0.  1.
         11    1    1    2    0    0  0.59280456470E+02 -0.11590040526E+02 -0.27482091883E+02  0.66360884058E+02  0.00000000000E+00 0. -1.
</event>
<event>
 7    1  0.2679104E-009  0.2739042E+03  0.7561462E-02  0.1099066E+00
         -1   -1    0    0    0  501 -0.00000000000E+00  0.00000000000E+00  0.39459885392E+02  0.39459885392E+02  0.00000000000E+00 0. -1.
          1   -1    0    0  501    0  0.00000000000E+00 -0.00000000000E+00 -0.20915202787E+04  0.20915202787E+04  0.00000000000E+00 0.  1.
         25    2    1    2    0    0  0.23479015848E+03 -0.12349675481E+03 -0.11248837703E+04  0.11624925288E+04  0.12509003064E+03 0.  0.
          5    1    3    3  502    0  0.16562980320E+03 -0.11932908866E+03 -0.61747187759E+03  0.65035502237E+03  0.41800000000E+01 0.  1.
         -5    1    3    3    0  502  0.69160355282E+02 -0.41676661443E+01 -0.50741189275E+03  0.51213750642E+03  0.41800000000E+01 0.  1.
        -11    1    1    2    0    0 -0.14139564156E+03  0.35249468598E+02 -0.39511876183E+03  0.42113428789E+03  0.00000000000E+00 0.  1.
         11    1    1    2    0    0 -0.93394516922E+02  0.88247286207E+02 -0.53205786110E+03  0.54735334736E+03  0.00000000000E+00 0. -1.
</event>
<event>
 7    1  0.2679104E-009  0.2204007E+03  0.7561462E-02  0.1133585E+00
          1   -1    0    0  501    0  0.00000000000E+00  0.00000000000E+00  0.23303850791E+03  0.23303850791E+03  0.00000000000E+00 0. -1.
         -1   -1    0    0    0  501 -0.00000000000E+00 -0.00000000000E+00 -0.21567759206E+03  0.21567759206E+03  0.00000000000E+00 0.  1.
         25    2    1    2    0    0  0.13463135118E+03  0.13994088043E+03  0.34251691373E+02  0.23351609340E+03  0.12509011463E+03 0.  0.
          5    1    3    3  502    0  0.10279215463E+03  0.20012953389E+02  0.31102791370E+02  0.10932337988E+03  0.41800000000E+01 0.  1.
         -5    1    3    3    0  502  0.31839196552E+02  0.11992792704E+03  0.31489000021E+01  0.12419271353E+03  0.41800000000E+01 0.  1.
        -11    1    1    2    0    0 -0.38229271739E+02  0.41752627006E+01 -0.16413947376E+02  0.41813008798E+02  0.00000000000E+00 0. -1.
         11    1    1    2    0    0 -0.96402079441E+02 -0.14411614313E+03 -0.47682815294E+00  0.17338699777E+03  0.00000000000E+00 0.  1.
</event>
<event>
 7    1  0.2679104E-009  0.7380812E+02  0.7561462E-02  0.1347602E+00
         -1   -1    0    0    0  501 -0.00000000000E+00  0.00000000000E+00  0.79572761589E+02  0.79572761589E+02  0.00000000000E+00 0.  1.
          1   -1    0    0  501    0  0.00000000000E+00 -0.00000000000E+00 -0.18778044122E+03  0.18778044122E+03  0.00000000000E+00 0. -1.
         25    2    1    2    0    0 -0.41594591526E+02 -0.30344827332E+02 -0.88551253159E+02  0.16167704629E+03  0.12508886550E+03 0.  0.
          5    1    3    3  502    0 -0.54486215359E+02 -0.44612069338E+02 -0.11119081164E+03  0.13168087708E+03  0.41800000000E+01 0. -1.
         -5    1    3    3    0  502  0.12891623833E+02  0.14267242006E+02  0.22639558480E+02  0.29996169217E+02  0.41800000000E+01 0. -1.
        -11    1    1    2    0    0  0.17441557114E+02 -0.14091703470E+01 -0.51651768065E+02  0.54535298843E+02  0.00000000000E+00 0. -1.
         11    1    1    2    0    0  0.24153034413E+02  0.31753997679E+02  0.31995341593E+02  0.51140857673E+02  0.00000000000E+00 0.  1.
</event>
<event>
 7    1  0.2679104E-009  0.9770764E+02  0.7561462E-02  0.1285192E+00
         -1   -1    0    0    0  501 -0.00000000000E+00  0.00000000000E+00  0.28446747734E+03  0.28446747734E+03  0.00000000000E+00 0.  1.
          1   -1    0    0  501    0  0.00000000000E+00 -0.00000000000E+00 -0.70793669656E+02  0.70793669656E+02  0.00000000000E+00 0. -1.
         25    2    1    2    0    0  0.26125462740E+02  0.52405042114E+02  0.20479077956E+03  0.24701406132E+03  0.12509138602E+03 0.  0.
          5    1    3    3  502    0 -0.10384917774E+02 -0.23195535753E+02  0.12216101180E+00  0.25755906494E+02  0.41800000000E+01 0. -1.
         -5    1    3    3    0  502  0.36510380514E+02  0.75600577867E+02  0.20466861855E+03  0.22125815483E+03  0.41800000000E+01 0. -1.
        -11    1    1    2    0    0 -0.87071833164E+01  0.14254191865E+02  0.31565105298E+02  0.35712083382E+02  0.00000000000E+00 0.  1.
         11    1    1    2    0    0 -0.17418279423E+02 -0.66659233979E+02 -0.22682077175E+02  0.72535002293E+02  0.00000000000E+00 0. -1.
</event>
<event>
 7    1  0.2679104E-009  0.1798504E+03  0.7561462E-02  0.1167948E+00
         -1   -1    0    0    0  501 -0.00000000000E+00  0.00000000000E+00  0.67747269473E+02  0.67747269473E+02  0.00000000000E+00 0.  1.
          1   -1    0    0  501    0  0.00000000000E+00 -0.00000000000E+00 -0.84302399194E+03  0.84302399194E+03  0.00000000000E+00 0. -1.
         25    2    1    2    0    0  0.70395503319E+02  0.14548355502E+03 -0.13859667841E+03  0.24693605205E+03  0.12508949942E+03 0.  0.
          5    1    3    3  502    0  0.81241194662E+02  0.12339229097E+03 -0.51781409750E+02  0.15660324383E+03  0.41800000000E+01 0.  1.
         -5    1    3    3    0  502 -0.10845691344E+02  0.22091264052E+02 -0.86815268662E+02  0.90332808221E+02  0.41800000000E+01 0.  1.
        -11    1    1    2    0    0 -0.93077084920E+02 -0.10328972534E+03 -0.50153722368E+03  0.52045335798E+03  0.00000000000E+00 0. -1.
         11    1    1    2    0    0  0.22681581601E+02 -0.42193829682E+02 -0.13514282038E+03  0.14338185139E+03  0.00000000000E+00 0.  1.
</event>
<event>
 7    1  0.2679104E-009  0.1229702E+03  0.7561462E-02  0.1238276E+00
         -2   -1    0    0    0  501 -0.00000000000E+00  0.00000000000E+00  0.30192525599E+02  0.30192525599E+02  0.00000000000E+00 0.  1.
          2   -1    0    0  501    0  0.00000000000E+00 -0.00000000000E+00 -0.57733476567E+03  0.57733476567E+03  0.00000000000E+00 0. -1.
         25    2    1    2    0    0  0.36216703651E+02 -0.63198085741E+02 -0.24137539499E+03  0.28144685282E+03  0.12507838338E+03 0.  0.
          5    1    3    3  502    0  0.52414957673E+02  0.18140350126E+02 -0.59163838302E+02  0.81204878260E+02  0.41800000000E+01 0.  1.
         -5    1    3    3    0  502 -0.16198254022E+02 -0.81338435867E+02 -0.18221155669E+03  0.20024197456E+03  0.41800000000E+01 0.  1.
        -11    1    1    2    0    0  0.24665990759E+02  0.26435385611E+02 -0.15806507372E+03  0.16214748916E+03  0.00000000000E+00 0. -1.
         11    1    1    2    0    0 -0.60882694410E+02  0.36762700131E+02 -0.14770177136E+03  0.16393294929E+03  0.00000000000E+00 0.  1.
</event>
<event>
 7    1  0.2679104E-009  0.1488844E+03  0.7561462E-02  0.1201851E+00
          2   -1    0    0  501    0  0.00000000000E+00  0.00000000000E+00  0.37151153334E+03  0.37151153334E+03  0.00000000000E+00 0. -1.
         -2   -1    0    0    0  501 -0.00000000000E+00 -0.00000000000E+00 -0.87469878019E+02  0.87469878019E+02  0.00000000000E+00 0.  1.
         25    2    1    2    0    0 -0.10009719262E+03  0.29653390317E+02  0.24108022076E+02  0.16470699819E+03  0.12509367289E+03 0.  0.
          5    1    3    3  502    0  0.11639652036E+02  0.47425071480E+02  0.29846324587E+00  0.49012043262E+02  0.41800000000E+01 0. -1.
         -5    1    3    3    0  502 -0.11173684465E+03 -0.17771681163E+02  0.23809558830E+02  0.11569495493E+03  0.41800000000E+01 0. -1.
        -11    1    1    2    0    0  0.69608277622E+01  0.26085254747E+02  0.32372844273E+02  0.42153228639E+02  0.00000000000E+00 0.  1.
         11    1    1    2    0    0  0.93136364854E+02 -0.55738645064E+02  0.22756078897E+03  0.25212118453E+03  0.00000000000E+00 0. -1.
</event>
<event>
 7    1  0.2679104E-009  0.2549990E+03  0.7561462E-02  0.1110186E+00
          1   -1    0    0  501    0  0.00000000000E+00  0.00000000000E+00  0.48593201401E+03  0.48593201401E+03  0.00000000000E+00 0. -1.
         -1   -1    0    0    0  501 -0.00000000000E+00 -0.00000000000E+00 -0.16230672062E+03  0.16230672062E+03  0.00000000000E+00 0.  1.
         25    2    1    2    0    0 -0.10705639689E+03 -0.22650361630E+03  0.23921048570E+03  0.36828544354E+03  0.12509017204E+03 0.  0.
          5    1    3    3  502    0 -0.10520233248E+01 -0.42274119892E+01 -0.13878685536E+02  0.15134995125E+02  0.41800000000E+01 0.  1.
         -5    1    3    3    0  502 -0.10600437357E+03 -0.22227620431E+03  0.25308917124E+03  0.35315044842E+03  0.41800000000E+01 0.  1.
        -11    1    1    2    0    0  0.90194388870E+02  0.12150773954E+03  0.85095393861E+02  0.17360986322E+03  0.00000000000E+00 0.  1.
         11    1    1    2    0    0  0.16862008022E+02  0.10499587676E+03 -0.68058617162E+00  0.10634342786E+03  0.00000000000E+00 0. -1.
</event>
<event>
 7    1  0.2679104E-009  0.1115134E+03  0.7561462E-02  0.1257793E+00
          1   -1    0    0  501    0  0.00000000000E+00  0.00000000000E+00  0.35760552467E+02  0.35760552467E+02  0.00000000000E+00 0. -1.
         -1   -1    0    0    0  501 -0.00000000000E+00 -0.00000000000E+00 -0.46282678174E+03  0.46282678174E+03  0.00000000000E+00 0.  1.
         25    2    1    2    0    0 -0.12980880997E+02  0.67578934209E+02 -0.27265385545E+03  0.30777098115E+03  0.12508971312E+03 0.  0.
          5    1    3    3  502    0  0.34838784562E+02  0.99988542250E+01 -0.15026540880E+02  0.39458678721E+02  0.41800000000E+01 0.  1.
         -5    1    3    3    0  502 -0.47819665559E+02  0.57580079984E+02 -0.25762731457E+03  0.26831230243E+03  0.41800000000E+01 0.  1.
        -11    1    1    2    0    0 -0.33598636055E+02 -0.56251965355E+01 -0.38895498042E+02  0.51704651133E+02  0.00000000000E+00 0.  1.
         11    1    1    2    0    0  0.46579517052E+02 -0.61953737673E+02 -0.11551687578E+03  0.13911170192E+03  0.00000000000E+00 0. -1.
</event>
<event>
 7    1  0.2679104E-009  0.1308727E+03  0.7561462E-02  0.1226166E+00
          2   -1    0    0  501    0  0.00000000000E+00  0.00000000000E+00  0.18393135613E+03  0.18393135613E+03  0.00000000000E+00 0.  1.
         -2   -1    0    0    0  501 -0.00000000000E+00 -0.00000000000E+00 -0.12912779784E+03  0.12912779784E+03  0.00000000000E+00 0. -1.
         25    2    1    2    0    0  0.13185959226E+02  0.10048127984E+03 -0.12509912844E+02  0.16147616004E+03  0.12509074796E+03 0.  0.
          5    1    3    3  502    0  0.63134958593E+02  0.34932111149E+02  0.16270128045E+02  0.74084174103E+02  0.41800000000E+01 0. -1.
         -5    1    3    3    0  502 -0.49948999367E+02  0.65549168686E+02 -0.28780040888E+02  0.87391985941E+02  0.41800000000E+01 0. -1.
        -11    1    1    2    0    0 -0.14748507599E+02 -0.13613431619E+02  0.61289822955E+02  0.64492529759E+02  0.00000000000E+00 0.  1.
         11    1    1    2    0    0  0.15625483725E+01 -0.86867848216E+02  0.60236481817E+01  0.87090464165E+02  0.00000000000E+00 0. -1.
</event>
<event>
 7    1  0.2679104E-009  0.2153207E+03  0.7561462E-02  0.1137421E+00
         -2   -1    0    0    0  501 -0.00000000000E+00  0.00000000000E+00  0.29102675073E+02  0.29102675073E+02  0.00000000000E+00 0.  1.
          2   -1    0    0  501    0  0.00000000000E+00 -0.00000000000E+00 -0.17615040291E+04  0.17615040291E+04  0.00000000000E+00 0. -1.
         25    2    1    2    0    0 -0.18042437521E+03  0.55414844699E+02 -0.11283342804E+04  0.11508300500E+04  0.12509114862E+03 0.  0.
          5    1    3    3  502    0 -0.27027325077E+02 -0.34835496976E+02 -0.14886302885E+03  0.15531149960E+03  0.41800000000E+01 0. -1.
         -5    1    3    3    0  502 -0.15339705014E+03  0.90250341675E+02 -0.97947125155E+03  0.99551855040E+03  0.41800000000E+01 0. -1.
        -11    1    1    2    0    0  0.11848972572E+03  0.91706346413E+01 -0.29569426543E+03  0.31868325066E+03  0.00000000000E+00 0.  1.
         11    1    1    2    0    0  0.61934649496E+02 -0.64585479340E+02 -0.30837280819E+03  0.32109340352E+03  0.00000000000E+00 0. -1.
</event>
<event>
 7    1  0.2679104E-009  0.1548751E+03  0.7561462E-02  0.1194607E+00
         -2   -1    0    0    0  501 -0.00000000000E+00  0.00000000000E+00  0.24299552549E+02  0.24299552549E+02  0.00000000000E+00 0.  1.
          2   -1    0    0  501    0  0.00000000000E+00 -0.00000000000E+00 -0.13905719241E+04  0.13905719241E+04  0.00000000000E+00 0. -1.
         25    2    1    2    0    0 -0.51256416430E+02  0.12397502713E+03 -0.96272041533E+03  0.98003743255E+03  0.12508294660E+03 0.  0.
          5    1    3    3  502    0 -0.63769164600E+02  0.30962941477E+02 -0.63982805633E+03  0.64375664980E+03  0.41800000000E+01 0.  1.
         -5    1    3    3    0  502  0.12512748170E+02  0.93012085658E+02 -0.32289235900E+03  0.33628078275E+03  0.41800000000E+01 0.  1.
        -11    1    1    2    0    0  0.53915078029E+02 -0.59609583788E+02 -0.31645101622E+03  0.32649867348E+03  0.00000000000E+00 0. -1.
         11    1    1    2    0    0 -0.26586615984E+01 -0.64365443347E+02 -0.87100940029E+02  0.10833537064E+03  0.00000000000E+00 0.  1.
</event>
<event>
 7    1  0.2679104E-009  0.9519941E+02  0.7561462E-02  0.1290728E+00
          2   -1    0    0  501    0  0.00000000000E+00  0.00000000000E+00  0.53228766454E+03  0.53228766454E+03  0.00000000000E+00 0. -1.
         -2   -1    0    0    0  501 -0.00000000000E+00 -0.00000000000E+00 -0.30356596500E+02  0.30356596500E+02  0.00000000000E+00 0.  1.
         25    2    1    2    0    0 -0.35676564210E+02 -0.29913034359E+02  0.42162774627E+03  0.44225057493E+03  0.12509199712E+03 0.  0.
          5    1    3    3  502    0  0.27939638663E+02 -0.25745811947E+02  0.31954755412E+03  0.32182539052E+03  0.41800000000E+01 0.  1.
         -5    1    3    3    0  502 -0.63616202873E+02 -0.41672224123E+01  0.10208019216E+03  0.12042518441E+03  0.41800000000E+01 0.  1.
        -11    1    1    2    0    0  0.41932598937E+02  0.51153806086E+02  0.68810003008E+02  0.95445645498E+02  0.00000000000E+00 0. -1.
         11    1    1    2    0    0 -0.62560347272E+01 -0.21240771727E+02  0.11493318762E+02  0.24948040609E+02  0.00000000000E+00 0.  1.
</event>
<event>
 7    1  0.2679104E-009  0.1116718E+03  0.7561462E-02  0.1257505E+00
          1   -1    0    0  501    0  0.00000000000E+00  0.00000000000E+00  0.75664455553E+03  0.75664455553E+03  0.00000000000E+00 0. -1.
         -1   -1    0    0    0  501 -0.00000000000E+00 -0.00000000000E+00 -0.21382559038E+02  0.21382559038E+02  0.00000000000E+00 0.  1.
         25    2    1    2    0    0 -0.54955575021E+02  0.59673831915E+01  0.28684547741E+03  0.31777964577E+03  0.12509136848E+03 0.  0.
          5    1    3    3  502    0  0.33809814174E+02  0.12869934702E+00  0.15483724601E+03  0.15854073688E+03  0.41800000000E+01 0.  1.
         -5    1    3    3    0  502 -0.88765389195E+02  0.58386838444E+01  0.13200823139E+03  0.15923890889E+03  0.41800000000E+01 0.  1.
        -11    1    1    2    0    0  0.44562449411E+02  0.35811345602E+02  0.19528486808E+03  0.20348081992E+03  0.00000000000E+00 0.  1.
         11    1    1    2    0    0  0.10393125610E+02 -0.41778728793E+02  0.25313165100E+03  0.25676664888E+03  0.00000000000E+00 0. -1.
</event>
<event>
 7    1  0.2679104E-009  0.1024035E+03  0.7561462E-02  0.1275321E+00
         -1   -1    0    0    0  501 -0.00000000000E+00  0.00000000000E+00  0.25877070480E+03  0.25877070480E+03  0.00000000000E+00 0.  1.
          1   -1    0    0  501    0  0.00000000000E+00 -0.00000000000E+00 -0.51924404865E+02  0.51924404865E+02  0.00000000000E+00 0. -1.
         25    2    1    2    0    0  0.31952636891E+02 -0.15736079391E+02  0.15125327772E+03  0.19948438323E+03  0.12509144628E+03 0.  0.
          5    1    3    3  502    0 -0.20090784207E+02 -0.53578044774E+02  0.10657177816E+03  0.12103413896E+03  0.41800000000E+01 0.  1.
         -5    1    3    3    0  502  0.52043421098E+02  0.37841965382E+02  0.44681499555E+02  0.78450244270E+02  0.41800000000E+01 0.  1.
        -11    1    1    2    0    0 -0.14845148826E+02 -0.30353207673E+02 -0.39229007020E+01  0.34015949342E+02  0.00000000000E+00 0. -1.
         11    1    1    2    0    0 -0.17107488065E+02  0.46089287065E+02  0.59515922915E+02  0.77194777093E+02  0.00000000000E+00 0.  1.
</event>
<event>
 7    1  0.2679104E-009  0.1504710E+03  0.7561462E-02  0.1199895E+00
         -2   -1    0    0    0  501 -0.00000000000E+00  0.00000000000E+00  0.10651824683E+03  0.10651824683E+03  0.00000000000E+00 0.  1.
          2   -1    0    0  501    0  0.00000000000E+00 -0.00000000000E+00 -0.29960145066E+03  0.29960145066E+03  0.00000000000E+00 0. -1.
         25    2    1    2    0    0 -0.19920900681E+02 -0.12224562389E+03 -0.25256505342E+02  0.17784235066E+03  0.12509666575E+03 0.  0.
          5    1    3    3  502    0 -0.57987895557E+02 -0.12460842256E+03 -0.16530608752E+02  0.13849400142E+03  0.41800000000E+01 0. -1.
         -5    1    3    3    0  502  0.38066994877E+02  0.23627986734E+01 -0.87258965903E+01  0.39348349239E+02  0.41800000000E+01 0. -1.
        -11    1    1    2    0    0 -0.26295334599E+01  0.29692648001E+02 -0.11612689402E+03  0.11989171492E+03  0.00000000000E+00 0. -1.
         11    1    1    2    0    0  0.22550434141E+02  0.92552975884E+02 -0.51699804471E+02  0.10838563192E+03  0.00000000000E+00 0.  1.
</event>
<event>
 7    1  0.2679104E-009  0.7825141E+02  0.7561462E-02  0.1334088E+00
         -1   -1    0    0    0  501 -0.00000000000E+00  0.00000000000E+00  0.18254604823E+03  0.18254604823E+03  0.00000000000E+00 0.  1.
          1   -1    0    0  501    0  0.00000000000E+00 -0.00000000000E+00 -0.10210632664E+03  0.10210632664E+03  0.00000000000E+00 0. -1.
         25    2    1    2    0    0  0.29608125921E+02  0.21410410533E+02  0.11721776441E+03  0.17527424907E+03  0.12508401694E+03 0.  0.
          5    1    3    3  502    0 -0.12090678985E+02 -0.33554476253E+02 -0.35918298046E+01  0.36089625050E+02  0.41800000000E+01 0.  1.
         -5    1    3    3    0  502  0.41698804906E+02  0.54964886786E+02  0.12080959422E+03  0.13918462402E+03  0.41800000000E+01 0.  1.
        -11    1    1    2    0    0  0.43854269108E+01 -0.16565985726E+02 -0.63561234787E+02  0.65830801453E+02  0.00000000000E+00 0. -1.
         11    1    1    2    0    0 -0.33993552832E+02 -0.48444248072E+01  0.26783191957E+02  0.43547324341E+02  0.00000000000E+00 0.  1.
</event>
<event>
 7    1  0.2679104E-009  0.7300473E+02  0.7561462E-02  0.1350163E+00
         -1   -1    0    0    0  501 -0.00000000000E+00  0.00000000000E+00  0.34885893507E+03  0.34885893507E+03  0.00000000000E+00 0.  1.
          1   -1    0    0  501    0  0.00000000000E+00 -0.00000000000E+00 -0.64772862640E+02  0.64772862640E+02  0.00000000000E+00 0. -1.
         25    2    1    2    0    0 -0.14426702908E+02 -0.39302831386E+02  0.28307323444E+03  0.31229790028E+03  0.12508669054E+03 0.  0.
          5    1    3    3  502    0 -0.18527064355E+02  0.79814617166E+01 -0.42631056582E+01  0.21038115757E+02  0.41800000000E+01 0. -1.
         -5    1    3    3    0  502  0.41003614465E+01 -0.47284293103E+02  0.28733634010E+03  0.29125978452E+03  0.41800000000E+01 0. -1.
        -11    1    1    2    0    0  0.39363178335E+02  0.12846928559E+02  0.32969918823E+02  0.52929376808E+02  0.00000000000E+00 0.  1.
         11    1    1    2    0    0 -0.24936475427E+02  0.26455902827E+02 -0.31957080836E+02  0.48404520622E+02  0.00000000000E+00 0. -1.
</event>
<event>
 7    1  0.2979346E-009  0.7144783E+02  0.7561462E-02  0.1355238E+00
         -3   -1    0    0    0  501 -0.00000000000E+00  0.00000000000E+00  0.53602043124E+02  0.53602043124E+02  0.00000000000E+00 0.  1.
          3   -1    0    0  501    0  0.00000000000E+00 -0.00000000000E+00 -0.23915959835E+03  0.23915959835E+03  0.00000000000E+00 0. -1.
         25    2    1    2    0    0  0.13306367541E+02 -0.16245609049E+02 -0.71044370452E+02  0.14538271026E+03  0.12509136917E+03 0.  0.
          5    1    3    3  502    0 -0.25866020324E+02  0.19977830113E+02 -0.84075999652E+02  0.90301776399E+02  0.41800000000E+01 0.  1.
         -5    1    3    3    0  502  0.39172387865E+02 -0.36223439162E+02  0.13031629200E+02  0.55080933864E+02  0.41800000000E+01 0.  1.
        -11    1    1    2    0    0 -0.33626646583E+02  0.85114396987E+01 -0.41964916747E+01  0.34940041621E+02  0.00000000000E+00 0.  1.
         11    1    1    2    0    0  0.20320279041E+02  0.77341693502E+01 -0.11031669310E+03  0.11243888959E+03  0.00000000000E+00 0. -1.
</event>
<event>
 7    1  0.2679104E-009  0.1281306E+03  0.7561462E-02  0.1230256E+00
          2   -1    0    0  501    0  0.00000000000E+00  0.00000000000E+00  0.43961201981E+03  0.43961201981E+03  0.00000000000E+00 0. -1.
         -2   -1    0    0    0  501 -0.00000000000E+00 -0.00000000000E+00 -0.42478469521E+02  0.42478469521E+02  0.00000000000E+00 0.  1.
         25    2    1    2    0    0 -0.78655836477E+02 -0.19805045802E+02  0.27501195266E+03  0.31282065051E+03  0.12508479056E+03 0.  0.
          5    1    3    3  502    0  0.26159978339E+02 -0.24560659470E+02  0.32670340916E+02  0.48707227758E+02  0.41800000000E+01 0.  1.
         -5    1    3    3    0  502 -0.10481581482E+03  0.47556136682E+01  0.24234161174E+03  0.26411342275E+03  0.41800000000E+01 0.  1.
        -11    1    1    2    0    0  0.24909821236E+02 -0.31951466261E+02  0.28414842219E+02  0.49485337713E+02  0.00000000000E+00 0.  1.
         11    1    1    2    0    0  0.53746015241E+02  0.51756512063E+02  0.93706755409E+02  0.11978450110E+03  0.00000000000E+00 0. -1.
</event>
<event>
 7    1  0.2679104E-009  0.9754859E+02  0.7561462E-02  0.1285537E+00
         -3   -1    0    0    0  501 -0.00000000000E+00  0.00000000000E+00  0.13191323363E+03  0.13191323363E+03  0.00000000000E+00 0.  1.
          3   -1    0    0  501    0  0.00000000000E+00 -0.00000000000E+00 -0.10888055815E+03  0.10888055815E+03  0.00000000000E+00 0. -1.
         25    2    1    2    0    0 -0.31274570211E+02 -0.38826396642E+02  0.17558604011E+02  0.13579387099E+03  0.12508430360E+03 0.  0.
          5    1    3    3  502    0  0.25276679889E+02 -0.52917537140E+01 -0.40345168479E+02  0.48084490464E+02  0.41800000000E+01 0. -1.
         -5    1    3    3    0  502 -0.56551250099E+02 -0.33534642928E+02  0.57903772491E+02  0.87709380529E+02  0.41800000000E+01 0. -1.
        -11    1    1    2    0    0 -0.30748278164E+02  0.24713376987E+02 -0.73082358177E+01  0.40120043905E+02  0.00000000000E+00 0.  1.
         11    1    1    2    0    0  0.62022848375E+02  0.14113019655E+02  0.12782307282E+02  0.64879876878E+02  0.00000000000E+00 0. -1.
</event>
<event>
 7    1  0.2690208E-009  0.1896117E+03  0.7561462E-02  0.1158812E+00
          2   -1    0    0  501    0  0.00000000000E+00  0.00000000000E+00  0.16786071585E+04  0.16786071585E+04  0.00000000000E+00 0. -1.
         -2   -1    0    0    0  501 -0.00000000000E+00 -0.00000000000E+00 -0.24354709726E+02  0.24354709726E+02  0.00000000000E+00 0.  1.
         25    2    1    2    0    0  0.15716243358E+03 -0.65388809125E+02  0.90145962161E+03  0.92587935327E+03  0.12508957000E+03 0.  0.
          5    1    3    3  502    0  0.40666125804E+02 -0.74728640769E+02  0.25286864059E+03  0.26682976846E+03  0.41800000000E+01 0. -1.
         -5    1    3    3    0  502  0.11649630777E+03  0.93398316434E+01  0.64859098102E+03  0.65904958481E+03  0.41800000000E+01 0. -1.
        -11    1    1    2    0    0 -0.10581166052E+03  0.18213274184E+02  0.59440802332E+03  0.60402709298E+03  0.00000000000E+00 0. -1.
         11    1    1    2    0    0 -0.51350773052E+02  0.47175534942E+02  0.15838480382E+03  0.17305542196E+03  0.00000000000E+00 0.  1.
</event>
<event>
 7    1  0.2679104E-009  0.1084778E+03  0.7561462E-02  0.1263415E+00
         -1   -1    0    0    0  501 -0.00000000000E+00  0.00000000000E+00  0.24613070692E+03  0.24613070692E+03  0.00000000000E+00 0.  1.
          1   -1    0    0  501    0  0.00000000000E+00 -0.00000000000E+00 -0.71008539527E+02  0.71008539527E+02  0.00000000000E+00 0. -1.
         25    2    1    2    0    0  0.72980866537E+02 -0.10836077989E+02  0.11727570616E+03  0.18667353205E+03  0.12509911609E+03 0.  0.
          5    1    3    3  502    0  0.10753721505E+03 -0.54504634551E+01  0.73267545666E+02  0.13030566304E+03  0.41800000000E+01 0. -1.
         -5    1    3    3    0  502 -0.34556348513E+02 -0.53856145337E+01  0.44008160499E+02  0.56367869012E+02  0.41800000000E+01 0. -1.
        -11    1    1    2    0    0 -0.54164895600E+02  0.56466098602E+01  0.82603589614E+02  0.98939744973E+02  0.00000000000E+00 0.  1.
         11    1    1    2    0    0 -0.18815970937E+02  0.51894681286E+01 -0.24757128388E+02  0.31525969419E+02  0.00000000000E+00 0. -1.
</event>
<event>
 7    1  0.2679104E-009  0.1021512E+03  0.7561462E-02  0.1275836E+00
         -2   -1    0    0    0  501 -0.00000000000E+00  0.00000000000E+00  0.38558831570E+02  0.38558831570E+02  0.00000000000E+00 0.  1.
          2   -1    0    0  501    0  0.00000000000E+00 -0.00000000000E+00 -0.14853603640E+04  0.14853603640E+04  0.00000000000E+00 0. -1.
         25    2    1    2    0    0 -0.31327310856E+02  0.79446685395E+02 -0.13686514286E+04  0.13770066862E+04  0.12508998584E+03 0.  0.
          5    1    3    3  502    0 -0.42491284464E+02  0.45279495788E+02 -0.12763305853E+04  0.12778470086E+04  0.41800000000E+01 0. -1.
         -5    1    3    3    0  502  0.11163973608E+02  0.34167189607E+02 -0.92320843301E+02  0.99159677592E+02  0.41800000000E+01 0. -1.
        -11    1    1    2    0    0  0.49181890399E+02 -0.70363187139E+02 -0.89394269975E+02  0.12394019506E+03  0.00000000000E+00 0. -1.
         11    1    1    2    0    0 -0.17854579543E+02 -0.90834982565E+01  0.11244166173E+02  0.22972314297E+02  0.00000000000E+00 0.  1.
</event>
<event>
 7    1  0.2679104E-009  0.7307200E+02  0.7561462E-02  0.1349948E+00
          1   -1    0    0  501    0  0.00000000000E+00  0.00000000000E+00  0.13251991765E+03  0.13251991765E+03  0.00000000000E+00 0. -1.
         -1   -1    0    0    0  501 -0.00000000000E+00 -0.00000000000E+00 -0.87890759685E+02  0.87890759685E+02  0.00000000000E+00 0.  1.
         25    2    1    2    0    0 -0.37762013948E+01  0.61016551873E+01  0.24345883356E+02  0.12764021517E+03  0.12509121712E+03 0.  0.
          5    1    3    3  502    0 -0.25929375409E+02  0.38592592823E+02 -0.33578294885E+02  0.57503869586E+02  0.41800000000E+01 0.  1.
         -5    1    3    3    0  502  0.22153174014E+02 -0.32490937636E+02  0.57924178241E+02  0.70136345587E+02  0.41800000000E+01 0.  1.
        -11    1    1    2    0    0 -0.21186150095E+02 -0.21823106277E+02 -0.24560152005E+02  0.39093503168E+02  0.00000000000E+00 0.  1.
         11    1    1    2    0    0  0.24962351490E+02  0.15721451090E+02  0.44843426611E+02  0.53676958991E+02  0.00000000000E+00 0. -1.
</event>
<event>
 7    1  0.2679104E-009  0.1045320E+03  0.7561462E-02  0.1271044E+00
          1   -1    0    0  501    0  0.00000000000E+00  0.00000000000E+00  0.14574796609E+03  0.14574796609E+03  0.00000000000E+00 0. -1.
         -1   -1    0    0    0  501 -0.00000000000E+00 -0.00000000000E+00 -0.86544592780E+02  0.86544592780E+02  0.00000000000E+00 0.  1.
         25    2    1    2    0    0 -0.21549929169E+02 -0.20584820753E+02  0.44670683972E+02  0.13612928334E+03  0.12509027734E+03 0.  0.
          5    1    3    3  502    0 -0.39440811957E+02 -0.61253242118E+02 -0.20272660384E-01  0.72972666998E+02  0.41800000000E+01 0. -1.
         -5    1    3    3    0  502  0.17890882788E+02  0.40668421365E+02  0.44690956632E+02  0.63156616343E+02  0.41800000000E+01 0. -1.
        -11    1    1    2    0    0  0.54264610617E+02  0.22386755781E+02  0.21772326748E+02  0.62608697573E+02  0.00000000000E+00 0.  1.
         11    1    1    2    0    0 -0.32714681449E+02 -0.18019350274E+01 -0.72396374073E+01  0.33554577958E+02  0.00000000000E+00 0. -1.
</event>
<event>
 7    1  0.2679104E-009  0.1004979E+03  0.7561462E-02  0.1279252E+00
         -1   -1    0    0    0  501 -0.00000000000E+00  0.00000000000E+00  0.13292079016E+02  0.13292079016E+02  0.00000000000E+00 0.  1.
          1   -1    0    0  501    0  0.00000000000E+00 -0.00000000000E+00 -0.10698880058E+04  0.10698880058E+04  0.00000000000E+00 0. -1.
         25    2    1    2    0    0 -0.29713471767E+02  0.28450751053E+02 -0.72580439158E+03  0.73765282063E+03  0.12508930132E+03 0.  0.
          5    1    3    3  502    0  0.45373728657E+01 -0.33306057874E+02 -0.67142668853E+02  0.75203002762E+02  0.41800000000E+01 0.  1.
         -5    1    3    3    0  502 -0.34250844632E+02  0.61756808927E+02 -0.65866172273E+03  0.66244981787E+03  0.41800000000E+01 0.  1.
        -11    1    1    2    0    0 -0.23133530570E+02 -0.36208317682E+02 -0.10391311524E+03  0.11244615612E+03  0.00000000000E+00 0.  1.
         11    1    1    2    0    0  0.52847002337E+02  0.77575666292E+01 -0.22687842000E+03  0.23308110811E+03  0.00000000000E+00 0. -1.
</event>
<event>
 7    1  0.2679104E-009  0.1150328E+03  0.7561462E-02  0.1251524E+00
         -1   -1    0    0    0  501 -0.00000000000E+00  0.00000000000E+00  0.44785391419E+02  0.44785391419E+02  0.00000000000E+00 0.  1.
          1   -1    0    0  501    0  0.00000000000E+00 -0.00000000000E+00 -0.35150464148E+03  0.35150464148E+03  0.00000000000E+00 0. -1.
         25    2    1    2    0    0  0.63054705746E+02 -0.45792285026E+02 -0.21330684680E+03  0.25926759749E+03  0.12508815664E+03 0.  0.
          5    1    3    3  502    0  0.59018740431E+02  0.24912592781E+02 -0.50514575419E+02  0.81688700142E+02  0.41800000000E+01 0.  1.
         -5    1    3    3    0  502  0.40359653155E+01 -0.70704877807E+02 -0.16279227138E+03  0.17757889735E+03  0.41800000000E+01 0.  1.
        -11    1    1    2    0    0 -0.67798101302E+02  0.22922540647E+02 -0.48666266538E+02  0.86547275570E+02  0.00000000000E+00 0.  1.
         11    1    1    2    0    0  0.47433955552E+01  0.22869744379E+02 -0.44746136729E+02  0.50475159846E+02  0.00000000000E+00 0. -1.
</event>
<event>
 7    1  0.2679104E-009  0.1267781E+03  0.7561462E-02  0.1232316E+00
         -1   -1    0    0    0  501 -0.00000000000E+00  0.00000000000E+00  0.45912538189E+03  0.45912538189E+03  0.00000000000E+00 0.  1.
          1   -1    0    0  501    0  0.00000000000E+00 -0.00000000000E+00 -0.46791432788E+02  0.46791432788E+02  0.00000000000E+00 0. -1.
         25    2    1    2    0    0  0.14146723602E+01 -0.94534838021E+02  0.17996131872E+03  0.23868959154E+03  0.12509119863E+03 0.  0.
          5    1    3    3  502    0  0.28201534774E+02  0.22249538984E+02  0.52003076813E+02  0.63341620967E+02  0.41800000000E+01 0.  1.
         -5    1    3    3    0  502 -0.26786862414E+02 -0.11678437701E+03  0.12795824191E+03  0.17534797057E+03  0.41800000000E+01 0.  1.
        -11    1    1    2    0    0  0.97316121249E+01  0.68413439916E+02  0.22830952151E+03  0.23853792287E+03  0.00000000000E+00 0.  1.
         11    1    1    2    0    0 -0.11146284485E+02  0.26121398105E+02  0.40631088787E+01  0.28689300279E+02  0.00000000000E+00 0. -1.
</event>
<event>
 7    1  0.2679104E-009  0.8389719E+02  0.7561462E-02  0.1318342E+00
         -3   -1    0    0    0  501 -0.00000000000E+00  0.00000000000E+00  0.34607073749E+03  0.34607073749E+03  0.00000000000E+00 0.  1.
          3   -1    0    0  501    0  0.00000000000E+00 -0.00000000000E+00 -0.86756907088E+02  0.86756907088E+02  0.00000000000E+00 0. -1.
         25    2    1    2    0    0  0.41327099816E+02 -0.58125653043E+02  0.28223441278E+03  0.31684542553E+03  0.12509292227E+03 0.  0.
          5    1    3    3  502    0  0.98156146681E+01  0.10692346523E+02 -0.78481585288E+01  0.17021708427E+02  0.41800000000E+01 0.  1.
         -5    1    3    3    0  502  0.31511485148E+02 -0.68817999567E+02  0.29008257131E+03  0.29982371710E+03  0.41800000000E+01 0.  1.
        -11    1    1    2    0    0 -0.15948263708E+02  0.46139812124E+02  0.29128495398E+02  0.56848030945E+02  0.00000000000E+00 0.  1.
         11    1    1    2    0    0 -0.25378836108E+02  0.11985840919E+02 -0.52049077778E+02  0.59134188100E+02  0.00000000000E+00 0. -1.
</event>
<event>
 7    1  0.2679104E-009  0.2085851E+03  0.7561462E-02  0.1142691E+00
          1   -1    0    0  501    0  0.00000000000E+00  0.00000000000E+00  0.40869965498E+03  0.40869965498E+03  0.00000000000E+00 0. -1.
         -1   -1    0    0    0  501 -0.00000000000E+00 -0.00000000000E+00 -0.15753161086E+03  0.15753161086E+03  0.00000000000E+00 0.  1.
         25    2    1    2    0    0 -0.19448664384E+03 -0.27921254619E+02  0.25998075572E+03  0.34905792782E+03  0.12508713980E+03 0.  0.
          5    1    3    3  502    0 -0.19569002300E+03 -0.29888644085E+02  0.27182091952E+03  0.33629154143E+03  0.41800000000E+01 0. -1.
         -5    1    3    3    0  502  0.12033791581E+01  0.19673894662E+01 -0.11840163805E+02  0.12766386397E+02  0.41800000000E+01 0. -1.
        -11    1    1    2    0    0  0.13198376190E+03  0.59021705550E+02  0.98320045304E+01  0.14491357232E+03  0.00000000000E+00 0. -1.
         11    1    1    2    0    0  0.62502881941E+02 -0.31100450930E+02 -0.18644716133E+02  0.72259765698E+02  0.00000000000E+00 0.  1.
</event>
<event>
 7    1  0.2679104E-009  0.1443291E+03  0.7561462E-02  0.1207620E+00
         -2   -1    0    0    0  501 -0.00000000000E+00  0.00000000000E+00  0.79449874605E+03  0.79449874605E+03  0.00000000000E+00 0. -1.
          2   -1    0    0  501    0  0.00000000000E+00 -0.00000000000E+00 -0.77749709761E+02  0.77749709761E+02  0.00000000000E+00 0.  1.
         25    2    1    2    0    0 -0.46859159501E+02  0.12143639020E+03  0.50519293710E+02  0.18746198986E+03  0.12508885206E+03 0.  0.
          5    1    3    3  502    0 -0.46376361749E+01  0.15238905562E+02 -0.38933394865E+02  0.42273083017E+02  0.41800000000E+01 0.  1.
         -5    1    3    3    0  502 -0.42221523326E+02  0.10619748464E+03  0.89452688576E+02  0.14518890684E+03  0.41800000000E+01 0.  1.
        -11    1    1    2    0    0  0.40154780435E+02 -0.41676595780E+01  0.14756348081E+03  0.15298613221E+03  0.00000000000E+00 0.  1.
         11    1    1    2    0    0  0.67043790659E+01 -0.11726873062E+03  0.51866626177E+03  0.53180033375E+03  0.00000000000E+00 0. -1.
</event>
<event>
 7    1  0.2679104E-009  0.1329332E+03  0.7561462E-02  0.1223167E+00
          2   -1    0    0  501    0  0.00000000000E+00  0.00000000000E+00  0.13259658581E+03  0.13259658581E+03  0.00000000000E+00 0. -1.
         -2   -1    0    0    0  501 -0.00000000000E+00 -0.00000000000E+00 -0.17584383268E+03  0.17584383268E+03  0.00000000000E+00 0.  1.
         25    2    1    2    0    0 -0.92512195504E+02  0.44239908376E+02  0.70392938976E+01  0.16190233009E+03  0.12508851674E+03 0.  0.
          5    1    3    3  502    0 -0.27542019256E+02  0.63334028752E+02  0.46548067716E+02  0.83390389319E+02  0.41800000000E+01 0. -1.
         -5    1    3    3    0  502 -0.64970176248E+02 -0.19094120376E+02 -0.39508773819E+02  0.78511940769E+02  0.41800000000E+01 0. -1.
        -11    1    1    2    0    0  0.38341501073E+02 -0.61067019506E+02 -0.21429420305E+01  0.72137672381E+02  0.00000000000E+00 0.  1.
         11    1    1    2    0    0  0.54170694431E+02  0.16827111131E+02 -0.48143598745E+02  0.74400416022E+02  0.00000000000E+00 0. -1.
</event>
<event>
 7    1  0.2679104E-009  0.1298284E+03  0.7561462E-02  0.1227711E+00
          3   -1    0    0  501    0  0.00000000000E+00  0.00000000000E+00  0.34885772952E+02  0.34885772952E+02  0.00000000000E+00 0. -1.
         -3   -1    0    0    0  501 -0.00000000000E+00 -0.00000000000E+00 -0.53106915911E+03  0.53106915911E+03  0.00000000000E+00 0.  1.
         25    2    1    2    0    0  0.77901429556E+01  0.72590515896E+02 -0.19459094897E+03  0.24257922115E+03  0.12509585041E+03 0.  0.
          5    1    3    3  502    0 -0.57670663361E+02  0.28928852870E+02 -0.71205356771E+02  0.96179307410E+02  0.41800000000E+01 0.  1.
         -5    1    3    3    0  502  0.65460806317E+02  0.43661663025E+02 -0.12338559220E+03  0.14639991374E+03  0.41800000000E+01 0.  1.
        -11    1    1    2    0    0 -0.47207402877E+02 -0.22028815011E+02 -0.12085730756E+03  0.13160659697E+03  0.00000000000E+00 0.  1.
         11    1    1    2    0    0  0.39417259921E+02 -0.50561700885E+02 -0.18073512963E+03  0.19176911393E+03  0.00000000000E+00 0. -1.
</event>
<event>
 7    1  0.2679104E-009  0.3066270E+03  0.7561462E-02  0.1081974E+00
          2   -1    0    0  501    0  0.00000000000E+00  0.00000000000E+00  0.32352495520E+03  0.32352495520E+03  0.00000000000E+00 0. -1.
         -2   -1    0    0    0  501 -0.00000000000E+00 -0.00000000000E+00 -0.30323924764E+03  0.30323924764E+03  0.00000000000E+00 0.  1.
         25    2    1    2    0    0 -0.28776143657E+03  0.54019176482E+02 -0.93635337743E+01  0.31852775533E+03  0.12509012489E+03 0.  0.
          5    1    3    3  502    0 -0.73575496227E+02  0.65324426017E+02  0.24160310968E+02  0.10139934569E+03  0.41800000000E+01 0. -1.
         -5    1    3    3    0  502 -0.21418594035E+03 -0.11305249535E+02 -0.33523844742E+02  0.21712840965E+03  0.41800000000E+01 0. -1.
        -11    1    1    2    0    0  0.39130005969E+02  0.15491411761E+02  0.27105838326E+02  0.50058642379E+02  0.00000000000E+00 0.  1.
         11    1    1    2    0    0  0.24863143061E+03 -0.69510588243E+02  0.25434030133E+01  0.25817780513E+03  0.00000000000E+00 0. -1.
</event>
<event>
 7    1  0.2679104E-009  0.1110064E+03  0.7561462E-02  0.1258717E+00
         -2   -1    0    0    0  501 -0.00000000000E+00  0.00000000000E+00  0.16004524521E+02  0.16004524521E+02  0.00000000000E+00 0.  1.
          2   -1    0    0  501    0  0.00000000000E+00 -0.00000000000E+00 -0.91503668877E+03  0.91503668877E+03  0.00000000000E+00 0. -1.
         25    2    1    2    0    0  0.28699103056E+02 -0.12632673184E+02 -0.61611188339E+03  0.62946290890E+03  0.12508588198E+03 0.  0.
          5    1    3    3  502    0  0.74727140050E+02  0.10979639696E+02 -0.31851652290E+03  0.32737584778E+03  0.41800000000E+01 0. -1.
         -5    1    3    3    0  502 -0.46028036993E+02 -0.23612312880E+02 -0.29759536049E+03  0.30208706112E+03  0.41800000000E+01 0. -1.
        -11    1    1    2    0    0 -0.29581046392E+02 -0.35566738747E+02 -0.74812130526E+02  0.87959570739E+02  0.00000000000E+00 0.  1.
         11    1    1    2    0    0  0.88194333550E+00  0.48199411930E+02 -0.20810815033E+03  0.21361873365E+03  0.00000000000E+00 0. -1.
</event>
<event>
 7    1  0.2679104E-009  0.1186560E+03  0.7561462E-02  0.1245331E+00
         -3   -1    0    0    0  501 -0.00000000000E+00  0.00000000000E+00  0.13538025336E+03  0.13538025336E+03  0.00000000000E+00 0.  1.
          3   -1    0    0  501    0  0.00000000000E+00 -0.00000000000E+00 -0.12790051897E+03  0.12790051897E+03  0.00000000000E+00 0. -1.
         25    2    1    2    0    0 -0.44579215400E+02  0.61395158922E+02  0.38302868439E+01  0.14635391418E+03  0.12509246625E+03 0.  0.
          5    1    3    3  502    0 -0.86715037750E+02  0.46700318593E+02 -0.10888583506E+02  0.99178884746E+02  0.41800000000E+01 0. -1.
         -5    1    3    3    0  502  0.42135822351E+02  0.14694840328E+02  0.14718870349E+02  0.47175029431E+02  0.41800000000E+01 0. -1.
        -11    1    1    2    0    0  0.47268891472E+02 -0.18227949398E+02 -0.32810660439E+02  0.60358476445E+02  0.00000000000E+00 0. -1.
         11    1    1    2    0    0 -0.26896760729E+01 -0.43167209523E+02  0.36460107982E+02  0.56568381712E+02  0.00000000000E+00 0.  1.
</event>
<event>
 7    1  0.2679104E-009  0.1275595E+03  0.7561462E-02  0.1231123E+00
         -1   -1    0    0    0  501 -0.00000000000E+00  0.00000000000E+00  0.24609583110E+03  0.24609583110E+03  0.00000000000E+00 0.  1.
          1   -1    0    0  501    0  0.00000000000E+00 -0.00000000000E+00 -0.10787078271E+03  0.10787078271E+03  0.00000000000E+00 0. -1.
         25    2    1    2    0    0  0.83782764330E+02  0.57176734693E+02  0.14372803764E+03  0.21585409396E+03  0.12508601234E+03 0.  0.
          5    1    3    3  502    0  0.69086802950E+01  0.73742713299E+02  0.36122856364E+02  0.82510913097E+02  0.41800000000E+01 0. -1.
         -5    1    3    3    0  502  0.76874084035E+02 -0.16565978606E+02  0.10760518128E+03  0.13334318086E+03  0.41800000000E+01 0. -1.
        -11    1    1    2    0    0 -0.47137807966E+02 -0.39501784369E+02  0.42822800615E+02  0.74941017879E+02  0.00000000000E+00 0.  1.
         11    1    1    2    0    0 -0.36644956364E+02 -0.17674950324E+02 -0.48325789871E+02  0.63171501980E+02  0.00000000000E+00 0. -1.
</event>
<event>
 7    1  0.2679104E-009  0.1313232E+03  0.7561462E-02  0.1225505E+00
          2   -1    0    0  501    0  0.00000000000E+00  0.00000000000E+00  0.38050299414E+03  0.38050299414E+03  0.00000000000E+00 0. -1.
         -2   -1    0    0    0  501 -0.00000000000E+00 -0.00000000000E+00 -0.46678502904E+02  0.46678502904E+02  0.00000000000E+00 0.  1.
         25    2    1    2    0    0 -0.69929794698E+02 -0.25417291468E+02  0.16481704560E+03  0.21988398878E+03  0.12509234633E+03 0.  0.
          5    1    3    3  502    0 -0.10505842663E+03 -0.29879086813E+02  0.13244710138E+03  0.17172576947E+03  0.41800000000E+01 0. -1.
         -5    1    3    3    0  502  0.35128631928E+02  0.44617953453E+01  0.32369944220E+02  0.48158219316E+02  0.41800000000E+01 0. -1.
        -11    1    1    2    0    0  0.40038772840E+02  0.59900561423E+02  0.82820472469E+02  0.10977436517E+03  0.00000000000E+00 0. -1.
         11    1    1    2    0    0  0.29891021857E+02 -0.34483269955E+02  0.86186973167E+02  0.97523143090E+02  0.00000000000E+00 0.  1.
</event>
<event>
 7    1  0.2679104E-009  0.2187827E+03  0.7561462E-02  0.1134794E+00
         -1   -1    0    0    0  501 -0.00000000000E+00  0.00000000000E+00  0.50095392027E+02  0.50095392027E+02  0.00000000000E+00 0.  1.
          1   -1    0    0  501    0  0.00000000000E+00 -0.00000000000E+00 -0.10230223854E+04  0.10230223854E+04  0.00000000000E+00 0. -1.
         25    2    1    2    0    0 -0.31110384254E+02  0.19540363325E+03 -0.48192890778E+03  0.53577375480E+03  0.12509040044E+03 0.  0.
          5    1    3    3  502    0 -0.48265501307E+02  0.19756761462E+03 -0.47492350893E+03  0.51665494549E+03  0.41800000000E+01 0.  1.
         -5    1    3    3    0  502  0.17155117053E+02 -0.21639813755E+01 -0.70053988563E+01  0.19118809315E+02  0.41800000000E+01 0.  1.
        -11    1    1    2    0    0 -0.23463070775E+02 -0.14928575533E+02 -0.42086654776E+02  0.50444668379E+02  0.00000000000E+00 0.  1.
         11    1    1    2    0    0  0.54573455029E+02 -0.18047505772E+03 -0.44891143084E+03  0.48689935427E+03  0.00000000000E+00 0. -1.
</event>
<event>
 7    1  0.2679104E-009  0.1186402E+03  0.7561462E-02  0.1245357E+00
         -2   -1    0    0    0  501 -0.00000000000E+00  0.00000000000E+00  0.93702007175E+02  0.93702007175E+02  0.00000000000E+00 0.  1.
          2   -1    0    0  501    0  0.00000000000E+00 -0.00000000000E+00 -0.18172040297E+03  0.18172040297E+03  0.00000000000E+00 0. -1.
         25    2    1    2    0    0 -0.29005845798E+01  0.79650432098E+02 -0.18256454061E+02  0.14944048285E+03  0.12508619059E+03 0.  0.
          5    1    3    3  502    0  0.30602114976E+02 -0.20870753297E+02  0.12014002139E+02  0.39164862206E+02  0.41800000000E+01 0. -1.
         -5    1    3    3    0  502 -0.33502699556E+02  0.10052118540E+03 -0.30270456200E+02  0.11027562065E+03  0.41800000000E+01 0. -1.
        -11    1    1    2    0    0  0.15543598873E+02 -0.79820618384E+02 -0.76505947267E+02  0.11165166614E+03  0.00000000000E+00 0. -1.
         11    1    1    2    0    0 -0.12643014293E+02  0.17018628624E+00  0.67440055371E+01  0.14330261144E+02  0.00000000000E+00 0.  1.
</event>
<event>
 7    1  0.2679104E-009  0.8916914E+02  0.7561462E-02  0.1304876E+00
         -2   -1    0    0    0  501 -0.00000000000E+00  0.00000000000E+00  0.66230777666E+02  0.66230777666E+02  0.00000000000E+00 0.  1.
          2   -1    0    0  501    0  0.00000000000E+00 -0.00000000000E+00 -0.20795393422E+03  0.20795393422E+03  0.00000000000E+00 0. -1.
         25    2    1    2    0    0 -0.17403092630E+02 -0.40263296735E+02 -0.64840289496E+02  0.14756313094E+03  0.12508642522E+03 0.  0.
          5    1    3    3  502    0 -0.58398622125E+02 -0.48888140035E+02 -0.78069199437E+01  0.76673787576E+02  0.41800000000E+01 0. -1.
         -5    1    3    3    0  502  0.40995529496E+02  0.86248432999E+01 -0.57033369552E+02  0.70889343367E+02  0.41800000000E+01 0. -1.
        -11    1    1    2    0    0  0.30870857783E+02  0.26201311987E+02 -0.92944091501E+02  0.10138107691E+03  0.00000000000E+00 0. -1.
         11    1    1    2    0    0 -0.13467765153E+02  0.14061984749E+02  0.16061224444E+02  0.25240504034E+02  0.00000000000E+00 0.  1.
</event>
<event>
 7    1  0.2679104E-009  0.3297948E+03  0.7561462E-02  0.1071228E+00
          3   -1    0    0  501    0  0.00000000000E+00  0.00000000000E+00  0.89044304630E+02  0.89044304630E+02  0.00000000000E+00 0. -1.
         -3   -1    0    0    0  501 -0.00000000000E+00 -0.00000000000E+00 -0.14759085038E+04  0.14759085038E+04  0.00000000000E+00 0.  1.
         25    2    1    2    0    0 -0.32510561565E+03 -0.14393581798E+02 -0.95549164302E+03  0.10171100755E+04  0.12509112363E+03 0.  0.
          5    1    3    3  502    0 -0.14048346369E+03 -0.12009780343E+02 -0.24205808685E+03  0.28015964771E+03  0.41800000000E+01 0.  1.
         -5    1    3    3    0  502 -0.18462215196E+03 -0.23838014557E+01 -0.71343355618E+03  0.73695042777E+03  0.41800000000E+01 0.  1.
        -11    1    1    2    0    0  0.22222922327E+03 -0.25117021737E+02 -0.24838568121E+03  0.33423365941E+03  0.00000000000E+00 0. -1.
         11    1    1    2    0    0  0.10287639239E+03  0.39510603535E+02 -0.18298687494E+03  0.21360907355E+03  0.00000000000E+00 0.  1.
</event>
<event>
 7    1  0.2679104E-009  0.9936784E+02  0.7561462E-02  0.1281631E+00
         -2   -1    0    0    0  501 -0.00000000000E+00  0.00000000000E+00  0.17381237794E+02  0.17381237794E+02  0.00000000000E+00 0.  1.
          2   -1    0    0  501    0  0.00000000000E+00 -0.00000000000E+00 -0.27446044654E+04  0.27446044654E+04  0.00000000000E+00 0. -1.
         25    2    1    2    0    0  0.24941553555E+02 -0.38802087072E+02 -0.25594672879E+04  0.25629373025E+04  0.12508850950E+03 0.  0.
          5    1    3    3  502    0 -0.25058598341E+02 -0.34365653057E+02 -0.21442641388E+04  0.21446899778E+04  0.41800000000E+01 0. -1.
         -5    1    3    3    0  502  0.50000151897E+02 -0.44364340157E+01 -0.41520314912E+03  0.41824732464E+03  0.41800000000E+01 0. -1.
        -11    1    1    2    0    0 -0.26015085723E+02 -0.28344752455E+02 -0.45709072167E+02  0.59745535023E+02  0.00000000000E+00 0.  1.
         11    1    1    2    0    0  0.10735321673E+01  0.67146839527E+02 -0.12204686745E+03  0.13930286568E+03  0.00000000000E+00 0. -1.
</event>
<event>
 7    1  0.2679104E-009  0.1465504E+03  0.7561462E-02  0.1204777E+00
         -4   -1    0    0    0  501 -0.00000000000E+00  0.00000000000E+00  0.33201813394E+02  0.33201813394E+02  0.00000000000E+00 0.  1.
          4   -1    0    0  501    0  0.00000000000E+00 -0.00000000000E+00 -0.88952406527E+03  0.88952406527E+03  0.00000000000E+00 0. -1.
         25    2    1    2    0    0  0.58893708591E+02  0.82772011057E+01 -0.18772974632E+03  0.23329549693E+03  0.12508936911E+03 0.  0.
          5    1    3    3  502    0  0.21916057238E+02 -0.52435688256E+02 -0.41008996529E+02  0.70207016487E+02  0.41800000000E+01 0. -1.
         -5    1    3    3    0  502  0.36977651352E+02  0.60712889361E+02 -0.14672074979E+03  0.16308848045E+03  0.41800000000E+01 0. -1.
        -11    1    1    2    0    0 -0.36780320272E+02  0.72424736863E+02 -0.26143456083E+03  0.27376297059E+03  0.00000000000E+00 0.  1.
         11    1    1    2    0    0 -0.22113388318E+02 -0.80701937969E+02 -0.40715794472E+03  0.41566741114E+03  0.00000000000E+00 0. -1.
</event>
<event>
 7    1  0.2679104E-009  0.1023311E+03  0.7561462E-02  0.1275469E+00
         -2   -1    0    0    0  501 -0.00000000000E+00  0.00000000000E+00  0.10057738437E+03  0.10057738437E+03  0.00000000000E+00 0.  1.
          2   -1    0    0  501    0  0.00000000000E+00 -0.00000000000E+00 -0.15699168574E+03  0.15699168574E+03  0.00000000000E+00 0. -1.
         25    2    1    2    0    0  0.39617602171E+02  0.12465591298E+02 -0.71222974871E+02  0.14981949201E+03  0.12509285618E+03 0.  0.
          5    1    3    3  502    0  0.76754755010E+02 -0.12138681810E+02 -0.17246699302E+02  0.79709228133E+02  0.41800000000E+01 0. -1.
         -5    1    3    3    0  502 -0.37137152839E+02  0.24604273109E+02 -0.53976275569E+02  0.70110263874E+02  0.41800000000E+01 0. -1.
        -11    1    1    2    0    0  0.16869746869E+02  0.11832433265E+02 -0.26576113486E+02  0.33628628346E+02  0.00000000000E+00 0. -1.
         11    1    1    2    0    0 -0.56487349040E+02 -0.24298024564E+02  0.41384786982E+02  0.74120949757E+02  0.00000000000E+00 0.  1.
</event>
<event>
 7    1  0.2679104E-009  0.7698023E+02  0.7561462E-02  0.1337846E+00
          1   -1    0    0  501    0  0.00000000000E+00  0.00000000000E+00  0.40200633095E+02  0.40200633095E+02  0.00000000000E+00 0. -1.
         -1   -1    0    0    0  501 -0.00000000000E+00 -0.00000000000E+00 -0.33759427797E+03  0.33759427797E+03  0.00000000000E+00 0.  1.
         25    2    1    2    0    0  0.27332629291E+02  0.17783701452E+02 -0.12546747523E+03  0.18014498106E+03  0.12508714642E+03 0.  0.
          5    1    3    3  502    0 -0.12283908441E+02 -0.15696104159E+02  0.18219494833E+02  0.27325528071E+02  0.41800000000E+01 0. -1.
         -5    1    3    3    0  502  0.39616537732E+02  0.33479805611E+02 -0.14368697006E+03  0.15281945299E+03  0.41800000000E+01 0. -1.
        -11    1    1    2    0    0  0.25613694124E+02  0.28110144769E+00 -0.11506804890E+03  0.11788467340E+03  0.00000000000E+00 0.  1.
         11    1    1    2    0    0 -0.52946323415E+02 -0.18064802899E+02 -0.56858120749E+02  0.79765256610E+02  0.00000000000E+00 0. -1.
</event>
<event>
 7    1  0.2679104E-009  0.1357089E+03  0.7561462E-02  0.1219222E+00
         -2   -1    0    0    0  501 -0.00000000000E+00  0.00000000000E+00  0.31640776195E+02  0.31640776195E+02  0.00000000000E+00 0.  1.
          2   -1    0    0  501    0  0.00000000000E+00 -0.00000000000E+00 -0.60715726774E+03  0.60715726774E+03  0.00000000000E+00 0. -1.
         25    2    1    2    0    0  0.34670397015E+02  0.77322182477E+02 -0.34164853858E+03  0.37356644036E+03  0.12508958838E+03 0.  0.
          5    1    3    3  502    0  0.51777861040E+02  0.10350732422E+03 -0.22953184411E+03  0.25709347117E+03  0.41800000000E+01 0.  1.
         -5    1    3    3    0  502 -0.17107464025E+02 -0.26185141739E+02 -0.11211669447E+03  0.11647296919E+03  0.41800000000E+01 0.  1.
        -11    1    1    2    0    0 -0.60130733130E+02 -0.23591729889E+02 -0.10445180292E+03  0.12281064253E+03  0.00000000000E+00 0.  1.
         11    1    1    2    0    0  0.25460336115E+02 -0.53730452588E+02 -0.12941615005E+03  0.14242096104E+03  0.00000000000E+00 0. -1.
</event>
<event>
 7    1  0.2679104E-009  0.1109608E+03  0.7561462E-02  0.1258801E+00
         -3   -1    0    0    0  501 -0.00000000000E+00  0.00000000000E+00  0.18829652267E+02  0.18829652267E+02  0.00000000000E+00 0.  1.
          3   -1    0    0  501    0  0.00000000000E+00 -0.00000000000E+00 -0.66510683054E+03  0.66510683054E+03  0.00000000000E+00 0. -1.
         25    2    1    2    0    0  0.10116985319E+02  0.28218215701E+02 -0.38776111113E+03  0.40854424527E+03  0.12510435626E+03 0.  0.
          5    1    3    3  502    0  0.26363231375E+02 -0.45628632562E+02 -0.15357008873E+03  0.16241378214E+03  0.41800000000E+01 0.  1.
         -5    1    3    3    0  502 -0.16246246055E+02  0.73846848263E+02 -0.23419102240E+03  0.24613046313E+03  0.41800000000E+01 0.  1.
        -11    1    1    2    0    0 -0.49236563487E+02 -0.21106607541E+02 -0.17259359923E+03  0.18071601634E+03  0.00000000000E+00 0.  1.
         11    1    1    2    0    0  0.39119578168E+02 -0.71116081596E+01 -0.85922467907E+02  0.94676221185E+02  0.00000000000E+00 0. -1.
</event>
<event>
 7    1  0.2679104E-009  0.9423287E+02  0.7561462E-02  0.1292913E+00
          1   -1    0    0  501    0  0.00000000000E+00  0.00000000000E+00  0.45313400784E+03  0.45313400784E+03  0.00000000000E+00 0. -1.
         -1   -1    0    0    0  501 -0.00000000000E+00 -0.00000000000E+00 -0.33605840243E+02  0.33605840243E+02  0.00000000000E+00 0.  1.
         25    2    1    2    0    0  0.10794116294E+02 -0.19904521672E+02  0.33906506222E+03  0.36211246421E+03  0.12509043683E+03 0.  0.
          5    1    3    3  502    0 -0.53730303277E+01  0.42637249958E+02  0.50807466725E+02  0.66675899798E+02  0.41800000000E+01 0.  1.
         -5    1    3    3    0  502  0.16167146622E+02 -0.62541771630E+02  0.28825759550E+03  0.29543656441E+03  0.41800000000E+01 0.  1.
        -11    1    1    2    0    0  0.29434477911E+02 -0.92723349405E+01  0.66018568697E+02  0.72875346297E+02  0.00000000000E+00 0. -1.
         11    1    1    2    0    0 -0.40228594205E+02  0.29176856613E+02  0.14444536679E+02  0.51752037577E+02  0.00000000000E+00 0.  1.
</event>
<event>
 7    1  0.2679104E-009  0.7262037E+02  0.7561462E-02  0.1351402E+00
          1   -1    0    0  501    0  0.00000000000E+00  0.00000000000E+00  0.27859463806E+03  0.27859463806E+03  0.00000000000E+00 0. -1.
         -1   -1    0    0    0  501 -0.00000000000E+00 -0.00000000000E+00 -0.65336100339E+02  0.65336100339E+02  0.00000000000E+00 0.  1.
         25    2    1    2    0    0 -0.39450985956E+02 -0.23493496631E+02  0.20503389169E+03  0.24452898728E+03  0.12508878528E+03 0.  0.
          5    1    3    3  502    0 -0.63695332961E+02 -0.58031799506E+01  0.20440694963E+03  0.21422055409E+03  0.41800000000E+01 0.  1.
         -5    1    3    3    0  502  0.24244347005E+02 -0.17690316680E+02  0.62694205825E+00  0.30308433188E+02  0.41800000000E+01 0.  1.
        -11    1    1    2    0    0  0.24266534855E+02  0.17594293744E+01 -0.38579008678E+02  0.45610308223E+02  0.00000000000E+00 0.  1.
         11    1    1    2    0    0  0.15184451101E+02  0.21734067257E+02  0.46803654713E+02  0.53791442900E+02  0.00000000000E+00 0. -1.
</event>
<event>
 7    1  0.2679104E-009  0.9408811E+02  0.7561462E-02  0.1293243E+00
         -3   -1    0    0    0  501 -0.00000000000E+00  0.00000000000E+00  0.50624127041E+02  0.50624127041E+02  0.00000000000E+00 0.  1.
          3   -1    0    0  501    0  0.00000000000E+00 -0.00000000000E+00 -0.39154958011E+03  0.39154958011E+03  0.00000000000E+00 0. -1.
         25    2    1    2    0    0  0.24304415122E+02  0.46066988394E+00 -0.51026069738E+02  0.13727001264E+03  0.12509388380E+03 0.  0.
          5    1    3    3  502    0  0.14948482325E+02 -0.44917643165E+02 -0.71975537439E+02  0.86249650323E+02  0.41800000000E+01 0. -1.
         -5    1    3    3    0  502  0.93559327969E+01  0.45378313049E+02  0.20949467701E+02  0.51020362314E+02  0.41800000000E+01 0. -1.
        -11    1    1    2    0    0  0.32043594256E+02 -0.15807922763E+02 -0.12281398411E+03  0.12790604773E+03  0.00000000000E+00 0. -1.
         11    1    1    2    0    0 -0.56348009378E+02  0.15347252879E+02 -0.16708539923E+03  0.17699764678E+03  0.00000000000E+00 0.  1.
</event>
<event>
 7    1  0.2679104E-009  0.2027013E+03  0.7561462E-02  0.1147480E+00
         -2   -1    0    0    0  501 -0.00000000000E+00  0.00000000000E+00  0.35452270301E+03  0.35452270301E+03  0.00000000000E+00 0.  1.
          2   -1    0    0  501    0  0.00000000000E+00 -0.00000000000E+00 -0.13665279048E+03  0.13665279048E+03  0.00000000000E+00 0. -1.
         25    2    1    2    0    0  0.18655698557E+03 -0.22595150163E+02  0.75623751911E+02  0.23807573906E+03  0.12508819288E+03 0.  0.
          5    1    3    3  502    0  0.12706623995E+03 -0.58366139643E+02  0.90957335289E+02  0.16686265261E+03  0.41800000000E+01 0. -1.
         -5    1    3    3    0  502  0.59490745614E+02  0.35770989481E+02 -0.15333583378E+02  0.71213086447E+02  0.41800000000E+01 0. -1.
        -11    1    1    2    0    0 -0.12771465301E+03 -0.11038838518E+02  0.47717185698E+02  0.13678383808E+03  0.00000000000E+00 0. -1.
         11    1    1    2    0    0 -0.58842332562E+02  0.33633988681E+02  0.94528974922E+02  0.11631591635E+03  0.00000000000E+00 0.  1.
</event>
<event>
 7    1  0.2679104E-009  0.1170219E+03  0.7561462E-02  0.1248092E+00
          2   -1    0    0  501    0  0.00000000000E+00  0.00000000000E+00  0.67284234407E+02  0.67284234407E+02  0.00000000000E+00 0. -1.
         -2   -1    0    0    0  501 -0.00000000000E+00 -0.00000000000E+00 -0.22753436166E+03  0.22753436166E+03  0.00000000000E+00 0.  1.
         25    2    1    2    0    0 -0.26201919953E+02 -0.54199215669E+02 -0.85164628966E+02  0.16286724443E+03  0.12509448306E+03 0.  0.
          5    1    3    3  502    0  0.38720400587E+01  0.39710859504E+02 -0.23641060139E+02  0.46565192809E+02  0.41800000000E+01 0. -1.
         -5    1    3    3    0  502 -0.30073960012E+02 -0.93910075173E+02 -0.61523568827E+02  0.11630205162E+03  0.41800000000E+01 0. -1.
        -11    1    1    2    0    0  0.35192745285E+02 -0.48274053396E+01  0.62788690043E+00  0.35527839857E+02  0.00000000000E+00 0. -1.
         11    1    1    2    0    0 -0.89908253312E+01  0.59026621008E+02 -0.75713385190E+02  0.96423511784E+02  0.00000000000E+00 0.  1.
</event>
<event>
 7    1  0.2679104E-009  0.1040062E+03  0.7561462E-02  0.1272090E+00
         -1   -1    0    0    0  501 -0.00000000000E+00  0.00000000000E+00  0.72858697854E+02  0.72858697854E+02  0.00000000000E+00 0.  1.
          1   -1    0    0  501    0  0.00000000000E+00 -0.00000000000E+00 -0.27342919367E+03  0.27342919367E+03  0.00000000000E+00 0. -1.
         25    2    1    2    0    0  0.32321378828E+01  0.73788170704E+02 -0.17004550721E+03  0.22364830386E+03  0.12509176011E+03 0.  0.
          5    1    3    3  502    0 -0.21235949622E+02  0.67013386866E+02 -0.18209377792E+03  0.19523671769E+03  0.41800000000E+01 0. -1.
         -5    1    3    3    0  502  0.24468087505E+02  0.67747838389E+01  0.12048270705E+02  0.28411586179E+02  0.41800000000E+01 0. -1.
        -11    1    1    2    0    0  0.21322224357E+02  0.10714019160E+02  0.98576955394E+01  0.25818629310E+02  0.00000000000E+00 0.  1.
         11    1    1    2    0    0 -0.24554362240E+02 -0.84502189864E+02 -0.40382684136E+02  0.96820958345E+02  0.00000000000E+00 0. -1.
</event>
<event>
 7    1  0.2679104E-009  0.6794297E+02  0.7561462E-02  0.1367231E+00
          2   -1    0    0  501    0  0.00000000000E+00  0.00000000000E+00  0.63908124375E+03  0.63908124375E+03  0.00000000000E+00 0. -1.
         -2   -1    0    0    0  501 -0.00000000000E+00 -0.00000000000E+00 -0.18264336265E+02  0.18264336265E+02  0.00000000000E+00 0.  1.
         25    2    1    2    0    0  0.24615904351E+01  0.10346379707E+02  0.36028415599E+03  0.38153014636E+03  0.12508985779E+03 0.  0.
          5    1    3    3  502    0  0.25249755599E+02  0.27324261920E+02  0.25000650090E+02  0.45018555643E+02  0.41800000000E+01 0.  1.
         -5    1    3    3    0  502 -0.22788165164E+02 -0.16977882213E+02  0.33528350590E+03  0.33651159072E+03  0.41800000000E+01 0.  1.
        -11    1    1    2    0    0  0.13503310589E+02 -0.36592229647E+02  0.22704726715E+03  0.23037315856E+03  0.00000000000E+00 0. -1.
         11    1    1    2    0    0 -0.15964901024E+02  0.26245849941E+02  0.33485484350E+02  0.45442275097E+02  0.00000000000E+00 0.  1.
</event>
<event>
 7    1  0.2679104E-009  0.9855985E+02  0.7561462E-02  0.1283354E+00
         -1   -1    0    0    0  501 -0.00000000000E+00  0.00000000000E+00  0.13914357640E+03  0.13914357640E+03  0.00000000000E+00 0.  1.
          1   -1    0    0  501    0  0.00000000000E+00 -0.00000000000E+00 -0.97831773715E+02  0.97831773715E+02  0.00000000000E+00 0. -1.
         25    2    1    2    0    0 -0.40221057859E+02  0.19272364529E+02  0.23885977939E+02  0.13493346192E+03  0.12508933478E+03 0.  0.
          5    1    3    3  502    0  0.38649046652E+02 -0.11219856307E+02  0.29517554825E+02  0.50083853940E+02  0.41800000000E+01 0. -1.
         -5    1    3    3    0  502 -0.78870104510E+02  0.30492220835E+02 -0.56315768854E+01  0.84849607984E+02  0.41800000000E+01 0. -1.
        -11    1    1    2    0    0  0.43817868813E+02  0.79532720044E+01 -0.25324562276E+02  0.51230787788E+02  0.00000000000E+00 0. -1.
         11    1    1    2    0    0 -0.35968109541E+01 -0.27225636533E+02  0.42750387023E+02  0.50811100404E+02  0.00000000000E+00 0.  1.
</event>
<event>
 7    1  0.2679104E-009  0.8441778E+02  0.7561462E-02  0.1316962E+00
          2   -1    0    0  501    0  0.00000000000E+00  0.00000000000E+00  0.43230542203E+03  0.43230542203E+03  0.00000000000E+00 0. -1.
         -2   -1    0    0    0  501 -0.00000000000E+00 -0.00000000000E+00 -0.31836097134E+02  0.31836097134E+02  0.00000000000E+00 0.  1.
         25    2    1    2    0    0  0.14777958448E+02 -0.37023724145E+02  0.29454457644E+03  0.32247849179E+03  0.12508687362E+03 0.  0.
          5    1    3    3  502    0 -0.25762751977E+02  0.33855987940E+01  0.43652018163E+01  0.26677875769E+02  0.41800000000E+01 0. -1.
         -5    1    3    3    0  502  0.40540710426E+02 -0.40409322939E+02  0.29017937462E+03  0.29580061602E+03  0.41800000000E+01 0. -1.
        -11    1    1    2    0    0 -0.21056914007E+02  0.58802280495E+02  0.10054849950E+03  0.11836850329E+03  0.00000000000E+00 0.  1.
         11    1    1    2    0    0  0.62789555586E+01 -0.21778556350E+02  0.53762489576E+01  0.23294524087E+02  0.00000000000E+00 0. -1.
</event>
<event>
 7    1  0.2679104E-009  0.1572131E+03  0.7561462E-02  0.1191880E+00
          1   -1    0    0  501    0  0.00000000000E+00  0.00000000000E+00  0.10365523737E+03  0.10365523737E+03  0.00000000000E+00 0. -1.
         -1   -1    0    0    0  501 -0.00000000000E+00 -0.00000000000E+00 -0.24300365865E+03  0.24300365865E+03  0.00000000000E+00 0.  1.
         25    2    1    2    0    0 -0.29815834081E+02  0.11061489374E+03 -0.65084596533E+02  0.18168230951E+03  0.12509123952E+03 0.  0.
          5    1    3    3  502    0  0.30812637532E+02 -0.10260220834E+02 -0.31744545262E+01  0.32897421248E+02  0.41800000000E+01 0.  1.
         -5    1    3    3    0  502 -0.60628471613E+02  0.12087511457E+03 -0.61910142006E+02  0.14878488826E+03  0.41800000000E+01 0.  1.
        -11    1    1    2    0    0  0.28323892658E+02  0.66672813877E+01 -0.76421582381E+01  0.30084848661E+02  0.00000000000E+00 0.  1.
         11    1    1    2    0    0  0.14919414229E+01 -0.11728217512E+03 -0.66621666503E+02  0.13489173784E+03  0.00000000000E+00 0. -1.
</event>
<event>
 7    1  0.2679104E-009  0.1602817E+03  0.7561462E-02  0.1188379E+00
          4   -1    0    0  501    0  0.00000000000E+00  0.00000000000E+00  0.84425816092E+02  0.84425816092E+02  0.00000000000E+00 0. -1.
         -4   -1    0    0    0  501 -0.00000000000E+00 -0.00000000000E+00 -0.36542072783E+03  0.36542072783E+03  0.00000000000E+00 0.  1.
         25    2    1    2    0    0 -0.79460654984E+02 -0.10437116124E+03 -0.19649754209E+03  0.26733098884E+03  0.12508892259E+03 0.  0.
          5    1    3    3  502    0 -0.46857027797E+02  0.12921456867E+02 -0.19655959943E+02  0.52596333169E+02  0.41800000000E+01 0.  1.
         -5    1    3    3    0  502 -0.32603627188E+02 -0.11729261811E+03 -0.17684158215E+03  0.21473465567E+03  0.41800000000E+01 0.  1.
        -11    1    1    2    0    0  0.21593398900E+02 -0.84361077463E+01  0.91216840353E+01  0.24912806137E+02  0.00000000000E+00 0. -1.
         11    1    1    2    0    0  0.57867256084E+02  0.11280726899E+03 -0.93619053681E+02  0.15760274895E+03  0.00000000000E+00 0.  1.
</event>
<event>
 7    1  0.2679104E-009  0.1679986E+03  0.7561462E-02  0.1179951E+00
          1   -1    0    0  501    0  0.00000000000E+00  0.00000000000E+00  0.65960188537E+03  0.65960188537E+03  0.00000000000E+00 0. -1.
         -1   -1    0    0    0  501 -0.00000000000E+00 -0.00000000000E+00 -0.43772748590E+02  0.43772748590E+02  0.00000000000E+00 0.  1.
         25    2    1    2    0    0 -0.12106538174E+03 -0.32474261247E+02  0.29689435710E+03  0.34569556628E+03  0.12509101075E+03 0.  0.
          5    1    3    3  502    0 -0.10067590929E+03 -0.77206404975E+02  0.19838643467E+03  0.23552307221E+03  0.41800000000E+01 0.  1.
         -5    1    3    3    0  502 -0.20389472445E+02  0.44732143728E+02  0.98507922428E+02  0.11017249407E+03  0.41800000000E+01 0.  1.
        -11    1    1    2    0    0  0.21510450644E+02 -0.33841379381E+02  0.56664087279E+02  0.69417268979E+02  0.00000000000E+00 0.  1.
         11    1    1    2    0    0  0.99554931094E+02  0.66315640628E+02  0.26227069240E+03  0.28826179870E+03  0.00000000000E+00 0. -1.
</event>
<event>
 7    1  0.2679104E-009  0.9288927E+02  0.7561462E-02  0.1296002E+00
         -1   -1    0    0    0  501 -0.00000000000E+00  0.00000000000E+00  0.20804450097E+02  0.20804450097E+02  0.00000000000E+00 0.  1.
          1   -1    0    0  501    0  0.00000000000E+00 -0.00000000000E+00 -0.63575035229E+03  0.63575035229E+03  0.00000000000E+00 0. -1.
         25    2    1    2    0    0 -0.28752091459E+02  0.46900094932E+01 -0.29255559989E+03  0.31950583675E+03  0.12508605734E+03 0.  0.
          5    1    3    3  502    0  0.19176101750E+02  0.27874124881E+02 -0.15674445709E+02  0.37521332126E+02  0.41800000000E+01 0. -1.
         -5    1    3    3    0  502 -0.47928193210E+02 -0.23184115388E+02 -0.27688115418E+03  0.28198450463E+03  0.41800000000E+01 0. -1.
        -11    1    1    2    0    0 -0.20573083111E+02 -0.34848904585E+02 -0.12832514311E+03  0.13455497112E+03  0.00000000000E+00 0. -1.
         11    1    1    2    0    0  0.49325174571E+02  0.30158895091E+02 -0.19406515919E+03  0.20249399451E+03  0.00000000000E+00 0.  1.
</event>
<event>
 7    1  0.2679104E-009  0.1396215E+03  0.7561462E-02  0.1213839E+00
          2   -1    0    0  501    0  0.00000000000E+00  0.00000000000E+00  0.99715026982E+03  0.99715026982E+03  0.00000000000E+00 0. -1.
         -2   -1    0    0    0  501 -0.00000000000E+00 -0.00000000000E+00 -0.23012190840E+02  0.23012190840E+02  0.00000000000E+00 0.  1.
         25    2    1    2    0    0  0.69518400549E+02 -0.60571259122E+02  0.35643804852E+03  0.38884186795E+03  0.12509288706E+03 0.  0.
          5    1    3    3  502    0  0.59849706005E+02  0.23318822988E+02  0.21115165394E+03  0.22074475798E+03  0.41800000000E+01 0. -1.
         -5    1    3    3    0  502  0.96686945440E+01 -0.83890082110E+02  0.14528639458E+03  0.16809710997E+03  0.41800000000E+01 0. -1.
        -11    1    1    2    0    0  0.21063099089E+02  0.25786231669E+02  0.14699813741E+03  0.15072171804E+03  0.00000000000E+00 0.  1.
         11    1    1    2    0    0 -0.90581499638E+02  0.34785027453E+02  0.47070189306E+03  0.48059887468E+03  0.00000000000E+00 0. -1.
</event>
<event>
 7    1  0.2679104E-009  0.1309197E+03  0.7561462E-02  0.1226097E+00
         -4   -1    0    0    0  501 -0.00000000000E+00  0.00000000000E+00  0.62444200599E+03  0.62444200599E+03  0.00000000000E+00 0.  1.
          4   -1    0    0  501    0  0.00000000000E+00 -0.00000000000E+00 -0.32144850215E+02  0.32144850215E+02  0.00000000000E+00 0. -1.
         25    2    1    2    0    0 -0.89198840754E+02  0.16629641746E+02  0.32989515535E+03  0.36429359032E+03  0.12508408472E+03 0.  0.
          5    1    3    3  502    0 -0.25595802956E+02  0.67918344749E+02  0.15278713445E+03  0.16920232722E+03  0.41800000000E+01 0. -1.
         -5    1    3    3    0  502 -0.63603037797E+02 -0.51288703003E+02  0.17710802090E+03  0.19509126310E+03  0.41800000000E+01 0. -1.
        -11    1    1    2    0    0  0.56034083881E+02 -0.38151498702E+02  0.23397797137E+03  0.24360017753E+03  0.00000000000E+00 0.  1.
         11    1    1    2    0    0  0.33164756873E+02  0.21521856956E+02  0.28424029066E+02  0.48693088356E+02  0.00000000000E+00 0. -1.
</event>
<event>
 7    1  0.2679104E-009  0.1195280E+03  0.7561462E-02  0.1243878E+00
          1   -1    0    0  501    0  0.00000000000E+00  0.00000000000E+00  0.52005621349E+02  0.52005621349E+02  0.00000000000E+00 0. -1.
         -1   -1    0    0    0  501 -0.00000000000E+00 -0.00000000000E+00 -0.54550642593E+03  0.54550642593E+03  0.00000000000E+00 0.  1.
         25    2    1    2    0    0  0.38038813746E+01 -0.11288792464E+03 -0.37002259751E+03  0.40659872024E+03  0.12509054156E+03 0.  0.
          5    1    3    3  502    0 -0.17621098151E+02 -0.61592240728E+02 -0.48975714721E+02  0.80747756937E+02  0.41800000000E+01 0. -1.
         -5    1    3    3    0  502  0.21424979525E+02 -0.51295683911E+02 -0.32104688279E+03  0.32585096330E+03  0.41800000000E+01 0. -1.
        -11    1    1    2    0    0  0.89688421506E+01  0.46168156071E+01  0.12860873628E+02  0.16344943755E+02  0.00000000000E+00 0. -1.
         11    1    1    2    0    0 -0.12772723525E+02  0.10827110903E+03 -0.13633908070E+03  0.17456838329E+03  0.00000000000E+00 0.  1.
</event>
<event>
 7    1  0.2679104E-009  0.1167474E+03  0.7561462E-02  0.1248561E+00
         -1   -1    0    0    0  501 -0.00000000000E+00  0.00000000000E+00  0.40062258945E+02  0.40062258945E+02  0.00000000000E+00 0.  1.
          1   -1    0    0  501    0  0.00000000000E+00 -0.00000000000E+00 -0.54454277102E+03  0.54454277102E+03  0.00000000000E+00 0. -1.
         25    2    1    2    0    0 -0.80607577518E+02  0.30416287347E+02 -0.37113064960E+03  0.40100850616E+03  0.12508849207E+03 0.  0.
          5    1    3    3  502    0 -0.10255890366E+03  0.47448853926E+02 -0.22077337783E+03  0.24804854206E+03  0.41800000000E+01 0. -1.
         -5    1    3    3    0  502  0.21951326137E+02 -0.17032566578E+02 -0.15035727177E+03  0.15295996410E+03  0.41800000000E+01 0. -1.
        -11    1    1    2    0    0  0.41411325535E+02  0.19906276068E+01 -0.62786160647E+00  0.41463896236E+02  0.00000000000E+00 0.  1.
         11    1    1    2    0    0  0.39196251983E+02 -0.32406914954E+02 -0.13272200087E+03  0.14213262757E+03  0.00000000000E+00 0. -1.
</event>
<event>
 7    1  0.2679104E-009  0.3889759E+03  0.7561462E-02  0.1047665E+00
          1   -1    0    0  501    0  0.00000000000E+00  0.00000000000E+00  0.88113524901E+02  0.88113524901E+02  0.00000000000E+00 0. -1.
         -1   -1    0    0    0  501 -0.00000000000E+00 -0.00000000000E+00 -0.20337355952E+04  0.20337355952E+04  0.00000000000E+00 0.  1.
         25    2    1    2    0    0  0.31903102041E+03  0.21754433597E+03 -0.13193736405E+04  0.13803985050E+04  0.12508756708E+03 0.  0.
          5    1    3    3  502    0  0.22794892808E+03  0.15591252206E+03 -0.72312032989E+03  0.77407358323E+03  0.41800000000E+01 0.  1.
         -5    1    3    3    0  502  0.91082092326E+02  0.61631813909E+02 -0.59625331057E+03  0.60632492180E+03  0.41800000000E+01 0.  1.
        -11    1    1    2    0    0 -0.21520251740E+03 -0.10806117734E+03 -0.32462292441E+03  0.40418978784E+03  0.00000000000E+00 0. -1.
         11    1    1    2    0    0 -0.10382850300E+03 -0.10948315862E+03 -0.30162550540E+03  0.33726082721E+03  0.00000000000E+00 0.  1.
</event>
<event>
 7    1  0.2679104E-009  0.1154901E+03  0.7561462E-02  0.1250728E+00
         -4   -1    0    0    0  501 -0.00000000000E+00  0.00000000000E+00  0.61914023255E+02  0.61914023255E+02  0.00000000000E+00 0.  1.
          4   -1    0    0  501    0  0.00000000000E+00 -0.00000000000E+00 -0.26833449585E+03  0.26833449585E+03  0.00000000000E+00 0. -1.
         25    2    1    2    0    0  0.13534174904E+02  0.62366350558E+02 -0.79393316504E+02  0.16131294884E+03  0.12508330498E+03 0.  0.
          5    1    3    3  502    0  0.34561570317E+02 -0.29776030066E+02 -0.25053220589E+02  0.52213507554E+02  0.41800000000E+01 0. -1.
         -5    1    3    3    0  502 -0.21027395413E+02  0.92142380624E+02 -0.54340095915E+02  0.10909944129E+03  0.41800000000E+01 0. -1.
        -11    1    1    2    0    0  0.87696798387E+01 -0.67179055444E+02 -0.39370606270E+02  0.78358007969E+02  0.00000000000E+00 0.  1.
         11    1    1    2    0    0 -0.22303854743E+02  0.48127048857E+01 -0.87656549822E+02  0.90577562295E+02  0.00000000000E+00 0. -1.
</event>
<event>
 7    1  0.2679104E-009  0.1096551E+03  0.7561462E-02  0.1261210E+00
          2   -1    0    0  501    0  0.00000000000E+00  0.00000000000E+00  0.66307342078E+03  0.66307342078E+03  0.00000000000E+00 0. -1.
         -2   -1    0    0    0  501 -0.00000000000E+00 -0.00000000000E+00 -0.23697420289E+02  0.23697420289E+02  0.00000000000E+00 0.  1.
         25    2    1    2    0    0 -0.16146107905E+02 -0.54238379490E+02  0.42938258582E+03  0.45079984114E+03  0.12509433701E+03 0.  0.
          5    1    3    3  502    0  0.29620401145E+02 -0.75739383834E+02  0.20141043580E+03  0.21724976059E+03  0.41800000000E+01 0.  1.
         -5    1    3    3    0  502 -0.45766509049E+02  0.21501004343E+02  0.22797215002E+03  0.23355008055E+03  0.41800000000E+01 0.  1.
        -11    1    1    2    0    0  0.42173578767E+02  0.33754232995E+02  0.18943894817E+03  0.19699003547E+03  0.00000000000E+00 0. -1.
         11    1    1    2    0    0 -0.26027470862E+02  0.20484146495E+02  0.20554466498E+02  0.38980964459E+02  0.00000000000E+00 0.  1.
</event>
<event>
 7    1  0.2679104E-009  0.7751103E+02  0.7561462E-02  0.1336267E+00
         -2   -1    0    0    0  501 -0.00000000000E+00  0.00000000000E+00  0.85496660970E+02  0.85496660970E+02  0.00000000000E+00 0.  1.
          2   -1    0    0  501    0  0.00000000000E+00 -0.00000000000E+00 -0.19069817272E+03  0.19069817272E+03  0.00000000000E+00 0. -1.
         25    2    1    2    0    0  0.44215128440E+02 -0.45864828260E+02 -0.37622296897E+02  0.14533174914E+03  0.12508924826E+03 0.  0.
          5    1    3    3  502    0  0.52158627039E+01  0.10470841620E+02 -0.68818467088E+02  0.69930662519E+02  0.41800000000E+01 0. -1.
         -5    1    3    3    0  502  0.38999265736E+02 -0.56335669880E+02  0.31196170191E+02  0.75401086620E+02  0.41800000000E+01 0. -1.
        -11    1    1    2    0    0 -0.27204047379E+02  0.49570592756E+02  0.44881798074E+01  0.56722549466E+02  0.00000000000E+00 0.  1.
         11    1    1    2    0    0 -0.17011081061E+02 -0.37057644963E+01 -0.72067394663E+02  0.74140535086E+02  0.00000000000E+00 0. -1.
</event>
<event>
 7    1  0.2679104E-009  0.1790214E+03  0.7561462E-02  0.1168753E+00
         -4   -1    0    0    0  501 -0.00000000000E+00  0.00000000000E+00  0.18807578675E+03  0.18807578675E+03  0.00000000000E+00 0.  1.
          4   -1    0    0  501    0  0.00000000000E+00 -0.00000000000E+00 -0.20785243830E+03  0.20785243830E+03  0.00000000000E+00 0. -1.
         25    2    1    2    0    0 -0.11415360169E+03  0.11926069533E+03 -0.11241100259E+02  0.20743241008E+03  0.12509070383E+03 0.  0.
          5    1    3    3  502    0 -0.18157655222E+02 -0.14784278600E+02  0.29159116100E+02  0.37629799210E+02  0.41800000000E+01 0. -1.
         -5    1    3    3    0  502 -0.95995946468E+02  0.13404497393E+03 -0.40400216359E+02  0.16980261087E+03  0.41800000000E+01 0. -1.
        -11    1    1    2    0    0  0.10040723440E+03 -0.11883992335E+03 -0.34278418629E+02  0.15930960450E+03  0.00000000000E+00 0. -1.
         11    1    1    2    0    0  0.13746367295E+02 -0.42077198043E+00  0.25742867336E+02  0.29186210469E+02  0.00000000000E+00 0.  1.
</event>
<event>
 7    1  0.2679104E-009  0.1046055E+03  0.7561462E-02  0.1270899E+00
          2   -1    0    0  501    0  0.00000000000E+00  0.00000000000E+00  0.11523653671E+04  0.11523653671E+04  0.00000000000E+00 0. -1.
         -2   -1    0    0    0  501 -0.00000000000E+00 -0.00000000000E+00 -0.99582081708E+01  0.99582081708E+01  0.00000000000E+00 0.  1.
         25    2    1    2    0    0 -0.11118187152E+02  0.13959015615E+02  0.69963286517E+03  0.71095159884E+03  0.12509021408E+03 0.  0.
          5    1    3    3  502    0  0.33830174892E+02  0.53047448796E+02  0.44288069310E+03  0.44734694955E+03  0.41800000000E+01 0.  1.
         -5    1    3    3    0  502 -0.44948362044E+02 -0.39088433181E+02  0.25675217207E+03  0.26360464928E+03  0.41800000000E+01 0.  1.
        -11    1    1    2    0    0 -0.19963171756E+02 -0.40769580337E+02  0.19447926736E+03  0.19970696618E+03  0.00000000000E+00 0.  1.
         11    1    1    2    0    0  0.31081358908E+02  0.26810564722E+02  0.24829502636E+03  0.25166501021E+03  0.00000000000E+00 0. -1.
</event>
<event>
 7    1  0.2679104E-009  0.2282516E+03  0.7561462E-02  0.1127876E+00
         -2   -1    0    0    0  501 -0.00000000000E+00  0.00000000000E+00  0.33276539973E+03  0.33276539973E+03  0.00000000000E+00 0.  1.
          2   -1    0    0  501    0  0.00000000000E+00 -0.00000000000E+00 -0.17716917037E+03  0.17716917037E+03  0.00000000000E+00 0. -1.
         25    2    1    2    0    0 -0.10942097091E+03 -0.18576680196E+03  0.10492369219E+03  0.27044176873E+03  0.12509002960E+03 0.  0.
          5    1    3    3  502    0 -0.86559568981E+02 -0.18664027324E+03  0.51424768267E+02  0.21210641143E+03  0.41800000000E+01 0. -1.
         -5    1    3    3    0  502 -0.22861401927E+02  0.87347128656E+00  0.53498923920E+02  0.58335357295E+02  0.41800000000E+01 0. -1.
        -11    1    1    2    0    0  0.87081807571E+02  0.76407349833E+02 -0.24544571346E+01  0.11587643711E+03  0.00000000000E+00 0. -1.
         11    1    1    2    0    0  0.22339163336E+02  0.10935945212E+03  0.53126994304E+02  0.12361636425E+03  0.00000000000E+00 0.  1.
</event>
<event>
 7    1  0.2679104E-009  0.2656979E+03  0.7561462E-02  0.1103767E+00
         -3   -1    0    0    0  501 -0.00000000000E+00  0.00000000000E+00  0.18755867698E+04  0.18755867698E+04  0.00000000000E+00 0.  1.
          3   -1    0    0  501    0  0.00000000000E+00 -0.00000000000E+00 -0.41057529242E+02  0.41057529242E+02  0.00000000000E+00 0. -1.
         25    2    1    2    0    0 -0.25257263837E+03  0.27864404600E+02  0.86921454501E+03  0.91419397665E+03  0.12508932406E+03 0.  0.
          5    1    3    3  502    0 -0.13365261636E+03 -0.15575616079E+02  0.62214511082E+03  0.63654350440E+03  0.41800000000E+01 0.  1.
         -5    1    3    3    0  502 -0.11892002201E+03  0.43440020679E+02  0.24706943419E+03  0.27765047226E+03  0.41800000000E+01 0.  1.
        -11    1    1    2    0    0  0.17207193741E+03  0.24875114534E+02  0.64065106177E+03  0.66382324900E+03  0.00000000000E+00 0. -1.
         11    1    1    2    0    0  0.80500700965E+02 -0.52739519134E+02  0.32466363381E+03  0.33862707342E+03  0.00000000000E+00 0.  1.
</event>
<event>
 7    1  0.2679104E-009  0.9550469E+02  0.7561462E-02  0.1290043E+00
         -2   -1    0    0    0  501 -0.00000000000E+00  0.00000000000E+00  0.42269517028E+02  0.42269517028E+02  0.00000000000E+00 0.  1.
          2   -1    0    0  501    0  0.00000000000E+00 -0.00000000000E+00 -0.42944317587E+03  0.42944317587E+03  0.00000000000E+00 0. -1.
         25    2    1    2    0    0 -0.17784249172E+02  0.74376659642E+02 -0.17609075446E+03  0.22913718607E+03  0.12509088384E+03 0.  0.
          5    1    3    3  502    0 -0.41248626331E+02  0.71212014347E+02 -0.41213449495E+02  0.92133712510E+02  0.41800000000E+01 0.  1.
         -5    1    3    3    0  502  0.23464377159E+02  0.31646452955E+01 -0.13487730496E+03  0.13700347356E+03  0.41800000000E+01 0.  1.
        -11    1    1    2    0    0 -0.11212682332E+02 -0.19288349480E+02  0.20048505930E+00  0.22311541071E+02  0.00000000000E+00 0.  1.
         11    1    1    2    0    0  0.28996931504E+02 -0.55088310163E+02 -0.21128338945E+03  0.22026396575E+03  0.00000000000E+00 0. -1.
</event>
<event>
 7    1  0.2679104E-009  0.1339165E+03  0.7561462E-02  0.1221757E+00
          1   -1    0    0  501    0  0.00000000000E+00  0.00000000000E+00  0.13543504114E+03  0.13543504114E+03  0.00000000000E+00 0. -1.
         -1   -1    0    0    0  501 -0.00000000000E+00 -0.00000000000E+00 -0.25707085202E+03  0.25707085202E+03  0.00000000000E+00 0.  1.
         25    2    1    2    0    0 -0.11589694832E+03 -0.58626681540E+01  0.39682735641E+02  0.17518282877E+03  0.12509128858E+03 0.  0.
          5    1    3    3  502    0 -0.46835680693E+02  0.16212198977E+02  0.78427873946E+02  0.92869910053E+02  0.41800000000E+01 0. -1.
         -5    1    3    3    0  502 -0.69061267628E+02 -0.22074867131E+02 -0.38745138305E+02  0.82312918716E+02  0.41800000000E+01 0. -1.
        -11    1    1    2    0    0  0.43373995887E+02 -0.40542699770E+02 -0.70729498983E+02  0.92345417051E+02  0.00000000000E+00 0.  1.
         11    1    1    2    0    0  0.72522952435E+02  0.46405367924E+02 -0.90589047540E+02  0.12497764735E+03  0.00000000000E+00 0. -1.
</event>
<event>
 7    1  0.2679104E-009  0.1606902E+03  0.7561462E-02  0.1187920E+00
         -2   -1    0    0    0  501 -0.00000000000E+00  0.00000000000E+00  0.40307439928E+03  0.40307439928E+03  0.00000000000E+00 0.  1.
          2   -1    0    0  501    0  0.00000000000E+00 -0.00000000000E+00 -0.83517462837E+02  0.83517462837E+02  0.00000000000E+00 0. -1.
         25    2    1    2    0    0 -0.93859558800E+02 -0.83234342076E+02  0.26900341125E+03  0.32209963282E+03  0.12509102973E+03 0.  0.
          5    1    3    3  502    0 -0.55281902119E+02  0.18346923980E+02  0.14964083336E+03  0.16063172081E+03  0.41800000000E+01 0.  1.
         -5    1    3    3    0  502 -0.38577656681E+02 -0.10158126606E+03  0.11936257789E+03  0.16146791201E+03  0.41800000000E+01 0.  1.
        -11    1    1    2    0    0  0.20474021365E+02 -0.19310980948E+02  0.20618351361E+02  0.34888622054E+02  0.00000000000E+00 0.  1.
         11    1    1    2    0    0  0.73385537435E+02  0.10254532302E+03  0.29935173835E+02  0.12960360725E+03  0.00000000000E+00 0. -1.
</event>
<event>
 7    1  0.2679104E-009  0.1314830E+03  0.7561462E-02  0.1225272E+00
         -1   -1    0    0    0  501 -0.00000000000E+00  0.00000000000E+00  0.86464400059E+02  0.86464400059E+02  0.00000000000E+00 0.  1.
          1   -1    0    0  501    0  0.00000000000E+00 -0.00000000000E+00 -0.42632412746E+03  0.42632412746E+03  0.00000000000E+00 0. -1.
         25    2    1    2    0    0  0.53165364357E+02  0.93179978724E+02 -0.33401241503E+03  0.37245191374E+03  0.12508824986E+03 0.  0.
          5    1    3    3  502    0 -0.53444290690E+01  0.57160287489E+02 -0.39034174733E+02  0.69548548403E+02  0.41800000000E+01 0.  1.
         -5    1    3    3    0  502  0.58509793426E+02  0.36019691235E+02 -0.29497824030E+03  0.30290336534E+03  0.41800000000E+01 0.  1.
        -11    1    1    2    0    0  0.22181011119E+02 -0.99805661049E+01 -0.13520740561E+02  0.27828391605E+02  0.00000000000E+00 0.  1.
         11    1    1    2    0    0 -0.75346375476E+02 -0.83199412619E+02  0.76734281869E+01  0.11250822218E+03  0.00000000000E+00 0. -1.
</event>
<event>
 7    1  0.2679104E-009  0.1457221E+03  0.7561462E-02  0.1205830E+00
         -1   -1    0    0    0  501 -0.00000000000E+00  0.00000000000E+00  0.20466310589E+03  0.20466310589E+03  0.00000000000E+00 0.  1.
          1   -1    0    0  501    0  0.00000000000E+00 -0.00000000000E+00 -0.12325602006E+03  0.12325602006E+03  0.00000000000E+00 0. -1.
         25    2    1    2    0    0  0.54133417151E+02  0.86257284923E+02  0.98868591748E+02  0.18919069201E+03  0.12508946180E+03 0.  0.
          5    1    3    3  502    0  0.85392623156E+02  0.21546142435E+02  0.65558112076E+02  0.10987026350E+03  0.41800000000E+01 0.  1.
         -5    1    3    3    0  502 -0.31259206006E+02  0.64711142488E+02  0.33310479671E+02  0.79320428504E+02  0.41800000000E+01 0.  1.
        -11    1    1    2    0    0 -0.19729864254E+01 -0.78535437419E+02  0.10140505964E+02  0.79211978054E+02  0.00000000000E+00 0.  1.
         11    1    1    2    0    0 -0.52160430726E+02 -0.77218475047E+01 -0.27602011879E+02  0.59516455894E+02  0.00000000000E+00 0. -1.
</event>
<event>
 7    1  0.2679104E-009  0.1109666E+03  0.7561462E-02  0.1258790E+00
         -1   -1    0    0    0  501 -0.00000000000E+00  0.00000000000E+00  0.67568357539E+02  0.67568357539E+02  0.00000000000E+00 0.  1.
          1   -1    0    0  501    0  0.00000000000E+00 -0.00000000000E+00 -0.27184204007E+03  0.27184204007E+03  0.00000000000E+00 0. -1.
         25    2    1    2    0    0 -0.35542544411E+02  0.59058307094E+01 -0.20167930935E+03  0.24004191102E+03  0.12508966354E+03 0.  0.
          5    1    3    3  502    0  0.30448566076E+02 -0.35236759794E+02 -0.44121147899E+02  0.64287576628E+02  0.41800000000E+01 0.  1.
         -5    1    3    3    0  502 -0.65991110486E+02  0.41142590504E+02 -0.15755816145E+03  0.17575433439E+03  0.41800000000E+01 0.  1.
        -11    1    1    2    0    0  0.70271946763E+01  0.41438190689E+02 -0.11047588870E+02  0.43457500301E+02  0.00000000000E+00 0.  1.
         11    1    1    2    0    0  0.28515349735E+02 -0.47344021398E+02  0.84532156879E+01  0.55910986292E+02  0.00000000000E+00 0. -1.
</event>
<event>
 7    1  0.2679104E-009  0.1439289E+03  0.7561462E-02  0.1208138E+00
          2   -1    0    0  501    0  0.00000000000E+00  0.00000000000E+00  0.74413779241E+03  0.74413779241E+03  0.00000000000E+00 0. -1.
         -2   -1    0    0    0  501 -0.00000000000E+00 -0.00000000000E+00 -0.29536688441E+02  0.29536688441E+02  0.00000000000E+00 0.  1.
         25    2    1    2    0    0  0.94487525255E+02 -0.19350070697E+02  0.45924141370E+03  0.48564612709E+03  0.12508863671E+03 0.  0.
          5    1    3    3  502    0 -0.12511617335E+01  0.41880953659E+02  0.16229521454E+03  0.16766868744E+03  0.41800000000E+01 0.  1.
         -5    1    3    3    0  502  0.95738686988E+02 -0.61231024356E+02  0.29694619916E+03  0.31797743964E+03  0.41800000000E+01 0.  1.
        -11    1    1    2    0    0 -0.10183773397E+03 -0.94783644726E+01  0.18032758446E+03  0.20731329232E+03  0.00000000000E+00 0.  1.
         11    1    1    2    0    0  0.73502087153E+01  0.28828435170E+02  0.75032105812E+02  0.80715061451E+02  0.00000000000E+00 0. -1.
</event>
<event>
 7    1  0.2679104E-009  0.2389154E+03  0.7561462E-02  0.1120517E+00
         -2   -1    0    0    0  501 -0.00000000000E+00  0.00000000000E+00  0.18553134797E+03  0.18553134797E+03  0.00000000000E+00 0. -1.
          2   -1    0    0  501    0  0.00000000000E+00 -0.00000000000E+00 -0.50566144426E+03  0.50566144426E+03  0.00000000000E+00 0.  1.
         25    2    1    2    0    0 -0.53870626640E+02  0.21518911547E+03  0.40010069137E+02  0.25779209866E+03  0.12509021012E+03 0.  0.
          5    1    3    3  502    0  0.18501072563E+02  0.15609995738E+02 -0.25669106997E+02  0.35529383712E+02  0.41800000000E+01 0.  1.
         -5    1    3    3    0  502 -0.72371699203E+02  0.19957911973E+03  0.65679176134E+02  0.22226271494E+03  0.41800000000E+01 0.  1.
        -11    1    1    2    0    0  0.66935204080E+02 -0.76596003002E+02 -0.16044387853E+03  0.18997238584E+03  0.00000000000E+00 0. -1.
         11    1    1    2    0    0 -0.13064577441E+02 -0.13859311246E+03 -0.19969628690E+03  0.24342830773E+03  0.00000000000E+00 0.  1.
</event>
<event>
 7    1  0.2679104E-009  0.9549409E+02  0.7561462E-02  0.1290067E+00
          2   -1    0    0  501    0  0.00000000000E+00  0.00000000000E+00  0.19031596113E+03  0.19031596113E+03  0.00000000000E+00 0. -1.
         -2   -1    0    0    0  501 -0.00000000000E+00 -0.00000000000E+00 -0.98107050274E+02  0.98107050274E+02  0.00000000000E+00 0.  1.
         25    2    1    2    0    0  0.16235902273E+01 -0.45312036445E+02 -0.22382687061E+02  0.13492031792E+03  0.12508673317E+03 0.  0.
          5    1    3    3  502    0 -0.29108939198E+01  0.28530109465E+02 -0.48377173147E+02  0.56393827067E+02  0.41800000000E+01 0.  1.
         -5    1    3    3    0  502  0.45344841471E+01 -0.73842145910E+02  0.25994486086E+02  0.78526490855E+02  0.41800000000E+01 0.  1.
        -11    1    1    2    0    0  0.53531693043E+01 -0.20774899850E+02  0.48920094710E+00  0.21459082062E+02  0.00000000000E+00 0.  1.
         11    1    1    2    0    0 -0.69767595317E+01  0.66086936295E+02  0.11410239697E+03  0.13204361142E+03  0.00000000000E+00 0. -1.
</event>
<event>
 7    1  0.2679104E-009  0.5959957E+02  0.7561462E-02  0.1399520E+00
          2   -1    0    0  501    0  0.00000000000E+00  0.00000000000E+00  0.20312817146E+03  0.20312817146E+03  0.00000000000E+00 0. -1.
         -2   -1    0    0    0  501 -0.00000000000E+00 -0.00000000000E+00 -0.67671617789E+02  0.67671617789E+02  0.00000000000E+00 0.  1.
         25    2    1    2    0    0 -0.37964123098E+02  0.20555735639E+02  0.91227752503E+02  0.16072868604E+03  0.12508954705E+03 0.  0.
          5    1    3    3  502    0 -0.44518641941E+02  0.32818786556E+02  0.11793657505E+03  0.13032839432E+03  0.41800000000E+01 0.  1.
         -5    1    3    3    0  502  0.65545188425E+01 -0.12263050917E+02 -0.26708822548E+02  0.30400291724E+02  0.41800000000E+01 0.  1.
        -11    1    1    2    0    0  0.54736165407E+01 -0.15365572616E+02  0.67711355133E+02  0.69648323123E+02  0.00000000000E+00 0. -1.
         11    1    1    2    0    0  0.32490506557E+02 -0.51901630237E+01 -0.23482553967E+02  0.40422780080E+02  0.00000000000E+00 0.  1.
</event>
<event>
 7    1  0.2679104E-009  0.2785024E+03  0.7561462E-02  0.1096510E+00
          2   -1    0    0  501    0  0.00000000000E+00  0.00000000000E+00  0.21760528607E+04  0.21760528607E+04  0.00000000000E+00 0. -1.
         -2   -1    0    0    0  501 -0.00000000000E+00 -0.00000000000E+00 -0.39362802074E+02  0.39362802074E+02  0.00000000000E+00 0.  1.
         25    2    1    2    0    0 -0.67889662906E+02 -0.26280802351E+03  0.11319998911E+04  0.11707898975E+04  0.12509263436E+03 0.  0.
          5    1    3    3  502    0 -0.22536927717E+02 -0.83572000293E+02  0.16611296921E+03  0.18735843531E+03  0.41800000000E+01 0. -1.
         -5    1    3    3    0  502 -0.45352735189E+02 -0.17923602321E+03  0.96588692189E+03  0.98343146222E+03  0.41800000000E+01 0. -1.
        -11    1    1    2    0    0 -0.88060990900E+00  0.16949661337E+03  0.63114939167E+03  0.65351314602E+03  0.00000000000E+00 0. -1.
         11    1    1    2    0    0  0.68770272815E+02  0.93311410137E+02  0.37354077590E+03  0.39111261927E+03  0.00000000000E+00 0.  1.
</event>
<event>
 7    1  0.5383782E-009  0.1228366E+03  0.7561462E-02  0.1238490E+00
         -2   -1    0    0    0  501 -0.00000000000E+00  0.00000000000E+00  0.10401433456E+02  0.10401433456E+02  0.00000000000E+00 0.  1.
          2   -1    0    0  501    0  0.00000000000E+00 -0.00000000000E+00 -0.20178052878E+04  0.20178052878E+04  0.00000000000E+00 0. -1.
         25    2    1    2    0    0  0.58599516958E+02 -0.19231633356E+00 -0.16201326482E+04  0.16260109855E+04  0.12509191397E+03 0.  0.
          5    1    3    3  502    0 -0.23944651779E+02  0.38990741703E+02 -0.62295438402E+03  0.62464650904E+03  0.41800000000E+01 0.  1.
         -5    1    3    3    0  502  0.82544168737E+02 -0.39183058037E+02 -0.99717826417E+03  0.10013644765E+04  0.41800000000E+01 0.  1.
        -11    1    1    2    0    0 -0.30446424526E+02 -0.45406496213E+02 -0.18091997839E+03  0.18899940012E+03  0.00000000000E+00 0. -1.
         11    1    1    2    0    0 -0.28153092432E+02  0.45598812547E+02 -0.20635122779E+03  0.21319633564E+03  0.00000000000E+00 0.  1.
</event>
<event>
 7    1  0.2679104E-009  0.1289445E+03  0.7561462E-02  0.1229030E+00
         -2   -1    0    0    0  501 -0.00000000000E+00  0.00000000000E+00  0.96696603746E+02  0.96696603746E+02  0.00000000000E+00 0. -1.
          2   -1    0    0  501    0  0.00000000000E+00 -0.00000000000E+00 -0.26219883951E+03  0.26219883951E+03  0.00000000000E+00 0.  1.
         25    2    1    2    0    0 -0.74174849904E+02  0.82609277660E+02 -0.12815548341E+03  0.21070787817E+03  0.12509109033E+03 0.  0.
          5    1    3    3  502    0 -0.67452710871E+02  0.51458083548E+02 -0.14962545449E+03  0.17205537364E+03  0.41800000000E+01 0. -1.
         -5    1    3    3    0  502 -0.67221390325E+01  0.31151194111E+02  0.21469971086E+02  0.38652504526E+02  0.41800000000E+01 0. -1.
        -11    1    1    2    0    0  0.62696430556E+02 -0.56012078716E+01 -0.30733737407E+02  0.70048401474E+02  0.00000000000E+00 0. -1.
         11    1    1    2    0    0  0.11478419348E+02 -0.77008069788E+02 -0.66130149449E+01  0.78139163611E+02  0.00000000000E+00 0.  1.
</event>
<event>
 7    1  0.2679104E-009  0.1262914E+03  0.7561462E-02  0.1233065E+00
         -1   -1    0    0    0  501 -0.00000000000E+00  0.00000000000E+00  0.23284817727E+03  0.23284817727E+03  0.00000000000E+00 0.  1.
          1   -1    0    0  501    0  0.00000000000E+00 -0.00000000000E+00 -0.10112711546E+03  0.10112711546E+03  0.00000000000E+00 0. -1.
         25    2    1    2    0    0 -0.75169625360E+02 -0.34902241112E+02  0.14445428133E+03  0.20828673222E+03  0.12509070475E+03 0.  0.
          5    1    3    3  502    0 -0.55403543764E+01  0.37353797315E+02  0.81055147840E+02  0.89517657989E+02  0.41800000000E+01 0.  1.
         -5    1    3    3    0  502 -0.69629270983E+02 -0.72256038427E+02  0.63399133490E+02  0.11876907423E+03  0.41800000000E+01 0.  1.
        -11    1    1    2    0    0  0.59878248150E+02  0.60000938846E+02 -0.31933250882E+02  0.90582833781E+02  0.00000000000E+00 0. -1.
         11    1    1    2    0    0  0.15291377210E+02 -0.25098697734E+02  0.19200031363E+02  0.35105726730E+02  0.00000000000E+00 0.  1.
</event>
<event>
 7    1  0.2679104E-009  0.9828027E+02  0.7561462E-02  0.1283954E+00
          3   -1    0    0  501    0  0.00000000000E+00  0.00000000000E+00  0.15086384806E+03  0.15086384806E+03  0.00000000000E+00 0. -1.
         -3   -1    0    0    0  501 -0.00000000000E+00 -0.00000000000E+00 -0.16404700629E+03  0.16404700629E+03  0.00000000000E+00 0.  1.
         25    2    1    2    0    0 -0.23182100827E+02  0.50491202082E+02 -0.10457752868E+03  0.17224807507E+03  0.12508464564E+03 0.  0.
          5    1    3    3  502    0  0.35512389758E+01 -0.39048728581E+02 -0.13462840637E+02  0.41666953094E+02  0.41800000000E+01 0.  1.
         -5    1    3    3    0  502 -0.26733339802E+02  0.89539930664E+02 -0.91114688042E+02  0.13058112198E+03  0.41800000000E+01 0.  1.
        -11    1    1    2    0    0  0.30251880018E+02 -0.33236685120E+02 -0.43191221353E+01  0.45149842729E+02  0.00000000000E+00 0.  1.
         11    1    1    2    0    0 -0.70697791912E+01 -0.17254516962E+02  0.95713492584E+02  0.97512936558E+02  0.00000000000E+00 0. -1.
</event>
<event>
 7    1  0.2679104E-009  0.9488506E+02  0.7561462E-02  0.1291435E+00
         -2   -1    0    0    0  501 -0.00000000000E+00  0.00000000000E+00  0.36912813918E+03  0.36912813918E+03  0.00000000000E+00 0.  1.
          2   -1    0    0  501    0  0.00000000000E+00 -0.00000000000E+00 -0.36523479989E+02  0.36523479989E+02  0.00000000000E+00 0. -1.
         25    2    1    2    0    0  0.38508557351E+01 -0.26985943170E+02  0.24973243137E+03  0.28063676412E+03  0.12509051075E+03 0.  0.
          5    1    3    3  502    0 -0.33310635150E+02 -0.47692865129E+02  0.22235054468E+03  0.22987267110E+03  0.41800000000E+01 0. -1.
         -5    1    3    3    0  502  0.37161490885E+02  0.20706921959E+02  0.27381886693E+02  0.50764093026E+02  0.41800000000E+01 0. -1.
        -11    1    1    2    0    0 -0.18382235330E+02  0.54537059295E+02  0.33364781504E+02  0.66523725520E+02  0.00000000000E+00 0. -1.
         11    1    1    2    0    0  0.14531379595E+02 -0.27551116124E+02  0.49507446311E+02  0.58491129523E+02  0.00000000000E+00 0.  1.
</event>
<event>
 7    1  0.2679104E-009  0.1311261E+03  0.7561462E-02  0.1225794E+00
         -3   -1    0    0    0  501 -0.00000000000E+00  0.00000000000E+00  0.32631887070E+02  0.32631887070E+02  0.00000000000E+00 0.  1.
          3   -1    0    0  501    0  0.00000000000E+00 -0.00000000000E+00 -0.81951942582E+03  0.81951942582E+03  0.00000000000E+00 0. -1.
         25    2    1    2    0    0  0.84333161039E+02  0.69807462602E+01 -0.64937893268E+03  0.66670858511E+03  0.12508607588E+03 0.  0.
          5    1    3    3  502    0  0.79149821769E+02  0.58134705336E+02 -0.38545958469E+03  0.39779505035E+03  0.41800000000E+01 0.  1.
         -5    1    3    3    0  502  0.51833392698E+01 -0.51153959076E+02 -0.26391934798E+03  0.26891353476E+03  0.41800000000E+01 0.  1.
        -11    1    1    2    0    0 -0.19792986114E+02 -0.36407578190E+02 -0.15365146942E+02  0.44196852710E+02  0.00000000000E+00 0.  1.
         11    1    1    2    0    0 -0.64540174925E+02  0.29426831929E+02 -0.12214345913E+03  0.14124587507E+03  0.00000000000E+00 0. -1.
</event>
<event>
 7    1  0.2679104E-009  0.1084263E+03  0.7561462E-02  0.1263512E+00
         -2   -1    0    0    0  501 -0.00000000000E+00  0.00000000000E+00  0.22449343117E+03  0.22449343117E+03  0.00000000000E+00 0. -1.
          2   -1    0    0  501    0  0.00000000000E+00 -0.00000000000E+00 -0.83085519526E+02  0.83085519526E+02  0.00000000000E+00 0.  1.
         25    2    1    2    0    0  0.10689931322E+02 -0.77121960263E+02  0.48911885986E+02  0.15523484295E+03  0.12507362827E+03 0.  0.
          5    1    3    3  502    0 -0.33301706896E+02 -0.16954506675E+02  0.68423948080E+02  0.78075399772E+02  0.41800000000E+01 0.  1.
         -5    1    3    3    0  502  0.43991638218E+02 -0.60167453587E+02 -0.19512062094E+02  0.77159443177E+02  0.41800000000E+01 0.  1.
        -11    1    1    2    0    0  0.16040008990E+02 -0.61219192852E+01 -0.81681025585E+01  0.19012566464E+02  0.00000000000E+00 0.  1.
         11    1    1    2    0    0 -0.26729940312E+02  0.83243879548E+02  0.10066412822E+03  0.13333154129E+03  0.00000000000E+00 0. -1.
</event>
<event>
 7    1  0.2679104E-009  0.9686969E+02  0.7561462E-02  0.1287020E+00
          2   -1    0    0  501    0  0.00000000000E+00  0.00000000000E+00  0.13746370937E+02  0.13746370937E+02  0.00000000000E+00 0.  1.
         -2   -1    0    0    0  501 -0.00000000000E+00 -0.00000000000E+00 -0.13536435896E+04  0.13536435896E+04  0.00000000000E+00 0. -1.
         25    2    1    2    0    0  0.50850479532E+02  0.58236483156E+02 -0.86910923018E+03  0.88146218715E+03  0.12508986434E+03 0.  0.
          5    1    3    3  502    0  0.16294701071E+02  0.14928326783E+02 -0.18727192799E+02  0.29266916026E+02  0.41800000000E+01 0.  1.
         -5    1    3    3    0  502  0.34555778461E+02  0.43308156372E+02 -0.85038203738E+03  0.85219527113E+03  0.41800000000E+01 0.  1.
        -11    1    1    2    0    0  0.20755353342E+02 -0.34475114834E+02 -0.23326889170E+03  0.23671437233E+03  0.00000000000E+00 0.  1.
         11    1    1    2    0    0 -0.71605832874E+02 -0.23761368321E+02 -0.23751909682E+03  0.24921340109E+03  0.00000000000E+00 0. -1.
</event>
<event>
 7    1  0.2679104E-009  0.2379798E+03  0.7561462E-02  0.1121146E+00
          2   -1    0    0  501    0  0.00000000000E+00  0.00000000000E+00  0.11598695831E+03  0.11598695831E+03  0.00000000000E+00 0. -1.
         -2   -1    0    0    0  501 -0.00000000000E+00 -0.00000000000E+00 -0.59283456170E+03  0.59283456170E+03  0.00000000000E+00 0.  1.
         25    2    1    2    0    0 -0.72074501601E+01  0.21263674295E+03 -0.99652752424E+02  0.26616582541E+03  0.12508894339E+03 0.  0.
          5    1    3    3  502    0 -0.58720855589E+02  0.53839054296E+02 -0.34288097945E+02  0.86832762879E+02  0.41800000000E+01 0. -1.
         -5    1    3    3    0  502  0.51513405428E+02  0.15879768865E+03 -0.65364654479E+02  0.17933306253E+03  0.41800000000E+01 0. -1.
        -11    1    1    2    0    0  0.46253902060E+02 -0.10723053566E+03 -0.22439319469E+03  0.25296267918E+03  0.00000000000E+00 0.  1.
         11    1    1    2    0    0 -0.39046451900E+02 -0.10540620729E+03 -0.15280165627E+03  0.18969301543E+03  0.00000000000E+00 0. -1.
</event>
<event>
 7    1  0.2679104E-009  0.2587923E+03  0.7561462E-02  0.1107871E+00
         -1   -1    0    0    0  501 -0.00000000000E+00  0.00000000000E+00  0.55468706506E+03  0.55468706506E+03  0.00000000000E+00 0.  1.
          1   -1    0    0  501    0  0.00000000000E+00 -0.00000000000E+00 -0.27670524468E+03  0.27670524468E+03  0.00000000000E+00 0. -1.
         25    2    1    2    0    0 -0.11672502238E+03 -0.22447394910E+03  0.43981233043E+03  0.52258614427E+03  0.12509239591E+03 0.  0.
          5    1    3    3  502    0  0.40413912851E+01 -0.22417862428E+02 -0.63025943470E+00  0.23168146803E+02  0.41800000000E+01 0. -1.
         -5    1    3    3    0  502 -0.12076641366E+03 -0.20205608667E+03  0.44044258987E+03  0.49941799747E+03  0.41800000000E+01 0. -1.
        -11    1    1    2    0    0  0.20282698406E+02  0.97266233317E+02 -0.88811047590E+02  0.13326481221E+03  0.00000000000E+00 0. -1.
         11    1    1    2    0    0  0.96442323972E+02  0.12720771578E+03 -0.73019462456E+02  0.17554135326E+03  0.00000000000E+00 0.  1.
</event>
<event>
 7    1  0.2679104E-009  0.1020739E+03  0.7561462E-02  0.1275994E+00
          2   -1    0    0  501    0  0.00000000000E+00  0.00000000000E+00  0.10786199424E+04  0.10786199424E+04  0.00000000000E+00 0.  1.
         -2   -1    0    0    0  501 -0.00000000000E+00 -0.00000000000E+00 -0.12769756528E+02  0.12769756528E+02  0.00000000000E+00 0. -1.
         25    2    1    2    0    0  0.17053731998E+01  0.32424405559E+01  0.81165605133E+03  0.82124966138E+03  0.12510810903E+03 0.  0.
          5    1    3    3  502    0  0.20253098773E+02  0.55493381499E+02  0.25325095661E+03  0.26008310753E+03  0.41800000000E+01 0.  1.
         -5    1    3    3    0  502 -0.18547725573E+02 -0.52250940943E+02  0.55840509472E+03  0.56116655385E+03  0.41800000000E+01 0.  1.
        -11    1    1    2    0    0 -0.44711414935E+02 -0.99301601366E+01  0.15906133981E+03  0.16552410256E+03  0.00000000000E+00 0.  1.
         11    1    1    2    0    0  0.43006041735E+02  0.66877195807E+01  0.95132794720E+02  0.10461593497E+03  0.00000000000E+00 0. -1.
</event>
<event>
 7    1  0.2679104E-009  0.8686511E+02  0.7561462E-02  0.1310626E+00
          1   -1    0    0  501    0  0.00000000000E+00  0.00000000000E+00  0.73097196143E+02  0.73097196143E+02  0.00000000000E+00 0. -1.
         -1   -1    0    0    0  501 -0.00000000000E+00 -0.00000000000E+00 -0.18028669091E+03  0.18028669091E+03  0.00000000000E+00 0.  1.
         25    2    1    2    0    0  0.29950695188E+02 -0.25093958117E+02 -0.70504497657E+02  0.14881216741E+03  0.12508967225E+03 0.  0.
          5    1    3    3  502    0  0.60584808005E+01  0.26101117730E+02 -0.85923093511E+02  0.90101187200E+02  0.41800000000E+01 0.  1.
         -5    1    3    3    0  502  0.23892214388E+02 -0.51195075848E+02  0.15418595854E+02  0.58710980213E+02  0.41800000000E+01 0.  1.
        -11    1    1    2    0    0 -0.53800297980E+02  0.34949066493E+02 -0.43946721752E+02  0.77763896920E+02  0.00000000000E+00 0.  1.
         11    1    1    2    0    0  0.23849602792E+02 -0.98551083754E+01  0.72617246391E+01  0.26807822723E+02  0.00000000000E+00 0. -1.
</event>
<event>
 7    1  0.2679104E-009  0.1743873E+03  0.7561462E-02  0.1173348E+00
         -2   -1    0    0    0  501 -0.00000000000E+00  0.00000000000E+00  0.22043555029E+02  0.22043555029E+02  0.00000000000E+00 0.  1.
          2   -1    0    0  501    0  0.00000000000E+00 -0.00000000000E+00 -0.16337436270E+04  0.16337436270E+04  0.00000000000E+00 0. -1.
         25    2    1    2    0    0  0.11253429541E+03 -0.10345297446E+03 -0.96966447315E+03  0.98957769382E+03  0.12509330934E+03 0.  0.
          5    1    3    3  502    0  0.96555118399E+01  0.16970063633E+02 -0.26406944883E+02  0.33106058458E+02  0.41800000000E+01 0.  1.
         -5    1    3    3    0  502  0.10287878357E+03 -0.12042303809E+03 -0.94325752827E+03  0.95647163536E+03  0.41800000000E+01 0.  1.
        -11    1    1    2    0    0 -0.81333671910E+02  0.23681064448E+02 -0.41489663947E+03  0.42345623203E+03  0.00000000000E+00 0. -1.
         11    1    1    2    0    0 -0.31200623503E+02  0.79771910010E+02 -0.22713895938E+03  0.24275325621E+03  0.00000000000E+00 0.  1.
</event>
<event>
 7    1  0.2679104E-009  0.1211309E+03  0.7561462E-02  0.1241243E+00
          2   -1    0    0  501    0  0.00000000000E+00  0.00000000000E+00  0.79863953215E+03  0.79863953215E+03  0.00000000000E+00 0. -1.
         -2   -1    0    0    0  501 -0.00000000000E+00 -0.00000000000E+00 -0.21719141195E+02  0.21719141195E+02  0.00000000000E+00 0.  1.
         25    2    1    2    0    0 -0.28440534590E+02 -0.69422501465E+02  0.41742583077E+03  0.44217604988E+03  0.12508791780E+03 0.  0.
          5    1    3    3  502    0 -0.24516831004E+02  0.28165357112E+02  0.20394699637E+03  0.20737939162E+03  0.41800000000E+01 0. -1.
         -5    1    3    3    0  502 -0.39237035856E+01 -0.97587858576E+02  0.21347883440E+03  0.23479665826E+03  0.41800000000E+01 0. -1.
        -11    1    1    2    0    0  0.17610666964E+02  0.85639018303E+02  0.33815621104E+03  0.34927610871E+03  0.00000000000E+00 0. -1.
         11    1    1    2    0    0  0.10829867626E+02 -0.16216516839E+02  0.21338349145E+02  0.28906514757E+02  0.00000000000E+00 0.  1.
</event>
<event>
 7    1  0.2679104E-009  0.9771411E+02  0.7561462E-02  0.1285178E+00
         -2   -1    0    0    0  501 -0.00000000000E+00  0.00000000000E+00  0.27926329037E+03  0.27926329037E+03  0.00000000000E+00 0.  1.
          2   -1    0    0  501    0  0.00000000000E+00 -0.00000000000E+00 -0.56603128655E+02  0.56603128655E+02  0.00000000000E+00 0. -1.
         25    2    1    2    0    0 -0.23636951747E+02  0.42998859775E+02  0.17987612300E+03  0.22452398329E+03  0.12509193426E+03 0.  0.
          5    1    3    3  502    0 -0.15746502839E+02  0.83263641054E+02  0.15403219473E+03  0.17585271020E+03  0.41800000000E+01 0.  1.
         -5    1    3    3    0  502 -0.78904489087E+01 -0.40264781279E+02  0.25843928277E+02  0.48671273091E+02  0.41800000000E+01 0.  1.
        -11    1    1    2    0    0  0.25711095249E+02  0.57690829394E+00  0.59346431006E+02  0.64679147453E+02  0.00000000000E+00 0.  1.
         11    1    1    2    0    0 -0.20741435017E+01 -0.43575768069E+02 -0.16562392298E+02  0.46663288276E+02  0.00000000000E+00 0. -1.
</event>
<event>
 7    1  0.2679104E-009  0.1185218E+03  0.7561462E-02  0.1245556E+00
          2   -1    0    0  501    0  0.00000000000E+00  0.00000000000E+00  0.37723911612E+03  0.37723911612E+03  0.00000000000E+00 0. -1.
         -2   -1    0    0    0  501 -0.00000000000E+00 -0.00000000000E+00 -0.69690714463E+02  0.69690714463E+02  0.00000000000E+00 0.  1.
         25    2    1    2    0    0 -0.44045082453E+02  0.29085774672E+02  0.30590886206E+03  0.33468310191E+03  0.12508635114E+03 0.  0.
          5    1    3    3  502    0 -0.80841021531E+02  0.27005217529E+01  0.24898653820E+03  0.26182882230E+03  0.41800000000E+01 0.  1.
         -5    1    3    3    0  502  0.36795939078E+02  0.26385252919E+02  0.56922323853E+02  0.72854279607E+02  0.41800000000E+01 0.  1.
        -11    1    1    2    0    0  0.71962850535E+02 -0.24677973869E+01 -0.81092083675E+01  0.72460341852E+02  0.00000000000E+00 0.  1.
         11    1    1    2    0    0 -0.27917768082E+02 -0.26617977285E+02  0.97487479654E+01  0.39786386821E+02  0.00000000000E+00 0. -1.
</event>
<event>
 7    1  0.2679104E-009  0.1255379E+03  0.7561462E-02  0.1234231E+00
         -1   -1    0    0    0  501 -0.00000000000E+00  0.00000000000E+00  0.50468292962E+03  0.50468292962E+03  0.00000000000E+00 0.  1.
          1   -1    0    0  501    0  0.00000000000E+00 -0.00000000000E+00 -0.52005222532E+02  0.52005222532E+02  0.00000000000E+00 0. -1.
         25    2    1    2    0    0  0.18830782558E+02 -0.91997639252E+02  0.37056686336E+03  0.40222597495E+03  0.12509104966E+03 0.  0.
          5    1    3    3  502    0  0.23024068390E+02 -0.10757541320E+03  0.18046165189E+03  0.21139171567E+03  0.41800000000E+01 0.  1.
         -5    1    3    3    0  502 -0.41932858314E+01  0.15577773951E+02  0.19010521147E+03  0.19083425928E+03  0.41800000000E+01 0.  1.
        -11    1    1    2    0    0 -0.39925738838E+02  0.12151583964E+02  0.51729421341E+02  0.66465469583E+02  0.00000000000E+00 0.  1.
         11    1    1    2    0    0  0.21094956280E+02  0.79846055288E+02  0.30381422386E+02  0.87996707618E+02  0.00000000000E+00 0. -1.
</event>
<event>
 7    1  0.2679104E-009  0.1836801E+03  0.7561462E-02  0.1164288E+00
         -2   -1    0    0    0  501 -0.00000000000E+00  0.00000000000E+00  0.10035985034E+03  0.10035985034E+03  0.00000000000E+00 0.  1.
          2   -1    0    0  501    0  0.00000000000E+00 -0.00000000000E+00 -0.33653120887E+03  0.33653120887E+03  0.00000000000E+00 0. -1.
         25    2    1    2    0    0  0.14551138429E+03 -0.29094235673E+02 -0.12918240642E+03  0.23314358152E+03  0.12509115863E+03 0.  0.
          5    1    3    3  502    0  0.16639778952E+03 -0.38402127882E+02 -0.11460492748E+03  0.20570539512E+03  0.41800000000E+01 0. -1.
         -5    1    3    3    0  502 -0.20886405221E+02  0.93078922093E+01 -0.14577478941E+02  0.27438186397E+02  0.41800000000E+01 0. -1.
        -11    1    1    2    0    0 -0.87159709551E+02 -0.28107127954E+02 -0.60069919759E+02  0.10952269569E+03  0.00000000000E+00 0. -1.
         11    1    1    2    0    0 -0.58351674744E+02  0.57201363626E+02 -0.46919032353E+02  0.94224782001E+02  0.00000000000E+00 0.  1.
</event>
<event>
 7    1  0.2679104E-009  0.1259987E+03  0.7561462E-02  0.1233517E+00
          2   -1    0    0  501    0  0.00000000000E+00  0.00000000000E+00  0.75248026111E+03  0.75248026111E+03  0.00000000000E+00 0. -1.
         -2   -1    0    0    0  501 -0.00000000000E+00 -0.00000000000E+00 -0.26987349564E+02  0.26987349564E+02  0.00000000000E+00 0.  1.
         25    2    1    2    0    0  0.46569236512E+02 -0.67448351912E+02  0.50873431989E+03  0.53026014389E+03  0.12508892037E+03 0.  0.
          5    1    3    3  502    0  0.33853552447E+02  0.33307533519E+02  0.14890226051E+03  0.15634836228E+03  0.41800000000E+01 0.  1.
         -5    1    3    3    0  502  0.12715684065E+02 -0.10075588543E+03  0.35983205938E+03  0.37391178161E+03  0.41800000000E+01 0.  1.
        -11    1    1    2    0    0 -0.59972631293E+02  0.66034115678E+02  0.21812535685E+03  0.23566054451E+03  0.00000000000E+00 0. -1.
         11    1    1    2    0    0  0.13403394782E+02  0.14142362342E+01 -0.13667652008E+01  0.13546922267E+02  0.00000000000E+00 0.  1.
</event>
<event>
 7    1  0.2679104E-009  0.1383998E+03  0.7561462E-02  0.1215498E+00
          2   -1    0    0  501    0  0.00000000000E+00  0.00000000000E+00  0.26187812827E+03  0.26187812827E+03  0.00000000000E+00 0. -1.
         -2   -1    0    0    0  501 -0.00000000000E+00 -0.00000000000E+00 -0.10918660907E+03  0.10918660907E+03  0.00000000000E+00 0.  1.
         25    2    1    2    0    0  0.23307241552E+02  0.86340333966E+02  0.18413232571E+03  0.23989504885E+03  0.12508813019E+03 0.  0.
          5    1    3    3  502    0 -0.49336069595E+02  0.30839663574E+02  0.46418899466E+02  0.74547429467E+02  0.41800000000E+01 0. -1.
         -5    1    3    3    0  502  0.72643311148E+02  0.55500670391E+02  0.13771342624E+03  0.16534761938E+03  0.41800000000E+01 0. -1.
        -11    1    1    2    0    0 -0.47526276786E+02 -0.90650937137E+02 -0.29362628216E+02  0.10648240852E+03  0.00000000000E+00 0.  1.
         11    1    1    2    0    0  0.24219035234E+02  0.43106031712E+01 -0.20781782858E+01  0.24687279971E+02  0.00000000000E+00 0. -1.
</event>
<event>
 7    1  0.2679104E-009  0.1148409E+03  0.7561462E-02  0.1251859E+00
         -1   -1    0    0    0  501 -0.00000000000E+00  0.00000000000E+00  0.20493934254E+02  0.20493934254E+02  0.00000000000E+00 0.  1.
          1   -1    0    0  501    0  0.00000000000E+00 -0.00000000000E+00 -0.74232583894E+03  0.74232583894E+03  0.00000000000E+00 0. -1.
         25    2    1    2    0    0  0.35018029398E+02  0.40645239764E+02 -0.28806214134E+03  0.31859737389E+03  0.12508473719E+03 0.  0.
          5    1    3    3  502    0  0.19442512283E+02 -0.44273039842E+02 -0.12396806800E+03  0.13313026562E+03  0.41800000000E+01 0. -1.
         -5    1    3    3    0  502  0.15575517115E+02  0.84918279605E+02 -0.16409407334E+03  0.18546710827E+03  0.41800000000E+01 0. -1.
        -11    1    1    2    0    0 -0.19691941027E+02 -0.63897254216E+02 -0.33468204775E+03  0.34129562658E+03  0.00000000000E+00 0. -1.
         11    1    1    2    0    0 -0.15326088371E+02  0.23252014452E+02 -0.99087715609E+02  0.10292677273E+03  0.00000000000E+00 0.  1.
</event>
<event>
 7    1  0.2679104E-009  0.1154542E+03  0.7561462E-02  0.1250790E+00
          2   -1    0    0  501    0  0.00000000000E+00  0.00000000000E+00  0.25417228857E+03  0.25417228857E+03  0.00000000000E+00 0.  1.
         -2   -1    0    0    0  501 -0.00000000000E+00 -0.00000000000E+00 -0.57912956176E+02  0.57912956176E+02  0.00000000000E+00 0. -1.
         25    2    1    2    0    0 -0.34310242002E+02 -0.43078423451E+02  0.11943213859E+03  0.18150789020E+03  0.12509250658E+03 0.  0.
          5    1    3    3  502    0 -0.22915228106E+02 -0.81648748015E+02  0.43313632069E+02  0.95316152118E+02  0.41800000000E+01 0.  1.
         -5    1    3    3    0  502 -0.11395013896E+02  0.38570324564E+02  0.76118506522E+02  0.86191738084E+02  0.41800000000E+01 0.  1.
        -11    1    1    2    0    0  0.60864867088E+02  0.77275934824E+01  0.45814753623E+02  0.76571792432E+02  0.00000000000E+00 0.  1.
         11    1    1    2    0    0 -0.26554625086E+02  0.35350829969E+02  0.31012440174E+02  0.54005562107E+02  0.00000000000E+00 0. -1.
</event>
<event>
 7    1  0.2679104E-009  0.2047029E+03  0.7561462E-02  0.1145831E+00
         -1   -1    0    0    0  501 -0.00000000000E+00  0.00000000000E+00  0.54298847997E+02  0.54298847997E+02  0.00000000000E+00 0.  1.
          1   -1    0    0  501    0  0.00000000000E+00 -0.00000000000E+00 -0.10553680998E+04  0.10553680998E+04  0.00000000000E+00 0. -1.
         25    2    1    2    0    0  0.82066848956E+02  0.17601048158E+03 -0.31500126893E+03  0.39062520701E+03  0.12509034976E+03 0.  0.
          5    1    3    3  502    0  0.47440007791E+02  0.19582531163E+02 -0.15835835794E+03  0.16651988408E+03  0.41800000000E+01 0.  1.
         -5    1    3    3    0  502  0.34626841165E+02  0.15642795042E+03 -0.15664291099E+03  0.22410532293E+03  0.41800000000E+01 0.  1.
        -11    1    1    2    0    0 -0.59185659013E+02 -0.83516479192E+02 -0.21107086133E+03  0.23458229480E+03  0.00000000000E+00 0. -1.
         11    1    1    2    0    0 -0.22881189943E+02 -0.92494002391E+02 -0.47499712160E+03  0.48445944604E+03  0.00000000000E+00 0.  1.
</event>
<event>
 7    1  0.2679104E-009  0.3947927E+03  0.7561462E-02  0.1045598E+00
          1   -1    0    0  501    0  0.00000000000E+00  0.00000000000E+00  0.52622906414E+03  0.52622906414E+03  0.00000000000E+00 0. -1.
         -1   -1    0    0    0  501 -0.00000000000E+00 -0.00000000000E+00 -0.32400333194E+03  0.32400333194E+03  0.00000000000E+00 0.  1.
         25    2    1    2    0    0  0.20408816653E+03  0.33321190685E+03  0.18053856576E+03  0.44824429153E+03  0.12508643642E+03 0.  0.
          5    1    3    3  502    0  0.92814419201E+02  0.21194045778E+03  0.46717661507E+02  0.23607898329E+03  0.41800000000E+01 0.  1.
         -5    1    3    3    0  502  0.11127374733E+03  0.12127144907E+03  0.13382090426E+03  0.21216530824E+03  0.41800000000E+01 0.  1.
        -11    1    1    2    0    0 -0.11727456000E+03 -0.23372454332E+03  0.51754155412E+02  0.26656889761E+03  0.00000000000E+00 0. -1.
         11    1    1    2    0    0 -0.86813606531E+02 -0.99487363534E+02 -0.30066988969E+02  0.13541920694E+03  0.00000000000E+00 0.  1.
</event>
<event>
 7    1  0.2679104E-009  0.6661575E+02  0.7561462E-02  0.1371995E+00
          3   -1    0    0  501    0  0.00000000000E+00  0.00000000000E+00  0.64326749933E+02  0.64326749933E+02  0.00000000000E+00 0. -1.
         -3   -1    0    0    0  501 -0.00000000000E+00 -0.00000000000E+00 -0.21774797264E+03  0.21774797264E+03  0.00000000000E+00 0.  1.
         25    2    1    2    0    0  0.65383575268E+01 -0.23441805893E+02 -0.13353474671E+03  0.18457608857E+03  0.12507811764E+03 0.  0.
          5    1    3    3  502    0  0.23440578114E+02 -0.32258434994E+02  0.86845772017E+01  0.41023915119E+02  0.41800000000E+01 0.  1.
         -5    1    3    3    0  502 -0.16902220587E+02  0.88166291007E+01 -0.14221932391E+03  0.14355217345E+03  0.41800000000E+01 0.  1.
        -11    1    1    2    0    0 -0.33908758477E+02  0.30223196735E+02 -0.41844727988E+02  0.61759426671E+02  0.00000000000E+00 0.  1.
         11    1    1    2    0    0  0.27370400950E+02 -0.67813908418E+01  0.21958251992E+02  0.35739207328E+02  0.00000000000E+00 0. -1.
</event>
<event>
 7    1  0.2679104E-009  0.1428680E+03  0.7561462E-02  0.1209521E+00
         -2   -1    0    0    0  501 -0.00000000000E+00  0.00000000000E+00  0.28903997150E+02  0.28903997150E+02  0.00000000000E+00 0.  1.
          2   -1    0    0  501    0  0.00000000000E+00 -0.00000000000E+00 -0.76124114975E+03  0.76124114975E+03  0.00000000000E+00 0. -1.
         25    2    1    2    0    0  0.72284889404E+02  0.76830040987E+02 -0.36842824780E+03  0.40313141707E+03  0.12509038819E+03 0.  0.
          5    1    3    3  502    0 -0.21871888867E+02 -0.15475503298E+02 -0.10596081900E+03  0.10937567503E+03  0.41800000000E+01 0.  1.
         -5    1    3    3    0  502  0.94156778271E+02  0.92305544285E+02 -0.26246742880E+03  0.29375574204E+03  0.41800000000E+01 0.  1.
        -11    1    1    2    0    0 -0.32937746593E+02 -0.80697335279E+02 -0.29457538440E+03  0.30719962917E+03  0.00000000000E+00 0.  1.
         11    1    1    2    0    0 -0.39347142811E+02  0.38672942921E+01 -0.69333520404E+02  0.79814100660E+02  0.00000000000E+00 0. -1.
</event>
<event>
 7    1  0.2679104E-009  0.1342998E+03  0.7561462E-02  0.1221212E+00
          1   -1    0    0  501    0  0.00000000000E+00  0.00000000000E+00  0.11186810782E+03  0.11186810782E+03  0.00000000000E+00 0. -1.
         -1   -1    0    0    0  501 -0.00000000000E+00 -0.00000000000E+00 -0.26584887921E+03  0.26584887921E+03  0.00000000000E+00 0.  1.
         25    2    1    2    0    0 -0.10545910314E+03  0.35724351697E+02 -0.16294320393E+03  0.23365821462E+03  0.12509125393E+03 0.  0.
          5    1    3    3  502    0 -0.12541145343E+03  0.41445546134E+02 -0.16609509992E+03  0.21225178577E+03  0.41800000000E+01 0.  1.
         -5    1    3    3    0  502  0.19952350286E+02 -0.57211944372E+01  0.31518959860E+01  0.21406428848E+02  0.41800000000E+01 0.  1.
        -11    1    1    2    0    0  0.83238464448E+02 -0.14389272872E+02  0.45758375016E+02  0.96070401381E+02  0.00000000000E+00 0. -1.
         11    1    1    2    0    0  0.22220638691E+02 -0.21335078825E+02 -0.36795942465E+02  0.47988371031E+02  0.00000000000E+00 0.  1.
</event>
<event>
 7    1  0.2679104E-009  0.1097252E+03  0.7561462E-02  0.1261080E+00
         -2   -1    0    0    0  501 -0.00000000000E+00  0.00000000000E+00  0.30369330324E+02  0.30369330324E+02  0.00000000000E+00 0. -1.
          2   -1    0    0  501    0  0.00000000000E+00 -0.00000000000E+00 -0.66032450199E+03  0.66032450199E+03  0.00000000000E+00 0.  1.
         25    2    1    2    0    0  0.27156258901E+02 -0.45877043557E+02 -0.51231111721E+03  0.53004876155E+03  0.12508734261E+03 0.  0.
          5    1    3    3  502    0  0.56234665611E+02 -0.67458373840E+02 -0.24571055448E+03  0.26096765853E+03  0.41800000000E+01 0. -1.
         -5    1    3    3    0  502 -0.29078406709E+02  0.21581330283E+02 -0.26660056273E+03  0.26908110302E+03  0.41800000000E+01 0. -1.
        -11    1    1    2    0    0  0.89629748400E+01 -0.18894903138E+02  0.76679381621E+00  0.20927022133E+02  0.00000000000E+00 0. -1.
         11    1    1    2    0    0 -0.36119233741E+02  0.64771946695E+02 -0.11841084827E+03  0.13971804863E+03  0.00000000000E+00 0.  1.
</event>
<event>
 7    1  0.2679104E-009  0.1082954E+03  0.7561462E-02  0.1263760E+00
          2   -1    0    0  501    0  0.00000000000E+00  0.00000000000E+00  0.38194589817E+02  0.38194589817E+02  0.00000000000E+00 0. -1.
         -2   -1    0    0    0  501 -0.00000000000E+00 -0.00000000000E+00 -0.40826752156E+03  0.40826752156E+03  0.00000000000E+00 0.  1.
         25    2    1    2    0    0  0.41257767073E+02 -0.33051837380E+02 -0.26385432135E+03  0.29675053692E+03  0.12508857251E+03 0.  0.
          5    1    3    3  502    0  0.56475580505E+02 -0.67467929011E+02 -0.12562181800E+03  0.15342661502E+03  0.41800000000E+01 0. -1.
         -5    1    3    3    0  502 -0.15217813432E+02  0.34416091631E+02 -0.13823250334E+03  0.14332392190E+03  0.41800000000E+01 0. -1.
        -11    1    1    2    0    0 -0.32932004750E+01  0.49256173245E+02 -0.94799646546E+02  0.10688306113E+03  0.00000000000E+00 0.  1.
         11    1    1    2    0    0 -0.37964566598E+02 -0.16204335864E+02 -0.11418963851E+02  0.42828513320E+02  0.00000000000E+00 0. -1.
</event>
<event>
 7    1  0.2679104E-009  0.6529725E+02  0.7561462E-02  0.1376857E+00
          1   -1    0    0  501    0  0.00000000000E+00  0.00000000000E+00  0.34928183033E+03  0.34928183033E+03  0.00000000000E+00 0. -1.
         -1   -1    0    0    0  501 -0.00000000000E+00 -0.00000000000E+00 -0.41866678577E+02  0.41866678577E+02  0.00000000000E+00 0.  1.
         25    2    1    2    0    0 -0.22577698439E+02 -0.23299727760E+02  0.25126149419E+03  0.28254970973E+03  0.12509744293E+03 0.  0.
          5    1    3    3  502    0 -0.27918021821E+02  0.40889569141E+01  0.25269284590E+03  0.25429762539E+03  0.41800000000E+01 0. -1.
         -5    1    3    3    0  502  0.53403233814E+01 -0.27388684675E+02 -0.14313517068E+01  0.28252084343E+02  0.41800000000E+01 0. -1.
        -11    1    1    2    0    0  0.34471067561E+02 -0.12082467500E+02 -0.50859299110E+01  0.36879631272E+02  0.00000000000E+00 0.  1.
         11    1    1    2    0    0 -0.11893369122E+02  0.35382195260E+02  0.61239587468E+02  0.71719167897E+02  0.00000000000E+00 0. -1.
</event>
<event>
 7    1  0.2679104E-009  0.1057223E+03  0.7561462E-02  0.1268703E+00
          1   -1    0    0  501    0  0.00000000000E+00  0.00000000000E+00  0.61169629640E+03  0.61169629640E+03  0.00000000000E+00 0. -1.
         -1   -1    0    0    0  501 -0.00000000000E+00 -0.00000000000E+00 -0.24329294112E+02  0.24329294112E+02  0.00000000000E+00 0.  1.
         25    2    1    2    0    0 -0.17763139703E+02  0.18842295820E+02  0.19839029652E+03  0.23596148294E+03  0.12509416627E+03 0.  0.
          5    1    3    3  502    0 -0.63669311120E+02 -0.13224093840E+02  0.68967870934E+02  0.94882545590E+02  0.41800000000E+01 0. -1.
         -5    1    3    3    0  502  0.45906171417E+02  0.32066389660E+02  0.12942242559E+03  0.14107893736E+03  0.41800000000E+01 0. -1.
        -11    1    1    2    0    0  0.19698668903E+02 -0.52677034087E+02  0.18735211658E+03  0.19561115271E+03  0.00000000000E+00 0.  1.
         11    1    1    2    0    0 -0.19355291996E+01  0.33834738267E+02  0.20162458918E+03  0.20445295486E+03  0.00000000000E+00 0. -1.
</event>
<event>
 7    1  0.2679104E-009  0.8806659E+02  0.7561462E-02  0.1307602E+00
         -2   -1    0    0    0  501 -0.00000000000E+00  0.00000000000E+00  0.63749240370E+02  0.63749240370E+02  0.00000000000E+00 0.  1.
          2   -1    0    0  501    0  0.00000000000E+00 -0.00000000000E+00 -0.21640139471E+03  0.21640139471E+03  0.00000000000E+00 0. -1.
         25    2    1    2    0    0 -0.30263708032E+02 -0.31841073622E+02 -0.10106000611E+03  0.16671429446E+03  0.12510309809E+03 0.  0.
          5    1    3    3  502    0 -0.45138172360E+02 -0.64165226630E+02 -0.10448302211E+03  0.13072415699E+03  0.41800000000E+01 0.  1.
         -5    1    3    3    0  502  0.14874464327E+02  0.32324153008E+02  0.34230160005E+01  0.35990137472E+02  0.41800000000E+01 0.  1.
        -11    1    1    2    0    0 -0.12386927234E+01  0.30171429603E+02 -0.70473818089E+02  0.76670780354E+02  0.00000000000E+00 0. -1.
         11    1    1    2    0    0  0.31502400756E+02  0.16696440184E+01  0.18881669859E+02  0.36765560259E+02  0.00000000000E+00 0.  1.
</event>
<event>
 7    1  0.2679104E-009  0.1359877E+03  0.7561462E-02  0.1218832E+00
          2   -1    0    0  501    0  0.00000000000E+00  0.00000000000E+00  0.86284609855E+03  0.86284609855E+03  0.00000000000E+00 0. -1.
         -2   -1    0    0    0  501 -0.00000000000E+00 -0.00000000000E+00 -0.25746754138E+02  0.25746754138E+02  0.00000000000E+00 0.  1.
         25    2    1    2    0    0  0.60818075636E+02 -0.78695784149E+02  0.39426520468E+03  0.42542335421E+03  0.12509242152E+03 0.  0.
          5    1    3    3  502    0  0.11212557523E+02  0.28526048429E+02  0.16065163390E+03  0.16360280181E+03  0.41800000000E+01 0.  1.
         -5    1    3    3    0  502  0.49605518113E+02 -0.10722183258E+03  0.23361357077E+03  0.26182055240E+03  0.41800000000E+01 0.  1.
        -11    1    1    2    0    0 -0.14701221793E+02  0.75148963834E+02  0.17009674614E+03  0.18653792037E+03  0.00000000000E+00 0.  1.
         11    1    1    2    0    0 -0.46116853843E+02  0.35468203155E+01  0.27273739359E+03  0.27663157811E+03  0.00000000000E+00 0. -1.
</event>
<event>
 7    1  0.2679104E-009  0.2200672E+03  0.7561462E-02  0.1133833E+00
          1   -1    0    0  501    0  0.00000000000E+00  0.00000000000E+00  0.43866261045E+03  0.43866261045E+03  0.00000000000E+00 0. -1.
         -1   -1    0    0    0  501 -0.00000000000E+00 -0.00000000000E+00 -0.13369133171E+03  0.13369133171E+03  0.00000000000E+00 0.  1.
         25    2    1    2    0    0 -0.11380925852E+03  0.16748077238E+03  0.24633093409E+03  0.34253307984E+03  0.12509046829E+03 0.  0.
          5    1    3    3  502    0 -0.68385553891E+02  0.49379344483E+01  0.81518448104E+02  0.10660064239E+03  0.41800000000E+01 0.  1.
         -5    1    3    3    0  502 -0.45423704625E+02  0.16254283793E+03  0.16481248599E+03  0.23593243745E+03  0.41800000000E+01 0.  1.
        -11    1    1    2    0    0  0.76067980695E+02 -0.10573539600E+03  0.81834341661E+02  0.15382838207E+03  0.00000000000E+00 0. -1.
         11    1    1    2    0    0  0.37741277821E+02 -0.61745376377E+02 -0.23193997010E+02  0.75992480239E+02  0.00000000000E+00 0.  1.
</event>
<event>
 7    1  0.2679104E-009  0.1066514E+03  0.7561462E-02  0.1266900E+00
         -2   -1    0    0    0  501 -0.00000000000E+00  0.00000000000E+00  0.22770032235E+03  0.22770032235E+03  0.00000000000E+00 0.  1.
          2   -1    0    0  501    0  0.00000000000E+00 -0.00000000000E+00 -0.70874511733E+02  0.70874511733E+02  0.00000000000E+00 0. -1.
         25    2    1    2    0    0 -0.58484870461E+02  0.29403179027E+02  0.91220617377E+02  0.16808674481E+03  0.12508767220E+03 0.  0.
          5    1    3    3  502    0 -0.59527748658E+02 -0.14226360469E+02  0.10544768395E+03  0.12199437956E+03  0.41800000000E+01 0.  1.
         -5    1    3    3    0  502  0.10428781970E+01  0.43629539496E+02 -0.14227066576E+02  0.46092365257E+02  0.41800000000E+01 0.  1.
        -11    1    1    2    0    0  0.36351256635E+02  0.28457164434E+02  0.46822760069E+02  0.65754048750E+02  0.00000000000E+00 0.  1.
         11    1    1    2    0    0  0.22133613826E+02 -0.57860343461E+02  0.18782433174E+02  0.64734040522E+02  0.00000000000E+00 0. -1.
</event>
<event>
 7    1  0.3166301E-009  0.9624815E+02  0.7561462E-02  0.1288389E+00
         -1   -1    0    0    0  501 -0.00000000000E+00  0.00000000000E+00  0.58493476519E+02  0.58493476519E+02  0.00000000000E+00 0.  1.
          1   -1    0    0  501    0  0.00000000000E+00 -0.00000000000E+00 -0.28552151738E+03  0.28552151738E+03  0.00000000000E+00 0. -1.
         25    2    1    2    0    0  0.46700280517E+02 -0.39917652997E+02 -0.17091116025E+03  0.22052830337E+03  0.12509105751E+03 0.  0.
          5    1    3    3  502    0  0.49246393080E+02 -0.31461439735E+01 -0.17622717037E+03  0.18305352614E+03  0.41800000000E+01 0. -1.
         -5    1    3    3    0  502 -0.25461125625E+01 -0.36771509024E+02  0.53160101230E+01  0.37474777233E+02  0.41800000000E+01 0. -1.
        -11    1    1    2    0    0 -0.32123815394E+02 -0.24139193602E+02 -0.38082908440E+02  0.55361973397E+02  0.00000000000E+00 0.  1.
         11    1    1    2    0    0 -0.14576465123E+02  0.64056846599E+02 -0.18033972168E+02  0.68124717128E+02  0.00000000000E+00 0. -1.
</event>
<event>
 7    1  0.2679104E-009  0.1307639E+03  0.7561462E-02  0.1226327E+00
          2   -1    0    0  501    0  0.00000000000E+00  0.00000000000E+00  0.19462876233E+03  0.19462876233E+03  0.00000000000E+00 0. -1.
         -2   -1    0    0    0  501 -0.00000000000E+00 -0.00000000000E+00 -0.10850989660E+03  0.10850989660E+03  0.00000000000E+00 0.  1.
         25    2    1    2    0    0 -0.84334480362E+02  0.44949903747E+02  0.45808578785E+02  0.16394968967E+03  0.12509307106E+03 0.  0.
          5    1    3    3  502    0 -0.86690450266E+02 -0.22205832809E+02  0.32635725785E+02  0.95346191196E+02  0.41800000000E+01 0.  1.
         -5    1    3    3    0  502  0.23559699032E+01  0.67155736556E+02  0.13172853000E+02  0.68603498473E+02  0.41800000000E+01 0.  1.
        -11    1    1    2    0    0  0.50241339852E+02 -0.26859447311E+01 -0.23390879350E+02  0.55484590347E+02  0.00000000000E+00 0.  1.
         11    1    1    2    0    0  0.34093140511E+02 -0.42263959016E+02  0.63701166302E+02  0.83704378917E+02  0.00000000000E+00 0. -1.
</event>
<event>
 7    1  0.2679104E-009  0.8289005E+02  0.7561462E-02  0.1321044E+00
         -1   -1    0    0    0  501 -0.00000000000E+00  0.00000000000E+00  0.38408588332E+02  0.38408588332E+02  0.00000000000E+00 0.  1.
          1   -1    0    0  501    0  0.00000000000E+00 -0.00000000000E+00 -0.50211927196E+03  0.50211927196E+03  0.00000000000E+00 0. -1.
         25    2    1    2    0    0 -0.47126964285E+02  0.57875900373E+02 -0.16494136487E+03  0.22005876106E+03  0.12509849665E+03 0.  0.
          5    1    3    3  502    0 -0.30458198976E+02  0.49776253194E+02 -0.46983266178E+01  0.58693474424E+02  0.41800000000E+01 0. -1.
         -5    1    3    3    0  502 -0.16668765310E+02  0.80996471786E+01 -0.16024303825E+03  0.16136528663E+03  0.41800000000E+01 0. -1.
        -11    1    1    2    0    0  0.32484307011E+02 -0.43378807891E+01 -0.25240963466E+02  0.41366092980E+02  0.00000000000E+00 0.  1.
         11    1    1    2    0    0  0.14642657274E+02 -0.53538019584E+02 -0.27352835529E+03  0.27910300626E+03  0.00000000000E+00 0. -1.
</event>
<event>
 7    1  0.2679104E-009  0.1146433E+03  0.7561462E-02  0.1252205E+00
          1   -1    0    0  501    0  0.00000000000E+00  0.00000000000E+00  0.17994583985E+03  0.17994583985E+03  0.00000000000E+00 0.  1.
         -1   -1    0    0    0  501 -0.00000000000E+00 -0.00000000000E+00 -0.12951430491E+03  0.12951430491E+03  0.00000000000E+00 0. -1.
         25    2    1    2    0    0 -0.99266799932E+02  0.19234249086E+02  0.64512707558E+02  0.17330151645E+03  0.12509065617E+03 0.  0.
          5    1    3    3  502    0 -0.26324963584E+01  0.44886946025E+01 -0.33886347620E+02  0.34537448825E+02  0.41800000000E+01 0.  1.
         -5    1    3    3    0  502 -0.96634303573E+02  0.14745554483E+02  0.98399055179E+02  0.13876406763E+03  0.41800000000E+01 0.  1.
        -11    1    1    2    0    0  0.97638031738E+02  0.75561386270E+01  0.12087253091E+02  0.98673107582E+02  0.00000000000E+00 0.  1.
         11    1    1    2    0    0  0.16287681942E+01 -0.26790387713E+02 -0.26168425710E+02  0.37485520722E+02  0.00000000000E+00 0. -1.
</event>
<event>
 7    1  0.2679104E-009  0.1262178E+03  0.7561462E-02  0.1233178E+00
         -2   -1    0    0    0  501 -0.00000000000E+00  0.00000000000E+00  0.13436179830E+02  0.13436179830E+02  0.00000000000E+00 0. -1.
          2   -1    0    0  501    0  0.00000000000E+00 -0.00000000000E+00 -0.12398047624E+04  0.12398047624E+04  0.00000000000E+00 0.  1.
         25    2    1    2    0    0 -0.36696771112E+02  0.40426553756E+02 -0.61448188837E+03  0.62945680391E+03  0.12508763970E+03 0.  0.
          5    1    3    3  502    0  0.44008893314E+02  0.12970837841E+02 -0.14076339632E+03  0.14811087559E+03  0.41800000000E+01 0.  1.
         -5    1    3    3    0  502 -0.80705664426E+02  0.27455715915E+02 -0.47371849205E+03  0.48134592833E+03  0.41800000000E+01 0.  1.
        -11    1    1    2    0    0 -0.38505179174E+00 -0.72188496281E+02 -0.34576012773E+03  0.35321578842E+03  0.00000000000E+00 0.  1.
         11    1    1    2    0    0  0.37081822904E+02  0.31761942525E+02 -0.26612656652E+03  0.27056834994E+03  0.00000000000E+00 0. -1.
</event>
<event>
 7    1  0.2679104E-009  0.8182266E+02  0.7561462E-02  0.1323957E+00
         -2   -1    0    0    0  501 -0.00000000000E+00  0.00000000000E+00  0.28218174928E+03  0.28218174928E+03  0.00000000000E+00 0.  1.
          2   -1    0    0  501    0  0.00000000000E+00 -0.00000000000E+00 -0.62709626291E+02  0.62709626291E+02  0.00000000000E+00 0. -1.
         25    2    1    2    0    0  0.10390226824E+02 -0.39125471772E+02  0.15333444757E+03  0.20198336606E+03  0.12508824084E+03 0.  0.
          5    1    3    3  502    0  0.39272254515E+02 -0.28969309730E+02  0.16252564663E+03  0.16974566001E+03  0.41800000000E+01 0.  1.
         -5    1    3    3    0  502 -0.28882027691E+02 -0.10156162041E+02 -0.91911990572E+01  0.32237706045E+02  0.41800000000E+01 0.  1.
        -11    1    1    2    0    0  0.31605121680E+02  0.21483450440E+02 -0.21711094238E+02  0.43952178242E+02  0.00000000000E+00 0. -1.
         11    1    1    2    0    0 -0.41995348504E+02  0.17642021332E+02  0.87848769655E+02  0.98955831271E+02  0.00000000000E+00 0.  1.
</event>
<event>
 7    1  0.2679104E-009  0.1044247E+03  0.7561462E-02  0.1271257E+00
         -4   -1    0    0    0  501 -0.00000000000E+00  0.00000000000E+00  0.23333585152E+03  0.23333585152E+03  0.00000000000E+00 0.  1.
          4   -1    0    0  501    0  0.00000000000E+00 -0.00000000000E+00 -0.70052081012E+02  0.70052081012E+02  0.00000000000E+00 0. -1.
         25    2    1    2    0    0 -0.15514714865E+02 -0.58363691454E+02  0.12846409521E+03  0.18920171203E+03  0.12508891725E+03 0.  0.
          5    1    3    3  502    0 -0.48803766016E+02 -0.48375789582E+02  0.13686320699E+03  0.15320259274E+03  0.41800000000E+01 0. -1.
         -5    1    3    3    0  502  0.33289051151E+02 -0.99879018718E+01 -0.83991117833E+01  0.35999119282E+02  0.41800000000E+01 0. -1.
        -11    1    1    2    0    0  0.16199480676E+01 -0.22698046755E+02  0.20653834996E+02  0.30731196825E+02  0.00000000000E+00 0. -1.
         11    1    1    2    0    0  0.13894766798E+02  0.81061738209E+02  0.14165840300E+02  0.83455023679E+02  0.00000000000E+00 0.  1.
</event>
<event>
 7    1  0.2679104E-009  0.1132724E+03  0.7561462E-02  0.1254627E+00
         -1   -1    0    0    0  501 -0.00000000000E+00  0.00000000000E+00  0.12532087755E+03  0.12532087755E+03  0.00000000000E+00 0.  1.
          1   -1    0    0  501    0  0.00000000000E+00 -0.00000000000E+00 -0.13701308820E+03  0.13701308820E+03  0.00000000000E+00 0. -1.
         25    2    1    2    0    0  0.31704622643E+01 -0.60295662959E+02  0.14422409209E+02  0.13964655090E+03  0.12509010547E+03 0.  0.
          5    1    3    3  502    0  0.56587152720E+02 -0.39105247691E+02  0.36454443387E+02  0.77959765857E+02  0.41800000000E+01 0. -1.
         -5    1    3    3    0  502 -0.53416690455E+02 -0.21190415268E+02 -0.22032034178E+02  0.61686785039E+02  0.41800000000E+01 0. -1.
        -11    1    1    2    0    0 -0.21872573860E+02 -0.12269420195E+02  0.22227274326E+02  0.33511190417E+02  0.00000000000E+00 0.  1.
         11    1    1    2    0    0  0.18702111596E+02  0.72565083154E+02 -0.48341894187E+02  0.89176224438E+02  0.00000000000E+00 0. -1.
</event>
<event>
 7    1  0.2679104E-009  0.9611134E+02  0.7561462E-02  0.1288693E+00
          3   -1    0    0  501    0  0.00000000000E+00  0.00000000000E+00  0.38262587860E+03  0.38262587860E+03  0.00000000000E+00 0. -1.
         -3   -1    0    0    0  501 -0.00000000000E+00 -0.00000000000E+00 -0.34203475410E+02  0.34203475410E+02  0.00000000000E+00 0.  1.
         25    2    1    2    0    0 -0.62738688518E+01 -0.28909456649E+02  0.15686020665E+03  0.20280212078E+03  0.12509379540E+03 0.  0.
          5    1    3    3  502    0  0.38737960226E+02 -0.33609311057E+02  0.14642172645E+02  0.53498420275E+02  0.41800000000E+01 0. -1.
         -5    1    3    3    0  502 -0.45011829078E+02  0.46998544078E+01  0.14221803400E+03  0.14930370050E+03  0.41800000000E+01 0. -1.
        -11    1    1    2    0    0  0.64892989200E+01 -0.32886939451E+02  0.72918847628E+02  0.80254720274E+02  0.00000000000E+00 0.  1.
         11    1    1    2    0    0 -0.21543006825E+00  0.61796396100E+02  0.11864334892E+03  0.13377251296E+03  0.00000000000E+00 0. -1.
</event>
<event>
 7    1  0.2679104E-009  0.1176193E+03  0.7561462E-02  0.1247077E+00
          2   -1    0    0  501    0  0.00000000000E+00  0.00000000000E+00  0.34785521470E+03  0.34785521470E+03  0.00000000000E+00 0. -1.
         -2   -1    0    0    0  501 -0.00000000000E+00 -0.00000000000E+00 -0.70755107523E+02  0.70755107523E+02  0.00000000000E+00 0.  1.
         25    2    1    2    0    0 -0.79880485827E+02  0.48271873723E+02  0.62438196399E+02  0.16809619398E+03  0.12508691479E+03 0.  0.
          5    1    3    3  502    0 -0.22422961584E+02  0.43730175396E+02  0.91097164800E+02  0.10359190741E+03  0.41800000000E+01 0. -1.
         -5    1    3    3    0  502 -0.57457524243E+02  0.45416983270E+01 -0.28658968402E+02  0.64504286568E+02  0.41800000000E+01 0. -1.
        -11    1    1    2    0    0  0.69896565456E+02 -0.73239027903E+02  0.15583927649E+03  0.18583693166E+03  0.00000000000E+00 0. -1.
         11    1    1    2    0    0  0.99839203711E+01  0.24967154180E+02  0.58822634292E+02  0.64677196591E+02  0.00000000000E+00 0.  1.
</event>
<event>
 7    1  0.3930808E-009  0.1130570E+03  0.7561462E-02  0.1255011E+00
         -2   -1    0    0    0  501 -0.00000000000E+00  0.00000000000E+00  0.28022969665E+02  0.28022969665E+02  0.00000000000E+00 0. -1.
          2   -1    0    0  501    0  0.00000000000E+00 -0.00000000000E+00 -0.63830546965E+03  0.63830546965E+03  0.00000000000E+00 0.  1.
         25    2    1    2    0    0  0.45974123439E+02 -0.63262903851E+02 -0.34582969587E+03  0.37597990008E+03  0.12508753612E+03 0.  0.
          5    1    3    3  502    0  0.87210102613E+02 -0.31187045963E+02 -0.18690396449E+03  0.20863556307E+03  0.41800000000E+01 0.  1.
         -5    1    3    3    0  502 -0.41235979174E+02 -0.32075857888E+02 -0.15892573137E+03  0.16734433701E+03  0.41800000000E+01 0.  1.
        -11    1    1    2    0    0 -0.27062554440E+02  0.19617182192E+02 -0.15413885804E+02  0.36807656344E+02  0.00000000000E+00 0. -1.
         11    1    1    2    0    0 -0.18911568999E+02  0.43645721659E+02 -0.24903891831E+03  0.25354088289E+03  0.00000000000E+00 0.  1.
</event>
<event>
 7    1  0.2679104E-009  0.2868825E+03  0.7561462E-02  0.1091988E+00
         -1   -1    0    0    0  501 -0.00000000000E+00  0.00000000000E+00  0.56652702729E+03  0.56652702729E+03  0.00000000000E+00 0.  1.
          1   -1    0    0  501    0  0.00000000000E+00 -0.00000000000E+00 -0.16375174572E+03  0.16375174572E+03  0.00000000000E+00 0. -1.
         25    2    1    2    0    0  0.24732800614E+03 -0.13880926775E+03  0.19656375505E+03  0.36704739005E+03  0.12508925336E+03 0.  0.
          5    1    3    3  502    0  0.16271493987E+03 -0.63118973388E+02  0.49974420722E+02  0.18159039508E+03  0.41800000000E+01 0.  1.
         -5    1    3    3    0  502  0.84613066273E+02 -0.75690294361E+02  0.14658933433E+03  0.18545699497E+03  0.41800000000E+01 0.  1.
        -11    1    1    2    0    0 -0.20310016355E+03  0.98430990354E+02  0.11290827209E+03  0.25236206966E+03  0.00000000000E+00 0. -1.
         11    1    1    2    0    0 -0.44227842595E+02  0.40378277395E+02  0.93303254429E+02  0.11086931331E+03  0.00000000000E+00 0.  1.
</event>
<event>
 7    1  0.2679104E-009  0.1570472E+03  0.7561462E-02  0.1192071E+00
          3   -1    0    0  501    0  0.00000000000E+00  0.00000000000E+00  0.16653908196E+03  0.16653908196E+03  0.00000000000E+00 0. -1.
         -3   -1    0    0    0  501 -0.00000000000E+00 -0.00000000000E+00 -0.15562985087E+03  0.15562985087E+03  0.00000000000E+00 0.  1.
         25    2    1    2    0    0  0.17097961081E+02  0.11552842063E+03 -0.16568121917E+02  0.17193161270E+03  0.12508725169E+03 0.  0.
          5    1    3    3  502    0 -0.50702002852E+02  0.77064895961E+02 -0.10880159768E+01  0.92349052304E+02  0.41800000000E+01 0.  1.
         -5    1    3    3    0  502  0.67799963933E+02  0.38463524665E+02 -0.15480105940E+02  0.79582560394E+02  0.41800000000E+01 0.  1.
        -11    1    1    2    0    0 -0.50739819593E+02 -0.58141213159E+02  0.32050038475E+02  0.83559170210E+02  0.00000000000E+00 0. -1.
         11    1    1    2    0    0  0.33641858512E+02 -0.57387207467E+02 -0.45726854692E+01  0.66678149925E+02  0.00000000000E+00 0.  1.
</event>
<event>
 7    1  0.2679104E-009  0.2700509E+03  0.7561462E-02  0.1101250E+00
         -2   -1    0    0    0  501 -0.00000000000E+00  0.00000000000E+00  0.11622265399E+04  0.11622265399E+04  0.00000000000E+00 0.  1.
          2   -1    0    0  501    0  0.00000000000E+00 -0.00000000000E+00 -0.13418537689E+03  0.13418537689E+03  0.00000000000E+00 0. -1.
         25    2    1    2    0    0  0.97538895393E+02  0.24029894470E+03  0.97570182981E+03  0.10173001052E+04  0.12509206342E+03 0.  0.
          5    1    3    3  502    0  0.11002419973E+03  0.14190936075E+03  0.49818801349E+03  0.52957753010E+03  0.41800000000E+01 0.  1.
         -5    1    3    3    0  502 -0.12485304342E+02  0.98389583949E+02  0.47751381632E+03  0.48772257507E+03  0.41800000000E+01 0.  1.
        -11    1    1    2    0    0 -0.16575060115E+02 -0.79269179334E+02 -0.22350314031E+02  0.84011141805E+02  0.00000000000E+00 0. -1.
         11    1    1    2    0    0 -0.80963835277E+02 -0.16102976537E+03  0.74689647217E+02  0.19510066981E+03  0.00000000000E+00 0.  1.
</event>
<event>
 7    1  0.2679104E-009  0.1499628E+03  0.7561462E-02  0.1200519E+00
         -1   -1    0    0    0  501 -0.00000000000E+00  0.00000000000E+00  0.27228971697E+03  0.27228971697E+03  0.00000000000E+00 0.  1.
          1   -1    0    0  501    0  0.00000000000E+00 -0.00000000000E+00 -0.89970759072E+02  0.89970759072E+02  0.00000000000E+00 0. -1.
         25    2    1    2    0    0  0.10177817452E+03  0.61060623491E+01  0.14603545659E+03  0.21764736365E+03  0.12509172441E+03 0.  0.
          5    1    3    3  502    0  0.96814792238E+02  0.54753177659E+02  0.89836770630E+02  0.14303542294E+03  0.41800000000E+01 0. -1.
         -5    1    3    3    0  502  0.49633822801E+01 -0.48647115310E+02  0.56198685964E+02  0.74611940705E+02  0.41800000000E+01 0. -1.
        -11    1    1    2    0    0 -0.17351084722E+02  0.39818481872E+02  0.60092964347E+01  0.43848412552E+02  0.00000000000E+00 0. -1.
         11    1    1    2    0    0 -0.84427089796E+02 -0.45924544221E+02  0.30274204868E+02  0.10076469984E+03  0.00000000000E+00 0.  1.
</event>
<event>
 7    1  0.2679104E-009  0.1064438E+03  0.7561462E-02  0.1267301E+00
         -1   -1    0    0    0  501 -0.00000000000E+00  0.00000000000E+00  0.34763463240E+02  0.34763463240E+02  0.00000000000E+00 0.  1.
          1   -1    0    0  501    0  0.00000000000E+00 -0.00000000000E+00 -0.43527052687E+03  0.43527052687E+03  0.00000000000E+00 0. -1.
         25    2    1    2    0    0 -0.58528292048E+02  0.15933350587E+02 -0.19635329031E+03  0.24058603295E+03  0.12509033538E+03 0.  0.
          5    1    3    3  502    0 -0.90182973384E+02  0.14843194288E+02 -0.18551572313E+03  0.20684981275E+03  0.41800000000E+01 0. -1.
         -5    1    3    3    0  502  0.31654681336E+02  0.10901562988E+01 -0.10837567178E+02  0.33736220203E+02  0.41800000000E+01 0. -1.
        -11    1    1    2    0    0  0.60171219370E+02 -0.35466320705E+02 -0.91553131145E+02  0.11515385954E+03  0.00000000000E+00 0.  1.
         11    1    1    2    0    0 -0.16429273222E+01  0.19532970118E+02 -0.11260064217E+03  0.11429409761E+03  0.00000000000E+00 0. -1.
</event>
<event>
 7    1  0.2679104E-009  0.2254218E+03  0.7561462E-02  0.1129904E+00
          2   -1    0    0  501    0  0.00000000000E+00  0.00000000000E+00  0.14159648023E+04  0.14159648023E+04  0.00000000000E+00 0. -1.
         -2   -1    0    0    0  501 -0.00000000000E+00 -0.00000000000E+00 -0.44032189236E+02  0.44032189236E+02  0.00000000000E+00 0.  1.
         25    2    1    2    0    0  0.64556152721E+02  0.19887619298E+03  0.46474103113E+03  0.52473986837E+03  0.12509383057E+03 0.  0.
          5    1    3    3  502    0  0.89564809437E+02  0.18789917970E+03  0.44333897855E+03  0.48979064826E+03  0.41800000000E+01 0.  1.
         -5    1    3    3    0  502 -0.25008656716E+02  0.10977013272E+02  0.21402052582E+02  0.34949220104E+02  0.41800000000E+01 0.  1.
        -11    1    1    2    0    0  0.36341676717E+01 -0.61905743856E+02  0.14250046196E+03  0.15540884774E+03  0.00000000000E+00 0. -1.
         11    1    1    2    0    0 -0.68190320392E+02 -0.13697044912E+03  0.76469111997E+03  0.77984827543E+03  0.00000000000E+00 0.  1.
</event>
<event>
 7    1  0.3258868E-009  0.1323523E+03  0.7561462E-02  0.1224007E+00
          2   -1    0    0  501    0  0.00000000000E+00  0.00000000000E+00  0.13301230067E+04  0.13301230067E+04  0.00000000000E+00 0. -1.
         -2   -1    0    0    0  501 -0.00000000000E+00 -0.00000000000E+00 -0.14029368052E+02  0.14029368052E+02  0.00000000000E+00 0.  1.
         25    2    1    2    0    0  0.76915538245E+02  0.19192254969E+02  0.82616823857E+03  0.83933685808E+03  0.12509220692E+03 0.  0.
          5    1    3    3  502    0  0.19535795321E+02 -0.49952258086E+02  0.21732493556E+03  0.22388496020E+03  0.41800000000E+01 0. -1.
         -5    1    3    3    0  502  0.57379742924E+02  0.69144513055E+02  0.60884330301E+03  0.61545189788E+03  0.41800000000E+01 0. -1.
        -11    1    1    2    0    0 -0.41609252394E+02 -0.56122288597E+02  0.31011615849E+03  0.31788845987E+03  0.00000000000E+00 0. -1.
         11    1    1    2    0    0 -0.35306285851E+02  0.36930033628E+02  0.17980924155E+03  0.18692705677E+03  0.00000000000E+00 0.  1.
</event>
<event>
 7    1  0.2679104E-009  0.1380530E+03  0.7561462E-02  0.1215973E+00
         -1   -1    0    0    0  501 -0.00000000000E+00  0.00000000000E+00  0.29042564925E+03  0.29042564925E+03  0.00000000000E+00 0.  1.
          1   -1    0    0  501    0  0.00000000000E+00 -0.00000000000E+00 -0.73142972975E+02  0.73142972975E+02  0.00000000000E+00 0. -1.
         25    2    1    2    0    0  0.73399846293E+02 -0.64989099415E+02  0.12124556124E+03  0.19989312810E+03  0.12508259696E+03 0.  0.
          5    1    3    3  502    0  0.52121538271E+02 -0.97355451774E+02  0.11661638630E+03  0.16065986647E+03  0.41800000000E+01 0. -1.
         -5    1    3    3    0  502  0.21278308021E+02  0.32366352359E+02  0.46291749460E+01  0.39233261628E+02  0.41800000000E+01 0. -1.
        -11    1    1    2    0    0 -0.70717382151E+02  0.98109973468E+01  0.77576856330E+02  0.10542946668E+03  0.00000000000E+00 0.  1.
         11    1    1    2    0    0 -0.26824641415E+01  0.55178102068E+02  0.18460258705E+02  0.58246027445E+02  0.00000000000E+00 0. -1.
</event>
<event>
 7    1  0.2715449E-009  0.1356986E+03  0.7561462E-02  0.1219237E+00
         -1   -1    0    0    0  501 -0.00000000000E+00  0.00000000000E+00  0.11869394441E+03  0.11869394441E+03  0.00000000000E+00 0.  1.
          1   -1    0    0  501    0  0.00000000000E+00 -0.00000000000E+00 -0.32378149731E+03  0.32378149731E+03  0.00000000000E+00 0. -1.
         25    2    1    2    0    0  0.46384652936E+02 -0.12492735845E+03 -0.21240572942E+03  0.28021861177E+03  0.12509154877E+03 0.  0.
          5    1    3    3  502    0  0.43316596468E+02 -0.75019382574E+02 -0.21306252780E+03  0.23003771091E+03  0.41800000000E+01 0.  1.
         -5    1    3    3    0  502  0.30680564677E+01 -0.49907975874E+02  0.65679837585E+00  0.50180900853E+02  0.41800000000E+01 0.  1.
        -11    1    1    2    0    0 -0.21405783962E+02  0.82748780808E+02  0.48464653744E+02  0.98256760453E+02  0.00000000000E+00 0.  1.
         11    1    1    2    0    0 -0.24978868974E+02  0.42178577640E+02 -0.41146477225E+02  0.64000069492E+02  0.00000000000E+00 0. -1.
</event>
<event>
 7    1  0.2679104E-009  0.5817498E+02  0.7561462E-02  0.1405654E+00
          4   -1    0    0  501    0  0.00000000000E+00  0.00000000000E+00  0.45604751962E+02  0.45604751962E+02  0.00000000000E+00 0. -1.
         -4   -1    0    0    0  501 -0.00000000000E+00 -0.00000000000E+00 -0.28711064988E+03  0.28711064988E+03  0.00000000000E+00 0.  1.
         25    2    1    2    0    0  0.18759688388E+02 -0.21522564317E+02 -0.17412560388E+03  0.21629279809E+03  0.12509077462E+03 0.  0.
          5    1    3    3  502    0  0.53910643900E+01 -0.42146070510E+02 -0.23946325190E+01  0.42761682609E+02  0.41800000000E+01 0.  1.
         -5    1    3    3    0  502  0.13368623998E+02  0.20623506192E+02 -0.17173097136E+03  0.17353111548E+03  0.41800000000E+01 0.  1.
        -11    1    1    2    0    0  0.20902296785E+00  0.28509652247E+02  0.14568823860E+02  0.32017098408E+02  0.00000000000E+00 0. -1.
         11    1    1    2    0    0 -0.18968711355E+02 -0.69870879295E+01 -0.81949117898E+02  0.84405505344E+02  0.00000000000E+00 0.  1.
</event>
<event>
 7    1  0.2679104E-009  0.1309313E+03  0.7561462E-02  0.1226080E+00
          3   -1    0    0  501    0  0.00000000000E+00  0.00000000000E+00  0.87878101388E+02  0.87878101388E+02  0.00000000000E+00 0. -1.
         -3   -1    0    0    0  501 -0.00000000000E+00 -0.00000000000E+00 -0.33526669008E+03  0.33526669008E+03  0.00000000000E+00 0.  1.
         25    2    1    2    0    0 -0.75151427918E+02  0.70086698001E+02 -0.28254426053E+02  0.16433404770E+03  0.12508990481E+03 0.  0.
          5    1    3    3  502    0 -0.96132061789E+02  0.85755619308E+02 -0.48768569671E+01  0.12898316045E+03  0.41800000000E+01 0. -1.
         -5    1    3    3    0  502  0.20980633871E+02 -0.15668921307E+02 -0.23377569086E+02  0.35350887244E+02  0.41800000000E+01 0. -1.
        -11    1    1    2    0    0  0.18438676969E+02 -0.35565291791E+02 -0.17394382059E+03  0.17849741597E+03  0.00000000000E+00 0.  1.
         11    1    1    2    0    0  0.56712750949E+02 -0.34521406209E+02 -0.45190342047E+02  0.80313327793E+02  0.00000000000E+00 0. -1.
</event>
<event>
 7    1  0.2679104E-009  0.1153730E+03  0.7561462E-02  0.1250931E+00
         -3   -1    0    0    0  501 -0.00000000000E+00  0.00000000000E+00  0.86257256164E+02  0.86257256164E+02  0.00000000000E+00 0.  1.
          3   -1    0    0  501    0  0.00000000000E+00 -0.00000000000E+00 -0.21248470590E+03  0.21248470590E+03  0.00000000000E+00 0. -1.
         25    2    1    2    0    0  0.71569293507E+02 -0.28730951836E+02 -0.98138735365E+02  0.17671164830E+03  0.12509262128E+03 0.  0.
          5    1    3    3  502    0  0.74139066620E+02  0.17690401828E+02 -0.10470001537E+03  0.12957282560E+03  0.41800000000E+01 0. -1.
         -5    1    3    3    0  502 -0.25697731134E+01 -0.46421353665E+02  0.65612800061E+01  0.47138822697E+02  0.41800000000E+01 0. -1.
        -11    1    1    2    0    0 -0.69559496791E+02  0.50444043181E+02 -0.42531469449E+02  0.95875184380E+02  0.00000000000E+00 0. -1.
         11    1    1    2    0    0 -0.20097967152E+01 -0.21713091345E+02  0.14442755082E+02  0.26155129381E+02  0.00000000000E+00 0.  1.
</event>
<event>
 7    1  0.3117738E-009  0.1293498E+03  0.7561462E-02  0.1228424E+00
         -1   -1    0    0    0  501 -0.00000000000E+00  0.00000000000E+00  0.12105874027E+03  0.12105874027E+03  0.00000000000E+00 0.  1.
          1   -1    0    0  501    0  0.00000000000E+00 -0.00000000000E+00 -0.19609590757E+03  0.19609590757E+03  0.00000000000E+00 0. -1.
         25    2    1    2    0    0  0.70619016319E+02 -0.67202223216E+02 -0.90080643301E+02  0.18238356682E+03  0.12508420715E+03 0.  0.
          5    1    3    3  502    0 -0.23751865299E+02  0.15315530806E+02 -0.10859682099E+01  0.28589654003E+02  0.41800000000E+01 0.  1.
         -5    1    3    3    0  502  0.94370881617E+02 -0.82517754022E+02 -0.88994675091E+02  0.15379391282E+03  0.41800000000E+01 0.  1.
        -11    1    1    2    0    0 -0.33672066697E+02  0.75092057838E+01  0.46453144150E+02  0.57862689607E+02  0.00000000000E+00 0.  1.
         11    1    1    2    0    0 -0.36946949621E+02  0.59693017432E+02 -0.31409668149E+02  0.76908391413E+02  0.00000000000E+00 0. -1.
</event>
<event>
 7    1  0.2679104E-009  0.1165862E+03  0.7561462E-02  0.1248837E+00
         -2   -1    0    0    0  501 -0.00000000000E+00  0.00000000000E+00  0.23467644459E+03  0.23467644459E+03  0.00000000000E+00 0.  1.
          2   -1    0    0  501    0  0.00000000000E+00 -0.00000000000E+00 -0.18804338207E+03  0.18804338207E+03  0.00000000000E+00 0. -1.
         25    2    1    2    0    0 -0.27118648508E+02 -0.65379895589E+02 -0.14880641063E+03  0.20688192115E+03  0.12508728796E+03 0.  0.
          5    1    3    3  502    0  0.49124895896E+02 -0.22766779911E+02 -0.40852243575E+02  0.67955572762E+02  0.41800000000E+01 0.  1.
         -5    1    3    3    0  502 -0.76243544405E+02 -0.42613115678E+02 -0.10795416706E+03  0.13892634839E+03  0.41800000000E+01 0.  1.
        -11    1    1    2    0    0 -0.20637277229E+01  0.62013007605E+02  0.12636358295E+03  0.14077509432E+03  0.00000000000E+00 0.  1.
         11    1    1    2    0    0  0.29182376231E+02  0.33668879849E+01  0.69075890201E+02  0.75062811193E+02  0.00000000000E+00 0. -1.
</event>
<event>
 7    1  0.2679104E-009  0.1174702E+03  0.7561462E-02  0.1247330E+00
          1   -1    0    0  501    0  0.00000000000E+00  0.00000000000E+00  0.28034239698E+03  0.28034239698E+03  0.00000000000E+00 0. -1.
         -1   -1    0    0    0  501 -0.00000000000E+00 -0.00000000000E+00 -0.52964335450E+02  0.52964335450E+02  0.00000000000E+00 0.  1.
         25    2    1    2    0    0  0.59324582622E+02 -0.31625571774E+00  0.14287663079E+03  0.19894784958E+03  0.12508800544E+03 0.  0.
          5    1    3    3  502    0  0.93771565882E+02  0.10202409118E+02  0.69954813651E+02  0.11750891061E+03  0.41800000000E+01 0. -1.
         -5    1    3    3    0  502 -0.34446983260E+02 -0.10518664836E+02  0.72921817137E+02  0.81438938967E+02  0.41800000000E+01 0. -1.
        -11    1    1    2    0    0  0.12484610061E+02 -0.25145621160E+02  0.19178266023E+02  0.33999612344E+02  0.00000000000E+00 0. -1.
         11    1    1    2    0    0 -0.71809192683E+02  0.25461876878E+02  0.65323164718E+02  0.10035927051E+03  0.00000000000E+00 0.  1.
</event>
<event>
 7    1  0.3628531E-009  0.9559570E+02  0.7561462E-02  0.1289840E+00
         -3   -1    0    0    0  501 -0.00000000000E+00  0.00000000000E+00  0.13626498371E+02  0.13626498371E+02  0.00000000000E+00 0.  1.
          3   -1    0    0  501    0  0.00000000000E+00 -0.00000000000E+00 -0.13643835174E+04  0.13643835174E+04  0.00000000000E+00 0. -1.
         25    2    1    2    0    0 -0.43772398298E+02 -0.64890598449E+02 -0.86481566499E+03  0.87731439313E+03  0.12509035679E+03 0.  0.
          5    1    3    3  502    0 -0.35782016918E+02 -0.25515178378E+02 -0.79292157354E+02  0.90752937584E+02  0.41800000000E+01 0. -1.
         -5    1    3    3    0  502 -0.79903813798E+01 -0.39375420071E+02 -0.78552350764E+03  0.78656145555E+03  0.41800000000E+01 0. -1.
        -11    1    1    2    0    0  0.15098088772E+02 -0.15295497968E+02 -0.30203100626E+02  0.37069284186E+02  0.00000000000E+00 0.  1.
         11    1    1    2    0    0  0.28674309526E+02  0.80186096416E+02 -0.45573825344E+03  0.46362633848E+03  0.00000000000E+00 0. -1.
</event>
<event>
 7    1  0.2679104E-009  0.1008372E+03  0.7561462E-02  0.1278545E+00
         -2   -1    0    0    0  501 -0.00000000000E+00  0.00000000000E+00  0.24030134942E+02  0.24030134942E+02  0.00000000000E+00 0.  1.
          2   -1    0    0  501    0  0.00000000000E+00 -0.00000000000E+00 -0.13627136363E+04  0.13627136363E+04  0.00000000000E+00 0. -1.
         25    2    1    2    0    0  0.41641728155E+02 -0.76627475354E+01 -0.12405178397E+04  0.12475276673E+04  0.12509204124E+03 0.  0.
          5    1    3    3  502    0  0.46902013988E+02  0.52555563997E+02 -0.59400590989E+03  0.59818256378E+03  0.41800000000E+01 0. -1.
         -5    1    3    3    0  502 -0.52602858327E+01 -0.60218311532E+02 -0.64651192982E+03  0.64934510351E+03  0.41800000000E+01 0. -1.
        -11    1    1    2    0    0  0.62799071812E+00  0.24871443817E+02  0.59116944845E+01  0.25572078945E+02  0.00000000000E+00 0.  1.
         11    1    1    2    0    0 -0.42269718873E+02 -0.17208696282E+02 -0.10407735615E+03  0.11364402503E+03  0.00000000000E+00 0. -1.
</event>
<event>
 7    1  0.2679104E-009  0.1428906E+03  0.7561462E-02  0.1209491E+00
         -2   -1    0    0    0  501 -0.00000000000E+00  0.00000000000E+00  0.83704492266E+02  0.83704492266E+02  0.00000000000E+00 0.  1.
          2   -1    0    0  501    0  0.00000000000E+00 -0.00000000000E+00 -0.33959894908E+03  0.33959894908E+03  0.00000000000E+00 0. -1.
         25    2    1    2    0    0  0.81162812343E+01  0.10644897080E+03 -0.22788602733E+03  0.28103048665E+03  0.12509530594E+03 0.  0.
          5    1    3    3  502    0  0.42589870411E+02  0.10668471601E+03 -0.11370103507E+03  0.16168154956E+03  0.41800000000E+01 0. -1.
         -5    1    3    3    0  502 -0.34473589177E+02 -0.23574520916E+00 -0.11418499226E+03  0.11934893709E+03  0.41800000000E+01 0. -1.
        -11    1    1    2    0    0  0.11472516431E+02  0.11675584704E+02  0.65764542231E+01  0.17640511942E+02  0.00000000000E+00 0.  1.
         11    1    1    2    0    0 -0.19588797665E+02 -0.11812455551E+03 -0.34584883712E+02  0.12463244276E+03  0.00000000000E+00 0. -1.
</event>
<event>
 7    1  0.2679104E-009  0.1032491E+03  0.7561462E-02  0.1273608E+00
         -2   -1    0    0    0  501 -0.00000000000E+00  0.00000000000E+00  0.51737664938E+02  0.51737664938E+02  0.00000000000E+00 0. -1.
          2   -1    0    0  501    0  0.00000000000E+00 -0.00000000000E+00 -0.38484595947E+03  0.38484595947E+03  0.00000000000E+00 0.  1.
         25    2    1    2    0    0 -0.35995618723E+01 -0.51438773637E+02 -0.68209097635E+02  0.15152218142E+03  0.12509031211E+03 0.  0.
          5    1    3    3  502    0 -0.18866406088E+02 -0.79029097578E+02 -0.59089580818E+01  0.81571611044E+02  0.41800000000E+01 0. -1.
         -5    1    3    3    0  502  0.15266844216E+02  0.27590323941E+02 -0.62300139553E+02  0.69950570375E+02  0.41800000000E+01 0. -1.
        -11    1    1    2    0    0 -0.20802660669E+02  0.62988648968E+02 -0.11508428741E+03  0.13283340619E+03  0.00000000000E+00 0. -1.
         11    1    1    2    0    0  0.24402222541E+02 -0.11549875331E+02 -0.14981490948E+03  0.15222803680E+03  0.00000000000E+00 0.  1.
</event>
<event>
 7    1  0.2679104E-009  0.7481301E+02  0.7561462E-02  0.1344451E+00
         -1   -1    0    0    0  501 -0.00000000000E+00  0.00000000000E+00  0.32235079068E+02  0.32235079068E+02  0.00000000000E+00 0.  1.
          1   -1    0    0  501    0  0.00000000000E+00 -0.00000000000E+00 -0.39379230426E+03  0.39379230426E+03  0.00000000000E+00 0. -1.
         25    2    1    2    0    0 -0.34567667846E+01  0.22644286698E+02 -0.22721359696E+03  0.26038103581E+03  0.12509017630E+03 0.  0.
          5    1    3    3  502    0 -0.25526913024E+02  0.49311105706E+01 -0.23012524332E+03  0.23162693961E+03  0.41800000000E+01 0.  1.
         -5    1    3    3    0  502  0.22070146240E+02  0.17713176127E+02  0.29116463586E+01  0.28754096196E+02  0.41800000000E+01 0.  1.
        -11    1    1    2    0    0  0.24048097210E+02 -0.52888193386E+02 -0.64563561286E+02  0.86855773700E+02  0.00000000000E+00 0.  1.
         11    1    1    2    0    0 -0.20591330426E+02  0.30243906688E+02 -0.69780066949E+02  0.78790573826E+02  0.00000000000E+00 0. -1.
</event>
<event>
 7    1  0.2679104E-009  0.1997300E+03  0.7561462E-02  0.1149967E+00
         -2   -1    0    0    0  501 -0.00000000000E+00  0.00000000000E+00  0.56925726432E+03  0.56925726432E+03  0.00000000000E+00 0.  1.
          2   -1    0    0  501    0  0.00000000000E+00 -0.00000000000E+00 -0.91095149170E+02  0.91095149170E+02  0.00000000000E+00 0. -1.
         25    2    1    2    0    0  0.19243141475E+03 -0.10318040678E+02  0.17148570241E+03  0.28668827034E+03  0.12508599791E+03 0.  0.
          5    1    3    3  502    0  0.91446261663E+02  0.71031783874E+01  0.15868056406E+03  0.18332994225E+03  0.41800000000E+01 0.  1.
         -5    1    3    3    0  502  0.10098515309E+03 -0.17421219066E+02  0.12805138357E+02  0.10335832809E+03  0.41800000000E+01 0.  1.
        -11    1    1    2    0    0 -0.56473135048E+02 -0.29092106280E+02  0.14780228806E+03  0.16087598325E+03  0.00000000000E+00 0. -1.
         11    1    1    2    0    0 -0.13595827970E+03  0.39410146958E+02  0.15887412468E+03  0.21278815990E+03  0.00000000000E+00 0.  1.
</event>
<event>
 7    1  0.2679104E-009  0.3073467E+03  0.7561462E-02  0.1081625E+00
          1   -1    0    0  501    0  0.00000000000E+00  0.00000000000E+00  0.44643505928E+03  0.44643505928E+03  0.00000000000E+00 0. -1.
         -1   -1    0    0    0  501 -0.00000000000E+00 -0.00000000000E+00 -0.33130463028E+03  0.33130463028E+03  0.00000000000E+00 0.  1.
         25    2    1    2    0    0  0.18320718421E+03 -0.24261640490E+03 -0.13384447823E+03  0.35494632106E+03  0.12507979138E+03 0.  0.
          5    1    3    3  502    0  0.99186309340E+02 -0.17949049123E+03 -0.14197417488E+03  0.24945720902E+03  0.41800000000E+01 0. -1.
         -5    1    3    3    0  502  0.84020874871E+02 -0.63125913676E+02  0.81296966530E+01  0.10548911204E+03  0.41800000000E+01 0. -1.
        -11    1    1    2    0    0 -0.81460312757E+02  0.12054118807E+03  0.24153875898E+02  0.14747667713E+03  0.00000000000E+00 0.  1.
         11    1    1    2    0    0 -0.10174687145E+03  0.12207521683E+03  0.22482103133E+03  0.27531669136E+03  0.00000000000E+00 0. -1.
</event>
<event>
 7    1  0.3933377E-009  0.1587374E+03  0.7561462E-02  0.1190130E+00
         -1   -1    0    0    0  501 -0.00000000000E+00  0.00000000000E+00  0.74552798502E+02  0.74552798502E+02  0.00000000000E+00 0.  1.
          1   -1    0    0  501    0  0.00000000000E+00 -0.00000000000E+00 -0.46754479221E+03  0.46754479221E+03  0.00000000000E+00 0. -1.
         25    2    1    2    0    0  0.10080892064E+03 -0.98712497237E+02 -0.12693381624E+03  0.22730199313E+03  0.12508959503E+03 0.  0.
          5    1    3    3  502    0  0.55732325319E+02 -0.10119254451E+03 -0.13860594686E+03  0.18048574474E+03  0.41800000000E+01 0. -1.
         -5    1    3    3    0  502  0.45076595318E+02  0.24800472763E+01  0.11672130620E+02  0.46816248388E+02  0.41800000000E+01 0. -1.
        -11    1    1    2    0    0 -0.18714525409E+02  0.65255749042E+02 -0.17502420276E+03  0.18772857480E+03  0.00000000000E+00 0. -1.
         11    1    1    2    0    0 -0.82094395228E+02  0.33456748195E+02 -0.91033974713E+02  0.12706702279E+03  0.00000000000E+00 0.  1.
</event>
<event>
 7    1  0.2679104E-009  0.1284945E+03  0.7561462E-02  0.1229707E+00
         -2   -1    0    0    0  501 -0.00000000000E+00  0.00000000000E+00  0.46169055931E+02  0.46169055931E+02  0.00000000000E+00 0.  1.
          2   -1    0    0  501    0  0.00000000000E+00 -0.00000000000E+00 -0.54576669409E+03  0.54576669409E+03  0.00000000000E+00 0. -1.
         25    2    1    2    0    0  0.45550746846E+02  0.10471044427E+03 -0.20606349375E+03  0.26673726014E+03  0.12508978700E+03 0.  0.
          5    1    3    3  502    0  0.43375953924E+02  0.32958295091E+02 -0.69986786605E+01  0.55083359531E+02  0.41800000000E+01 0. -1.
         -5    1    3    3    0  502  0.21747929220E+01  0.71752149183E+02 -0.19906481509E+03  0.21165390061E+03  0.41800000000E+01 0. -1.
        -11    1    1    2    0    0  0.12203557886E+02 -0.47911359456E+02 -0.58485211008E+02  0.76582929538E+02  0.00000000000E+00 0.  1.
         11    1    1    2    0    0 -0.57754304732E+02 -0.56799084819E+02 -0.23504893340E+03  0.24861556034E+03  0.00000000000E+00 0. -1.
</event>
<event>
 7    1  0.2679104E-009  0.8119404E+02  0.7561462E-02  0.1325697E+00
         -1   -1    0    0    0  501 -0.00000000000E+00  0.00000000000E+00  0.28565396208E+03  0.28565396208E+03  0.00000000000E+00 0.  1.
          1   -1    0    0  501    0  0.00000000000E+00 -0.00000000000E+00 -0.47084673053E+02  0.47084673053E+02  0.00000000000E+00 0. -1.
         25    2    1    2    0    0 -0.26855476007E+02  0.25351790053E+02  0.15720801550E+03  0.20426798629E+03  0.12508844966E+03 0.  0.
          5    1    3    3  502    0  0.84738669852E+01  0.26124754043E+02  0.16542989061E+03  0.16774632724E+03  0.41800000000E+01 0. -1.
         -5    1    3    3    0  502 -0.35329342992E+02 -0.77296399034E+00 -0.82218751137E+01  0.36521659053E+02  0.41800000000E+01 0. -1.
        -11    1    1    2    0    0  0.45803916631E+02  0.19918243641E+02  0.46796294711E+02  0.68444345326E+02  0.00000000000E+00 0.  1.
         11    1    1    2    0    0 -0.18948440624E+02 -0.45270033694E+02  0.34564978820E+02  0.60026303514E+02  0.00000000000E+00 0. -1.
</event>
<event>
 7    1  0.2679104E-009  0.3190756E+03  0.7561462E-02  0.1076076E+00
          1   -1    0    0  501    0  0.00000000000E+00  0.00000000000E+00  0.16143604797E+03  0.16143604797E+03  0.00000000000E+00 0. -1.
         -1   -1    0    0    0  501 -0.00000000000E+00 -0.00000000000E+00 -0.66792890745E+03  0.66792890745E+03  0.00000000000E+00 0.  1.
         25    2    1    2    0    0 -0.19003352163E+03 -0.24093043272E+03 -0.19955020101E+03  0.38681671727E+03  0.12508667909E+03 0.  0.
          5    1    3    3  502    0  0.11839085625E+02 -0.58536593866E+00 -0.24168063450E+02  0.27241040594E+02  0.41800000000E+01 0.  1.
         -5    1    3    3    0  502 -0.20187260725E+03 -0.24034506678E+03 -0.17538213756E+03  0.35957567668E+03  0.41800000000E+01 0.  1.
        -11    1    1    2    0    0  0.14090359916E+03  0.13607421533E+03 -0.14613696414E+03  0.24438909268E+03  0.00000000000E+00 0. -1.
         11    1    1    2    0    0  0.49129922471E+02  0.10485621738E+03 -0.16080569433E+03  0.19815914547E+03  0.00000000000E+00 0.  1.
</event>
<event>
 7    1  0.2679104E-009  0.1136947E+03  0.7561462E-02  0.1253877E+00
         -2   -1    0    0    0  501 -0.00000000000E+00  0.00000000000E+00  0.13016188050E+02  0.13016188050E+02  0.00000000000E+00 0.  1.
          2   -1    0    0  501    0  0.00000000000E+00 -0.00000000000E+00 -0.19585515395E+04  0.19585515395E+04  0.00000000000E+00 0. -1.
         25    2    1    2    0    0  0.35350181046E+02  0.56554809866E+02 -0.16283535605E+04  0.16345123603E+04  0.12508899359E+03 0.  0.
          5    1    3    3  502    0  0.38095612561E+02  0.82439844319E+02 -0.15296294415E+04  0.15323287194E+04  0.41800000000E+01 0. -1.
         -5    1    3    3    0  502 -0.27454315150E+01 -0.25885034453E+02 -0.98724119012E+02  0.10218364095E+03  0.41800000000E+01 0. -1.
        -11    1    1    2    0    0 -0.52438561574E+02 -0.14919778962E+01 -0.10788944006E+03  0.11996732895E+03  0.00000000000E+00 0.  1.
         11    1    1    2    0    0  0.17088380528E+02 -0.55062831970E+02 -0.20929235093E+03  0.21708803830E+03  0.00000000000E+00 0. -1.
</event>
<event>
 7    1  0.2679104E-009  0.1426525E+03  0.7561462E-02  0.1209804E+00
         -1   -1    0    0    0  501 -0.00000000000E+00  0.00000000000E+00  0.13283144746E+04  0.13283144746E+04  0.00000000000E+00 0.  1.
          1   -1    0    0  501    0  0.00000000000E+00 -0.00000000000E+00 -0.20004692799E+02  0.20004692799E+02  0.00000000000E+00 0. -1.
         25    2    1    2    0    0  0.58669072476E+01 -0.11537148701E+03  0.85371175350E+03  0.87052634726E+03  0.12508941837E+03 0.  0.
          5    1    3    3  502    0 -0.33773595459E+02 -0.35064201225E+02  0.58941552188E+03  0.59143747243E+03  0.41800000000E+01 0.  1.
         -5    1    3    3    0  502  0.39640502707E+02 -0.80307285783E+02  0.26429623162E+03  0.27908887483E+03  0.41800000000E+01 0.  1.
        -11    1    1    2    0    0 -0.46345067629E+02  0.82565095680E+02  0.27904253012E+03  0.29466861715E+03  0.00000000000E+00 0. -1.
         11    1    1    2    0    0  0.40478160382E+02  0.32806391328E+02  0.17555549818E+03  0.18312420299E+03  0.00000000000E+00 0.  1.
</event>
<event>
 7    1  0.2679104E-009  0.2497488E+03  0.7561462E-02  0.1113464E+00
          2   -1    0    0  501    0  0.00000000000E+00  0.00000000000E+00  0.16711544477E+04  0.16711544477E+04  0.00000000000E+00 0. -1.
         -2   -1    0    0    0  501 -0.00000000000E+00 -0.00000000000E+00 -0.37688092668E+02  0.37688092668E+02  0.00000000000E+00 0.  1.
         25    2    1    2    0    0 -0.19450593720E+03 -0.11524877385E+03  0.87725784600E+03  0.91451862100E+03  0.12509252695E+03 0.  0.
          5    1    3    3  502    0 -0.97053617059E+01  0.23579715634E+02  0.63352922808E+02  0.68419750537E+02  0.41800000000E+01 0.  1.
         -5    1    3    3    0  502 -0.18480057549E+03 -0.13882848948E+03  0.81390492320E+03  0.84609887046E+03  0.41800000000E+01 0.  1.
        -11    1    1    2    0    0  0.83548795437E+02  0.14752352681E+01  0.28815332641E+03  0.30002486073E+03  0.00000000000E+00 0. -1.
         11    1    1    2    0    0  0.11095714176E+03  0.11377353858E+03  0.46805518258E+03  0.49429905859E+03  0.00000000000E+00 0.  1.
</event>
<event>
 7    1  0.2679104E-009  0.8035422E+02  0.7561462E-02  0.1328049E+00
          1   -1    0    0  501    0  0.00000000000E+00  0.00000000000E+00  0.34784426944E+02  0.34784426944E+02  0.00000000000E+00 0. -1.
         -1   -1    0    0    0  501 -0.00000000000E+00 -0.00000000000E+00 -0.35608602804E+03  0.35608602804E+03  0.00000000000E+00 0.  1.
         25    2    1    2    0    0 -0.29135852614E+02  0.76435463706E+01 -0.17499851263E+03  0.21720116120E+03  0.12507814875E+03 0.  0.
          5    1    3    3  502    0  0.13806097323E+02  0.20863362616E+02  0.96353288509E+01  0.27133009140E+02  0.41800000000E+01 0. -1.
         -5    1    3    3    0  502 -0.42941949937E+02 -0.13219816246E+02 -0.18463384148E+03  0.19006815206E+03  0.41800000000E+01 0. -1.
        -11    1    1    2    0    0  0.19732534040E+02  0.38427745763E+02 -0.93299836553E+02  0.10281499912E+03  0.00000000000E+00 0.  1.
         11    1    1    2    0    0  0.94033185746E+01 -0.46071292133E+02 -0.53003251917E+02  0.70854294667E+02  0.00000000000E+00 0. -1.
</event>
<event>
 7    1  0.2679104E-009  0.1588572E+03  0.7561462E-02  0.1189993E+00
          1   -1    0    0  501    0  0.00000000000E+00  0.00000000000E+00  0.15770733983E+04  0.15770733983E+04  0.00000000000E+00 0. -1.
         -1   -1    0    0    0  501 -0.00000000000E+00 -0.00000000000E+00 -0.18853738547E+02  0.18853738547E+02  0.00000000000E+00 0.  1.
         25    2    1    2    0    0 -0.19612234019E+02  0.12978410876E+03  0.94905974326E+03  0.96622501041E+03  0.12509124616E+03 0.  0.
          5    1    3    3  502    0 -0.42777720811E+02  0.14001304666E+03  0.88789261371E+03  0.89989130039E+03  0.41800000000E+01 0.  1.
         -5    1    3    3    0  502  0.23165486792E+02 -0.10228937895E+02  0.61167129546E+02  0.66333710025E+02  0.41800000000E+01 0.  1.
        -11    1    1    2    0    0  0.36303735957E+02 -0.12177839455E+03  0.58805689824E+03  0.60163016397E+03  0.00000000000E+00 0. -1.
         11    1    1    2    0    0 -0.16691501937E+02 -0.80057142090E+01  0.21103018222E+02  0.28071962436E+02  0.00000000000E+00 0.  1.
</event>
<event>
 7    1  0.2679104E-009  0.1329137E+03  0.7561462E-02  0.1223195E+00
         -2   -1    0    0    0  501 -0.00000000000E+00  0.00000000000E+00  0.53910288082E+02  0.53910288082E+02  0.00000000000E+00 0.  1.
          2   -1    0    0  501    0  0.00000000000E+00 -0.00000000000E+00 -0.57087060898E+03  0.57087060898E+03  0.00000000000E+00 0. -1.
         25    2    1    2    0    0  0.85018714037E+02  0.19533123836E+02 -0.46216047398E+03  0.48667185872E+03  0.12508984650E+03 0.  0.
          5    1    3    3  502    0  0.24786953499E+02  0.65037356985E+02 -0.14889697992E+03  0.16441421440E+03  0.41800000000E+01 0.  1.
         -5    1    3    3    0  502  0.60231760538E+02 -0.45504233149E+02 -0.31326349406E+03  0.32225764432E+03  0.41800000000E+01 0.  1.
        -11    1    1    2    0    0 -0.87708787045E+01  0.28877064375E+02  0.38425823719E+01  0.30423323281E+02  0.00000000000E+00 0.  1.
         11    1    1    2    0    0 -0.76247835333E+02 -0.48410188211E+02 -0.58642429294E+02  0.10768571507E+03  0.00000000000E+00 0. -1.
</event>
<event>
 7    1  0.2679104E-009  0.9630199E+02  0.7561462E-02  0.1288270E+00
          2   -1    0    0  501    0  0.00000000000E+00  0.00000000000E+00  0.87836130832E+02  0.87836130832E+02  0.00000000000E+00 0. -1.
         -2   -1    0    0    0  501 -0.00000000000E+00 -0.00000000000E+00 -0.13609062049E+03  0.13609062049E+03  0.00000000000E+00 0.  1.
         25    2    1    2    0    0  0.31435192225E+02 -0.18234860463E+02 -0.54138385775E+02  0.14106648277E+03  0.12509239106E+03 0.  0.
          5    1    3    3  502    0  0.14940230370E+02  0.50070174693E+02 -0.46838700828E+02  0.70296295582E+02  0.41800000000E+01 0. -1.
         -5    1    3    3    0  502  0.16494961855E+02 -0.68305035156E+02 -0.72996849469E+01  0.70770187188E+02  0.41800000000E+01 0. -1.
        -11    1    1    2    0    0  0.13458839804E+02  0.20856658332E+02 -0.19187124917E+02  0.31373337857E+02  0.00000000000E+00 0.  1.
         11    1    1    2    0    0 -0.44894032030E+02 -0.26217978695E+01  0.25071021039E+02  0.51486930690E+02  0.00000000000E+00 0. -1.
</event>
<event>
 7    1  0.2679104E-009  0.1269204E+03  0.7561462E-02  0.1232098E+00
          2   -1    0    0  501    0  0.00000000000E+00  0.00000000000E+00  0.58220570269E+03  0.58220570269E+03  0.00000000000E+00 0. -1.
         -2   -1    0    0    0  501 -0.00000000000E+00 -0.00000000000E+00 -0.40546186756E+02  0.40546186756E+02  0.00000000000E+00 0.  1.
         25    2    1    2    0    0  0.10242523044E+03  0.19263007432E+02  0.22936780816E+03  0.28128290885E+03  0.12509393312E+03 0.  0.
          5    1    3    3  502    0  0.18415138874E+01 -0.18869639431E+02 -0.77252848806E+01  0.20895140395E+02  0.41800000000E+01 0. -1.
         -5    1    3    3    0  502  0.10058371655E+03  0.38132646863E+02  0.23709309304E+03  0.26038776845E+03  0.41800000000E+01 0. -1.
        -11    1    1    2    0    0 -0.36736272312E+02  0.27713810630E+02  0.54528623832E+02  0.71351102444E+02  0.00000000000E+00 0. -1.
         11    1    1    2    0    0 -0.65688958126E+02 -0.46976818061E+02  0.25776308394E+03  0.27011787815E+03  0.00000000000E+00 0.  1.
</event>
<event>
 7    1  0.2679104E-009  0.1033803E+03  0.7561462E-02  0.1273344E+00
          1   -1    0    0  501    0  0.00000000000E+00  0.00000000000E+00  0.13886926351E+03  0.13886926351E+03  0.00000000000E+00 0. -1.
         -1   -1    0    0    0  501 -0.00000000000E+00 -0.00000000000E+00 -0.13163718391E+03  0.13163718391E+03  0.00000000000E+00 0.  1.
         25    2    1    2    0    0 -0.52960761700E+02  0.31234922199E+02 -0.50258416741E+02  0.14816881942E+03  0.12509047906E+03 0.  0.
          5    1    3    3  502    0 -0.92780244920E+02  0.34038131083E+02 -0.31059801258E+02  0.10367715211E+03  0.41800000000E+01 0.  1.
         -5    1    3    3    0  502  0.39819483219E+02 -0.28032088831E+01 -0.19198615483E+02  0.44491667314E+02  0.41800000000E+01 0.  1.
        -11    1    1    2    0    0  0.39810916258E+02 -0.74081509514E+01 -0.16328043401E+02  0.43662280691E+02  0.00000000000E+00 0.  1.
         11    1    1    2    0    0  0.13149845443E+02 -0.23826771248E+02  0.73818539743E+02  0.78675347302E+02  0.00000000000E+00 0. -1.
</event>
<event>
 7    1  0.2679104E-009  0.8618584E+02  0.7561462E-02  0.1312360E+00
         -2   -1    0    0    0  501 -0.00000000000E+00  0.00000000000E+00  0.45330007053E+03  0.45330007053E+03  0.00000000000E+00 0. -1.
          2   -1    0    0  501    0  0.00000000000E+00 -0.00000000000E+00 -0.39064239825E+02  0.39064239825E+02  0.00000000000E+00 0.  1.
         25    2    1    2    0    0  0.31481091959E+02 -0.51687813573E+02  0.35063392653E+03  0.37716595510E+03  0.12508924027E+03 0.  0.
          5    1    3    3  502    0  0.18363991896E+02  0.11532574479E+02  0.15521792189E+01  0.22138611809E+02  0.41800000000E+01 0.  1.
         -5    1    3    3    0  502  0.13117100062E+02 -0.63220388053E+02  0.34908174731E+03  0.35502734329E+03  0.41800000000E+01 0.  1.
        -11    1    1    2    0    0  0.76894706240E+01  0.45238797286E+02  0.75378526964E+01  0.46502644674E+02  0.00000000000E+00 0.  1.
         11    1    1    2    0    0 -0.39170562583E+02  0.64490162868E+01  0.56064051486E+02  0.68695710588E+02  0.00000000000E+00 0. -1.
</event>
<event>
 7    1  0.2679104E-009  0.1058260E+03  0.7561462E-02  0.1268501E+00
         -1   -1    0    0    0  501 -0.00000000000E+00  0.00000000000E+00  0.32588096584E+02  0.32588096584E+02  0.00000000000E+00 0.  1.
          1   -1    0    0  501    0  0.00000000000E+00 -0.00000000000E+00 -0.42564356921E+03  0.42564356921E+03  0.00000000000E+00 0. -1.
         25    2    1    2    0    0  0.94319749409E+01  0.45530544596E+02 -0.23778635404E+03  0.27267902349E+03  0.12509798975E+03 0.  0.
          5    1    3    3  502    0 -0.47790925876E+02  0.31152973651E+02 -0.18416011282E+03  0.19283905184E+03  0.41800000000E+01 0.  1.
         -5    1    3    3    0  502  0.57222900817E+02  0.14377570946E+02 -0.53626241225E+02  0.79839971644E+02  0.41800000000E+01 0.  1.
        -11    1    1    2    0    0  0.14355054104E+02 -0.63745356459E+02 -0.72867110528E+02  0.97873151809E+02  0.00000000000E+00 0. -1.
         11    1    1    2    0    0 -0.23787029045E+02  0.18214811863E+02 -0.82402008055E+02  0.87679490495E+02  0.00000000000E+00 0.  1.
</event>
<event>
 7    1  0.2679104E-009  0.1065598E+03  0.7561462E-02  0.1267076E+00
         -2   -1    0    0    0  501 -0.00000000000E+00  0.00000000000E+00  0.43486811677E+03  0.43486811677E+03  0.00000000000E+00 0. -1.
          2   -1    0    0  501    0  0.00000000000E+00 -0.00000000000E+00 -0.35026048029E+02  0.35026048029E+02  0.00000000000E+00 0.  1.
         25    2    1    2    0    0  0.10475097453E+02 -0.61428226690E+02  0.23582793160E+03  0.27412588407E+03  0.12508809812E+03 0.  0.
          5    1    3    3  502    0  0.15428891912E+02 -0.85509472379E+02  0.23338266712E+03  0.24906798727E+03  0.41800000000E+01 0.  1.
         -5    1    3    3    0  502 -0.49537944586E+01  0.24081245689E+02  0.24452644831E+01  0.25057896797E+02  0.41800000000E+01 0.  1.
        -11    1    1    2    0    0 -0.19927828085E+02  0.78871860339E+02  0.15246748031E+03  0.17281267673E+03  0.00000000000E+00 0. -1.
         11    1    1    2    0    0  0.94527306319E+01 -0.17443633648E+02  0.11546656832E+02  0.22955604005E+02  0.00000000000E+00 0.  1.
</event>
<event>
 7    1  0.2679104E-009  0.1437740E+03  0.7561462E-02  0.1208339E+00
          2   -1    0    0  501    0  0.00000000000E+00  0.00000000000E+00  0.25242743145E+03  0.25242743145E+03  0.00000000000E+00 0. -1.
         -2   -1    0    0    0  501 -0.00000000000E+00 -0.00000000000E+00 -0.13361980461E+03  0.13361980461E+03  0.00000000000E+00 0.  1.
         25    2    1    2    0    0  0.73903729611E+02 -0.20219212325E+02 -0.43897404469E+02  0.15313361486E+03  0.12510932852E+03 0.  0.
          5    1    3    3  502    0  0.92410968269E+02  0.44031796962E+01 -0.67083597539E+02  0.11435408391E+03  0.41800000000E+01 0.  1.
         -5    1    3    3    0  502 -0.18507238657E+02 -0.24622392021E+02  0.23186193070E+02  0.38779530949E+02  0.41800000000E+01 0.  1.
        -11    1    1    2    0    0 -0.37957500263E+02  0.83136300714E+02  0.11158541264E+03  0.14423494943E+03  0.00000000000E+00 0. -1.
         11    1    1    2    0    0 -0.35946229348E+02 -0.62917088390E+02  0.51119618668E+02  0.88678671779E+02  0.00000000000E+00 0.  1.
</event>
<event>
 7    1  0.2679104E-009  0.6802444E+02  0.7561462E-02  0.1366943E+00
         -1   -1    0    0    0  501 -0.00000000000E+00  0.00000000000E+00  0.12466497209E+03  0.12466497209E+03  0.00000000000E+00 0.  1.
          1   -1    0    0  501    0  0.00000000000E+00 -0.00000000000E+00 -0.89797843812E+02  0.89797843812E+02  0.00000000000E+00 0. -1.
         25    2    1    2    0    0 -0.63780203854E+02  0.16772556981E+02  0.12329979764E+02  0.14194526199E+03  0.12508875220E+03 0.  0.
          5    1    3    3  502    0 -0.30848141400E+02  0.14384573417E+01 -0.56204476333E+02  0.64265796091E+02  0.41800000000E+01 0.  1.
         -5    1    3    3    0  502 -0.32932062454E+02  0.15334099640E+02  0.68534456097E+02  0.77679465895E+02  0.41800000000E+01 0.  1.
        -11    1    1    2    0    0  0.25298165475E+02  0.22384388495E+01  0.37823703373E+01  0.25677112576E+02  0.00000000000E+00 0. -1.
         11    1    1    2    0    0  0.38482038379E+02 -0.19010995831E+02  0.18754778174E+02  0.46840441337E+02  0.00000000000E+00 0.  1.
</event>
<event>
 7    1  0.2783065E-009  0.1208886E+03  0.7561462E-02  0.1241638E+00
          2   -1    0    0  501    0  0.00000000000E+00  0.00000000000E+00  0.82684278154E+02  0.82684278154E+02  0.00000000000E+00 0. -1.
         -2   -1    0    0    0  501 -0.00000000000E+00 -0.00000000000E+00 -0.22460874678E+03  0.22460874678E+03  0.00000000000E+00 0.  1.
         25    2    1    2    0    0  0.51746273213E+02  0.62872807941E+02 -0.89342726036E+02  0.17395520651E+03  0.12509046489E+03 0.  0.
          5    1    3    3  502    0  0.65719082760E+02  0.88658895997E+02 -0.42098934520E+02  0.11819132949E+03  0.41800000000E+01 0.  1.
         -5    1    3    3    0  502 -0.13972809547E+02 -0.25786088056E+02 -0.47243791516E+02  0.55763877023E+02  0.41800000000E+01 0.  1.
        -11    1    1    2    0    0  0.10141829163E+02 -0.29933449101E+02  0.15860115096E+02  0.35361155591E+02  0.00000000000E+00 0.  1.
         11    1    1    2    0    0 -0.61888102375E+02 -0.32939358840E+02 -0.68441857688E+02  0.97976662835E+02  0.00000000000E+00 0. -1.
</event>
<event>
 7    1  0.2679104E-009  0.1460813E+03  0.7561462E-02  0.1205373E+00
         -1   -1    0    0    0  501 -0.00000000000E+00  0.00000000000E+00  0.70323090364E+03  0.70323090364E+03  0.00000000000E+00 0.  1.
          1   -1    0    0  501    0  0.00000000000E+00 -0.00000000000E+00 -0.45660127194E+02  0.45660127194E+02  0.00000000000E+00 0. -1.
         25    2    1    2    0    0 -0.54549344095E+02  0.10763350027E+03  0.51548264616E+03  0.54399615276E+03  0.12509538122E+03 0.  0.
          5    1    3    3  502    0 -0.25444322866E+02 -0.22273544799E+02  0.17701281744E+03  0.18026240402E+03  0.41800000000E+01 0. -1.
         -5    1    3    3    0  502 -0.29105021229E+02  0.12990704507E+03  0.33846982872E+03  0.36373374874E+03  0.41800000000E+01 0. -1.
        -11    1    1    2    0    0 -0.16901229836E+01 -0.24312365773E+02  0.86825712354E+02  0.90181217396E+02  0.00000000000E+00 0.  1.
         11    1    1    2    0    0  0.56239467078E+02 -0.83321134498E+02  0.55262417935E+02  0.11471366068E+03  0.00000000000E+00 0. -1.
</event>
<event>
 7    1  0.2679104E-009  0.9512893E+02  0.7561462E-02  0.1290886E+00
          1   -1    0    0  501    0  0.00000000000E+00  0.00000000000E+00  0.22964853041E+02  0.22964853041E+02  0.00000000000E+00 0. -1.
         -1   -1    0    0    0  501 -0.00000000000E+00 -0.00000000000E+00 -0.61721415181E+03  0.61721415181E+03  0.00000000000E+00 0.  1.
         25    2    1    2    0    0  0.43600717361E+02  0.14193901244E+02 -0.39247892729E+03  0.41447569564E+03  0.12509158457E+03 0.  0.
          5    1    3    3  502    0 -0.21322174840E+02 -0.28919891625E+01 -0.29630033332E+03  0.29711001105E+03  0.41800000000E+01 0. -1.
         -5    1    3    3    0  502  0.64922892201E+02  0.17085890407E+02 -0.96178593965E+02  0.11736568459E+03  0.41800000000E+01 0. -1.
        -11    1    1    2    0    0  0.42200558601E+01 -0.44342981700E+02 -0.93171122806E+02  0.10327132720E+03  0.00000000000E+00 0. -1.
         11    1    1    2    0    0 -0.47820773221E+02  0.30149080456E+02 -0.10859924868E+03  0.12243198200E+03  0.00000000000E+00 0.  1.
</event>
<event>
 7    1  0.2679104E-009  0.9125717E+02  0.7561462E-02  0.1299836E+00
          3   -1    0    0  501    0  0.00000000000E+00  0.00000000000E+00  0.93918630856E+02  0.93918630856E+02  0.00000000000E+00 0. -1.
         -3   -1    0    0    0  501 -0.00000000000E+00 -0.00000000000E+00 -0.13468237406E+03  0.13468237406E+03  0.00000000000E+00 0.  1.
         25    2    1    2    0    0  0.29748871015E+02  0.83329179188E+01 -0.15763229935E+02  0.12980949172E+03  0.12509033485E+03 0.  0.
          5    1    3    3  502    0  0.59540342557E+02  0.98454311858E+01  0.35654243249E+02  0.70218817768E+02  0.41800000000E+01 0. -1.
         -5    1    3    3    0  502 -0.29791471542E+02 -0.15125132670E+01 -0.51417473184E+02  0.59590673948E+02  0.41800000000E+01 0. -1.
        -11    1    1    2    0    0  0.28799152778E+01 -0.43691629143E+02  0.15979128008E+01  0.43815587346E+02  0.00000000000E+00 0. -1.
         11    1    1    2    0    0 -0.32628786293E+02  0.35358711224E+02 -0.26598426072E+02  0.54975925857E+02  0.00000000000E+00 0.  1.
</event>
<event>
 7    1  0.2679104E-009  0.7095091E+02  0.7561462E-02  0.1356889E+00
          1   -1    0    0  501    0  0.00000000000E+00  0.00000000000E+00  0.99023650617E+03  0.99023650617E+03  0.00000000000E+00 0. -1.
         -1   -1    0    0    0  501 -0.00000000000E+00 -0.00000000000E+00 -0.12756300849E+02  0.12756300849E+02  0.00000000000E+00 0.  1.
         25    2    1    2    0    0 -0.11789154991E+02 -0.81223319118E+01  0.67212964014E+03  0.68381990068E+03  0.12508575845E+03 0.  0.
          5    1    3    3  502    0  0.83699919897E+01  0.15255796374E+02  0.91329245097E+01  0.20091759481E+02  0.41800000000E+01 0. -1.
         -5    1    3    3    0  502 -0.20159146981E+02 -0.23378128286E+02  0.66299671563E+03  0.66372814120E+03  0.41800000000E+01 0. -1.
        -11    1    1    2    0    0 -0.39646886412E+02 -0.44741222278E+01  0.13671917442E+03  0.14242199980E+03  0.00000000000E+00 0.  1.
         11    1    1    2    0    0  0.51436041403E+02  0.12596454140E+02  0.16863139075E+03  0.17675090653E+03  0.00000000000E+00 0. -1.
</event>
<event>
 7    1  0.2679104E-009  0.7444042E+02  0.7561462E-02  0.1345613E+00
         -2   -1    0    0    0  501 -0.00000000000E+00  0.00000000000E+00  0.68699770946E+02  0.68699770946E+02  0.00000000000E+00 0.  1.
          2   -1    0    0  501    0  0.00000000000E+00 -0.00000000000E+00 -0.25173983192E+03  0.25173983192E+03  0.00000000000E+00 0. -1.
         25    2    1    2    0    0  0.61602203111E+02  0.28509819437E+02 -0.13454124764E+03  0.19584781919E+03  0.12508948690E+03 0.  0.
          5    1    3    3  502    0  0.57425913369E+02  0.14295563495E+02 -0.15744527985E+03  0.16825155931E+03  0.41800000000E+01 0. -1.
         -5    1    3    3    0  502  0.41762897424E+01  0.14214255942E+02  0.22904032210E+02  0.27596259883E+02  0.41800000000E+01 0. -1.
        -11    1    1    2    0    0 -0.49767182717E+02 -0.34829970316E+02  0.12599684523E+02  0.62037499610E+02  0.00000000000E+00 0.  1.
         11    1    1    2    0    0 -0.11835020394E+02  0.63201508785E+01 -0.61098497849E+02  0.62554284060E+02  0.00000000000E+00 0. -1.
</event>
<event>
 7    1  0.2679104E-009  0.1098104E+03  0.7561462E-02  0.1260921E+00
         -2   -1    0    0    0  501 -0.00000000000E+00  0.00000000000E+00  0.14445249058E+03  0.14445249058E+03  0.00000000000E+00 0. -1.
          2   -1    0    0  501    0  0.00000000000E+00 -0.00000000000E+00 -0.27361355003E+03  0.27361355003E+03  0.00000000000E+00 0.  1.
         25    2    1    2    0    0  0.63832466382E+02  0.69056558139E+02  0.76916080261E+02  0.17437894056E+03  0.12509412265E+03 0.  0.
          5    1    3    3  502    0  0.83094337792E+02  0.45668678378E+02  0.98623073575E+02  0.13687322674E+03  0.41800000000E+01 0. -1.
         -5    1    3    3    0  502 -0.19261871411E+02  0.23387879761E+02 -0.21706993314E+02  0.37505713814E+02  0.41800000000E+01 0. -1.
        -11    1    1    2    0    0 -0.27998635431E+02 -0.33253884602E+02 -0.18287621549E+03  0.18797195168E+03  0.00000000000E+00 0.  1.
         11    1    1    2    0    0 -0.35833830951E+02 -0.35802673537E+02 -0.23200924224E+02  0.55715148369E+02  0.00000000000E+00 0. -1.
</event>
<event>
 7    1  0.2679104E-009  0.1216372E+03  0.7561462E-02  0.1240420E+00
          2   -1    0    0  501    0  0.00000000000E+00  0.00000000000E+00  0.61099112219E+02  0.61099112219E+02  0.00000000000E+00 0. -1.
         -2   -1    0    0    0  501 -0.00000000000E+00 -0.00000000000E+00 -0.40768369453E+03  0.40768369453E+03  0.00000000000E+00 0.  1.
         25    2    1    2    0    0  0.81630504849E+02 -0.24720761776E+02 -0.29461613971E+03  0.33124054436E+03  0.12508786139E+03 0.  0.
          5    1    3    3  502    0 -0.14694928243E+02  0.26794414314E+02 -0.13017868522E+03  0.13378282416E+03  0.41800000000E+01 0. -1.
         -5    1    3    3    0  502  0.96325433092E+02 -0.51515176090E+02 -0.16443745449E+03  0.19745772020E+03  0.41800000000E+01 0. -1.
        -11    1    1    2    0    0 -0.83791879557E+01 -0.16901227027E+02  0.19449182216E+02  0.27094887980E+02  0.00000000000E+00 0. -1.
         11    1    1    2    0    0 -0.73251316894E+02  0.41621988803E+02 -0.71417624812E+02  0.11044737440E+03  0.00000000000E+00 0.  1.
</event>
<event>
 7    1  0.3744691E-009  0.1547668E+03  0.7561462E-02  0.1194735E+00
         -2   -1    0    0    0  501 -0.00000000000E+00  0.00000000000E+00  0.49800878924E+02  0.49800878924E+02  0.00000000000E+00 0. -1.
          2   -1    0    0  501    0  0.00000000000E+00 -0.00000000000E+00 -0.62394100037E+03  0.62394100037E+03  0.00000000000E+00 0.  1.
         25    2    1    2    0    0 -0.98953863323E+02  0.95779358022E+02 -0.32892525900E+03  0.37789306357E+03  0.12508312835E+03 0.  0.
          5    1    3    3  502    0  0.11352009156E+02  0.72866254403E+01  0.52002516863E+01  0.15049187346E+02  0.41800000000E+01 0. -1.
         -5    1    3    3    0  502 -0.11030587248E+03  0.88492732582E+02 -0.33412551068E+03  0.36284387622E+03  0.41800000000E+01 0. -1.
        -11    1    1    2    0    0  0.90681892641E+02 -0.42732323975E+02 -0.20685207039E+03  0.22986308140E+03  0.00000000000E+00 0.  1.
         11    1    1    2    0    0  0.82719706819E+01 -0.53047034048E+02 -0.38362792060E+02  0.65985734328E+02  0.00000000000E+00 0. -1.
</event>
<event>
 7    1  0.2679104E-009  0.4488900E+02  0.7561462E-02  0.1475036E+00
          2   -1    0    0  501    0  0.00000000000E+00  0.00000000000E+00  0.15811335570E+03  0.15811335570E+03  0.00000000000E+00 0. -1.
         -2   -1    0    0    0  501 -0.00000000000E+00 -0.00000000000E+00 -0.98442252006E+02  0.98442252006E+02  0.00000000000E+00 0.  1.
         25    2    1    2    0    0 -0.30395895002E+02  0.14236175096E+02 -0.15917981702E+02  0.13049203045E+03  0.12509280057E+03 0.  0.
          5    1    3    3  502    0 -0.95268835283E+01 -0.14760428673E+02  0.51228558432E+02  0.54318223125E+02  0.41800000000E+01 0. -1.
         -5    1    3    3    0  502 -0.20869011474E+02  0.28996603769E+02 -0.67146540134E+02  0.76173807323E+02  0.41800000000E+01 0. -1.
        -11    1    1    2    0    0  0.12314548690E+02 -0.12562652304E+02  0.96660000336E+02  0.98247768459E+02  0.00000000000E+00 0. -1.
         11    1    1    2    0    0  0.18081346312E+02 -0.16735227927E+01 -0.21070914937E+02  0.27815808802E+02  0.00000000000E+00 0.  1.
</event>
<event>
 7    1  0.2679104E-009  0.9883954E+02  0.7561462E-02  0.1282755E+00
          2   -1    0    0  501    0  0.00000000000E+00  0.00000000000E+00  0.45073400262E+03  0.45073400262E+03  0.00000000000E+00 0. -1.
         -2   -1    0    0    0  501 -0.00000000000E+00 -0.00000000000E+00 -0.70842529954E+02  0.70842529954E+02  0.00000000000E+00 0.  1.
         25    2    1    2    0    0 -0.85363489242E+02  0.31935787087E+02  0.35659571303E+03  0.38873280442E+03  0.12508345569E+03 0.  0.
          5    1    3    3  502    0 -0.71594994464E+02  0.46006849470E+02  0.10011913666E+03  0.13146781871E+03  0.41800000000E+01 0. -1.
         -5    1    3    3    0  502 -0.13768494778E+02 -0.14071062383E+02  0.25647657637E+03  0.25726498571E+03  0.41800000000E+01 0. -1.
        -11    1    1    2    0    0  0.62789075379E+02 -0.16245725262E+02 -0.31075687828E+02  0.71917243761E+02  0.00000000000E+00 0.  1.
         11    1    1    2    0    0  0.22574413863E+02 -0.15690061825E+02  0.54371447456E+02  0.60926484387E+02  0.00000000000E+00 0. -1.
</event>
<event>
 7    1  0.2679104E-009  0.1113468E+03  0.7561462E-02  0.1258096E+00
          3   -1    0    0  501    0  0.00000000000E+00  0.00000000000E+00  0.79459079062E+02  0.79459079062E+02  0.00000000000E+00 0. -1.
         -3   -1    0    0    0  501 -0.00000000000E+00 -0.00000000000E+00 -0.19296314268E+03  0.19296314268E+03  0.00000000000E+00 0.  1.
         25    2    1    2    0    0 -0.25995565175E+02  0.30745199037E+02 -0.11024821644E+03  0.17153115086E+03  0.12508888766E+03 0.  0.
          5    1    3    3  502    0  0.30759168158E+02 -0.28757301667E+02 -0.65059998797E+02  0.77610467518E+02  0.41800000000E+01 0. -1.
         -5    1    3    3    0  502 -0.56754733333E+02  0.59502500704E+02 -0.45188217642E+02  0.93920683342E+02  0.41800000000E+01 0. -1.
        -11    1    1    2    0    0 -0.24677535240E+02 -0.39543190603E+02 -0.13334879373E+02  0.48481580796E+02  0.00000000000E+00 0.  1.
         11    1    1    2    0    0  0.50673100415E+02  0.87979915657E+01  0.10079032193E+02  0.52409490087E+02  0.00000000000E+00 0. -1.
</event>
<event>
 7    1  0.2679104E-009  0.1754178E+03  0.7561462E-02  0.1172313E+00
         -2   -1    0    0    0  501 -0.00000000000E+00  0.00000000000E+00  0.38933671698E+02  0.38933671698E+02  0.00000000000E+00 0.  1.
          2   -1    0    0  501    0  0.00000000000E+00 -0.00000000000E+00 -0.10760997195E+04  0.10760997195E+04  0.00000000000E+00 0. -1.
         25    2    1    2    0    0 -0.13371877320E+03 -0.70899610945E+02 -0.77323816079E+03  0.79777927350E+03  0.12508817199E+03 0.  0.
          5    1    3    3  502    0 -0.14099062955E+03 -0.26856340592E+02 -0.67020830086E+03  0.68541685097E+03  0.41800000000E+01 0.  1.
         -5    1    3    3    0  502  0.72718563461E+01 -0.44043270353E+02 -0.10302985994E+03  0.11236242253E+03  0.41800000000E+01 0.  1.
        -11    1    1    2    0    0  0.48775240063E+02 -0.43028698681E+01 -0.30418534451E+02  0.57643958664E+02  0.00000000000E+00 0.  1.
         11    1    1    2    0    0  0.84943533141E+02  0.75202480813E+02 -0.23350935254E+03  0.25961015902E+03  0.00000000000E+00 0. -1.
</event>
<event>
 7    1  0.2679104E-009  0.1699377E+03  0.7561462E-02  0.1177913E+00
          1   -1    0    0  501    0  0.00000000000E+00  0.00000000000E+00  0.15518387817E+03  0.15518387817E+03  0.00000000000E+00 0. -1.
         -1   -1    0    0    0  501 -0.00000000000E+00 -0.00000000000E+00 -0.40537264676E+03  0.40537264676E+03  0.00000000000E+00 0.  1.
         25    2    1    2    0    0 -0.14641248773E+03 -0.57773792784E+02  0.50563017483E+02  0.20731255519E+03  0.12508976419E+03 0.  0.
          5    1    3    3  502    0 -0.11436102668E+03 -0.58683524601E+02 -0.19567138348E+02  0.13008668566E+03  0.41800000000E+01 0. -1.
         -5    1    3    3    0  502 -0.32051461047E+02  0.90973181640E+00  0.70130155831E+02  0.77225869526E+02  0.41800000000E+01 0. -1.
        -11    1    1    2    0    0  0.21400394808E+02 -0.21956069468E+02 -0.93613894603E+02  0.98506888831E+02  0.00000000000E+00 0. -1.
         11    1    1    2    0    0  0.12501209292E+03  0.79729862252E+02 -0.20713789146E+03  0.25473708091E+03  0.00000000000E+00 0.  1.
</event>
<event>
 7    1  0.2679104E-009  0.9497198E+02  0.7561462E-02  0.1291239E+00
          3   -1    0    0  501    0  0.00000000000E+00  0.00000000000E+00  0.37736327277E+03  0.37736327277E+03  0.00000000000E+00 0. -1.
         -3   -1    0    0    0  501 -0.00000000000E+00 -0.00000000000E+00 -0.31145058960E+02  0.31145058960E+02  0.00000000000E+00 0.  1.
         25    2    1    2    0    0  0.63475572118E+01  0.48715549369E+01  0.21496769031E+03  0.24884193219E+03  0.12508867179E+03 0.  0.
          5    1    3    3  502    0 -0.27369445966E+02  0.41274244054E+02  0.18309501120E+03  0.18972059804E+03  0.41800000000E+01 0.  1.
         -5    1    3    3    0  502  0.33717003178E+02 -0.36402689117E+02  0.31872679112E+02  0.59121334153E+02  0.41800000000E+01 0.  1.
        -11    1    1    2    0    0 -0.76147148077E+01 -0.47346827246E+02  0.61439264217E+02  0.77939008971E+02  0.00000000000E+00 0.  1.
         11    1    1    2    0    0  0.12671575959E+01  0.42475272309E+02  0.69811259276E+02  0.81727390561E+02  0.00000000000E+00 0. -1.
</event>
<event>
 7    1  0.2679104E-009  0.1323349E+03  0.7561462E-02  0.1224032E+00
          1   -1    0    0  501    0  0.00000000000E+00  0.00000000000E+00  0.30218530840E+03  0.30218530840E+03  0.00000000000E+00 0. -1.
         -1   -1    0    0    0  501 -0.00000000000E+00 -0.00000000000E+00 -0.77294653581E+02  0.77294653581E+02  0.00000000000E+00 0.  1.
         25    2    1    2    0    0  0.64642136138E+02 -0.39366008420E+02  0.21354233593E+03  0.25879683349E+03  0.12508870216E+03 0.  0.
          5    1    3    3  502    0  0.10048929891E+03 -0.42631241783E+02  0.14864465709E+03  0.18446741841E+03  0.41800000000E+01 0.  1.
         -5    1    3    3    0  502 -0.35847162776E+02  0.32652333633E+01  0.64897678840E+02  0.74329415084E+02  0.41800000000E+01 0.  1.
        -11    1    1    2    0    0 -0.61978157758E+02 -0.15802684836E+02 -0.14872144607E+01  0.63978345508E+02  0.00000000000E+00 0. -1.
         11    1    1    2    0    0 -0.26639783797E+01  0.55168693256E+02  0.12835533347E+02  0.56704782979E+02  0.00000000000E+00 0.  1.
</event>
<event>
 7    1  0.2679104E-009  0.9698907E+02  0.7561462E-02  0.1286758E+00
          2   -1    0    0  501    0  0.00000000000E+00  0.00000000000E+00  0.77837067231E+02  0.77837067231E+02  0.00000000000E+00 0. -1.
         -2   -1    0    0    0  501 -0.00000000000E+00 -0.00000000000E+00 -0.20260464725E+03  0.20260464725E+03  0.00000000000E+00 0.  1.
         25    2    1    2    0    0  0.58728517856E+02  0.60937455009E+01 -0.75553711864E+02  0.15760944236E+03  0.12508477286E+03 0.  0.
          5    1    3    3  502    0 -0.37274610849E+02  0.55598916504E+01 -0.46818970556E+01  0.38206041004E+02  0.41800000000E+01 0.  1.
         -5    1    3    3    0  502  0.96003128705E+02  0.53385385049E+00 -0.70871814808E+02  0.11940340136E+03  0.41800000000E+01 0.  1.
        -11    1    1    2    0    0 -0.16114569508E+02  0.29989886872E+01 -0.71873783162E+02  0.73719156191E+02  0.00000000000E+00 0.  1.
         11    1    1    2    0    0 -0.42613948348E+02 -0.90927341881E+01  0.22659915003E+02  0.49113115934E+02  0.00000000000E+00 0. -1.
</event>
<event>
 7    1  0.2862160E-009  0.1293254E+03  0.7561462E-02  0.1228460E+00
         -1   -1    0    0    0  501 -0.00000000000E+00  0.00000000000E+00  0.29168088876E+03  0.29168088876E+03  0.00000000000E+00 0.  1.
          1   -1    0    0  501    0  0.00000000000E+00 -0.00000000000E+00 -0.97185038773E+02  0.97185038773E+02  0.00000000000E+00 0. -1.
         25    2    1    2    0    0  0.76867216675E+02 -0.96276577016E+02  0.14612274686E+03  0.22841866882E+03  0.12508190451E+03 0.  0.
          5    1    3    3  502    0  0.24028167669E+02 -0.17500045488E+02 -0.20703415179E+02  0.36465164659E+02  0.41800000000E+01 0.  1.
         -5    1    3    3    0  502  0.52839049006E+02 -0.78776531528E+02  0.16682616204E+03  0.19195350416E+03  0.41800000000E+01 0.  1.
        -11    1    1    2    0    0 -0.44815912485E+02  0.16580163292E+02 -0.18852305220E+02  0.51369029957E+02  0.00000000000E+00 0.  1.
         11    1    1    2    0    0 -0.32051304189E+02  0.79696413724E+02  0.67225408347E+02  0.10907822875E+03  0.00000000000E+00 0. -1.
</event>
<event>
 7    1  0.2679104E-009  0.1610449E+03  0.7561462E-02  0.1187522E+00
         -1   -1    0    0    0  501 -0.00000000000E+00  0.00000000000E+00  0.55402251174E+02  0.55402251174E+02  0.00000000000E+00 0.  1.
          1   -1    0    0  501    0  0.00000000000E+00 -0.00000000000E+00 -0.56299438383E+03  0.56299438383E+03  0.00000000000E+00 0. -1.
         25    2    1    2    0    0 -0.90656558608E+02 -0.10024141810E+03 -0.21116927779E+03  0.28019134339E+03  0.12509105287E+03 0.  0.
          5    1    3    3  502    0 -0.11816441771E+03 -0.76669801724E+02 -0.13226564709E+03  0.19326862629E+03  0.41800000000E+01 0.  1.
         -5    1    3    3    0  502  0.27507859100E+02 -0.23571616377E+02 -0.78903630698E+02  0.86922717101E+02  0.41800000000E+01 0.  1.
        -11    1    1    2    0    0  0.72266597702E+02  0.41906098121E+02 -0.89487914268E+02  0.12242005147E+03  0.00000000000E+00 0.  1.
         11    1    1    2    0    0  0.18389960906E+02  0.58335319979E+02 -0.20693494060E+03  0.21578524013E+03  0.00000000000E+00 0. -1.
</event>
<event>
 7    1  0.2679104E-009  0.1604015E+03  0.7561462E-02  0.1188244E+00
         -1   -1    0    0    0  501 -0.00000000000E+00  0.00000000000E+00  0.38604101060E+02  0.38604101060E+02  0.00000000000E+00 0.  1.
          1   -1    0    0  501    0  0.00000000000E+00 -0.00000000000E+00 -0.11941962865E+04  0.11941962865E+04  0.00000000000E+00 0. -1.
         25    2    1    2    0    0  0.10443958670E+03 -0.65481075671E+02 -0.99705334969E+03  0.10124020745E+04  0.12508868793E+03 0.  0.
          5    1    3    3  502    0  0.13464567340E+02  0.31869144959E+02 -0.11000835894E+03  0.11539605024E+03  0.41800000000E+01 0. -1.
         -5    1    3    3    0  502  0.90975019364E+02 -0.97350220630E+02 -0.88704499075E+03  0.89700602430E+03  0.41800000000E+01 0. -1.
        -11    1    1    2    0    0 -0.11925440058E+03  0.45204091789E+02 -0.12581432941E+03  0.17914872999E+03  0.00000000000E+00 0.  1.
         11    1    1    2    0    0  0.14814813880E+02  0.20276983882E+02 -0.32724506364E+02  0.41249583058E+02  0.00000000000E+00 0. -1.
</event>
<event>
 7    1  0.2679104E-009  0.9089116E+02  0.7561462E-02  0.1300708E+00
          1   -1    0    0  501    0  0.00000000000E+00  0.00000000000E+00  0.24147961505E+03  0.24147961505E+03  0.00000000000E+00 0. -1.
         -1   -1    0    0    0  501 -0.00000000000E+00 -0.00000000000E+00 -0.52208500690E+02  0.52208500690E+02  0.00000000000E+00 0.  1.
         25    2    1    2    0    0  0.26758482356E+02 -0.97158182772E+01  0.10261189334E+03  0.16427733365E+03  0.12508968061E+03 0.  0.
          5    1    3    3  502    0  0.34361251679E+02  0.44180719311E+02  0.93325822770E+02  0.10890276935E+03  0.41800000000E+01 0. -1.
         -5    1    3    3    0  502 -0.76027693229E+01 -0.53896537588E+02  0.92860705693E+01  0.55374564305E+02  0.41800000000E+01 0. -1.
        -11    1    1    2    0    0  0.75753129148E+01 -0.22649180234E+02 -0.67009783727E+01  0.24804714112E+02  0.00000000000E+00 0.  1.
         11    1    1    2    0    0 -0.34333795271E+02  0.32364998512E+02  0.93360199394E+02  0.10460606798E+03  0.00000000000E+00 0. -1.
</event>
<event>
 7    1  0.2679104E-009  0.1909660E+03  0.7561462E-02  0.1157593E+00
         -1   -1    0    0    0  501 -0.00000000000E+00  0.00000000000E+00  0.30107881796E+03  0.30107881796E+03  0.00000000000E+00 0.  1.
          1   -1    0    0  501    0  0.00000000000E+00 -0.00000000000E+00 -0.14808089874E+03  0.14808089874E+03  0.00000000000E+00 0. -1.
         25    2    1    2    0    0 -0.15020302187E+02  0.16579136454E+03  0.43103259674E+01  0.20827878824E+03  0.12509631764E+03 0.  0.
          5    1    3    3  502    0  0.45664950160E+02  0.71005327278E+02 -0.31335479303E+02  0.90146707307E+02  0.41800000000E+01 0. -1.
         -5    1    3    3    0  502 -0.60685252347E+02  0.94786037257E+02  0.35645805271E+02  0.11813208093E+03  0.41800000000E+01 0. -1.
        -11    1    1    2    0    0 -0.31371744789E+02 -0.40862210222E+02  0.67208823251E+02  0.84681358740E+02  0.00000000000E+00 0.  1.
         11    1    1    2    0    0  0.46392046976E+02 -0.12492915431E+03  0.81478770009E+02  0.15619956973E+03  0.00000000000E+00 0. -1.
</event>
<event>
 7    1  0.2679104E-009  0.8763615E+02  0.7561462E-02  0.1308679E+00
          1   -1    0    0  501    0  0.00000000000E+00  0.00000000000E+00  0.43097939900E+03  0.43097939900E+03  0.00000000000E+00 0. -1.
         -1   -1    0    0    0  501 -0.00000000000E+00 -0.00000000000E+00 -0.38878179624E+02  0.38878179624E+02  0.00000000000E+00 0.  1.
         25    2    1    2    0    0  0.51868622708E+02  0.16146806028E+02  0.30396101702E+03  0.33315893860E+03  0.12510597561E+03 0.  0.
          5    1    3    3  502    0  0.83984651239E+02  0.23435913699E+02  0.27688717701E+03  0.29032162318E+03  0.41800000000E+01 0. -1.
         -5    1    3    3    0  502 -0.32116028531E+02 -0.72891076709E+01  0.27073840011E+02  0.42837315418E+02  0.41800000000E+01 0. -1.
        -11    1    1    2    0    0 -0.16008518030E+02 -0.16169520773E+01 -0.17752172340E+02  0.23958856532E+02  0.00000000000E+00 0.  1.
         11    1    1    2    0    0 -0.35860104678E+02 -0.14529853951E+02  0.10589237469E+03  0.11273978349E+03  0.00000000000E+00 0. -1.
</event>
<event>
 7    1  0.2679104E-009  0.1062112E+03  0.7561462E-02  0.1267751E+00
         -1   -1    0    0    0  501 -0.00000000000E+00  0.00000000000E+00  0.14924490498E+03  0.14924490498E+03  0.00000000000E+00 0.  1.
          1   -1    0    0  501    0  0.00000000000E+00 -0.00000000000E+00 -0.10631525880E+03  0.10631525880E+03  0.00000000000E+00 0. -1.
         25    2    1    2    0    0  0.32590699567E+02  0.35235876555E+02 -0.18201112655E+02  0.13521418303E+03  0.12509146292E+03 0.  0.
          5    1    3    3  502    0 -0.30112654129E+02  0.34481004090E+02 -0.47299389422E+02  0.65957685082E+02  0.41800000000E+01 0. -1.
         -5    1    3    3    0  502  0.62703353696E+02  0.75487246523E+00  0.29098276767E+02  0.69256497948E+02  0.41800000000E+01 0. -1.
        -11    1    1    2    0    0 -0.54715951052E+02 -0.52279911936E+02  0.46418804541E+02  0.88779107377E+02  0.00000000000E+00 0. -1.
         11    1    1    2    0    0  0.22125251485E+02  0.17044035381E+02  0.14711954301E+02  0.31566873375E+02  0.00000000000E+00 0.  1.
</event>
<event>
 7    1  0.2679104E-009  0.1022239E+03  0.7561462E-02  0.1275688E+00
         -1   -1    0    0    0  501 -0.00000000000E+00  0.00000000000E+00  0.85626682833E+02  0.85626682833E+02  0.00000000000E+00 0.  1.
          1   -1    0    0  501    0  0.00000000000E+00 -0.00000000000E+00 -0.20486065164E+03  0.20486065164E+03  0.00000000000E+00 0. -1.
         25    2    1    2    0    0 -0.54046477730E+02  0.52570257359E+02 -0.51746584740E+02  0.15495515991E+03  0.12509491930E+03 0.  0.
          5    1    3    3  502    0 -0.58715698360E+02  0.80217893589E+02 -0.41856526108E+01  0.99586323225E+02  0.41800000000E+01 0.  1.
         -5    1    3    3    0  502  0.46692206300E+01 -0.27647636229E+02 -0.47560932129E+02  0.55368836681E+02  0.41800000000E+01 0.  1.
        -11    1    1    2    0    0  0.31977394277E+02 -0.21669408609E+02  0.17530400975E+02  0.42419712076E+02  0.00000000000E+00 0.  1.
         11    1    1    2    0    0  0.22069083452E+02 -0.30900848750E+02 -0.85017785040E+02  0.93112462491E+02  0.00000000000E+00 0. -1.
</event>
<event>
 7    1  0.2679104E-009  0.1242261E+03  0.7561462E-02  0.1236284E+00
          1   -1    0    0  501    0  0.00000000000E+00  0.00000000000E+00  0.58784933096E+02  0.58784933096E+02  0.00000000000E+00 0. -1.
         -1   -1    0    0    0  501 -0.00000000000E+00 -0.00000000000E+00 -0.36663304331E+03  0.36663304331E+03  0.00000000000E+00 0.  1.
         25    2    1    2    0    0 -0.56613363336E+02 -0.78509871866E+02 -0.14342197212E+03  0.21350965702E+03  0.12509052189E+03 0.  0.
          5    1    3    3  502    0 -0.26185265868E+02 -0.79767225011E+02 -0.15839454505E+03  0.17931754693E+03  0.41800000000E+01 0.  1.
         -5    1    3    3    0  502 -0.30428097468E+02  0.12573531450E+01  0.14972572934E+02  0.34192110094E+02  0.41800000000E+01 0.  1.
        -11    1    1    2    0    0  0.73978641301E+02  0.26109924042E+02 -0.98409769777E+02  0.12585328875E+03  0.00000000000E+00 0.  1.
         11    1    1    2    0    0 -0.17365277965E+02  0.52399947824E+02 -0.66016368323E+02  0.86055030633E+02  0.00000000000E+00 0. -1.
</event>
<event>
 7    1  0.2679104E-009  0.7115331E+02  0.7561462E-02  0.1356215E+00
         -1   -1    0    0    0  501 -0.00000000000E+00  0.00000000000E+00  0.74766467335E+02  0.74766467335E+02  0.00000000000E+00 0.  1.
          1   -1    0    0  501    0  0.00000000000E+00 -0.00000000000E+00 -0.16838022617E+03  0.16838022617E+03  0.00000000000E+00 0. -1.
         25    2    1    2    0    0  0.27929396729E+02  0.97058082999E+01 -0.62904405224E+02  0.14310581029E+03  0.12509218530E+03 0.  0.
          5    1    3    3  502    0 -0.59546943257E+01 -0.12698167055E+02 -0.91877687497E+02  0.93035926882E+02  0.41800000000E+01 0.  1.
         -5    1    3    3    0  502  0.33884091055E+02  0.22403975355E+02  0.28973282273E+02  0.50069883403E+02  0.41800000000E+01 0.  1.
        -11    1    1    2    0    0  0.29077754386E+02 -0.43978917085E+00 -0.30697906268E+02  0.42285584587E+02  0.00000000000E+00 0. -1.
         11    1    1    2    0    0 -0.57007151115E+02 -0.92660191290E+01 -0.11447340147E-01  0.57755298630E+02  0.00000000000E+00 0.  1.
</event>
<event>
 7    1  0.2679104E-009  0.8542862E+02  0.7561462E-02  0.1314315E+00
         -3   -1    0    0    0  501 -0.00000000000E+00  0.00000000000E+00  0.25975484223E+02  0.25975484223E+02  0.00000000000E+00 0.  1.
          3   -1    0    0  501    0  0.00000000000E+00 -0.00000000000E+00 -0.54111949592E+03  0.54111949592E+03  0.00000000000E+00 0. -1.
         25    2    1    2    0    0 -0.23410907304E+02  0.38822990156E+02 -0.23677379118E+03  0.27159656751E+03  0.12509025600E+03 0.  0.
          5    1    3    3  502    0 -0.60793561462E+02  0.32946906953E+02 -0.62788529836E+02  0.93494532845E+02  0.41800000000E+01 0.  1.
         -5    1    3    3    0  502  0.37382654158E+02  0.58760832029E+01 -0.17398526134E+03  0.17810203466E+03  0.41800000000E+01 0.  1.
        -11    1    1    2    0    0  0.96262501426E+01 -0.46668477867E+02 -0.27523651349E+03  0.27933089675E+03  0.00000000000E+00 0. -1.
         11    1    1    2    0    0  0.13784657162E+02  0.78454877114E+01 -0.31337070335E+01  0.16167515897E+02  0.00000000000E+00 0.  1.
</event>
<event>
 7    1  0.2679104E-009  0.1113769E+03  0.7561462E-02  0.1258041E+00
          2   -1    0    0  501    0  0.00000000000E+00  0.00000000000E+00  0.65229321899E+03  0.65229321899E+03  0.00000000000E+00 0. -1.
         -2   -1    0    0    0  501 -0.00000000000E+00 -0.00000000000E+00 -0.28340902731E+02  0.28340902731E+02  0.00000000000E+00 0.  1.
         25    2    1    2    0    0  0.30309298777E+02  0.71575940470E+02  0.41798477821E+03  0.44317088306E+03  0.12508951968E+03 0.  0.
          5    1    3    3  502    0 -0.38178443830E+01 -0.33690511962E+02  0.68250441032E+02  0.76323139565E+02  0.41800000000E+01 0. -1.
         -5    1    3    3    0  502  0.34127143160E+02  0.10526645243E+03  0.34973433718E+03  0.36684774350E+03  0.41800000000E+01 0. -1.
        -11    1    1    2    0    0 -0.18197545217E+02 -0.37377511411E+02  0.19525981727E+03  0.19963623231E+03  0.00000000000E+00 0. -1.
         11    1    1    2    0    0 -0.12111753559E+02 -0.34198429059E+02  0.10707720771E+02  0.37827006338E+02  0.00000000000E+00 0.  1.
</event>
<event>
 7    1  0.2679104E-009  0.6340461E+02  0.7561462E-02  0.1384075E+00
          2   -1    0    0  501    0  0.00000000000E+00  0.00000000000E+00  0.16639706521E+03  0.16639706521E+03  0.00000000000E+00 0.  1.
         -2   -1    0    0    0  501 -0.00000000000E+00 -0.00000000000E+00 -0.87979380513E+02  0.87979380513E+02  0.00000000000E+00 0. -1.
         25    2    1    2    0    0 -0.56184301589E+01  0.23158763852E+02 -0.96326194023E+01  0.12769613677E+03  0.12508245636E+03 0.  0.
          5    1    3    3  502    0  0.79224112399E+01  0.19821485945E+02 -0.65993210279E+02  0.69485481273E+02  0.41800000000E+01 0.  1.
         -5    1    3    3    0  502 -0.13540841399E+02  0.33372779065E+01  0.56360590876E+02  0.58210655498E+02  0.41800000000E+01 0.  1.
        -11    1    1    2    0    0 -0.24901864683E+02  0.23830733885E+02  0.40592294760E+02  0.53251677308E+02  0.00000000000E+00 0.  1.
         11    1    1    2    0    0  0.30520294842E+02 -0.46989497737E+02  0.47458009343E+02  0.73428631647E+02  0.00000000000E+00 0. -1.
</event>
<event>
 7    1  0.2679104E-009  0.2316269E+03  0.7561462E-02  0.1125500E+00
         -1   -1    0    0    0  501 -0.00000000000E+00  0.00000000000E+00  0.27319656222E+02  0.27319656222E+02  0.00000000000E+00 0.  1.
          1   -1    0    0  501    0  0.00000000000E+00 -0.00000000000E+00 -0.20096447310E+04  0.20096447310E+04  0.00000000000E+00 0. -1.
         25    2    1    2    0    0  0.11311070542E+03  0.16037331185E+03 -0.91948656505E+03  0.94848116200E+03  0.12508933020E+03 0.  0.
          5    1    3    3  502    0  0.67353335292E+02  0.17217346368E+03 -0.75220352553E+03  0.77460169738E+03  0.41800000000E+01 0. -1.
         -5    1    3    3    0  502  0.45757370131E+02 -0.11800151832E+02 -0.16728303952E+03  0.17387946462E+03  0.41800000000E+01 0. -1.
        -11    1    1    2    0    0 -0.91536420817E+02 -0.26509773487E+02 -0.34334765371E+03  0.35632751190E+03  0.00000000000E+00 0. -1.
         11    1    1    2    0    0 -0.21574284606E+02 -0.13386353836E+03 -0.71949085603E+03  0.73215571334E+03  0.00000000000E+00 0.  1.
</event>
<event>
 7    1  0.2679104E-009  0.3247720E+03  0.7561462E-02  0.1073474E+00
          2   -1    0    0  501    0  0.00000000000E+00  0.00000000000E+00  0.15541958219E+04  0.15541958219E+04  0.00000000000E+00 0.  1.
         -2   -1    0    0    0  501 -0.00000000000E+00 -0.00000000000E+00 -0.81133422234E+02  0.81133422234E+02  0.00000000000E+00 0. -1.
         25    2    1    2    0    0  0.60789017737E+02  0.30129842185E+03  0.42418770210E+03  0.53857045941E+03  0.12508752718E+03 0.  0.
          5    1    3    3  502    0  0.73665410906E+02  0.30680401930E+03  0.41486790972E+03  0.52123713791E+03  0.41800000000E+01 0.  1.
         -5    1    3    3    0  502 -0.12876393170E+02 -0.55055974495E+01  0.93197923779E+01  0.17333321502E+02  0.41800000000E+01 0.  1.
        -11    1    1    2    0    0 -0.47826208515E+01 -0.22331827119E+03  0.77475867655E+03  0.80631565196E+03  0.00000000000E+00 0.  1.
         11    1    1    2    0    0 -0.56006396885E+02 -0.77980150657E+02  0.27411602103E+03  0.29044313278E+03  0.00000000000E+00 0. -1.
</event>
<event>
 7    1  0.2679104E-009  0.1540853E+03  0.7561462E-02  0.1195541E+00
         -2   -1    0    0    0  501 -0.00000000000E+00  0.00000000000E+00  0.18107591626E+03  0.18107591626E+03  0.00000000000E+00 0.  1.
          2   -1    0    0  501    0  0.00000000000E+00 -0.00000000000E+00 -0.18204148485E+03  0.18204148485E+03  0.00000000000E+00 0. -1.
         25    2    1    2    0    0  0.12439898351E+03  0.31120917918E+02  0.67490742806E+02  0.19143230201E+03  0.12509079605E+03 0.  0.
          5    1    3    3  502    0  0.79801244467E+02  0.61644890042E+02 -0.48449328799E+01  0.10104096625E+03  0.41800000000E+01 0. -1.
         -5    1    3    3    0  502  0.44597739047E+02 -0.30523972124E+02  0.72335675686E+02  0.90391335753E+02  0.41800000000E+01 0. -1.
        -11    1    1    2    0    0 -0.53551804556E+02 -0.56442830022E+02 -0.14608813268E+02  0.79164425452E+02  0.00000000000E+00 0. -1.
         11    1    1    2    0    0 -0.70847178958E+02  0.25321912104E+02 -0.53847498122E+02  0.92520673652E+02  0.00000000000E+00 0.  1.
</event>
<event>
 7    1  0.2679104E-009  0.1178448E+03  0.7561462E-02  0.1246695E+00
          2   -1    0    0  501    0  0.00000000000E+00  0.00000000000E+00  0.21999293239E+03  0.21999293239E+03  0.00000000000E+00 0. -1.
         -2   -1    0    0    0  501 -0.00000000000E+00 -0.00000000000E+00 -0.11173728835E+03  0.11173728835E+03  0.00000000000E+00 0.  1.
         25    2    1    2    0    0  0.58026148690E+02  0.86908158460E+02  0.41797468536E+02  0.16827674662E+03  0.12509985268E+03 0.  0.
          5    1    3    3  502    0 -0.37951316136E+00  0.59306364690E+01  0.65232082531E+02  0.65635458941E+02  0.41800000000E+01 0. -1.
         -5    1    3    3    0  502  0.58405661851E+02  0.80977521991E+02 -0.23434613995E+02  0.10264128768E+03  0.41800000000E+01 0. -1.
        -11    1    1    2    0    0 -0.71848784307E+02 -0.89141131778E+02  0.21665994878E+02  0.11652383668E+03  0.00000000000E+00 0.  1.
         11    1    1    2    0    0  0.13822635617E+02  0.22329733178E+01  0.44792180618E+02  0.46929637435E+02  0.00000000000E+00 0. -1.
</event>
<event>
 7    1  0.2679104E-009  0.1803876E+03  0.7561462E-02  0.1167428E+00
          4   -1    0    0  501    0  0.00000000000E+00  0.00000000000E+00  0.61421091286E+02  0.61421091286E+02  0.00000000000E+00 0. -1.
         -4   -1    0    0    0  501 -0.00000000000E+00 -0.00000000000E+00 -0.60403206306E+03  0.60403206306E+03  0.00000000000E+00 0.  1.
         25    2    1    2    0    0 -0.76595569930E+02 -0.13534482759E+03 -0.32343374639E+03  0.38005379112E+03  0.12508553934E+03 0.  0.
          5    1    3    3  502    0 -0.42481264897E+02 -0.47613746459E+01 -0.17145921977E+03  0.17675707906E+03  0.41800000000E+01 0. -1.
         -5    1    3    3    0  502 -0.34114305033E+02 -0.13058345295E+03 -0.15197452662E+03  0.20329671206E+03  0.41800000000E+01 0. -1.
        -11    1    1    2    0    0 -0.19416380919E+02  0.52516689628E+02 -0.67768017084E+02  0.87906215235E+02  0.00000000000E+00 0.  1.
         11    1    1    2    0    0  0.96011950849E+02  0.82828137965E+02 -0.15140920831E+03  0.19749314799E+03  0.00000000000E+00 0. -1.
</event>
<event>
 7    1  0.2679104E-009  0.1525513E+03  0.7561462E-02  0.1197373E+00
          2   -1    0    0  501    0  0.00000000000E+00  0.00000000000E+00  0.63797754065E+03  0.63797754065E+03  0.00000000000E+00 0. -1.
         -2   -1    0    0    0  501 -0.00000000000E+00 -0.00000000000E+00 -0.51250439010E+02  0.51250439010E+02  0.00000000000E+00 0.  1.
         25    2    1    2    0    0 -0.24386644080E+02 -0.11114634258E+03  0.48512557374E+03  0.51375343491E+03  0.12509017434E+03 0.  0.
          5    1    3    3  502    0  0.49306261502E+02 -0.41976121111E+02  0.23897533572E+03  0.24762832158E+03  0.41800000000E+01 0.  1.
         -5    1    3    3    0  502 -0.73692905582E+02 -0.69170221472E+02  0.24615023801E+03  0.26612511333E+03  0.41800000000E+01 0.  1.
        -11    1    1    2    0    0  0.53111984132E+02  0.57996706831E+02  0.77552269908E+02  0.11044842882E+03  0.00000000000E+00 0.  1.
         11    1    1    2    0    0 -0.28725340052E+02  0.53149635753E+02  0.24049257997E+02  0.65026115922E+02  0.00000000000E+00 0. -1.
</event>
<event>
 7    1  0.2679104E-009  0.2799408E+03  0.7561462E-02  0.1095721E+00
         -1   -1    0    0    0  501 -0.00000000000E+00  0.00000000000E+00  0.64949189277E+02  0.64949189277E+02  0.00000000000E+00 0.  1.
          1   -1    0    0  501    0  0.00000000000E+00 -0.00000000000E+00 -0.15466985879E+04  0.15466985879E+04  0.00000000000E+00 0. -1.
         25    2    1    2    0    0  0.26816933827E+03  0.63348042644E+02 -0.47555852273E+03  0.56367640080E+03  0.12508959902E+03 0.  0.
          5    1    3    3  502    0  0.15137196730E+03  0.24393837561E+02 -0.37326398323E+03  0.40354926016E+03  0.41800000000E+01 0. -1.
         -5    1    3    3    0  502  0.11679737097E+03  0.38954205083E+02 -0.10229453950E+03  0.16012714065E+03  0.41800000000E+01 0. -1.
        -11    1    1    2    0    0 -0.14826859792E+03 -0.12375773809E+01 -0.39183804963E+03  0.41895365599E+03  0.00000000000E+00 0.  1.
         11    1    1    2    0    0 -0.11990074035E+03 -0.62110465263E+02 -0.61435282626E+03  0.62901772039E+03  0.00000000000E+00 0. -1.
</event>
<event>
 7    1  0.2679104E-009  0.3172932E+03  0.7561462E-02  0.1076902E+00
          1   -1    0    0  501    0  0.00000000000E+00  0.00000000000E+00  0.78156514386E+03  0.78156514386E+03  0.00000000000E+00 0. -1.
         -1   -1    0    0    0  501 -0.00000000000E+00 -0.00000000000E+00 -0.14897121343E+03  0.14897121343E+03  0.00000000000E+00 0.  1.
         25    2    1    2    0    0 -0.22114249889E+03  0.20836363958E+03  0.17125795550E+03  0.37053732134E+03  0.12509679481E+03 0.  0.
          5    1    3    3  502    0 -0.61979738062E+02  0.14341428988E+03  0.89969307524E+02  0.18033606175E+03  0.41800000000E+01 0.  1.
         -5    1    3    3    0  502 -0.15916276082E+03  0.64949349705E+02  0.81288647976E+02  0.19020125959E+03  0.41800000000E+01 0.  1.
        -11    1    1    2    0    0  0.18043418501E+03 -0.18887087081E+03  0.32842023216E+03  0.41962906221E+03  0.00000000000E+00 0.  1.
         11    1    1    2    0    0  0.40708313881E+02 -0.19492768775E+02  0.13291574277E+03  0.14036997375E+03  0.00000000000E+00 0. -1.
</event>
<event>
 7    1  0.2679104E-009  0.1192960E+03  0.7561462E-02  0.1244263E+00
          2   -1    0    0  501    0  0.00000000000E+00  0.00000000000E+00  0.14417524579E+04  0.14417524579E+04  0.00000000000E+00 0. -1.
         -2   -1    0    0    0  501 -0.00000000000E+00 -0.00000000000E+00 -0.15872141008E+02  0.15872141008E+02  0.00000000000E+00 0.  1.
         25    2    1    2    0    0  0.71231609215E+02  0.48397023515E+02  0.10974275574E+04  0.11078860016E+04  0.12509170487E+03 0.  0.
          5    1    3    3  502    0 -0.61624042666E+01 -0.18513020064E+02  0.58437979551E+03  0.58472038183E+03  0.41800000000E+01 0. -1.
         -5    1    3    3    0  502  0.77394013481E+02  0.66910043579E+02  0.51304776193E+03  0.52316561974E+03  0.41800000000E+01 0. -1.
        -11    1    1    2    0    0 -0.42305927099E+02 -0.68856702447E+02  0.18330360254E+03  0.20032785040E+03  0.00000000000E+00 0.  1.
         11    1    1    2    0    0 -0.28925682116E+02  0.20459678932E+02  0.14514915693E+03  0.14941074695E+03  0.00000000000E+00 0. -1.
</event>
<event>
 7    1  0.2679104E-009  0.2285163E+03  0.7561462E-02  0.1127688E+00
          2   -1    0    0  501    0  0.00000000000E+00  0.00000000000E+00  0.68577557647E+03  0.68577557647E+03  0.00000000000E+00 0. -1.
         -2   -1    0    0    0  501 -0.00000000000E+00 -0.00000000000E+00 -0.20176027790E+03  0.20176027790E+03  0.00000000000E+00 0.  1.
         25    2    1    2    0    0 -0.30758320584E+02  0.22035289697E+03 -0.85426904734E+02  0.26915597145E+03  0.12508280227E+03 0.  0.
          5    1    3    3  502    0 -0.52989530341E+02  0.13395686023E+03  0.20658756291E+01  0.14413213025E+03  0.41800000000E+01 0. -1.
         -5    1    3    3    0  502  0.22231209756E+02  0.86396036747E+02 -0.87492780363E+02  0.12502384120E+03  0.41800000000E+01 0. -1.
        -11    1    1    2    0    0  0.34377119115E+02 -0.20104605743E+03  0.56113170760E+03  0.59705116766E+03  0.00000000000E+00 0. -1.
         11    1    1    2    0    0 -0.36187985307E+01 -0.19306839546E+02  0.83104957020E+01  0.21328715265E+02  0.00000000000E+00 0.  1.
</event>
<event>
 7    1  0.3356551E-009  0.9327434E+02  0.7561462E-02  0.1295111E+00
         -2   -1    0    0    0  501 -0.00000000000E+00  0.00000000000E+00  0.99584373946E+01  0.99584373946E+01  0.00000000000E+00 0. -1.
          2   -1    0    0  501    0  0.00000000000E+00 -0.00000000000E+00 -0.13957677232E+04  0.13957677232E+04  0.00000000000E+00 0.  1.
         25    2    1    2    0    0  0.10185220521E+02  0.50396799798E+01 -0.10400589468E+04  0.10476167659E+04  0.12509651548E+03 0.  0.
          5    1    3    3  502    0 -0.40512252939E+02  0.20430995896E+02 -0.17201869551E+03  0.17795103887E+03  0.41800000000E+01 0. -1.
         -5    1    3    3    0  502  0.50697473460E+02 -0.15391315916E+02 -0.86804025132E+03  0.86966572701E+03  0.41800000000E+01 0. -1.
        -11    1    1    2    0    0 -0.48909326963E+02 -0.12136453589E+01 -0.25021514263E+03  0.25495335417E+03  0.00000000000E+00 0. -1.
         11    1    1    2    0    0  0.38724106442E+02 -0.38260346209E+01 -0.95535196361E+02  0.10315604056E+03  0.00000000000E+00 0.  1.
</event>
<event>
 7    1  0.2679104E-009  0.9780447E+02  0.7561462E-02  0.1284982E+00
         -2   -1    0    0    0  501 -0.00000000000E+00  0.00000000000E+00  0.29146641014E+02  0.29146641014E+02  0.00000000000E+00 0.  1.
          2   -1    0    0  501    0  0.00000000000E+00 -0.00000000000E+00 -0.41624891982E+03  0.41624891982E+03  0.00000000000E+00 0. -1.
         25    2    1    2    0    0 -0.40644584946E+00 -0.10758713171E+02 -0.24999578461E+03  0.27975168095E+03  0.12508875075E+03 0.  0.
          5    1    3    3  502    0  0.58878411115E+02 -0.10921525450E+02 -0.82526260925E+02  0.10204902330E+03  0.41800000000E+01 0. -1.
         -5    1    3    3    0  502 -0.59284856965E+02  0.16281227925E+00 -0.16746952368E+03  0.17770265765E+03  0.41800000000E+01 0. -1.
        -11    1    1    2    0    0  0.19196032769E+02 -0.27492664637E+02 -0.15796307786E+02  0.37065585420E+02  0.00000000000E+00 0.  1.
         11    1    1    2    0    0 -0.18789586919E+02  0.38251377807E+02 -0.12131018641E+03  0.12857829446E+03  0.00000000000E+00 0. -1.
</event>
<event>
 7    1  0.2679104E-009  0.1379282E+03  0.7561462E-02  0.1216144E+00
         -2   -1    0    0    0  501 -0.00000000000E+00  0.00000000000E+00  0.67017127504E+02  0.67017127504E+02  0.00000000000E+00 0.  1.
          2   -1    0    0  501    0  0.00000000000E+00 -0.00000000000E+00 -0.54238434823E+03  0.54238434823E+03  0.00000000000E+00 0. -1.
         25    2    1    2    0    0 -0.33610060075E+02  0.10908607359E+03 -0.79219822633E+02  0.18695651764E+03  0.12509017388E+03 0.  0.
          5    1    3    3  502    0 -0.56325404245E+02  0.80259931845E+02 -0.10359488421E+03  0.14270101702E+03  0.41800000000E+01 0.  1.
         -5    1    3    3    0  502  0.22715344170E+02  0.28826141742E+02  0.24375061579E+02  0.44255500624E+02  0.41800000000E+01 0.  1.
        -11    1    1    2    0    0  0.57882496511E+02 -0.98604992487E+02 -0.26428449308E+03  0.28795767264E+03  0.00000000000E+00 0.  1.
         11    1    1    2    0    0 -0.24272436436E+02 -0.10481081101E+02 -0.13186290501E+03  0.13448728546E+03  0.00000000000E+00 0. -1.
</event>
<event>
 7    1  0.2679104E-009  0.1105510E+03  0.7561462E-02  0.1259553E+00
          4   -1    0    0  501    0  0.00000000000E+00  0.00000000000E+00  0.64847450080E+02  0.64847450080E+02  0.00000000000E+00 0. -1.
         -4   -1    0    0    0  501 -0.00000000000E+00 -0.00000000000E+00 -0.21877800910E+03  0.21877800910E+03  0.00000000000E+00 0.  1.
         25    2    1    2    0    0 -0.18346282107E+02 -0.45531995723E+02 -0.98680836331E+02  0.16672197377E+03  0.12509420601E+03 0.  0.
          5    1    3    3  502    0  0.34063170881E+02  0.15428901069E+02 -0.73165211711E+02  0.82273757684E+02  0.41800000000E+01 0.  1.
         -5    1    3    3    0  502 -0.52409452988E+02 -0.60960896792E+02 -0.25515624620E+02  0.84448216086E+02  0.41800000000E+01 0.  1.
        -11    1    1    2    0    0 -0.33953455917E+02  0.49909063798E+00 -0.16507940136E+02  0.37757096654E+02  0.00000000000E+00 0.  1.
         11    1    1    2    0    0  0.52299738025E+02  0.45032905085E+02 -0.38741782554E+02  0.79146388757E+02  0.00000000000E+00 0. -1.
</event>
<event>
 7    1  0.2679104E-009  0.9951243E+02  0.7561462E-02  0.1281325E+00
         -2   -1    0    0    0  501 -0.00000000000E+00  0.00000000000E+00  0.17621897737E+02  0.17621897737E+02  0.00000000000E+00 0.  1.
          2   -1    0    0  501    0  0.00000000000E+00 -0.00000000000E+00 -0.67024447883E+03  0.67024447883E+03  0.00000000000E+00 0. -1.
         25    2    1    2    0    0 -0.13777132988E+02 -0.14816081128E+02 -0.39187111016E+03  0.41184982382E+03  0.12509190520E+03 0.  0.
          5    1    3    3  502    0  0.47237016712E+02  0.16765127044E+02 -0.99555643433E+02  0.11154014422E+03  0.41800000000E+01 0. -1.
         -5    1    3    3    0  502 -0.61014149701E+02 -0.31581208172E+02 -0.29231546673E+03  0.30030967960E+03  0.41800000000E+01 0. -1.
        -11    1    1    2    0    0  0.20233318357E+02 -0.29136432243E+02 -0.54445207948E+02  0.64981532177E+02  0.00000000000E+00 0. -1.
         11    1    1    2    0    0 -0.64561853687E+01  0.43952513371E+02 -0.20630626298E+03  0.21103502057E+03  0.00000000000E+00 0.  1.
</event>
<event>
 7    1  0.2679104E-009  0.8022515E+02  0.7561462E-02  0.1328414E+00
         -1   -1    0    0    0  501 -0.00000000000E+00  0.00000000000E+00  0.28522343748E+02  0.28522343748E+02  0.00000000000E+00 0.  1.
          1   -1    0    0  501    0  0.00000000000E+00 -0.00000000000E+00 -0.42073755184E+03  0.42073755184E+03  0.00000000000E+00 0. -1.
         25    2    1    2    0    0 -0.22414148763E+01  0.88155090294E+01 -0.24443844394E+03  0.27473765993E+03  0.12509153356E+03 0.  0.
          5    1    3    3  502    0 -0.14081476619E+02 -0.45065042042E+02 -0.37233428930E+02  0.60273929920E+02  0.41800000000E+01 0. -1.
         -5    1    3    3    0  502  0.11840061743E+02  0.53880551072E+02 -0.20720501501E+03  0.21446373001E+03  0.41800000000E+01 0. -1.
        -11    1    1    2    0    0  0.90573249990E+01  0.23246712733E+02 -0.13811355883E+03  0.14034885081E+03  0.00000000000E+00 0. -1.
         11    1    1    2    0    0 -0.68159101227E+01 -0.32062221762E+02 -0.96632053209E+01  0.34173384852E+02  0.00000000000E+00 0.  1.
</event>
<event>
 7    1  0.2679104E-009  0.1447836E+03  0.7561462E-02  0.1207033E+00
          2   -1    0    0  501    0  0.00000000000E+00  0.00000000000E+00  0.11560619235E+03  0.11560619235E+03  0.00000000000E+00 0. -1.
         -2   -1    0    0    0  501 -0.00000000000E+00 -0.00000000000E+00 -0.30998802800E+03  0.30998802800E+03  0.00000000000E+00 0.  1.
         25    2    1    2    0    0  0.11400314130E+03  0.63350896486E+02 -0.19990914034E+03  0.26947981713E+03  0.12508259325E+03 0.  0.
          5    1    3    3  502    0  0.25402028240E+02  0.99026924132E+00 -0.14624927260E+03  0.14850106332E+03  0.41800000000E+01 0. -1.
         -5    1    3    3    0  502  0.88601113060E+02  0.62360627245E+02 -0.53659867746E+02  0.12097875381E+03  0.41800000000E+01 0. -1.
        -11    1    1    2    0    0 -0.88523904980E+02 -0.15581626186E+01 -0.38440567647E+01  0.88621026828E+02  0.00000000000E+00 0.  1.
         11    1    1    2    0    0 -0.25479236320E+02 -0.61792733868E+02  0.93713614549E+01  0.67493376400E+02  0.00000000000E+00 0. -1.
</event>
<event>
 7    1  0.2679104E-009  0.2759306E+03  0.7561462E-02  0.1097933E+00
          1   -1    0    0  501    0  0.00000000000E+00  0.00000000000E+00  0.11684414305E+03  0.11684414305E+03  0.00000000000E+00 0. -1.
         -1   -1    0    0    0  501 -0.00000000000E+00 -0.00000000000E+00 -0.71636855141E+03  0.71636855141E+03  0.00000000000E+00 0.  1.
         25    2    1    2    0    0  0.25291779079E+03  0.57475186512E+02 -0.40459074838E+03  0.49660015024E+03  0.12508888673E+03 0.  0.
          5    1    3    3  502    0  0.13731626778E+03 -0.25983454879E+02 -0.15206058596E+03  0.20656909626E+03  0.41800000000E+01 0. -1.
         -5    1    3    3    0  502  0.11560152300E+03  0.83458641391E+02 -0.25253016242E+03  0.29003105399E+03  0.41800000000E+01 0. -1.
        -11    1    1    2    0    0 -0.24457170079E+03 -0.69965338858E+02 -0.16525145470E+03  0.30334552700E+03  0.00000000000E+00 0. -1.
         11    1    1    2    0    0 -0.83460899917E+01  0.12490152346E+02 -0.29682205286E+02  0.33267017216E+02  0.00000000000E+00 0.  1.
</event>
<event>
 7    1  0.2679104E-009  0.1220438E+03  0.7561462E-02  0.1239763E+00
         -1   -1    0    0    0  501 -0.00000000000E+00  0.00000000000E+00  0.24716375501E+03  0.24716375501E+03  0.00000000000E+00 0.  1.
          1   -1    0    0  501    0  0.00000000000E+00 -0.00000000000E+00 -0.64551837755E+02  0.64551837755E+02  0.00000000000E+00 0. -1.
         25    2    1    2    0    0  0.46478802456E+02  0.39207450130E+02  0.77843565616E+02  0.15939143032E+03  0.12509398118E+03 0.  0.
          5    1    3    3  502    0 -0.38630847526E+02  0.34872466796E+02  0.41310179366E+02  0.66576532204E+02  0.41800000000E+01 0.  1.
         -5    1    3    3    0  502  0.85109649982E+02  0.43349833342E+01  0.36533386249E+02  0.92814898111E+02  0.41800000000E+01 0.  1.
        -11    1    1    2    0    0 -0.16797188890E+02 -0.65059873364E+02  0.45402167432E+02  0.81094324612E+02  0.00000000000E+00 0.  1.
         11    1    1    2    0    0 -0.29681613566E+02  0.25852423233E+02  0.59366184202E+02  0.71229837832E+02  0.00000000000E+00 0. -1.
</event>
<event>
 7    1  0.2741178E-009  0.1669175E+03  0.7561462E-02  0.1181101E+00
          2   -1    0    0  501    0  0.00000000000E+00  0.00000000000E+00  0.83198978686E+03  0.83198978686E+03  0.00000000000E+00 0. -1.
         -2   -1    0    0    0  501 -0.00000000000E+00 -0.00000000000E+00 -0.40323826946E+02  0.40323826946E+02  0.00000000000E+00 0.  1.
         25    2    1    2    0    0  0.12326514025E+03  0.79401707500E+02  0.44366420590E+03  0.48371938582E+03  0.12509033002E+03 0.  0.
          5    1    3    3  502    0  0.12910174206E+03  0.96117251587E+02  0.43445410830E+03  0.46332885781E+03  0.41800000000E+01 0. -1.
         -5    1    3    3    0  502 -0.58366018092E+01 -0.16715544087E+02  0.92100975987E+01  0.20390528012E+02  0.41800000000E+01 0. -1.
        -11    1    1    2    0    0 -0.55613165913E+02 -0.78481742250E+01  0.51621876677E+02  0.76283918444E+02  0.00000000000E+00 0. -1.
         11    1    1    2    0    0 -0.67651974342E+02 -0.71553533275E+02  0.29637987734E+03  0.31231030955E+03  0.00000000000E+00 0.  1.
</event>
<event>
 7    1  0.2679104E-009  0.7294311E+02  0.7561462E-02  0.1350361E+00
         -3   -1    0    0    0  501 -0.00000000000E+00  0.00000000000E+00  0.74966880710E+02  0.74966880710E+02  0.00000000000E+00 0.  1.
          3   -1    0    0  501    0  0.00000000000E+00 -0.00000000000E+00 -0.16881159809E+03  0.16881159809E+03  0.00000000000E+00 0. -1.
         25    2    1    2    0    0  0.25003974958E+02 -0.40324802053E+01 -0.72871472840E+02  0.14696733057E+03  0.12509070725E+03 0.  0.
          5    1    3    3  502    0 -0.84583259681E+01 -0.18565615637E+02  0.30689789927E+02  0.37088555754E+02  0.41800000000E+01 0.  1.
         -5    1    3    3    0  502  0.33462300927E+02  0.14533135431E+02 -0.10356126277E+03  0.10987877481E+03  0.41800000000E+01 0.  1.
        -11    1    1    2    0    0  0.10463741690E+02 -0.34451137723E+02 -0.25739832183E+02  0.44259572314E+02  0.00000000000E+00 0. -1.
         11    1    1    2    0    0 -0.35467716649E+02  0.38483617929E+02  0.47665876477E+01  0.52551575913E+02  0.00000000000E+00 0.  1.
</event>
<event>
 7    1  0.2679104E-009  0.9738621E+02  0.7561462E-02  0.1285890E+00
         -2   -1    0    0    0  501 -0.00000000000E+00  0.00000000000E+00  0.20204118429E+02  0.20204118429E+02  0.00000000000E+00 0. -1.
          2   -1    0    0  501    0  0.00000000000E+00 -0.00000000000E+00 -0.84740931318E+03  0.84740931318E+03  0.00000000000E+00 0.  1.
         25    2    1    2    0    0  0.13085220389E+02 -0.61203671815E+02 -0.57547131668E+03  0.59222568167E+03  0.12508760642E+03 0.  0.
          5    1    3    3  502    0 -0.50567051636E+02 -0.29903998989E+02 -0.15538078023E+03  0.16616839390E+03  0.41800000000E+01 0. -1.
         -5    1    3    3    0  502  0.63652272025E+02 -0.31299672826E+02 -0.42009053645E+03  0.42605728778E+03  0.41800000000E+01 0. -1.
        -11    1    1    2    0    0 -0.53807778117E+01  0.54021656709E+02 -0.25764981128E+03  0.26330726806E+03  0.00000000000E+00 0.  1.
         11    1    1    2    0    0 -0.77044425770E+01  0.71820151053E+01  0.59159332081E+01  0.12080481866E+02  0.00000000000E+00 0. -1.
</event>
<event>
 7    1  0.2679104E-009  0.1501442E+03  0.7561462E-02  0.1200296E+00
          2   -1    0    0  501    0  0.00000000000E+00  0.00000000000E+00  0.74403342749E+03  0.74403342749E+03  0.00000000000E+00 0. -1.
         -2   -1    0    0    0  501 -0.00000000000E+00 -0.00000000000E+00 -0.36122067119E+02  0.36122067119E+02  0.00000000000E+00 0.  1.
         25    2    1    2    0    0  0.61233615505E+01  0.12568134085E+03  0.30292795735E+03  0.35106544727E+03  0.12509318897E+03 0.  0.
          5    1    3    3  502    0  0.53244955352E+02  0.87162866397E+02  0.11690752040E+03  0.15529723525E+03  0.41800000000E+01 0. -1.
         -5    1    3    3    0  502 -0.47121593801E+02  0.38518474458E+02  0.18602043694E+03  0.19576821202E+03  0.41800000000E+01 0. -1.
        -11    1    1    2    0    0 -0.28046383479E+02 -0.41634068945E+02  0.98756769722E+02  0.11078309839E+03  0.00000000000E+00 0. -1.
         11    1    1    2    0    0  0.21923021929E+02 -0.84047271910E+02  0.30622663331E+03  0.31830694895E+03  0.00000000000E+00 0.  1.
</event>
<event>
 7    1  0.2679104E-009  0.6648078E+02  0.7561462E-02  0.1372486E+00
         -2   -1    0    0    0  501 -0.00000000000E+00  0.00000000000E+00  0.12981366310E+03  0.12981366310E+03  0.00000000000E+00 0.  1.
          2   -1    0    0  501    0  0.00000000000E+00 -0.00000000000E+00 -0.12969274686E+03  0.12969274686E+03  0.00000000000E+00 0. -1.
         25    2    1    2    0    0  0.63939204290E+01  0.36541467167E+02  0.73706119187E+02  0.14984158096E+03  0.12507496288E+03 0.  0.
          5    1    3    3  502    0  0.15425519137E+02 -0.23868141849E+01 -0.32496419381E+02  0.36292329702E+02  0.41800000000E+01 0.  1.
         -5    1    3    3    0  502 -0.90315987083E+01  0.38928281352E+02  0.10620253857E+03  0.11354925126E+03  0.41800000000E+01 0.  1.
        -11    1    1    2    0    0  0.22820144395E+02  0.72819979233E+01 -0.41718579441E+02  0.48106406585E+02  0.00000000000E+00 0. -1.
         11    1    1    2    0    0 -0.29214064824E+02 -0.43823465091E+02 -0.31866623503E+02  0.61558422410E+02  0.00000000000E+00 0.  1.
</event>
<event>
 7    1  0.2679104E-009  0.1170099E+03  0.7561462E-02  0.1248113E+00
         -1   -1    0    0    0  501 -0.00000000000E+00  0.00000000000E+00  0.46644290776E+02  0.46644290776E+02  0.00000000000E+00 0.  1.
          1   -1    0    0  501    0  0.00000000000E+00 -0.00000000000E+00 -0.61690618569E+03  0.61690618569E+03  0.00000000000E+00 0. -1.
         25    2    1    2    0    0  0.96594793983E+02 -0.18530661727E+02 -0.13620580053E+03  0.20946009976E+03  0.12509026199E+03 0.  0.
          5    1    3    3  502    0  0.97701099324E+02 -0.17560860860E+02 -0.30882604268E+02  0.10404372297E+03  0.41800000000E+01 0.  1.
         -5    1    3    3    0  502 -0.11063053417E+01 -0.96980086731E+00 -0.10532319626E+03  0.10541637679E+03  0.41800000000E+01 0.  1.
        -11    1    1    2    0    0 -0.67084930927E+02 -0.29958757366E+02 -0.19484133796E+03  0.20823319158E+03  0.00000000000E+00 0.  1.
         11    1    1    2    0    0 -0.29509863055E+02  0.48489419094E+02 -0.23921475643E+03  0.24585718512E+03  0.00000000000E+00 0. -1.
</event>
<event>
 7    1  0.2679104E-009  0.1381604E+03  0.7561462E-02  0.1215826E+00
          1   -1    0    0  501    0  0.00000000000E+00  0.00000000000E+00  0.37320998814E+02  0.37320998814E+02  0.00000000000E+00 0. -1.
         -1   -1    0    0    0  501 -0.00000000000E+00 -0.00000000000E+00 -0.82171817333E+03  0.82171817333E+03  0.00000000000E+00 0.  1.
         25    2    1    2    0    0 -0.13272639966E+03 -0.24253694075E+01 -0.50320557456E+03  0.53524379136E+03  0.12509151186E+03 0.  0.
          5    1    3    3  502    0 -0.24264277830E+02  0.57380682948E+00 -0.47296820157E+01  0.25078411530E+02  0.41800000000E+01 0.  1.
         -5    1    3    3    0  502 -0.10846212183E+03 -0.29991762370E+01 -0.49847589254E+03  0.51016537983E+03  0.41800000000E+01 0.  1.
        -11    1    1    2    0    0  0.13054438100E+03  0.14033829338E+02 -0.28287847797E+03  0.31186377968E+03  0.00000000000E+00 0.  1.
         11    1    1    2    0    0  0.21820186550E+01 -0.11608459931E+02  0.16868780181E+01  0.11931601100E+02  0.00000000000E+00 0. -1.
</event>
<event>
 7    1  0.2679104E-009  0.6289675E+02  0.7561462E-02  0.1386062E+00
          2   -1    0    0  501    0  0.00000000000E+00  0.00000000000E+00  0.49559277402E+02  0.49559277402E+02  0.00000000000E+00 0. -1.
         -2   -1    0    0    0  501 -0.00000000000E+00 -0.00000000000E+00 -0.27340734643E+03  0.27340734643E+03  0.00000000000E+00 0.  1.
         25    2    1    2    0    0  0.93799744388E+00 -0.19854841803E+02 -0.68929928806E+02  0.14420165910E+03  0.12509072236E+03 0.  0.
          5    1    3    3  502    0 -0.20654352768E+02 -0.40359211547E+02 -0.94393118767E+02  0.10479981639E+03  0.41800000000E+01 0. -1.
         -5    1    3    3    0  502  0.21592350212E+02  0.20504369744E+02  0.25463189961E+02  0.39401842714E+02  0.41800000000E+01 0. -1.
        -11    1    1    2    0    0 -0.43031351515E-01  0.35011787990E+02 -0.15918790116E+03  0.16299268396E+03  0.00000000000E+00 0.  1.
         11    1    1    2    0    0 -0.89496609237E+00 -0.15156946187E+02  0.42697609384E+01  0.15772280764E+02  0.00000000000E+00 0. -1.
</event>
<event>
 7    1  0.2679104E-009  0.1186214E+03  0.7561462E-02  0.1245389E+00
          3   -1    0    0  501    0  0.00000000000E+00  0.00000000000E+00  0.23631262381E+03  0.23631262381E+03  0.00000000000E+00 0. -1.
         -3   -1    0    0    0  501 -0.00000000000E+00 -0.00000000000E+00 -0.67642857522E+02  0.67642857522E+02  0.00000000000E+00 0.  1.
         25    2    1    2    0    0 -0.58653435953E+02  0.26992445343E+02  0.89427791930E+02  0.16676968099E+03  0.12508388735E+03 0.  0.
          5    1    3    3  502    0 -0.34784620696E+01  0.63146225060E+02  0.76630940309E+02  0.99445054428E+02  0.41800000000E+01 0.  1.
         -5    1    3    3    0  502 -0.55174973883E+02 -0.36153779716E+02  0.12796851621E+02  0.67324626566E+02  0.41800000000E+01 0.  1.
        -11    1    1    2    0    0  0.33805581118E+02 -0.58544603373E+02  0.67047343795E+02  0.95213624071E+02  0.00000000000E+00 0.  1.
         11    1    1    2    0    0  0.24847854834E+02  0.31552158029E+02  0.12194630567E+02  0.41972176270E+02  0.00000000000E+00 0. -1.
</event>
<event>
 7    1  0.2679104E-009  0.1018369E+03  0.7561462E-02  0.1276480E+00
          1   -1    0    0  501    0  0.00000000000E+00  0.00000000000E+00  0.22241245385E+02  0.22241245385E+02  0.00000000000E+00 0. -1.
         -1   -1    0    0    0  501 -0.00000000000E+00 -0.00000000000E+00 -0.57158764653E+03  0.57158764653E+03  0.00000000000E+00 0.  1.
         25    2    1    2    0    0  0.26099235564E+02  0.19762756145E+02 -0.32276002857E+03  0.34769874972E+03  0.12509455578E+03 0.  0.
          5    1    3    3  502    0 -0.33466985052E+02 -0.24413881612E+02 -0.19941721781E+03  0.20371739215E+03  0.41800000000E+01 0. -1.
         -5    1    3    3    0  502  0.59566220616E+02  0.44176637757E+02 -0.12334281076E+03  0.14398135757E+03  0.41800000000E+01 0. -1.
        -11    1    1    2    0    0  0.10680284449E+02 -0.42965706863E+02 -0.63948297099E+02  0.77778564811E+02  0.00000000000E+00 0.  1.
         11    1    1    2    0    0 -0.36779520013E+02  0.23202950718E+02 -0.16263807547E+03  0.16835157738E+03  0.00000000000E+00 0. -1.
</event>
<event>
 7    1  0.2679104E-009  0.1251051E+03  0.7561462E-02  0.1234905E+00
         -1   -1    0    0    0  501 -0.00000000000E+00  0.00000000000E+00  0.35357285535E+03  0.35357285535E+03  0.00000000000E+00 0.  1.
          1   -1    0    0  501    0  0.00000000000E+00 -0.00000000000E+00 -0.58439166772E+02  0.58439166772E+02  0.00000000000E+00 0. -1.
         25    2    1    2    0    0 -0.85228016778E+02  0.68558787392E+01  0.10523529047E+03  0.18447951381E+03  0.12508959485E+03 0.  0.
          5    1    3    3  502    0 -0.11373809697E+03 -0.10573385574E+02  0.96742904889E+02  0.14974916772E+03  0.41800000000E+01 0.  1.
         -5    1    3    3    0  502  0.28510080195E+02  0.17429264313E+02  0.84923855794E+01  0.34730346097E+02  0.41800000000E+01 0.  1.
        -11    1    1    2    0    0  0.45525655778E+02 -0.31626712429E+02  0.16595193063E+03  0.17496536101E+03  0.00000000000E+00 0.  1.
         11    1    1    2    0    0  0.39702361000E+02  0.24770833689E+02  0.23946467483E+02  0.52567147303E+02  0.00000000000E+00 0. -1.
</event>
<event>
 7    1  0.2679104E-009  0.1185584E+03  0.7561462E-02  0.1245494E+00
         -2   -1    0    0    0  501 -0.00000000000E+00  0.00000000000E+00  0.14441358110E+02  0.14441358110E+02  0.00000000000E+00 0. -1.
          2   -1    0    0  501    0  0.00000000000E+00 -0.00000000000E+00 -0.12988120081E+04  0.12988120081E+04  0.00000000000E+00 0.  1.
         25    2    1    2    0    0 -0.47972816426E+02  0.38686256046E+02 -0.92336093695E+03  0.93383134495E+03  0.12509014106E+03 0.  0.
          5    1    3    3  502    0 -0.89641708308E+02  0.30874321012E+02 -0.56038006729E+03  0.56835917498E+03  0.41800000000E+01 0. -1.
         -5    1    3    3    0  502  0.41668891882E+02  0.78119350345E+01 -0.36298086966E+03  0.36547216997E+03  0.41800000000E+01 0. -1.
        -11    1    1    2    0    0  0.54617339259E+02  0.55348627193E+01 -0.29251918190E+03  0.29762587292E+03  0.00000000000E+00 0.  1.
         11    1    1    2    0    0 -0.66445228324E+01 -0.44221118766E+02 -0.68490531153E+02  0.81796148358E+02  0.00000000000E+00 0. -1.
</event>
<event>
 7    1  0.2679104E-009  0.9903470E+02  0.7561462E-02  0.1282339E+00
         -2   -1    0    0    0  501 -0.00000000000E+00  0.00000000000E+00  0.72055217051E+03  0.72055217051E+03  0.00000000000E+00 0.  1.
          2   -1    0    0  501    0  0.00000000000E+00 -0.00000000000E+00 -0.24317114782E+02  0.24317114782E+02  0.00000000000E+00 0. -1.
         25    2    1    2    0    0 -0.27150939925E+02 -0.62497199178E+02  0.47638513058E+03  0.49722566798E+03  0.12508996288E+03 0.  0.
          5    1    3    3  502    0 -0.35739466580E+02 -0.65359888706E+02  0.48063123645E+03  0.48638779012E+03  0.41800000000E+01 0.  1.
         -5    1    3    3    0  502  0.85885266552E+01  0.28626895281E+01 -0.42461058698E+01  0.10837877860E+02  0.41800000000E+01 0.  1.
        -11    1    1    2    0    0  0.30913659119E+02 -0.16062682598E+02  0.57156184055E+02  0.66936488316E+02  0.00000000000E+00 0.  1.
         11    1    1    2    0    0 -0.37627191943E+01  0.78559881776E+02  0.16269374109E+03  0.18070712900E+03  0.00000000000E+00 0. -1.
</event>
<event>
 7    1  0.2679104E-009  0.1074273E+03  0.7561462E-02  0.1265410E+00
         -1   -1    0    0    0  501 -0.00000000000E+00  0.00000000000E+00  0.48281853969E+03  0.48281853969E+03  0.00000000000E+00 0.  1.
          1   -1    0    0  501    0  0.00000000000E+00 -0.00000000000E+00 -0.43912943111E+02  0.43912943111E+02  0.00000000000E+00 0. -1.
         25    2    1    2    0    0 -0.60450754496E+02  0.45281081093E+02  0.34823764801E+03  0.37765558244E+03  0.12509839898E+03 0.  0.
          5    1    3    3  502    0  0.10501101813E+02 -0.31465566315E+02  0.14814429453E+03  0.15187020579E+03  0.41800000000E+01 0. -1.
         -5    1    3    3    0  502 -0.70951856309E+02  0.76746647408E+02  0.20009335348E+03  0.22578537665E+03  0.41800000000E+01 0. -1.
        -11    1    1    2    0    0  0.23373437259E+02 -0.93106807329E+01  0.94001227464E+02  0.97310005188E+02  0.00000000000E+00 0.  1.
         11    1    1    2    0    0  0.37077317237E+02 -0.35970400360E+02 -0.33332788938E+01  0.51765895180E+02  0.00000000000E+00 0. -1.
</event>
<event>
 7    1  0.2679104E-009  0.9076358E+02  0.7561462E-02  0.1301013E+00
          2   -1    0    0  501    0  0.00000000000E+00  0.00000000000E+00  0.26973479188E+03  0.26973479188E+03  0.00000000000E+00 0. -1.
         -2   -1    0    0    0  501 -0.00000000000E+00 -0.00000000000E+00 -0.61070349358E+02  0.61070349358E+02  0.00000000000E+00 0.  1.
         25    2    1    2    0    0  0.51833623795E+02 -0.65247776589E+00  0.17439243347E+03  0.22078330693E+03  0.12508156333E+03 0.  0.
          5    1    3    3  502    0  0.73073604369E+02  0.19792097645E+02  0.17529889075E+03  0.19099385404E+03  0.41800000000E+01 0.  1.
         -5    1    3    3    0  502 -0.21239980575E+02 -0.20444575411E+02 -0.90645727911E+00  0.29789452888E+02  0.41800000000E+01 0.  1.
        -11    1    1    2    0    0 -0.37435457324E+02  0.26827660264E+02 -0.18297151845E+02  0.49557265723E+02  0.00000000000E+00 0.  1.
         11    1    1    2    0    0 -0.14398166470E+02 -0.26175182498E+02  0.52569160901E+02  0.60464568586E+02  0.00000000000E+00 0. -1.
</event>
<event>
 7    1  0.2679104E-009  0.1618677E+03  0.7561462E-02  0.1186604E+00
         -2   -1    0    0    0  501 -0.00000000000E+00  0.00000000000E+00  0.14479377420E+03  0.14479377420E+03  0.00000000000E+00 0.  1.
          2   -1    0    0  501    0  0.00000000000E+00 -0.00000000000E+00 -0.21643055304E+03  0.21643055304E+03  0.00000000000E+00 0. -1.
         25    2    1    2    0    0  0.45209452644E+02  0.13197727584E+03 -0.34333604391E+02  0.19049186288E+03  0.12508580050E+03 0.  0.
          5    1    3    3  502    0  0.59109692714E+02  0.14559635997E+03 -0.50225129046E+02  0.16502209488E+03  0.41800000000E+01 0. -1.
         -5    1    3    3    0  502 -0.13900240069E+02 -0.13619084129E+02  0.15891524655E+02  0.25469768008E+02  0.41800000000E+01 0. -1.
        -11    1    1    2    0    0 -0.37598569119E+02 -0.42124112158E+02  0.24356163237E+02  0.61492405324E+02  0.00000000000E+00 0.  1.
         11    1    1    2    0    0 -0.76108835253E+01 -0.89853163685E+02 -0.61659337690E+02  0.10924005903E+03  0.00000000000E+00 0. -1.
</event>
<event>
 7    1  0.2679104E-009  0.1369750E+03  0.7561462E-02  0.1217458E+00
          3   -1    0    0  501    0  0.00000000000E+00  0.00000000000E+00  0.19470278301E+03  0.19470278301E+03  0.00000000000E+00 0. -1.
         -3   -1    0    0    0  501 -0.00000000000E+00 -0.00000000000E+00 -0.11802859878E+03  0.11802859878E+03  0.00000000000E+00 0.  1.
         25    2    1    2    0    0 -0.86541640002E+01 -0.10059611339E+03  0.73684853425E+02  0.17684349511E+03  0.12509872724E+03 0.  0.
          5    1    3    3  502    0 -0.15281154068E+02 -0.12958007742E+03  0.63222702470E+02  0.14504858717E+03  0.41800000000E+01 0. -1.
         -5    1    3    3    0  502  0.66269900678E+01  0.28983964030E+02  0.10462150955E+02  0.31794907939E+02  0.41800000000E+01 0. -1.
        -11    1    1    2    0    0 -0.18750657878E+02  0.69252320496E+02 -0.34728212935E+02  0.79708969625E+02  0.00000000000E+00 0.  1.
         11    1    1    2    0    0  0.27404821878E+02  0.31343792894E+02  0.37717543739E+02  0.56178917049E+02  0.00000000000E+00 0. -1.
</event>
<event>
 7    1  0.2679104E-009  0.1252071E+03  0.7561462E-02  0.1234746E+00
         -2   -1    0    0    0  501 -0.00000000000E+00  0.00000000000E+00  0.25649026293E+03  0.25649026293E+03  0.00000000000E+00 0.  1.
          2   -1    0    0  501    0  0.00000000000E+00 -0.00000000000E+00 -0.72878726705E+02  0.72878726705E+02  0.00000000000E+00 0. -1.
         25    2    1    2    0    0 -0.67927576705E+02  0.12347460157E+02  0.46385557834E+02  0.15022051690E+03  0.12509183935E+03 0.  0.
          5    1    3    3  502    0 -0.84158909893E+01 -0.51225378352E+02  0.13584339671E+01  0.52097834420E+02  0.41800000000E+01 0.  1.
         -5    1    3    3    0  502 -0.59511685716E+02  0.63572838508E+02  0.45027123867E+02  0.98122682477E+02  0.41800000000E+01 0.  1.
        -11    1    1    2    0    0  0.86499183592E+02 -0.23312501798E+02  0.12664023099E+03  0.15512359462E+03  0.00000000000E+00 0.  1.
         11    1    1    2    0    0 -0.18571606887E+02  0.10965041642E+02  0.10585747398E+02  0.24024878117E+02  0.00000000000E+00 0. -1.
</event>
<event>
 7    1  0.2679104E-009  0.2177743E+03  0.7561462E-02  0.1135553E+00
          2   -1    0    0  501    0  0.00000000000E+00  0.00000000000E+00  0.17077938548E+04  0.17077938548E+04  0.00000000000E+00 0. -1.
         -2   -1    0    0    0  501 -0.00000000000E+00 -0.00000000000E+00 -0.29395883341E+02  0.29395883341E+02  0.00000000000E+00 0.  1.
         25    2    1    2    0    0 -0.17485403258E+03  0.87090514210E+02  0.81614052072E+03  0.84846425249E+03  0.12509015873E+03 0.  0.
          5    1    3    3  502    0 -0.10889684274E+03 -0.11780989566E+02  0.31936617656E+03  0.33765298933E+03  0.41800000000E+01 0. -1.
         -5    1    3    3    0  502 -0.65957189842E+02  0.98871503777E+02  0.49677434416E+03  0.51081126316E+03  0.41800000000E+01 0. -1.
        -11    1    1    2    0    0  0.11964879072E+02  0.11510722582E+02  0.24455138401E+02  0.29558566606E+02  0.00000000000E+00 0.  1.
         11    1    1    2    0    0  0.16288915351E+03 -0.98601236792E+02  0.83780231229E+03  0.85916691901E+03  0.00000000000E+00 0. -1.
</event>
<event>
 7    1  0.2679104E-009  0.1714836E+03  0.7561462E-02  0.1176309E+00
          1   -1    0    0  501    0  0.00000000000E+00  0.00000000000E+00  0.41059927259E+03  0.41059927259E+03  0.00000000000E+00 0. -1.
         -1   -1    0    0    0  501 -0.00000000000E+00 -0.00000000000E+00 -0.91802361181E+02  0.91802361181E+02  0.00000000000E+00 0.  1.
         25    2    1    2    0    0 -0.15069978753E+03 -0.17101620004E+01  0.23891152060E+03  0.30893313649E+03  0.12509043742E+03 0.  0.
          5    1    3    3  502    0 -0.16702360732E+03  0.11720435319E+02  0.17840439638E+03  0.24470360654E+03  0.41800000000E+01 0. -1.
         -5    1    3    3    0  502  0.16323819792E+02 -0.13430597319E+02  0.60507124220E+02  0.64229529956E+02  0.41800000000E+01 0. -1.
        -11    1    1    2    0    0  0.12283224470E+03 -0.10959519118E+02  0.18268279020E+02  0.12466595933E+03  0.00000000000E+00 0.  1.
         11    1    1    2    0    0  0.27867542827E+02  0.12669681118E+02  0.61617111786E+02  0.68802537945E+02  0.00000000000E+00 0. -1.
</event>
<event>
 7    1  0.2679104E-009  0.1296498E+03  0.7561462E-02  0.1227976E+00
          1   -1    0    0  501    0  0.00000000000E+00  0.00000000000E+00  0.37971871639E+03  0.37971871639E+03  0.00000000000E+00 0. -1.
         -1   -1    0    0    0  501 -0.00000000000E+00 -0.00000000000E+00 -0.51386024741E+02  0.51386024741E+02  0.00000000000E+00 0.  1.
         25    2    1    2    0    0 -0.36411596149E+02 -0.77500146935E+02  0.15245213273E+03  0.21499008319E+03  0.12508799297E+03 0.  0.
          5    1    3    3  502    0 -0.33569672848E+01 -0.10690043968E+03  0.11155598418E+03  0.15460007516E+03  0.41800000000E+01 0.  1.
         -5    1    3    3    0  502 -0.33054628864E+02  0.29400292746E+02  0.40896148557E+02  0.60390008029E+02  0.41800000000E+01 0.  1.
        -11    1    1    2    0    0  0.55401811405E+02  0.63282245287E+02  0.75678123886E+02  0.11314230734E+03  0.00000000000E+00 0. -1.
         11    1    1    2    0    0 -0.18990215256E+02  0.14217901648E+02  0.10020243503E+03  0.10297235060E+03  0.00000000000E+00 0.  1.
</event>
<event>
 7    1  0.2679104E-009  0.1045210E+03  0.7561462E-02  0.1271066E+00
          2   -1    0    0  501    0  0.00000000000E+00  0.00000000000E+00  0.24431059484E+03  0.24431059484E+03  0.00000000000E+00 0. -1.
         -2   -1    0    0    0  501 -0.00000000000E+00 -0.00000000000E+00 -0.51996517170E+02  0.51996517170E+02  0.00000000000E+00 0.  1.
         25    2    1    2    0    0  0.11434978133E+02 -0.34853249776E+00  0.14955614022E+03  0.19530474800E+03  0.12508407299E+03 0.  0.
          5    1    3    3  502    0  0.45676150609E+02 -0.45886680620E+02  0.10242205248E+03  0.12124210253E+03  0.41800000000E+01 0. -1.
         -5    1    3    3    0  502 -0.34241172475E+02  0.45538148122E+02  0.47134087745E+02  0.74062645473E+02  0.41800000000E+01 0. -1.
        -11    1    1    2    0    0  0.37479079325E+02 -0.50713173646E+01  0.33751746362E+01  0.37970929021E+02  0.00000000000E+00 0.  1.
         11    1    1    2    0    0 -0.48914057458E+02  0.54198498623E+01  0.39382762814E+02  0.63031434987E+02  0.00000000000E+00 0. -1.
</event>
<event>
 7    1  0.2679104E-009  0.1203589E+03  0.7561462E-02  0.1242506E+00
         -1   -1    0    0    0  501 -0.00000000000E+00  0.00000000000E+00  0.96087298096E+02  0.96087298096E+02  0.00000000000E+00 0.  1.
          1   -1    0    0  501    0  0.00000000000E+00 -0.00000000000E+00 -0.17278821995E+03  0.17278821995E+03  0.00000000000E+00 0. -1.
         25    2    1    2    0    0  0.30981857510E+02 -0.64326545678E+02 -0.28580424558E+02  0.14684541145E+03  0.12509578020E+03 0.  0.
          5    1    3    3  502    0  0.22948120480E+02 -0.95312928849E+02 -0.47932198263E+02  0.10920686182E+03  0.41800000000E+01 0. -1.
         -5    1    3    3    0  502  0.80337370306E+01  0.30986383171E+02  0.19351773705E+02  0.37638549630E+02  0.41800000000E+01 0. -1.
        -11    1    1    2    0    0  0.29298296196E+02  0.22457975756E+02 -0.26748799673E+02  0.45587817660E+02  0.00000000000E+00 0.  1.
         11    1    1    2    0    0 -0.60280153707E+02  0.41868569922E+02 -0.21371697626E+02  0.76442288935E+02  0.00000000000E+00 0. -1.
</event>
<event>
 7    1  0.2679104E-009  0.8532352E+02  0.7561462E-02  0.1314589E+00
          2   -1    0    0  501    0  0.00000000000E+00  0.00000000000E+00  0.20445665750E+02  0.20445665750E+02  0.00000000000E+00 0. -1.
         -2   -1    0    0    0  501 -0.00000000000E+00 -0.00000000000E+00 -0.78377271723E+03  0.78377271723E+03  0.00000000000E+00 0.  1.
         25    2    1    2    0    0 -0.23182190769E+02 -0.42219746526E+02 -0.59136724086E+03  0.60637058354E+03  0.12510055978E+03 0.  0.
          5    1    3    3  502    0  0.32640697284E+01  0.36668501852E+02 -0.78777047243E+02  0.87054745716E+02  0.41800000000E+01 0.  1.
         -5    1    3    3    0  502 -0.26446260497E+02 -0.78888248378E+02 -0.51259019361E+03  0.51931583782E+03  0.41800000000E+01 0.  1.
        -11    1    1    2    0    0  0.13028508395E+02  0.36227294010E+02 -0.17967790369E+03  0.18375610993E+03  0.00000000000E+00 0.  1.
         11    1    1    2    0    0  0.10153682374E+02  0.59924525162E+01  0.77180930614E+01  0.14091689516E+02  0.00000000000E+00 0. -1.
</event>
<event>
 7    1  0.2679104E-009  0.1151472E+03  0.7561462E-02  0.1251324E+00
         -1   -1    0    0    0  501 -0.00000000000E+00  0.00000000000E+00  0.18025853144E+03  0.18025853144E+03  0.00000000000E+00 0.  1.
          1   -1    0    0  501    0  0.00000000000E+00 -0.00000000000E+00 -0.27636962152E+03  0.27636962152E+03  0.00000000000E+00 0. -1.
         25    2    1    2    0    0  0.72951529151E+02 -0.21982843660E+02 -0.23308084810E+03  0.27527710279E+03  0.12508249496E+03 0.  0.
          5    1    3    3  502    0  0.51106092570E+02 -0.68244161912E+02 -0.18988652604E+03  0.20819093041E+03  0.41800000000E+01 0. -1.
         -5    1    3    3    0  502  0.21845436580E+02  0.46261318252E+02 -0.43194322055E+02  0.67086172373E+02  0.41800000000E+01 0. -1.
        -11    1    1    2    0    0 -0.38042261734E+02 -0.16656698466E+02  0.80370484069E+01  0.42299567713E+02  0.00000000000E+00 0. -1.
         11    1    1    2    0    0 -0.34909267417E+02  0.38639542126E+02  0.12893270961E+03  0.13905148246E+03  0.00000000000E+00 0.  1.
</event>
<event>
 7    1  0.2679104E-009  0.2832055E+03  0.7561462E-02  0.1093951E+00
          2   -1    0    0  501    0  0.00000000000E+00  0.00000000000E+00  0.12965052869E+04  0.12965052869E+04  0.00000000000E+00 0.  1.
         -2   -1    0    0    0  501 -0.00000000000E+00 -0.00000000000E+00 -0.91979099368E+02  0.91979099368E+02  0.00000000000E+00 0. -1.
         25    2    1    2    0    0 -0.18089217241E+03  0.20678394046E+03  0.25465035204E+03  0.39493894463E+03  0.12509353348E+03 0.  0.
          5    1    3    3  502    0 -0.10073242908E+03  0.12379448499E+03  0.22472922888E+03  0.27566790799E+03  0.41800000000E+01 0. -1.
         -5    1    3    3    0  502 -0.80159743331E+02  0.82989455466E+02  0.29921123159E+02  0.11927103664E+03  0.41800000000E+01 0. -1.
        -11    1    1    2    0    0 -0.71856704232E+01 -0.37739710585E+02  0.12116284653E+03  0.12710765120E+03  0.00000000000E+00 0. -1.
         11    1    1    2    0    0  0.18807784284E+03 -0.16904422987E+03  0.82871298892E+03  0.86643779040E+03  0.00000000000E+00 0.  1.
</event>
<event>
 7    1  0.2679104E-009  0.8172994E+02  0.7561462E-02  0.1324213E+00
         -2   -1    0    0    0  501 -0.00000000000E+00  0.00000000000E+00  0.64242736471E+02  0.64242736471E+02  0.00000000000E+00 0.  1.
          2   -1    0    0  501    0  0.00000000000E+00 -0.00000000000E+00 -0.20909665742E+03  0.20909665742E+03  0.00000000000E+00 0. -1.
         25    2    1    2    0    0 -0.25565829319E+02 -0.32107648005E+02 -0.93186772694E+02  0.16129877785E+03  0.12509599690E+03 0.  0.
          5    1    3    3  502    0  0.25959745598E+02 -0.54361715617E+02 -0.85234786201E+02  0.10445834431E+03  0.41800000000E+01 0.  1.
         -5    1    3    3    0  502 -0.51525574917E+02  0.22254067613E+02 -0.79519864933E+01  0.56840433540E+02  0.41800000000E+01 0.  1.
        -11    1    1    2    0    0  0.16939097294E+02  0.40208641862E+01 -0.73437131812E+02  0.75472595654E+02  0.00000000000E+00 0. -1.
         11    1    1    2    0    0  0.86267320249E+01  0.28086783818E+02  0.21769983562E+02  0.36568020386E+02  0.00000000000E+00 0.  1.
</event>
<event>
 7    1  0.2679104E-009  0.1954212E+03  0.7561462E-02  0.1153661E+00
         -1   -1    0    0    0  501 -0.00000000000E+00  0.00000000000E+00  0.40322486316E+03  0.40322486316E+03  0.00000000000E+00 0.  1.
          1   -1    0    0  501    0  0.00000000000E+00 -0.00000000000E+00 -0.20279398567E+03  0.20279398567E+03  0.00000000000E+00 0. -1.
         25    2    1    2    0    0 -0.16347480575E+03 -0.48258988346E+02 -0.11163739559E+03  0.23908959810E+03  0.12509190923E+03 0.  0.
          5    1    3    3  502    0  0.19594832893E+02 -0.15247330114E+02 -0.10185209917E+02  0.27159702737E+02  0.41800000000E+01 0.  1.
         -5    1    3    3    0  502 -0.18306963864E+03 -0.33011658232E+02 -0.10145218567E+03  0.21192989536E+03  0.41800000000E+01 0.  1.
        -11    1    1    2    0    0  0.12452886422E+03  0.98848540846E+01  0.14629890309E+03  0.19237597929E+03  0.00000000000E+00 0. -1.
         11    1    1    2    0    0  0.38945941531E+02  0.38374134262E+02  0.16576936999E+03  0.17455327144E+03  0.00000000000E+00 0.  1.
</event>
<event>
 7    1  0.2679104E-009  0.1101874E+03  0.7561462E-02  0.1260223E+00
          2   -1    0    0  501    0  0.00000000000E+00  0.00000000000E+00  0.52406185011E+03  0.52406185011E+03  0.00000000000E+00 0. -1.
         -2   -1    0    0    0  501 -0.00000000000E+00 -0.00000000000E+00 -0.31701478460E+02  0.31701478460E+02  0.00000000000E+00 0.  1.
         25    2    1    2    0    0  0.33909798513E+02 -0.32990092030E+02  0.16711270350E+03  0.21404507671E+03  0.12510163302E+03 0.  0.
          5    1    3    3  502    0  0.53302711589E+02  0.29484406897E+02  0.11538703433E+03  0.13054558363E+03  0.41800000000E+01 0. -1.
         -5    1    3    3    0  502 -0.19392913076E+02 -0.62474498927E+02  0.51725669173E+02  0.83499493083E+02  0.41800000000E+01 0. -1.
        -11    1    1    2    0    0  0.18397585531E+02  0.36986278454E+02  0.71244405992E+02  0.82354242954E+02  0.00000000000E+00 0.  1.
         11    1    1    2    0    0 -0.52307384044E+02 -0.39961864249E+01  0.25400326215E+03  0.25936400891E+03  0.00000000000E+00 0. -1.
</event>
<event>
 7    1  0.2679104E-009  0.9822336E+02  0.7561462E-02  0.1284077E+00
          1   -1    0    0  501    0  0.00000000000E+00  0.00000000000E+00  0.48447512713E+02  0.48447512713E+02  0.00000000000E+00 0. -1.
         -1   -1    0    0    0  501 -0.00000000000E+00 -0.00000000000E+00 -0.36481326886E+03  0.36481326886E+03  0.00000000000E+00 0.  1.
         25    2    1    2    0    0  0.63288234775E+01 -0.58587310520E+01 -0.28557434302E+03  0.31188880327E+03  0.12509013342E+03 0.  0.
          5    1    3    3  502    0  0.20168389192E+02  0.47136278291E+02 -0.22194581400E+03  0.22782890379E+03  0.41800000000E+01 0.  1.
         -5    1    3    3    0  502 -0.13839565715E+02 -0.52995009343E+02 -0.63628529019E+02  0.84059899474E+02  0.41800000000E+01 0.  1.
        -11    1    1    2    0    0 -0.44351539905E+02 -0.14859095325E+02 -0.34190133249E+02  0.57938044646E+02  0.00000000000E+00 0.  1.
         11    1    1    2    0    0  0.38022716427E+02  0.20717826378E+02  0.33987201202E+01  0.43433933655E+02  0.00000000000E+00 0. -1.
</event>
<event>
 7    1  0.2679104E-009  0.1236331E+03  0.7561462E-02  0.1237221E+00
         -1   -1    0    0    0  501 -0.00000000000E+00  0.00000000000E+00  0.37706009249E+03  0.37706009249E+03  0.00000000000E+00 0.  1.
          1   -1    0    0  501    0  0.00000000000E+00 -0.00000000000E+00 -0.47573158121E+02  0.47573158121E+02  0.00000000000E+00 0. -1.
         25    2    1    2    0    0 -0.24464777406E+02  0.71893511063E+02  0.21278520847E+03  0.25824785195E+03  0.12508879178E+03 0.  0.
          5    1    3    3  502    0  0.75185150496E+01 -0.34005403701E+02  0.41976618498E+02  0.54702874238E+02  0.41800000000E+01 0. -1.
         -5    1    3    3    0  502 -0.31983292456E+02  0.10589891476E+03  0.17080858997E+03  0.20354497771E+03  0.41800000000E+01 0. -1.
        -11    1    1    2    0    0 -0.23120342943E+02 -0.31470007398E+02  0.63055766993E+01  0.39555934080E+02  0.00000000000E+00 0. -1.
         11    1    1    2    0    0  0.47585120349E+02 -0.40423503665E+02  0.11039614920E+03  0.12682946458E+03  0.00000000000E+00 0.  1.
</event>
<event>
 7    1  0.2679104E-009  0.8106696E+02  0.7561462E-02  0.1326051E+00
         -1   -1    0    0    0  501 -0.00000000000E+00  0.00000000000E+00  0.64320839371E+02  0.64320839371E+02  0.00000000000E+00 0.  1.
          1   -1    0    0  501    0  0.00000000000E+00 -0.00000000000E+00 -0.19891620487E+03  0.19891620487E+03  0.00000000000E+00 0. -1.
         25    2    1    2    0    0  0.60267697238E+01 -0.10515212263E+02 -0.10634134783E+03  0.16463581785E+03  0.12509827584E+03 0.  0.
          5    1    3    3  502    0  0.43212115072E+02 -0.16233392066E+02 -0.11655124359E+03  0.12542916203E+03  0.41800000000E+01 0. -1.
         -5    1    3    3    0  502 -0.37185345348E+02  0.57181798030E+01  0.10209895757E+02  0.39206655816E+02  0.41800000000E+01 0. -1.
        -11    1    1    2    0    0  0.15185859227E+02  0.39324053338E+02 -0.42715055060E+02  0.60013060414E+02  0.00000000000E+00 0. -1.
         11    1    1    2    0    0 -0.21212628951E+02 -0.28808841075E+02  0.14461037391E+02  0.38588165978E+02  0.00000000000E+00 0.  1.
</event>
<event>
 7    1  0.2679104E-009  0.1715104E+03  0.7561462E-02  0.1176282E+00
         -2   -1    0    0    0  501 -0.00000000000E+00  0.00000000000E+00  0.28978639954E+02  0.28978639954E+02  0.00000000000E+00 0.  1.
          2   -1    0    0  501    0  0.00000000000E+00 -0.00000000000E+00 -0.13695063265E+04  0.13695063265E+04  0.00000000000E+00 0. -1.
         25    2    1    2    0    0  0.22250309190E+02 -0.15208026791E+03 -0.47963061381E+03  0.51895936041E+03  0.12509919225E+03 0.  0.
          5    1    3    3  502    0 -0.18492741369E+02 -0.19838883668E+02 -0.97704733206E+01  0.29128977624E+02  0.41800000000E+01 0.  1.
         -5    1    3    3    0  502  0.40743050559E+02 -0.13224138424E+03 -0.46986014049E+03  0.48983038278E+03  0.41800000000E+01 0.  1.
        -11    1    1    2    0    0 -0.54766466307E+02  0.70169164988E+02 -0.35366125708E+03  0.36469077628E+03  0.00000000000E+00 0.  1.
         11    1    1    2    0    0  0.32516157117E+02  0.81911102921E+02 -0.50723581561E+03  0.51483482972E+03  0.00000000000E+00 0. -1.
</event>
<event>
 7    1  0.2679104E-009  0.1607507E+03  0.7561462E-02  0.1187852E+00
          1   -1    0    0  501    0  0.00000000000E+00  0.00000000000E+00  0.17764083864E+03  0.17764083864E+03  0.00000000000E+00 0. -1.
         -1   -1    0    0    0  501 -0.00000000000E+00 -0.00000000000E+00 -0.25217423371E+03  0.25217423371E+03  0.00000000000E+00 0.  1.
         25    2    1    2    0    0 -0.10274358770E+03  0.92352745292E+02 -0.16262617810E+03  0.24734611674E+03  0.12509018062E+03 0.  0.
          5    1    3    3  502    0  0.24728096951E+02  0.34618460488E+02 -0.60399883006E+02  0.73996857045E+02  0.41800000000E+01 0. -1.
         -5    1    3    3    0  502 -0.12747168465E+03  0.57734284803E+02 -0.10222629510E+03  0.17334925970E+03  0.41800000000E+01 0. -1.
        -11    1    1    2    0    0  0.26752932459E+02 -0.32019826680E+02  0.73265069351E+02  0.84313457305E+02  0.00000000000E+00 0. -1.
         11    1    1    2    0    0  0.75990655241E+02 -0.60332918612E+02  0.14827713677E+02  0.98155498293E+02  0.00000000000E+00 0.  1.
</event>
<event>
 7    1  0.2679104E-009  0.7964832E+02  0.7561462E-02  0.1330052E+00
         -4   -1    0    0    0  501 -0.00000000000E+00  0.00000000000E+00  0.70441782033E+02  0.70441782033E+02  0.00000000000E+00 0. -1.
          4   -1    0    0  501    0  0.00000000000E+00 -0.00000000000E+00 -0.18528750792E+03  0.18528750792E+03  0.00000000000E+00 0.  1.
         25    2    1    2    0    0  0.11366186688E+01 -0.25440917244E+02 -0.93567650887E+02  0.15827639016E+03  0.12509187910E+03 0.  0.
          5    1    3    3  502    0  0.28735570365E+02 -0.32617050861E+02 -0.11457255474E+03  0.12261299976E+03  0.41800000000E+01 0.  1.
         -5    1    3    3    0  502 -0.27598951697E+02  0.71761336171E+01  0.21004903855E+02  0.35663390394E+02  0.41800000000E+01 0.  1.
        -11    1    1    2    0    0 -0.41934475789E+02  0.94547874613E+01 -0.30457708696E+02  0.52683633936E+02  0.00000000000E+00 0.  1.
         11    1    1    2    0    0  0.40797857121E+02  0.15986129782E+02  0.91796336933E+01  0.44769265862E+02  0.00000000000E+00 0. -1.
</event>
<event>
 7    1  0.2679104E-009  0.9532735E+02  0.7561462E-02  0.1290441E+00
          2   -1    0    0  501    0  0.00000000000E+00  0.00000000000E+00  0.53938968630E+02  0.53938968630E+02  0.00000000000E+00 0. -1.
         -2   -1    0    0    0  501 -0.00000000000E+00 -0.00000000000E+00 -0.31907075611E+03  0.31907075611E+03  0.00000000000E+00 0.  1.
         25    2    1    2    0    0 -0.38802720753E+02 -0.56026002356E+02 -0.20263640097E+03  0.24769757865E+03  0.12509202768E+03 0.  0.
          5    1    3    3  502    0  0.11809079770E+02 -0.36413494744E+02 -0.66062503926E+00  0.38513709117E+02  0.41800000000E+01 0.  1.
         -5    1    3    3    0  502 -0.50611800523E+02 -0.19612507611E+02 -0.20197577593E+03  0.20918386953E+03  0.41800000000E+01 0.  1.
        -11    1    1    2    0    0  0.59413896462E+02  0.40557214212E+02 -0.18422860857E+02  0.74258336364E+02  0.00000000000E+00 0. -1.
         11    1    1    2    0    0 -0.20611175709E+02  0.15468788143E+02 -0.44072525656E+02  0.51053809735E+02  0.00000000000E+00 0.  1.
</event>
<event>
 7    1  0.2679104E-009  0.1766952E+03  0.7561462E-02  0.1171040E+00
          2   -1    0    0  501    0  0.00000000000E+00  0.00000000000E+00  0.97624648424E+03  0.97624648424E+03  0.00000000000E+00 0. -1.
         -2   -1    0    0    0  501 -0.00000000000E+00 -0.00000000000E+00 -0.37214002729E+02  0.37214002729E+02  0.00000000000E+00 0.  1.
         25    2    1    2    0    0  0.15685764827E+03 -0.11377357244E+02  0.47773951591E+03  0.51828263349E+03  0.12509227407E+03 0.  0.
          5    1    3    3  502    0  0.17160332045E+03 -0.23246306396E+02  0.36658609436E+03  0.40545151045E+03  0.41800000000E+01 0.  1.
         -5    1    3    3    0  502 -0.14745672183E+02  0.11868949152E+02  0.11115342155E+03  0.11283112303E+03  0.41800000000E+01 0.  1.
        -11    1    1    2    0    0 -0.66539375401E+02 -0.11709960019E+02  0.91047034012E+02  0.11337624992E+03  0.00000000000E+00 0.  1.
         11    1    1    2    0    0 -0.90318272864E+02  0.23087317263E+02  0.37024593159E+03  0.38180160357E+03  0.00000000000E+00 0. -1.
</event>
<event>
 7    1  0.2679104E-009  0.1486460E+03  0.7561462E-02  0.1202147E+00
          3   -1    0    0  501    0  0.00000000000E+00  0.00000000000E+00  0.22210024829E+03  0.22210024829E+03  0.00000000000E+00 0. -1.
         -3   -1    0    0    0  501 -0.00000000000E+00 -0.00000000000E+00 -0.17428294612E+03  0.17428294612E+03  0.00000000000E+00 0.  1.
         25    2    1    2    0    0  0.80812570825E+02  0.82745302637E+02  0.14171919957E+03  0.22160643276E+03  0.12509045848E+03 0.  0.
          5    1    3    3  502    0 -0.16997073708E+02 -0.10236180918E+02  0.61041480572E+02  0.64321183640E+02  0.41800000000E+01 0.  1.
         -5    1    3    3    0  502  0.97809644533E+02  0.92981483555E+02  0.80677719002E+02  0.15728524912E+03  0.41800000000E+01 0.  1.
        -11    1    1    2    0    0 -0.93394736610E+02 -0.47923964100E+02 -0.46979316819E+02  0.11500582320E+03  0.00000000000E+00 0. -1.
         11    1    1    2    0    0  0.12582165785E+02 -0.34821338537E+02 -0.46922580588E+02  0.59770938444E+02  0.00000000000E+00 0.  1.
</event>
<event>
 7    1  0.2679104E-009  0.1040169E+03  0.7561462E-02  0.1272069E+00
          1   -1    0    0  501    0  0.00000000000E+00  0.00000000000E+00  0.38490924388E+03  0.38490924388E+03  0.00000000000E+00 0. -1.
         -1   -1    0    0    0  501 -0.00000000000E+00 -0.00000000000E+00 -0.36491463680E+02  0.36491463680E+02  0.00000000000E+00 0.  1.
         25    2    1    2    0    0 -0.33782236197E+01 -0.47746800862E+02  0.19404617359E+03  0.23577916001E+03  0.12508687149E+03 0.  0.
          5    1    3    3  502    0 -0.49578309467E+02 -0.66622314311E+02  0.13251706282E+03  0.15644419411E+03  0.41800000000E+01 0. -1.
         -5    1    3    3    0  502  0.46200085847E+02  0.18875513449E+02  0.61529110774E+02  0.79334965891E+02  0.41800000000E+01 0. -1.
        -11    1    1    2    0    0  0.27651498884E+02  0.90001683551E+01  0.51237536551E+01  0.29527297073E+02  0.00000000000E+00 0.  1.
         11    1    1    2    0    0 -0.24273275264E+02  0.38746632507E+02  0.14924785295E+03  0.15609425048E+03  0.00000000000E+00 0. -1.
</event>
<event>
 7    1  0.2679104E-009  0.2891348E+03  0.7561462E-02  0.1090802E+00
         -2   -1    0    0    0  501 -0.00000000000E+00  0.00000000000E+00  0.12244806251E+03  0.12244806251E+03  0.00000000000E+00 0.  1.
          2   -1    0    0  501    0  0.00000000000E+00 -0.00000000000E+00 -0.70540105522E+03  0.70540105522E+03  0.00000000000E+00 0. -1.
         25    2    1    2    0    0  0.24840799702E+03  0.10585301245E+03 -0.35077742092E+03  0.46000454785E+03  0.12509193335E+03 0.  0.
          5    1    3    3  502    0 -0.21492849862E+01  0.34332090267E+02 -0.61997479346E+02  0.71024444337E+02  0.41800000000E+01 0. -1.
         -5    1    3    3    0  502  0.25055728201E+03  0.71520922185E+02 -0.28877994157E+03  0.38898010351E+03  0.41800000000E+01 0. -1.
        -11    1    1    2    0    0 -0.71712344270E+02 -0.74785726735E+02 -0.10794419106E+03  0.14962457561E+03  0.00000000000E+00 0.  1.
         11    1    1    2    0    0 -0.17669565275E+03 -0.31067285718E+02 -0.12423138074E+03  0.21821999428E+03  0.00000000000E+00 0. -1.
</event>
<event>
 7    1  0.2679104E-009  0.1896235E+03  0.7561462E-02  0.1158801E+00
         -2   -1    0    0    0  501 -0.00000000000E+00  0.00000000000E+00  0.98138955162E+02  0.98138955162E+02  0.00000000000E+00 0. -1.
          2   -1    0    0  501    0  0.00000000000E+00 -0.00000000000E+00 -0.44792498836E+03  0.44792498836E+03  0.00000000000E+00 0.  1.
         25    2    1    2    0    0  0.12071372592E+03 -0.11933260227E+03 -0.25807211860E+03  0.33325770415E+03  0.12508958945E+03 0.  0.
          5    1    3    3  502    0  0.27644632099E+02 -0.11254146223E+03 -0.12313455087E+03  0.16914312408E+03  0.41800000000E+01 0.  1.
         -5    1    3    3    0  502  0.93069093816E+02 -0.67911400359E+01 -0.13493756773E+03  0.16411458007E+03  0.41800000000E+01 0.  1.
        -11    1    1    2    0    0 -0.39462098221E+02  0.43509518938E+02  0.12944132714E+02  0.60148865375E+02  0.00000000000E+00 0. -1.
         11    1    1    2    0    0 -0.81251627694E+02  0.75823083331E+02 -0.10465804732E+03  0.15265737400E+03  0.00000000000E+00 0.  1.
</event>
<event>
 7    1  0.2679104E-009  0.1391832E+03  0.7561462E-02  0.1214432E+00
         -2   -1    0    0    0  501 -0.00000000000E+00  0.00000000000E+00  0.58428413367E+02  0.58428413367E+02  0.00000000000E+00 0.  1.
          2   -1    0    0  501    0  0.00000000000E+00 -0.00000000000E+00 -0.43429811433E+03  0.43429811433E+03  0.00000000000E+00 0. -1.
         25    2    1    2    0    0  0.82519988349E+02  0.53763431323E+02 -0.10606246133E+03  0.19130430649E+03  0.12509211388E+03 0.  0.
          5    1    3    3  502    0  0.24716485829E+01  0.67494788834E+02 -0.82363075192E+02  0.10659645455E+03  0.41800000000E+01 0.  1.
         -5    1    3    3    0  502  0.80048339766E+02 -0.13731357512E+02 -0.23699386140E+02  0.84707851949E+02  0.41800000000E+01 0.  1.
        -11    1    1    2    0    0 -0.16536307153E+02 -0.60805345672E+02 -0.17243899387E+03  0.18359179210E+03  0.00000000000E+00 0. -1.
         11    1    1    2    0    0 -0.65983681197E+02  0.70419143497E+01 -0.97368245758E+02  0.11783042911E+03  0.00000000000E+00 0.  1.
</event>
<event>
 7    1  0.2679104E-009  0.9970895E+02  0.7561462E-02  0.1280909E+00
         -2   -1    0    0    0  501 -0.00000000000E+00  0.00000000000E+00  0.44162296287E+02  0.44162296287E+02  0.00000000000E+00 0. -1.
          2   -1    0    0  501    0  0.00000000000E+00 -0.00000000000E+00 -0.28241222527E+03  0.28241222527E+03  0.00000000000E+00 0.  1.
         25    2    1    2    0    0 -0.20626871572E+02  0.34667931713E+01 -0.11238134160E+03  0.16945518637E+03  0.12509199719E+03 0.  0.
          5    1    3    3  502    0  0.45154354764E+02 -0.58862588705E+01 -0.91744245197E+01  0.46639106584E+02  0.41800000000E+01 0.  1.
         -5    1    3    3    0  502 -0.65781226336E+02  0.93530520418E+01 -0.10320691708E+03  0.12281607979E+03  0.41800000000E+01 0.  1.
        -11    1    1    2    0    0  0.34842658296E+01 -0.43462118012E+02 -0.92575668335E+02  0.10232961535E+03  0.00000000000E+00 0.  1.
         11    1    1    2    0    0  0.17142605742E+02  0.39995324840E+02 -0.33292919046E+02  0.54789719832E+02  0.00000000000E+00 0. -1.
</event>
<event>
 7    1  0.2679104E-009  0.1396911E+03  0.7561462E-02  0.1213745E+00
         -2   -1    0    0    0  501 -0.00000000000E+00  0.00000000000E+00  0.67942386507E+02  0.67942386507E+02  0.00000000000E+00 0.  1.
          2   -1    0    0  501    0  0.00000000000E+00 -0.00000000000E+00 -0.36899547718E+03  0.36899547718E+03  0.00000000000E+00 0. -1.
         25    2    1    2    0    0 -0.97004313976E+02 -0.39061114382E+02 -0.99527716487E+02  0.19102170474E+03  0.12509163740E+03 0.  0.
          5    1    3    3  502    0 -0.66456359174E+02  0.29091806676E+02 -0.89910049825E+02  0.11560307241E+03  0.41800000000E+01 0. -1.
         -5    1    3    3    0  502 -0.30547954801E+02 -0.68152921058E+02 -0.96176666618E+01  0.75418632335E+02  0.41800000000E+01 0. -1.
        -11    1    1    2    0    0  0.68843852132E+02  0.64223483320E+02 -0.17816207734E+03  0.20150895164E+03  0.00000000000E+00 0.  1.
         11    1    1    2    0    0  0.28160461844E+02 -0.25162368938E+02 -0.23363296847E+02  0.44407207314E+02  0.00000000000E+00 0. -1.
</event>
<event>
 7    1  0.2679104E-009  0.1111099E+03  0.7561462E-02  0.1258528E+00
         -2   -1    0    0    0  501 -0.00000000000E+00  0.00000000000E+00  0.31283849394E+02  0.31283849394E+02  0.00000000000E+00 0.  1.
          2   -1    0    0  501    0  0.00000000000E+00 -0.00000000000E+00 -0.10390308717E+04  0.10390308717E+04  0.00000000000E+00 0. -1.
         25    2    1    2    0    0 -0.72836856680E+02 -0.33419582573E+02 -0.88599137662E+03  0.89836108777E+03  0.12509935408E+03 0.  0.
          5    1    3    3  502    0 -0.68883742789E+02 -0.48745427040E+02 -0.28779750355E+03  0.29994326485E+03  0.41800000000E+01 0.  1.
         -5    1    3    3    0  502 -0.39531138915E+01  0.15325844467E+02 -0.59819387306E+03  0.59841782292E+03  0.41800000000E+01 0.  1.
        -11    1    1    2    0    0  0.70871427155E+02 -0.15379628291E+02 -0.75472692797E+02  0.10466813991E+03  0.00000000000E+00 0.  1.
         11    1    1    2    0    0  0.19654295253E+01  0.48799210864E+02 -0.46282952850E+02  0.67285493375E+02  0.00000000000E+00 0. -1.
</event>
<event>
 7    1  0.2679104E-009  0.2023051E+03  0.7561462E-02  0.1147809E+00
         -1   -1    0    0    0  501 -0.00000000000E+00  0.00000000000E+00  0.34169656750E+02  0.34169656750E+02  0.00000000000E+00 0.  1.
          1   -1    0    0  501    0  0.00000000000E+00 -0.00000000000E+00 -0.13584666326E+04  0.13584666326E+04  0.00000000000E+00 0. -1.
         25    2    1    2    0    0  0.15303245046E+03 -0.95699686862E+02 -0.82850758571E+03  0.85711726244E+03  0.12509125080E+03 0.  0.
          5    1    3    3  502    0  0.15287980033E+03 -0.45527664722E+02 -0.72040686358E+03  0.73786755119E+03  0.41800000000E+01 0.  1.
         -5    1    3    3    0  502  0.15265013268E+00 -0.50172022140E+02 -0.10810072213E+03  0.11924971125E+03  0.41800000000E+01 0.  1.
        -11    1    1    2    0    0  0.24636679029E+01  0.22844258431E+02 -0.22996332103E+02  0.32507862018E+02  0.00000000000E+00 0.  1.
         11    1    1    2    0    0 -0.15549611837E+03  0.72855428431E+02 -0.47279305800E+03  0.50301116486E+03  0.00000000000E+00 0. -1.
</event>
<event>
 7    1  0.2679104E-009  0.8165575E+02  0.7561462E-02  0.1324417E+00
         -1   -1    0    0    0  501 -0.00000000000E+00  0.00000000000E+00  0.82956717371E+02  0.82956717371E+02  0.00000000000E+00 0.  1.
          1   -1    0    0  501    0  0.00000000000E+00 -0.00000000000E+00 -0.14587206665E+03  0.14587206665E+03  0.00000000000E+00 0. -1.
         25    2    1    2    0    0 -0.11496782451E+02 -0.18006801724E+02 -0.27767447704E+02  0.12990379085E+03  0.12509013874E+03 0.  0.
          5    1    3    3  502    0  0.22889920050E+02  0.36138478895E+02 -0.46133915814E+02  0.63053538244E+02  0.41800000000E+01 0.  1.
         -5    1    3    3    0  502 -0.34386702501E+02 -0.54145280619E+02  0.18366468110E+02  0.66850252602E+02  0.41800000000E+01 0.  1.
        -11    1    1    2    0    0  0.29694410763E+02  0.22561638986E+02 -0.58250292125E+02  0.69165613689E+02  0.00000000000E+00 0. -1.
         11    1    1    2    0    0 -0.18197628312E+02 -0.45548372620E+01  0.23102390546E+02  0.29759379490E+02  0.00000000000E+00 0.  1.
</event>
<event>
 7    1  0.2679104E-009  0.6564635E+02  0.7561462E-02  0.1375557E+00
          2   -1    0    0  501    0  0.00000000000E+00  0.00000000000E+00  0.36987279954E+03  0.36987279954E+03  0.00000000000E+00 0. -1.
         -2   -1    0    0    0  501 -0.00000000000E+00 -0.00000000000E+00 -0.35401177852E+02  0.35401177852E+02  0.00000000000E+00 0.  1.
         25    2    1    2    0    0  0.68873943526E+01 -0.60567579855E+01  0.24088931669E+03  0.27158630907E+03  0.12508932753E+03 0.  0.
          5    1    3    3  502    0 -0.22061627265E+02  0.21136510087E+02  0.37003182051E+01  0.31058528797E+02  0.41800000000E+01 0. -1.
         -5    1    3    3    0  502  0.28949021617E+02 -0.27193268073E+02  0.23718899849E+03  0.24052778027E+03  0.41800000000E+01 0. -1.
        -11    1    1    2    0    0  0.22431369084E+02 -0.12637612655E+02  0.95454377154E+02  0.98865634528E+02  0.00000000000E+00 0. -1.
         11    1    1    2    0    0 -0.29318763437E+02  0.18694370640E+02 -0.18720721598E+01  0.34822033790E+02  0.00000000000E+00 0.  1.
</event>
<event>
 7    1  0.2679104E-009  0.1042655E+03  0.7561462E-02  0.1271574E+00
          2   -1    0    0  501    0  0.00000000000E+00  0.00000000000E+00  0.24939441949E+03  0.24939441949E+03  0.00000000000E+00 0.  1.
         -2   -1    0    0    0  501 -0.00000000000E+00 -0.00000000000E+00 -0.78007399638E+02  0.78007399638E+02  0.00000000000E+00 0. -1.
         25    2    1    2    0    0  0.35998051436E+02 -0.32882571769E+02  0.75734568662E+01  0.13447174545E+03  0.12509264503E+03 0.  0.
          5    1    3    3  502    0  0.28134524106E+02 -0.80545338689E+02  0.94950038809E+01  0.85946090836E+02  0.41800000000E+01 0. -1.
         -5    1    3    3    0  502  0.78635273298E+01  0.47662766920E+02 -0.19215470148E+01  0.48525654612E+02  0.41800000000E+01 0. -1.
        -11    1    1    2    0    0 -0.29051224001E+02 -0.10347296589E+02  0.91195720717E+01  0.32159085146E+02  0.00000000000E+00 0. -1.
         11    1    1    2    0    0 -0.69468274343E+01  0.43229868357E+02  0.15469399092E+03  0.16077098854E+03  0.00000000000E+00 0.  1.
</event>
<event>
 7    1  0.2679104E-009  0.5417378E+02  0.7561462E-02  0.1424047E+00
         -1   -1    0    0    0  501 -0.00000000000E+00  0.00000000000E+00  0.51107610217E+02  0.51107610217E+02  0.00000000000E+00 0.  1.
          1   -1    0    0  501    0  0.00000000000E+00 -0.00000000000E+00 -0.24725585082E+03  0.24725585082E+03  0.00000000000E+00 0. -1.
         25    2    1    2    0    0  0.26539966055E+01  0.55066672402E+01 -0.16364059919E+03  0.20606507609E+03  0.12508877967E+03 0.  0.
          5    1    3    3  502    0 -0.19814785173E+01 -0.10355157310E+02  0.19271146065E+02  0.22360791818E+02  0.41800000000E+01 0.  1.
         -5    1    3    3    0  502  0.46354751228E+01  0.15861824551E+02 -0.18291174525E+03  0.18370428427E+03  0.41800000000E+01 0.  1.
        -11    1    1    2    0    0 -0.40878488403E+02  0.23144254221E+01  0.86971274163E+00  0.40953190100E+02  0.00000000000E+00 0. -1.
         11    1    1    2    0    0  0.38224491798E+02 -0.78210926623E+01 -0.33377354160E+02  0.51345194851E+02  0.00000000000E+00 0.  1.
</event>
<event>
 7    1  0.2679104E-009  0.1305332E+03  0.7561462E-02  0.1226667E+00
         -1   -1    0    0    0  501 -0.00000000000E+00  0.00000000000E+00  0.12096895033E+03  0.12096895033E+03  0.00000000000E+00 0.  1.
          1   -1    0    0  501    0  0.00000000000E+00 -0.00000000000E+00 -0.20975787605E+03  0.20975787605E+03  0.00000000000E+00 0. -1.
         25    2    1    2    0    0 -0.75400104421E+02  0.70769823733E+02 -0.10041070449E+03  0.19084938139E+03  0.12509049965E+03 0.  0.
          5    1    3    3  502    0 -0.10465021425E+03  0.66176011887E+02 -0.10261336771E+03  0.16086611677E+03  0.41800000000E+01 0. -1.
         -5    1    3    3    0  502  0.29250109824E+02  0.45938118461E+01  0.22026632249E+01  0.29983264620E+02  0.41800000000E+01 0. -1.
        -11    1    1    2    0    0  0.49224848589E+02 -0.26651413542E+02 -0.38672770880E+02  0.68036510565E+02  0.00000000000E+00 0. -1.
         11    1    1    2    0    0  0.26175255832E+02 -0.44118410191E+02  0.50294549646E+02  0.71840934430E+02  0.00000000000E+00 0.  1.
</event>
<event>
 7    1  0.2679104E-009  0.1175859E+03  0.7561462E-02  0.1247133E+00
          2   -1    0    0  501    0  0.00000000000E+00  0.00000000000E+00  0.79150720901E+03  0.79150720901E+03  0.00000000000E+00 0. -1.
         -2   -1    0    0    0  501 -0.00000000000E+00 -0.00000000000E+00 -0.21143826693E+02  0.21143826693E+02  0.00000000000E+00 0.  1.
         25    2    1    2    0    0  0.50575887271E+02 -0.20667028711E+01  0.58781938106E+03  0.60310989045E+03  0.12509086128E+03 0.  0.
          5    1    3    3  502    0 -0.13382811000E+02 -0.50206971960E+02  0.29229226707E+03  0.29690416207E+03  0.41800000000E+01 0. -1.
         -5    1    3    3    0  502  0.63958698271E+02  0.48140269089E+02  0.29552711399E+03  0.30620572839E+03  0.41800000000E+01 0. -1.
        -11    1    1    2    0    0 -0.31805021540E+02 -0.43335471572E+02  0.95026055457E+02  0.10917634225E+03  0.00000000000E+00 0.  1.
         11    1    1    2    0    0 -0.18770865731E+02  0.45402174443E+02  0.87517945801E+02  0.10036480300E+03  0.00000000000E+00 0. -1.
</event>
<event>
 7    1  0.2679104E-009  0.1592197E+03  0.7561462E-02  0.1189581E+00
         -2   -1    0    0    0  501 -0.00000000000E+00  0.00000000000E+00  0.72825745345E+03  0.72825745345E+03  0.00000000000E+00 0.  1.
          2   -1    0    0  501    0  0.00000000000E+00 -0.00000000000E+00 -0.61025809896E+02  0.61025809896E+02  0.00000000000E+00 0. -1.
         25    2    1    2    0    0  0.34249242583E+02 -0.13023973232E+03  0.12186624157E+03  0.22053045037E+03  0.12508757018E+03 0.  0.
          5    1    3    3  502    0 -0.86275122455E+01 -0.10897834723E+03  0.13199058344E+03  0.17143424585E+03  0.41800000000E+01 0.  1.
         -5    1    3    3    0  502  0.42876754829E+02 -0.21261385092E+02 -0.10124341866E+02  0.49096204526E+02  0.41800000000E+01 0.  1.
        -11    1    1    2    0    0 -0.58292695405E+02  0.48606687352E+02  0.27766293549E+03  0.28784953385E+03  0.00000000000E+00 0. -1.
         11    1    1    2    0    0  0.24043452822E+02  0.81633044972E+02  0.26770246649E+03  0.28090327912E+03  0.00000000000E+00 0.  1.
</event>
<event>
 7    1  0.2679104E-009  0.9079025E+02  0.7561462E-02  0.1300949E+00
         -2   -1    0    0    0  501 -0.00000000000E+00  0.00000000000E+00  0.83723330011E+02  0.83723330011E+02  0.00000000000E+00 0.  1.
          2   -1    0    0  501    0  0.00000000000E+00 -0.00000000000E+00 -0.17761050593E+03  0.17761050593E+03  0.00000000000E+00 0. -1.
         25    2    1    2    0    0  0.15436927084E+02 -0.34602924289E+00 -0.76871516019E+02  0.14761990740E+03  0.12507593147E+03 0.  0.
          5    1    3    3  502    0  0.27608910570E+02 -0.57868927648E+02 -0.24487203328E+02  0.68761619068E+02  0.41800000000E+01 0. -1.
         -5    1    3    3    0  502 -0.12171983485E+02  0.57522898405E+02 -0.52384312691E+02  0.78858288334E+02  0.41800000000E+01 0. -1.
        -11    1    1    2    0    0 -0.28560157308E+02 -0.19505024956E+02 -0.57298559889E+02  0.66927225771E+02  0.00000000000E+00 0. -1.
         11    1    1    2    0    0  0.13123230224E+02  0.19851054199E+02  0.40282899989E+02  0.46786702767E+02  0.00000000000E+00 0.  1.
</event>
<event>
 7    1  0.2679104E-009  0.1700246E+03  0.7561462E-02  0.1177822E+00
         -2   -1    0    0    0  501 -0.00000000000E+00  0.00000000000E+00  0.18640274817E+03  0.18640274817E+03  0.00000000000E+00 0.  1.
          2   -1    0    0  501    0  0.00000000000E+00 -0.00000000000E+00 -0.18008991973E+03  0.18008991973E+03  0.00000000000E+00 0. -1.
         25    2    1    2    0    0 -0.12787674289E+03  0.50304186356E+02 -0.49627391088E+02  0.19233906855E+03  0.12509383200E+03 0.  0.
          5    1    3    3  502    0 -0.74854713581E+02  0.84581175349E+02 -0.60403174157E+02  0.12815310850E+03  0.41800000000E+01 0. -1.
         -5    1    3    3    0  502 -0.53022029312E+02 -0.34276988993E+02  0.10775783069E+02  0.64185960050E+02  0.41800000000E+01 0. -1.
        -11    1    1    2    0    0  0.36720218313E+02 -0.61784281967E+02  0.34903292859E+02  0.79899385376E+02  0.00000000000E+00 0. -1.
         11    1    1    2    0    0  0.91156524580E+02  0.11480095611E+02  0.21036926664E+02  0.94254213976E+02  0.00000000000E+00 0.  1.
</event>
<event>
 7    1  0.2679104E-009  0.1843811E+03  0.7561462E-02  0.1163629E+00
         -2   -1    0    0    0  501 -0.00000000000E+00  0.00000000000E+00  0.35955525414E+02  0.35955525414E+02  0.00000000000E+00 0. -1.
          2   -1    0    0  501    0  0.00000000000E+00 -0.00000000000E+00 -0.10627628013E+04  0.10627628013E+04  0.00000000000E+00 0.  1.
         25    2    1    2    0    0  0.63380257545E+01 -0.15607228334E+03 -0.41574137872E+03  0.46139649569E+03  0.12508838498E+03 0.  0.
          5    1    3    3  502    0  0.26999068960E+02 -0.16889456994E+03 -0.32403927233E+03  0.36643314246E+03  0.41800000000E+01 0.  1.
         -5    1    3    3    0  502 -0.20661043205E+02  0.12822286605E+02 -0.91702106383E+02  0.94963353222E+02  0.41800000000E+01 0.  1.
        -11    1    1    2    0    0  0.33579283019E+02  0.56526801281E+02 -0.33005177413E+03  0.33653680499E+03  0.00000000000E+00 0.  1.
         11    1    1    2    0    0 -0.39917308774E+02  0.99545482059E+02 -0.28101412307E+03  0.30078502607E+03  0.00000000000E+00 0. -1.
</event>
<event>
 7    1  0.2679104E-009  0.5644546E+02  0.7561462E-02  0.1413384E+00
          1   -1    0    0  501    0  0.00000000000E+00  0.00000000000E+00  0.56230111210E+03  0.56230111210E+03  0.00000000000E+00 0. -1.
         -1   -1    0    0    0  501 -0.00000000000E+00 -0.00000000000E+00 -0.21494398883E+02  0.21494398883E+02  0.00000000000E+00 0.  1.
         25    2    1    2    0    0 -0.95660844120E+01 -0.89913823762E+01  0.24555851074E+03  0.27589770137E+03  0.12509278356E+03 0.  0.
          5    1    3    3  502    0  0.48812620808E+01 -0.98719751377E+01 -0.12629689772E+02  0.17270323574E+02  0.41800000000E+01 0. -1.
         -5    1    3    3    0  502 -0.14447346493E+02  0.88059276148E+00  0.25818820051E+03  0.25862737780E+03  0.41800000000E+01 0. -1.
        -11    1    1    2    0    0  0.39054642459E+02  0.30494544797E+02  0.14317769544E+03  0.15150919058E+03  0.00000000000E+00 0.  1.
         11    1    1    2    0    0 -0.29488558047E+02 -0.21503162421E+02  0.15207050705E+03  0.15638861904E+03  0.00000000000E+00 0. -1.
</event>
<event>
 7    1  0.2679104E-009  0.9603906E+02  0.7561462E-02  0.1288853E+00
         -1   -1    0    0    0  501 -0.00000000000E+00  0.00000000000E+00  0.72301515680E+02  0.72301515680E+02  0.00000000000E+00 0.  1.
          1   -1    0    0  501    0  0.00000000000E+00 -0.00000000000E+00 -0.22485295030E+03  0.22485295030E+03  0.00000000000E+00 0. -1.
         25    2    1    2    0    0  0.97417054936E+01 -0.55019341025E+02 -0.44679718401E+02  0.14409234588E+03  0.12507716894E+03 0.  0.
          5    1    3    3  502    0 -0.36727131319E+02 -0.33667367627E+01 -0.62094308591E+02  0.72342191360E+02  0.41800000000E+01 0. -1.
         -5    1    3    3    0  502  0.46468836813E+02 -0.51652604262E+02  0.17414590189E+02  0.71750154517E+02  0.41800000000E+01 0. -1.
        -11    1    1    2    0    0 -0.25656853791E+02 -0.24029743061E+01  0.42240238143E+01  0.26113039063E+02  0.00000000000E+00 0.  1.
         11    1    1    2    0    0  0.15915148297E+02  0.57422315331E+02 -0.11209574003E+03  0.12694908104E+03  0.00000000000E+00 0. -1.
</event>
<event>
 7    1  0.2679104E-009  0.1475010E+03  0.7561462E-02  0.1203578E+00
          1   -1    0    0  501    0  0.00000000000E+00  0.00000000000E+00  0.16652750240E+03  0.16652750240E+03  0.00000000000E+00 0. -1.
         -1   -1    0    0    0  501 -0.00000000000E+00 -0.00000000000E+00 -0.15925423568E+03  0.15925423568E+03  0.00000000000E+00 0.  1.
         25    2    1    2    0    0 -0.77627727203E+02 -0.42889069887E+02 -0.11721801590E+02  0.15378752707E+03  0.12509063315E+03 0.  0.
          5    1    3    3  502    0 -0.68089354177E+02 -0.85182492884E+02 -0.19539941090E+01  0.10914901621E+03  0.41800000000E+01 0. -1.
         -5    1    3    3    0  502 -0.95383730264E+01  0.42293422997E+02 -0.97678074813E+01  0.44638510860E+02  0.41800000000E+01 0. -1.
        -11    1    1    2    0    0 -0.25737903617E+02 -0.81989107781E+01 -0.35381215215E+02  0.44513955235E+02  0.00000000000E+00 0.  1.
         11    1    1    2    0    0  0.10336563082E+03  0.51087980665E+02  0.54376283527E+02  0.12748025578E+03  0.00000000000E+00 0. -1.
</event>
<event>
 7    1  0.2679104E-009  0.1985381E+03  0.7561462E-02  0.1150978E+00
         -2   -1    0    0    0  501 -0.00000000000E+00  0.00000000000E+00  0.11964062997E+04  0.11964062997E+04  0.00000000000E+00 0.  1.
          2   -1    0    0  501    0  0.00000000000E+00 -0.00000000000E+00 -0.37627175706E+02  0.37627175706E+02  0.00000000000E+00 0. -1.
         25    2    1    2    0    0  0.15918461282E+03 -0.87657806554E+02  0.56138564799E+03  0.60317865938E+03  0.12508803844E+03 0.  0.
          5    1    3    3  502    0  0.44521826423E+02  0.24430641838E+02  0.22233876252E+03  0.22810314993E+03  0.41800000000E+01 0.  1.
         -5    1    3    3    0  502  0.11466278639E+03 -0.11208844839E+03  0.33904688547E+03  0.37507550946E+03  0.41800000000E+01 0.  1.
        -11    1    1    2    0    0 -0.60132372372E+02  0.54803278974E+02  0.14199294467E+03  0.16364992493E+03  0.00000000000E+00 0. -1.
         11    1    1    2    0    0 -0.99052240445E+02  0.32854527580E+02  0.45540053131E+03  0.46720489107E+03  0.00000000000E+00 0.  1.
</event>
<event>
 7    1  0.2679104E-009  0.8813918E+02  0.7561462E-02  0.1307422E+00
          2   -1    0    0  501    0  0.00000000000E+00  0.00000000000E+00  0.38813600651E+03  0.38813600651E+03  0.00000000000E+00 0. -1.
         -2   -1    0    0    0  501 -0.00000000000E+00 -0.00000000000E+00 -0.40338253759E+02  0.40338253759E+02  0.00000000000E+00 0.  1.
         25    2    1    2    0    0 -0.32457327363E+02  0.49115121682E+02  0.21356137113E+03  0.25440249908E+03  0.12508556680E+03 0.  0.
          5    1    3    3  502    0 -0.60541347053E+02  0.28148914202E+01  0.40486130793E+02  0.73005325171E+02  0.41800000000E+01 0. -1.
         -5    1    3    3    0  502  0.28084019691E+02  0.46300230261E+02  0.17307524034E+03  0.18139717391E+03  0.41800000000E+01 0. -1.
        -11    1    1    2    0    0  0.81845936292E+01 -0.27569976079E+02  0.13839441577E+03  0.14135100096E+03  0.00000000000E+00 0. -1.
         11    1    1    2    0    0  0.24272733734E+02 -0.21545145603E+02 -0.41580341565E+01  0.32720760230E+02  0.00000000000E+00 0.  1.
</event>
<event>
 7    1  0.2679104E-009  0.9780509E+02  0.7561462E-02  0.1284980E+00
         -4   -1    0    0    0  501 -0.00000000000E+00  0.00000000000E+00  0.91860217539E+02  0.91860217539E+02  0.00000000000E+00 0.  1.
          4   -1    0    0  501    0  0.00000000000E+00 -0.00000000000E+00 -0.19712989728E+03  0.19712989728E+03  0.00000000000E+00 0. -1.
         25    2    1    2    0    0 -0.14862087262E+02  0.56031440806E+02 -0.12341572640E+01  0.13787463808E+03  0.12508992239E+03 0.  0.
          5    1    3    3  502    0  0.26972145095E+02 -0.17101684488E+02  0.33658201866E+02  0.46586598676E+02  0.41800000000E+01 0.  1.
         -5    1    3    3    0  502 -0.41834232356E+02  0.73133125294E+02 -0.34892359130E+02  0.91288039402E+02  0.41800000000E+01 0.  1.
        -11    1    1    2    0    0  0.32457856214E+02 -0.51499151618E+02 -0.18430185380E+02  0.63603040655E+02  0.00000000000E+00 0.  1.
         11    1    1    2    0    0 -0.17595768952E+02 -0.45322891882E+01 -0.85605337094E+02  0.87512436084E+02  0.00000000000E+00 0. -1.
</event>
<event>
 7    1  0.2679104E-009  0.1034181E+03  0.7561462E-02  0.1273268E+00
          4   -1    0    0  501    0  0.00000000000E+00  0.00000000000E+00  0.27118296534E+03  0.27118296534E+03  0.00000000000E+00 0. -1.
         -4   -1    0    0    0  501 -0.00000000000E+00 -0.00000000000E+00 -0.84826888169E+02  0.84826888169E+02  0.00000000000E+00 0.  1.
         25    2    1    2    0    0 -0.88184808675E-01 -0.41275556028E+02  0.21599921628E+03  0.25299372399E+03  0.12508590505E+03 0.  0.
          5    1    3    3  502    0  0.19746120039E+02 -0.71842734064E+02  0.19907109610E+03  0.21259835699E+03  0.41800000000E+01 0.  1.
         -5    1    3    3    0  502 -0.19834304848E+02  0.30567178036E+02  0.16928120181E+02  0.40395366996E+02  0.41800000000E+01 0.  1.
        -11    1    1    2    0    0  0.98548968078E+01  0.67154768456E+02 -0.89286813979E+01  0.68458770577E+02  0.00000000000E+00 0. -1.
         11    1    1    2    0    0 -0.97667119991E+01 -0.25879212428E+02 -0.20714457708E+02  0.34557358946E+02  0.00000000000E+00 0.  1.
</event>
<event>
 7    1  0.2679104E-009  0.1202780E+03  0.7561462E-02  0.1242639E+00
          1   -1    0    0  501    0  0.00000000000E+00  0.00000000000E+00  0.10500510106E+03  0.10500510106E+03  0.00000000000E+00 0. -1.
         -1   -1    0    0    0  501 -0.00000000000E+00 -0.00000000000E+00 -0.16859269484E+03  0.16859269484E+03  0.00000000000E+00 0.  1.
         25    2    1    2    0    0 -0.61941817551E+02 -0.29027801185E+02 -0.71926595673E+02  0.15968649847E+03  0.12508773171E+03 0.  0.
          5    1    3    3  502    0  0.11186077721E+02  0.35376485106E+02 -0.45059305461E+02  0.58518693098E+02  0.41800000000E+01 0.  1.
         -5    1    3    3    0  502 -0.73127895271E+02 -0.64404286292E+02 -0.26867290211E+02  0.10116780537E+03  0.41800000000E+01 0.  1.
        -11    1    1    2    0    0  0.16218930385E+02 -0.28140389527E+02 -0.16728394402E+02  0.36534564522E+02  0.00000000000E+00 0.  1.
         11    1    1    2    0    0  0.45722887166E+02  0.57168190712E+02  0.25067396291E+02  0.77376732917E+02  0.00000000000E+00 0. -1.
</event>
<event>
 7    1  0.2679104E-009  0.1052869E+03  0.7561462E-02  0.1269555E+00
          2   -1    0    0  501    0  0.00000000000E+00  0.00000000000E+00  0.81035349646E+03  0.81035349646E+03  0.00000000000E+00 0. -1.
         -2   -1    0    0    0  501 -0.00000000000E+00 -0.00000000000E+00 -0.21248431406E+02  0.21248431406E+02  0.00000000000E+00 0.  1.
         25    2    1    2    0    0 -0.54022198663E+02 -0.26302433755E+02  0.30414867597E+03  0.33431146109E+03  0.12509004738E+03 0.  0.
          5    1    3    3  502    0 -0.18916980890E+01  0.26475574450E+02  0.66582897258E+01  0.27682842813E+02  0.41800000000E+01 0.  1.
         -5    1    3    3    0  502 -0.52130500574E+02 -0.52778008205E+02  0.29749038624E+03  0.30662861828E+03  0.41800000000E+01 0.  1.
        -11    1    1    2    0    0  0.63264397128E+02  0.52127751305E+02  0.33819484952E+03  0.34798770473E+03  0.00000000000E+00 0. -1.
         11    1    1    2    0    0 -0.92421984653E+01 -0.25825317550E+02  0.14676153956E+03  0.14930276204E+03  0.00000000000E+00 0.  1.
</event>
<event>
 7    1  0.2679104E-009  0.2196130E+03  0.7561462E-02  0.1134172E+00
          2   -1    0    0  501    0  0.00000000000E+00  0.00000000000E+00  0.97504598440E+03  0.97504598440E+03  0.00000000000E+00 0. -1.
         -2   -1    0    0    0  501 -0.00000000000E+00 -0.00000000000E+00 -0.52204000897E+02  0.52204000897E+02  0.00000000000E+00 0.  1.
         25    2    1    2    0    0  0.13195502351E+03 -0.14236827833E+03  0.38946684833E+03  0.45278409858E+03  0.12509260202E+03 0.  0.
          5    1    3    3  502    0 -0.16781236579E+02 -0.48760912713E+02  0.12432889053E+03  0.13466395929E+03  0.41800000000E+01 0. -1.
         -5    1    3    3    0  502  0.14873626009E+03 -0.93607365617E+02  0.26513795780E+03  0.31812013930E+03  0.41800000000E+01 0. -1.
        -11    1    1    2    0    0 -0.14212345383E+03  0.11605151103E+03  0.43473311214E+03  0.47186852844E+03  0.00000000000E+00 0.  1.
         11    1    1    2    0    0  0.10168430318E+02  0.26316767296E+02  0.98642023039E+02  0.10259735828E+03  0.00000000000E+00 0. -1.
</event>
<event>
 7    1  0.2679104E-009  0.1264811E+03  0.7561462E-02  0.1232773E+00
          2   -1    0    0  501    0  0.00000000000E+00  0.00000000000E+00  0.11549935243E+03  0.11549935243E+03  0.00000000000E+00 0.  1.
         -2   -1    0    0    0  501 -0.00000000000E+00 -0.00000000000E+00 -0.16918013112E+03  0.16918013112E+03  0.00000000000E+00 0. -1.
         25    2    1    2    0    0  0.11358486004E+02 -0.84446314475E+02 -0.44065866451E+02  0.15763682380E+03  0.12508945758E+03 0.  0.
          5    1    3    3  502    0 -0.23170343450E+02 -0.90101691989E+02 -0.67763545765E+02  0.11517182924E+03  0.41800000000E+01 0. -1.
         -5    1    3    3    0  502  0.34528829454E+02  0.56553775146E+01  0.23697679314E+02  0.42464994562E+02  0.41800000000E+01 0. -1.
        -11    1    1    2    0    0  0.35376536139E+02  0.64948836565E+02  0.55920607002E+01  0.74169547816E+02  0.00000000000E+00 0.  1.
         11    1    1    2    0    0 -0.46735022143E+02  0.19497477910E+02 -0.15206972947E+02  0.52873111936E+02  0.00000000000E+00 0. -1.
</event>
<event>
 7    1  0.2679104E-009  0.1214313E+03  0.7561462E-02  0.1240754E+00
         -1   -1    0    0    0  501 -0.00000000000E+00  0.00000000000E+00  0.68907097858E+02  0.68907097858E+02  0.00000000000E+00 0.  1.
          1   -1    0    0  501    0  0.00000000000E+00 -0.00000000000E+00 -0.27757521271E+03  0.27757521271E+03  0.00000000000E+00 0. -1.
         25    2    1    2    0    0  0.78180733985E+02  0.30046676294E+02 -0.95663811135E+02  0.17837567012E+03  0.12510509585E+03 0.  0.
          5    1    3    3  502    0  0.13139613643E+02  0.71635661381E+02 -0.51966660567E+02  0.89567425098E+02  0.41800000000E+01 0. -1.
         -5    1    3    3    0  502  0.65041120342E+02 -0.41588985087E+02 -0.43697150568E+02  0.88808245021E+02  0.41800000000E+01 0. -1.
        -11    1    1    2    0    0 -0.70622921630E+02 -0.10193398085E+02 -0.22019836836E+02  0.74675134003E+02  0.00000000000E+00 0.  1.
         11    1    1    2    0    0 -0.75578123546E+01 -0.19853278209E+02 -0.90984466879E+02  0.93431506445E+02  0.00000000000E+00 0. -1.
</event>
<event>
 7    1  0.2679104E-009  0.7885266E+02  0.7561462E-02  0.1332339E+00
         -2   -1    0    0    0  501 -0.00000000000E+00  0.00000000000E+00  0.58405455461E+02  0.58405455461E+02  0.00000000000E+00 0.  1.
          2   -1    0    0  501    0  0.00000000000E+00 -0.00000000000E+00 -0.24282458261E+03  0.24282458261E+03  0.00000000000E+00 0. -1.
         25    2    1    2    0    0 -0.31094532563E+02 -0.38513822515E+02 -0.91167125615E+02  0.16250765641E+03  0.12508840521E+03 0.  0.
          5    1    3    3  502    0 -0.32542784321E+02 -0.26100203511E+02 -0.12198592885E+03  0.12898950606E+03  0.41800000000E+01 0.  1.
         -5    1    3    3    0  502  0.14482517572E+01 -0.12413619004E+02  0.30818803240E+02  0.33518150352E+02  0.41800000000E+01 0.  1.
        -11    1    1    2    0    0  0.36678360657E+02 -0.21375640270E+02 -0.35562913561E+02  0.55379968927E+02  0.00000000000E+00 0.  1.
         11    1    1    2    0    0 -0.55838280932E+01  0.59889462785E+02 -0.57689087971E+02  0.83342412730E+02  0.00000000000E+00 0. -1.
</event>
<event>
 7    1  0.2679104E-009  0.8163470E+02  0.7561462E-02  0.1324475E+00
          2   -1    0    0  501    0  0.00000000000E+00  0.00000000000E+00  0.17326147362E+03  0.17326147362E+03  0.00000000000E+00 0. -1.
         -2   -1    0    0    0  501 -0.00000000000E+00 -0.00000000000E+00 -0.96364866605E+02  0.96364866605E+02  0.00000000000E+00 0.  1.
         25    2    1    2    0    0  0.32435150295E+01  0.41397730976E+02  0.10104605577E+03  0.16607934611E+03  0.12509097209E+03 0.  0.
          5    1    3    3  502    0 -0.18133962461E+02  0.58439785499E+02  0.15051189067E-01  0.61331246117E+02  0.41800000000E+01 0. -1.
         -5    1    3    3    0  502  0.21377477491E+02 -0.17042054523E+02  0.10103100458E+03  0.10474810000E+03  0.41800000000E+01 0. -1.
        -11    1    1    2    0    0 -0.15676118513E+02 -0.54208458060E+02  0.16798500584E+02  0.58876882040E+02  0.00000000000E+00 0. -1.
         11    1    1    2    0    0  0.12432603484E+02  0.12810727084E+02 -0.40947949337E+02  0.44670112074E+02  0.00000000000E+00 0.  1.
</event>
<event>
 7    1  0.2679104E-009  0.1008671E+03  0.7561462E-02  0.1278483E+00
          2   -1    0    0  501    0  0.00000000000E+00  0.00000000000E+00  0.15559478893E+03  0.15559478893E+03  0.00000000000E+00 0. -1.
         -2   -1    0    0    0  501 -0.00000000000E+00 -0.00000000000E+00 -0.11656453103E+03  0.11656453103E+03  0.00000000000E+00 0.  1.
         25    2    1    2    0    0  0.87270720571E+01 -0.77699006130E+02  0.10147231564E+02  0.14786302692E+03  0.12508881278E+03 0.  0.
          5    1    3    3  502    0 -0.24031822835E+02 -0.47947872495E+01 -0.44484650255E+02  0.50959542794E+02  0.41800000000E+01 0. -1.
         -5    1    3    3    0  502  0.32758894892E+02 -0.72904218881E+02  0.54631881819E+02  0.96903484128E+02  0.41800000000E+01 0. -1.
        -11    1    1    2    0    0 -0.30871078691E+02  0.25162196082E+02 -0.24028617107E+02  0.46513804954E+02  0.00000000000E+00 0.  1.
         11    1    1    2    0    0  0.22144006634E+02  0.52536810049E+02  0.52911643441E+02  0.77782488077E+02  0.00000000000E+00 0. -1.
</event>
<event>
 7    1  0.2679104E-009  0.9950501E+02  0.7561462E-02  0.1281340E+00
         -3   -1    0    0    0  501 -0.00000000000E+00  0.00000000000E+00  0.72374837388E+02  0.72374837388E+02  0.00000000000E+00 0.  1.
          3   -1    0    0  501    0  0.00000000000E+00 -0.00000000000E+00 -0.19323517520E+03  0.19323517520E+03  0.00000000000E+00 0. -1.
         25    2    1    2    0    0 -0.31086537263E+02 -0.33274124784E+02 -0.54077035086E+02  0.14368638936E+03  0.12509161676E+03 0.  0.
          5    1    3    3  502    0  0.28560738999E+02 -0.29652578509E+02  0.21991774287E+02  0.46862583803E+02  0.41800000000E+01 0.  1.
         -5    1    3    3    0  502 -0.59647276262E+02 -0.36215462747E+01 -0.76068809374E+02  0.96823805556E+02  0.41800000000E+01 0.  1.
        -11    1    1    2    0    0  0.39469060481E+02  0.58822197326E+02 -0.31402759426E+02  0.77485424004E+02  0.00000000000E+00 0.  1.
         11    1    1    2    0    0 -0.83825232183E+01 -0.25548072542E+02 -0.35380543302E+02  0.44438199226E+02  0.00000000000E+00 0. -1.
</event>
<event>
 7    1  0.2679104E-009  0.1049504E+03  0.7561462E-02  0.1270217E+00
         -2   -1    0    0    0  501 -0.00000000000E+00  0.00000000000E+00  0.58648946847E+02  0.58648946847E+02  0.00000000000E+00 0.  1.
          2   -1    0    0  501    0  0.00000000000E+00 -0.00000000000E+00 -0.27560114038E+03  0.27560114038E+03  0.00000000000E+00 0. -1.
         25    2    1    2    0    0  0.32646294900E+02  0.34068434079E+02 -0.59885343550E+02  0.14649012168E+03  0.12508662041E+03 0.  0.
          5    1    3    3  502    0 -0.11591996963E+02  0.56197992743E+02  0.12348511460E+02  0.58843410143E+02  0.41800000000E+01 0.  1.
         -5    1    3    3    0  502  0.44238291863E+02 -0.22129558665E+02 -0.72233855010E+02  0.87646711537E+02  0.41800000000E+01 0.  1.
        -11    1    1    2    0    0 -0.49803677653E+02  0.13962158710E+02 -0.74001672221E+02  0.90286187621E+02  0.00000000000E+00 0. -1.
         11    1    1    2    0    0  0.17157382753E+02 -0.48030592789E+02 -0.83065177763E+02  0.97473777927E+02  0.00000000000E+00 0.  1.
</event>
<event>
 7    1  0.2679104E-009  0.1399224E+03  0.7561462E-02  0.1213433E+00
          2   -1    0    0  501    0  0.00000000000E+00  0.00000000000E+00  0.53419886972E+03  0.53419886972E+03  0.00000000000E+00 0. -1.
         -2   -1    0    0    0  501 -0.00000000000E+00 -0.00000000000E+00 -0.42847286724E+02  0.42847286724E+02  0.00000000000E+00 0.  1.
         25    2    1    2    0    0 -0.76939275837E+02  0.81416764506E+02  0.24676237475E+03  0.29848035288E+03  0.12510199740E+03 0.  0.
          5    1    3    3  502    0  0.31027635672E+02  0.22495842061E+02  0.28610951457E+02  0.48008707843E+02  0.41800000000E+01 0.  1.
         -5    1    3    3    0  502 -0.10796691151E+03  0.58920922444E+02  0.21815142329E+03  0.25047164503E+03  0.41800000000E+01 0.  1.
        -11    1    1    2    0    0  0.31466065579E+02 -0.60450910251E+02  0.73208036263E+02  0.10001921019E+03  0.00000000000E+00 0. -1.
         11    1    1    2    0    0  0.45473210258E+02 -0.20965854255E+02  0.17138117198E+03  0.17854659338E+03  0.00000000000E+00 0.  1.
</event>
<event>
 7    1  0.2679104E-009  0.7816811E+02  0.7561462E-02  0.1334332E+00
          1   -1    0    0  501    0  0.00000000000E+00  0.00000000000E+00  0.37134364950E+03  0.37134364950E+03  0.00000000000E+00 0. -1.
         -1   -1    0    0    0  501 -0.00000000000E+00 -0.00000000000E+00 -0.43172329062E+02  0.43172329062E+02  0.00000000000E+00 0.  1.
         25    2    1    2    0    0  0.35247433393E+02  0.32829123986E+02  0.27777253835E+03  0.30842406999E+03  0.12509073084E+03 0.  0.
          5    1    3    3  502    0  0.31556103619E+02  0.42327324212E+02  0.30920641279E+02  0.61326572606E+02  0.41800000000E+01 0. -1.
         -5    1    3    3    0  502  0.36913297747E+01 -0.94982002257E+01  0.24685189707E+03  0.24709749738E+03  0.41800000000E+01 0. -1.
        -11    1    1    2    0    0 -0.59180374582E+02 -0.34266361710E+02  0.30262429229E+02  0.74781781895E+02  0.00000000000E+00 0.  1.
         11    1    1    2    0    0  0.23932941189E+02  0.14372377234E+01  0.20136352853E+02  0.31310126676E+02  0.00000000000E+00 0. -1.
</event>
<event>
 7    1  0.2679104E-009  0.1011628E+03  0.7561462E-02  0.1277870E+00
         -1   -1    0    0    0  501 -0.00000000000E+00  0.00000000000E+00  0.44371642879E+03  0.44371642879E+03  0.00000000000E+00 0.  1.
          1   -1    0    0  501    0  0.00000000000E+00 -0.00000000000E+00 -0.30230168373E+02  0.30230168373E+02  0.00000000000E+00 0. -1.
         25    2    1    2    0    0  0.24002766776E+02 -0.25554940907E+02  0.27702970163E+03  0.30597554403E+03  0.12508553130E+03 0.  0.
          5    1    3    3  502    0 -0.18264541632E+02  0.42741685387E+02  0.13386641928E+03  0.14176789398E+03  0.41800000000E+01 0. -1.
         -5    1    3    3    0  502  0.42267308408E+02 -0.68296626294E+02  0.14316328235E+03  0.16420765005E+03  0.41800000000E+01 0. -1.
        -11    1    1    2    0    0 -0.18561160610E+02  0.48352657204E+02  0.31919584427E+02  0.60838770631E+02  0.00000000000E+00 0. -1.
         11    1    1    2    0    0 -0.54416061659E+01 -0.22797716298E+02  0.10453697436E+03  0.10713228250E+03  0.00000000000E+00 0.  1.
</event>
<event>
 7    1  0.2679104E-009  0.1043338E+03  0.7561462E-02  0.1271438E+00
         -1   -1    0    0    0  501 -0.00000000000E+00  0.00000000000E+00  0.28534995845E+03  0.28534995845E+03  0.00000000000E+00 0.  1.
          1   -1    0    0  501    0  0.00000000000E+00 -0.00000000000E+00 -0.89173582558E+02  0.89173582558E+02  0.00000000000E+00 0. -1.
         25    2    1    2    0    0 -0.59563231477E+02  0.43992677465E+02  0.21164147805E+03  0.25674472632E+03  0.12507040036E+03 0.  0.
          5    1    3    3  502    0 -0.11609352359E+02  0.50771235793E+02  0.15253609497E+02  0.54430142833E+02  0.41800000000E+01 0.  1.
         -5    1    3    3    0  502 -0.47953879119E+02 -0.67785583271E+01  0.19638786855E+03  0.20231458348E+03  0.41800000000E+01 0.  1.
        -11    1    1    2    0    0  0.40257691697E+02 -0.66759102825E+02 -0.31278668262E+02  0.83998896654E+02  0.00000000000E+00 0. -1.
         11    1    1    2    0    0  0.19305539781E+02  0.22766425360E+02  0.15813566109E+02  0.33779918043E+02  0.00000000000E+00 0.  1.
</event>
<event>
 7    1  0.2679104E-009  0.1098460E+03  0.7561462E-02  0.1260855E+00
         -2   -1    0    0    0  501 -0.00000000000E+00  0.00000000000E+00  0.19061145181E+02  0.19061145181E+02  0.00000000000E+00 0.  1.
          2   -1    0    0  501    0  0.00000000000E+00 -0.00000000000E+00 -0.71750138884E+03  0.71750138884E+03  0.00000000000E+00 0. -1.
         25    2    1    2    0    0  0.41149503209E+02 -0.56317857291E+01 -0.45263028804E+03  0.47143105411E+03  0.12509221598E+03 0.  0.
          5    1    3    3  502    0  0.80086080157E+02  0.34863696018E+01 -0.38027299549E+03  0.38865274797E+03  0.41800000000E+01 0.  1.
         -5    1    3    3    0  502 -0.38936576948E+02 -0.91181553309E+01 -0.72357292553E+02  0.82778306136E+02  0.41800000000E+01 0.  1.
        -11    1    1    2    0    0  0.13639872834E+02 -0.30617192527E+02 -0.76375321668E+02  0.83406524739E+02  0.00000000000E+00 0.  1.
         11    1    1    2    0    0 -0.54789376043E+02  0.36248978256E+02 -0.16943463395E+03  0.18172495517E+03  0.00000000000E+00 0. -1.
</event>
<event>
 7    1  0.2679104E-009  0.8314468E+02  0.7561462E-02  0.1320357E+00
         -1   -1    0    0    0  501 -0.00000000000E+00  0.00000000000E+00  0.11520547582E+02  0.11520547582E+02  0.00000000000E+00 0.  1.
          1   -1    0    0  501    0  0.00000000000E+00 -0.00000000000E+00 -0.81141685085E+03  0.81141685085E+03  0.00000000000E+00 0. -1.
         25    2    1    2    0    0  0.18332567934E+02 -0.21995763605E+02 -0.57883336118E+03  0.59288794998E+03  0.12509262388E+03 0.  0.
          5    1    3    3  502    0  0.42476350843E+02  0.25111907256E+02 -0.10503608850E+03  0.11612450454E+03  0.41800000000E+01 0. -1.
         -5    1    3    3    0  502 -0.24143782909E+02 -0.47107670860E+02 -0.47379727268E+03  0.47676344544E+03  0.41800000000E+01 0. -1.
        -11    1    1    2    0    0 -0.30854486204E+02  0.34284947620E+02 -0.15951300078E+03  0.16604774726E+03  0.00000000000E+00 0. -1.
         11    1    1    2    0    0  0.12521918270E+02 -0.12289184015E+02 -0.61549941309E+02  0.64001701196E+02  0.00000000000E+00 0.  1.
</event>
<event>
 7    1  0.2679104E-009  0.1046309E+03  0.7561462E-02  0.1270849E+00
         -2   -1    0    0    0  501 -0.00000000000E+00  0.00000000000E+00  0.26414561031E+02  0.26414561031E+02  0.00000000000E+00 0. -1.
          2   -1    0    0  501    0  0.00000000000E+00 -0.00000000000E+00 -0.62936559871E+03  0.62936559871E+03  0.00000000000E+00 0.  1.
         25    2    1    2    0    0  0.22897379499E+02 -0.36804244736E+02 -0.44037497933E+03  0.45984222503E+03  0.12508360038E+03 0.  0.
          5    1    3    3  502    0  0.64542255541E+02 -0.45241361917E+02 -0.18824740442E+03  0.20412506276E+03  0.41800000000E+01 0.  1.
         -5    1    3    3    0  502 -0.41644876043E+02  0.84371171807E+01 -0.25212757491E+03  0.25571716227E+03  0.41800000000E+01 0.  1.
        -11    1    1    2    0    0 -0.71103723115E+01 -0.23887978601E+02 -0.11378138415E+03  0.11647916679E+03  0.00000000000E+00 0.  1.
         11    1    1    2    0    0 -0.15787007187E+02  0.60692223337E+02 -0.48794674192E+02  0.79458767918E+02  0.00000000000E+00 0. -1.
</event>
<event>
 7    1  0.2679104E-009  0.1025405E+03  0.7561462E-02  0.1275042E+00
          2   -1    0    0  501    0  0.00000000000E+00  0.00000000000E+00  0.46965392933E+03  0.46965392933E+03  0.00000000000E+00 0. -1.
         -2   -1    0    0    0  501 -0.00000000000E+00 -0.00000000000E+00 -0.31912552964E+02  0.31912552964E+02  0.00000000000E+00 0.  1.
         25    2    1    2    0    0 -0.49049292008E+02  0.18974944613E+02  0.19868624563E+03  0.24060496084E+03  0.12509452990E+03 0.  0.
          5    1    3    3  502    0 -0.20344330910E+02  0.54102572225E+02  0.18373498918E+03  0.19265772440E+03  0.41800000000E+01 0. -1.
         -5    1    3    3    0  502 -0.28704961099E+02 -0.35127627612E+02  0.14951256453E+02  0.47947236447E+02  0.41800000000E+01 0. -1.
        -11    1    1    2    0    0 -0.16331236585E+02  0.19715982514E+02  0.36125364816E+02  0.44277209013E+02  0.00000000000E+00 0.  1.
         11    1    1    2    0    0  0.65380528593E+02 -0.38690927127E+02  0.20292976592E+03  0.21668431244E+03  0.00000000000E+00 0. -1.
</event>
<event>
 7    1  0.2679104E-009  0.5787188E+02  0.7561462E-02  0.1406986E+00
          2   -1    0    0  501    0  0.00000000000E+00  0.00000000000E+00  0.20721617801E+03  0.20721617801E+03  0.00000000000E+00 0. -1.
         -2   -1    0    0    0  501 -0.00000000000E+00 -0.00000000000E+00 -0.63774402707E+02  0.63774402707E+02  0.00000000000E+00 0.  1.
         25    2    1    2    0    0  0.96885363361E+01  0.34097889313E+02  0.62305900244E+02  0.14417346751E+03  0.12508968677E+03 0.  0.
          5    1    3    3  502    0 -0.16212555645E+02 -0.15997144093E+02  0.81288833178E+02  0.84522792069E+02  0.41800000000E+01 0.  1.
         -5    1    3    3    0  502  0.25901091981E+02  0.50095033406E+02 -0.18982932933E+02  0.59650675440E+02  0.41800000000E+01 0.  1.
        -11    1    1    2    0    0 -0.14863516083E+01 -0.17097508606E+02 -0.18601634179E+02  0.25309184811E+02  0.00000000000E+00 0.  1.
         11    1    1    2    0    0 -0.82021847278E+01 -0.17000380707E+02  0.99737509238E+02  0.10150792840E+03  0.00000000000E+00 0. -1.
</event>
<event>
 7    1  0.2679104E-009  0.2880269E+03  0.7561462E-02  0.1091384E+00
          1   -1    0    0  501    0  0.00000000000E+00  0.00000000000E+00  0.60943928003E+03  0.60943928003E+03  0.00000000000E+00 0. -1.
         -1   -1    0    0    0  501 -0.00000000000E+00 -0.00000000000E+00 -0.15613288671E+03  0.15613288671E+03  0.00000000000E+00 0.  1.
         25    2    1    2    0    0  0.26975751880E+03  0.10044206831E+03  0.25526394459E+03  0.40455541266E+03  0.12509065700E+03 0.  0.
          5    1    3    3  502    0  0.10050807117E+03  0.37392139723E+02  0.22065732271E+02  0.10956465408E+03  0.41800000000E+01 0.  1.
         -5    1    3    3    0  502  0.16924944763E+03  0.63049928586E+02  0.23319821232E+03  0.29499075858E+03  0.41800000000E+01 0.  1.
        -11    1    1    2    0    0 -0.18629077048E+03 -0.63731904302E+02  0.18260902455E+03  0.26853689251E+03  0.00000000000E+00 0. -1.
         11    1    1    2    0    0 -0.83466748314E+02 -0.36710164007E+02  0.15433424182E+02  0.92479861578E+02  0.00000000000E+00 0.  1.
</event>
<event>
 7    1  0.2679104E-009  0.1174810E+03  0.7561462E-02  0.1247311E+00
         -1   -1    0    0    0  501 -0.00000000000E+00  0.00000000000E+00  0.79653435190E+03  0.79653435190E+03  0.00000000000E+00 0.  1.
          1   -1    0    0  501    0  0.00000000000E+00 -0.00000000000E+00 -0.19394016150E+02  0.19394016150E+02  0.00000000000E+00 0. -1.
         25    2    1    2    0    0  0.15516091411E+02 -0.56476111335E+02  0.42061583518E+03  0.44271311866E+03  0.12508766679E+03 0.  0.
          5    1    3    3  502    0  0.59983851111E+00 -0.92519448777E+02  0.34872980667E+03  0.36081873381E+03  0.41800000000E+01 0. -1.
         -5    1    3    3    0  502  0.14916252900E+02  0.36043337442E+02  0.71886028504E+02  0.81894384842E+02  0.41800000000E+01 0. -1.
        -11    1    1    2    0    0  0.35214957022E+02  0.18761853886E+02  0.20808710202E+03  0.21187813098E+03  0.00000000000E+00 0.  1.
         11    1    1    2    0    0 -0.50731048433E+02  0.37714257448E+02  0.14843739854E+03  0.16133711841E+03  0.00000000000E+00 0. -1.
</event>
<event>
 7    1  0.2679104E-009  0.1097801E+03  0.7561462E-02  0.1260978E+00
          2   -1    0    0  501    0  0.00000000000E+00  0.00000000000E+00  0.17998549069E+03  0.17998549069E+03  0.00000000000E+00 0.  1.
         -2   -1    0    0    0  501 -0.00000000000E+00 -0.00000000000E+00 -0.16428155057E+03  0.16428155057E+03  0.00000000000E+00 0. -1.
         25    2    1    2    0    0 -0.55018050295E+02 -0.55569831390E+02 -0.98618315794E+02  0.17744965160E+03  0.12509122521E+03 0.  0.
          5    1    3    3  502    0  0.23759325932E+02  0.20548175448E+02 -0.27297750950E+01  0.31806558366E+02  0.41800000000E+01 0.  1.
         -5    1    3    3    0  502 -0.78777376226E+02 -0.76118006838E+02 -0.95888540698E+02  0.14564309324E+03  0.41800000000E+01 0.  1.
        -11    1    1    2    0    0  0.36441645786E+02  0.34919639268E+02  0.12671898025E+03  0.13640042049E+03  0.00000000000E+00 0.  1.
         11    1    1    2    0    0  0.18576404509E+02  0.20650192122E+02 -0.12396724330E+02  0.30416969166E+02  0.00000000000E+00 0. -1.
</event>
<event>
 7    1  0.2679104E-009  0.9054121E+02  0.7561462E-02  0.1301546E+00
         -2   -1    0    0    0  501 -0.00000000000E+00  0.00000000000E+00  0.36257039029E+03  0.36257039029E+03  0.00000000000E+00 0.  1.
          2   -1    0    0  501    0  0.00000000000E+00 -0.00000000000E+00 -0.35291500005E+02  0.35291500005E+02  0.00000000000E+00 0. -1.
         25    2    1    2    0    0  0.26231658714E+02  0.67408961105E+01  0.22328913258E+03  0.25736920923E+03  0.12508930223E+03 0.  0.
          5    1    3    3  502    0 -0.10129955878E+02 -0.41622273174E+02  0.17391439041E+03  0.17916114876E+03  0.41800000000E+01 0. -1.
         -5    1    3    3    0  502  0.36361614592E+02  0.48363169284E+02  0.49374742165E+02  0.78208060472E+02  0.41800000000E+01 0. -1.
        -11    1    1    2    0    0  0.25427005582E+02 -0.28141946713E+01  0.78872164363E+02  0.82917251618E+02  0.00000000000E+00 0.  1.
         11    1    1    2    0    0 -0.51658664296E+02 -0.39267014392E+01  0.25117593343E+02  0.57575429450E+02  0.00000000000E+00 0. -1.
</event>
<event>
 7    1  0.2679104E-009  0.1796668E+03  0.7561462E-02  0.1168126E+00
          1   -1    0    0  501    0  0.00000000000E+00  0.00000000000E+00  0.44445955120E+02  0.44445955120E+02  0.00000000000E+00 0. -1.
         -1   -1    0    0    0  501 -0.00000000000E+00 -0.00000000000E+00 -0.83024503428E+03  0.83024503428E+03  0.00000000000E+00 0.  1.
         25    2    1    2    0    0  0.94492640389E+02  0.12076162109E+03 -0.32275906535E+03  0.37859455762E+03  0.12509275190E+03 0.  0.
          5    1    3    3  502    0  0.25230320391E+02 -0.18418990089E+02 -0.11399081079E+03  0.11826751713E+03  0.41800000000E+01 0.  1.
         -5    1    3    3    0  502  0.69262319997E+02  0.13918061118E+03 -0.20876825456E+03  0.26032704049E+03  0.41800000000E+01 0.  1.
        -11    1    1    2    0    0 -0.53048964118E+02 -0.99281069279E+01 -0.92186711587E+02  0.10682298299E+03  0.00000000000E+00 0. -1.
         11    1    1    2    0    0 -0.41443676271E+02 -0.11083351416E+03 -0.37085330223E+03  0.38927344880E+03  0.00000000000E+00 0.  1.
</event>
<event>
 7    1  0.2679104E-009  0.1197051E+03  0.7561462E-02  0.1243584E+00
         -2   -1    0    0    0  501 -0.00000000000E+00  0.00000000000E+00  0.42214300118E+03  0.42214300118E+03  0.00000000000E+00 0.  1.
          2   -1    0    0  501    0  0.00000000000E+00 -0.00000000000E+00 -0.40077716200E+02  0.40077716200E+02  0.00000000000E+00 0. -1.
         25    2    1    2    0    0  0.65469165701E+02  0.16875299126E+02  0.25311533095E+03  0.29031910974E+03  0.12508727889E+03 0.  0.
          5    1    3    3  502    0  0.10131846584E+03  0.22737485034E+00  0.19681132313E+03  0.22139930562E+03  0.41800000000E+01 0. -1.
         -5    1    3    3    0  502 -0.35849300136E+02  0.16647924275E+02  0.56304007819E+02  0.68919804116E+02  0.41800000000E+01 0. -1.
        -11    1    1    2    0    0 -0.80003765849E+02 -0.62364590260E+01  0.58819220670E+02  0.99494706851E+02  0.00000000000E+00 0.  1.
         11    1    1    2    0    0  0.14534600148E+02 -0.10638840100E+02  0.70130733357E+02  0.72406900785E+02  0.00000000000E+00 0. -1.
</event>
<event>
 7    1  0.2679104E-009  0.4664680E+03  0.7561462E-02  0.1022922E+00
         -2   -1    0    0    0  501 -0.00000000000E+00  0.00000000000E+00  0.11944797936E+03  0.11944797936E+03  0.00000000000E+00 0.  1.
          2   -1    0    0  501    0  0.00000000000E+00 -0.00000000000E+00 -0.24652759543E+04  0.24652759543E+04  0.00000000000E+00 0. -1.
         25    2    1    2    0    0 -0.18248829041E+03  0.42261478082E+03 -0.18128202383E+04  0.18745321151E+04  0.12509278537E+03 0.  0.
          5    1    3    3  502    0 -0.14468774005E+00  0.43959696121E+02 -0.79062725001E+02  0.90558614732E+02  0.41800000000E+01 0.  1.
         -5    1    3    3    0  502 -0.18234360267E+03  0.37865508470E+03 -0.17337575133E+04  0.17839735004E+04  0.41800000000E+01 0.  1.
        -11    1    1    2    0    0  0.15456164892E+03 -0.25218009255E+03 -0.31564379480E+03  0.43256803810E+03  0.00000000000E+00 0. -1.
         11    1    1    2    0    0  0.27926641483E+02 -0.17043468827E+03 -0.21736394180E+03  0.27762378044E+03  0.00000000000E+00 0.  1.
</event>
<event>
 7    1  0.2679104E-009  0.1090414E+03  0.7561462E-02  0.1262355E+00
          2   -1    0    0  501    0  0.00000000000E+00  0.00000000000E+00  0.63371071530E+03  0.63371071530E+03  0.00000000000E+00 0. -1.
         -2   -1    0    0    0  501 -0.00000000000E+00 -0.00000000000E+00 -0.20830074942E+02  0.20830074942E+02  0.00000000000E+00 0.  1.
         25    2    1    2    0    0 -0.32807765862E+02 -0.75191551023E+01  0.30119278533E+03  0.32786855651E+03  0.12509120360E+03 0.  0.
          5    1    3    3  502    0  0.28169376738E+02  0.36314692688E+02  0.63079003923E+02  0.78158197438E+02  0.41800000000E+01 0. -1.
         -5    1    3    3    0  502 -0.60977142599E+02 -0.43833847790E+02  0.23811378140E+03  0.24971035907E+03  0.41800000000E+01 0. -1.
        -11    1    1    2    0    0  0.64588020951E+02  0.66280460937E+01  0.18525038833E+03  0.19629887881E+03  0.00000000000E+00 0.  1.
         11    1    1    2    0    0 -0.31780255090E+02  0.89110900867E+00  0.12643746670E+03  0.13037335493E+03  0.00000000000E+00 0. -1.
</event>
<event>
 7    1  0.2679104E-009  0.1098512E+03  0.7561462E-02  0.1260846E+00
         -1   -1    0    0    0  501 -0.00000000000E+00  0.00000000000E+00  0.18280821635E+03  0.18280821635E+03  0.00000000000E+00 0.  1.
          1   -1    0    0  501    0  0.00000000000E+00 -0.00000000000E+00 -0.94839867555E+02  0.94839867555E+02  0.00000000000E+00 0. -1.
         25    2    1    2    0    0  0.57406145650E+02 -0.16440269903E+02  0.28317181768E+01  0.13864618958E+03  0.12509596007E+03 0.  0.
          5    1    3    3  502    0  0.78470867311E+02 -0.53431924056E+02  0.89064649290E+01  0.95443412776E+02  0.41800000000E+01 0.  1.
         -5    1    3    3    0  502 -0.21064721661E+02  0.36991654153E+02 -0.60747467521E+01  0.43202776806E+02  0.41800000000E+01 0.  1.
        -11    1    1    2    0    0 -0.77371958114E+01  0.29538471484E+02  0.82043866137E+02  0.87541884075E+02  0.00000000000E+00 0.  1.
         11    1    1    2    0    0 -0.49668949838E+02 -0.13098201581E+02  0.30927644814E+01  0.51460010249E+02  0.00000000000E+00 0. -1.
</event>
<event>
 7    1  0.2679104E-009  0.9052782E+02  0.7561462E-02  0.1301579E+00
          2   -1    0    0  501    0  0.00000000000E+00  0.00000000000E+00  0.99155227887E+02  0.99155227887E+02  0.00000000000E+00 0. -1.
         -2   -1    0    0    0  501 -0.00000000000E+00 -0.00000000000E+00 -0.13009704057E+03  0.13009704057E+03  0.00000000000E+00 0.  1.
         25    2    1    2    0    0  0.18890936368E+02 -0.31361550759E+02 -0.12761779101E+02  0.13096414685E+03  0.12509328683E+03 0.  0.
          5    1    3    3  502    0  0.15567665817E+02  0.48026294563E+02 -0.22913413126E+01  0.50710943922E+02  0.41800000000E+01 0.  1.
         -5    1    3    3    0  502  0.33232705515E+01 -0.79387845322E+02 -0.10470437788E+02  0.80253202923E+02  0.41800000000E+01 0.  1.
        -11    1    1    2    0    0 -0.10467206542E+02 -0.63135686166E+01 -0.47984109200E+02  0.49516646667E+02  0.00000000000E+00 0.  1.
         11    1    1    2    0    0 -0.84237298258E+01  0.37675119375E+02  0.29804075622E+02  0.48771474940E+02  0.00000000000E+00 0. -1.
</event>
<event>
 7    1  0.2679104E-009  0.2849143E+03  0.7561462E-02  0.1093035E+00
         -1   -1    0    0    0  501 -0.00000000000E+00  0.00000000000E+00  0.22176755350E+03  0.22176755350E+03  0.00000000000E+00 0.  1.
          1   -1    0    0  501    0  0.00000000000E+00 -0.00000000000E+00 -0.70430663538E+03  0.70430663538E+03  0.00000000000E+00 0. -1.
         25    2    1    2    0    0 -0.10326150297E+03  0.26033935403E+03  0.56729778520E+02  0.31193857650E+03  0.12509152843E+03 0.  0.
          5    1    3    3  502    0 -0.85722683093E+02  0.23063395648E+03  0.79213274475E+00  0.24608636726E+03  0.41800000000E+01 0. -1.
         -5    1    3    3    0  502 -0.17538819878E+02  0.29705397550E+02  0.55937645775E+02  0.65852209236E+02  0.41800000000E+01 0. -1.
        -11    1    1    2    0    0  0.13749440589E+02 -0.13089514734E+03 -0.30179813887E+03  0.32924869527E+03  0.00000000000E+00 0.  1.
         11    1    1    2    0    0  0.89512062381E+02 -0.12944420669E+03 -0.23747072153E+03  0.28488691711E+03  0.00000000000E+00 0. -1.
</event>
<event>
 7    1  0.2679104E-009  0.9124272E+02  0.7561462E-02  0.1299870E+00
          1   -1    0    0  501    0  0.00000000000E+00  0.00000000000E+00  0.18141996830E+03  0.18141996830E+03  0.00000000000E+00 0. -1.
         -1   -1    0    0    0  501 -0.00000000000E+00 -0.00000000000E+00 -0.77931665930E+02  0.77931665930E+02  0.00000000000E+00 0.  1.
         25    2    1    2    0    0  0.15778728883E+02  0.23614847267E+02  0.10098517166E+03  0.16325159550E+03  0.12508576755E+03 0.  0.
          5    1    3    3  502    0  0.14553457798E+02 -0.48813948679E+02  0.20989643053E+02  0.55250721579E+02  0.41800000000E+01 0.  1.
         -5    1    3    3    0  502  0.12252710848E+01  0.72428795946E+02  0.79995528605E+02  0.10800087392E+03  0.41800000000E+01 0.  1.
        -11    1    1    2    0    0 -0.10773035823E+02 -0.40134850209E+02  0.38201930600E+02  0.56446895431E+02  0.00000000000E+00 0. -1.
         11    1    1    2    0    0 -0.50056930597E+01  0.16520002943E+02 -0.35698799886E+02  0.39653143299E+02  0.00000000000E+00 0.  1.
</event>
<event>
 7    1  0.2679104E-009  0.9519114E+02  0.7561462E-02  0.1290746E+00
          1   -1    0    0  501    0  0.00000000000E+00  0.00000000000E+00  0.70727652455E+02  0.70727652455E+02  0.00000000000E+00 0. -1.
         -1   -1    0    0    0  501 -0.00000000000E+00 -0.00000000000E+00 -0.17066005250E+03  0.17066005250E+03  0.00000000000E+00 0.  1.
         25    2    1    2    0    0 -0.19762022687E+02 -0.17981445272E+01 -0.75439892629E+02  0.14741841528E+03  0.12508893196E+03 0.  0.
          5    1    3    3  502    0  0.15933553559E+02  0.55842925673E+02 -0.41389585891E+02  0.71434450351E+02  0.41800000000E+01 0.  1.
         -5    1    3    3    0  502 -0.35695576246E+02 -0.57641070200E+02 -0.34050306738E+02  0.75983964929E+02  0.41800000000E+01 0.  1.
        -11    1    1    2    0    0  0.13416527878E+02  0.31301132218E+02  0.20532747564E+02  0.39766290007E+02  0.00000000000E+00 0. -1.
         11    1    1    2    0    0  0.63454948091E+01 -0.29502987691E+02 -0.45025254985E+02  0.54202999672E+02  0.00000000000E+00 0.  1.
</event>
<event>
 7    1  0.2679104E-009  0.1208989E+03  0.7561462E-02  0.1241621E+00
         -1   -1    0    0    0  501 -0.00000000000E+00  0.00000000000E+00  0.16821135357E+03  0.16821135357E+03  0.00000000000E+00 0.  1.
          1   -1    0    0  501    0  0.00000000000E+00 -0.00000000000E+00 -0.10608295169E+03  0.10608295169E+03  0.00000000000E+00 0. -1.
         25    2    1    2    0    0  0.68410107228E+02  0.14817983780E+02  0.70108201998E+02  0.15956705798E+03  0.12508785149E+03 0.  0.
          5    1    3    3  502    0  0.79409089900E+02  0.57575845561E+02  0.56033462997E+02  0.11303982894E+03  0.41800000000E+01 0. -1.
         -5    1    3    3    0  502 -0.10998982672E+02 -0.42757861781E+02  0.14074739002E+02  0.46527229037E+02  0.41800000000E+01 0. -1.
        -11    1    1    2    0    0 -0.45579918005E+02  0.26024081789E+02  0.24345112106E+02  0.57857292036E+02  0.00000000000E+00 0.  1.
         11    1    1    2    0    0 -0.22830189223E+02 -0.40842065568E+02 -0.32324912224E+02  0.56869955250E+02  0.00000000000E+00 0. -1.
</event>
<event>
 7    1  0.2679104E-009  0.1965600E+03  0.7561462E-02  0.1152674E+00
         -2   -1    0    0    0  501 -0.00000000000E+00  0.00000000000E+00  0.25102961186E+03  0.25102961186E+03  0.00000000000E+00 0.  1.
          2   -1    0    0  501    0  0.00000000000E+00 -0.00000000000E+00 -0.23176075629E+03  0.23176075629E+03  0.00000000000E+00 0. -1.
         25    2    1    2    0    0 -0.10173506878E+03 -0.13621014957E+03 -0.12187528733E+03  0.24372424391E+03  0.12507874458E+03 0.  0.
          5    1    3    3  502    0  0.21386890850E+02 -0.43366739204E+02 -0.23755876038E+01  0.48592067108E+02  0.41800000000E+01 0. -1.
         -5    1    3    3    0  502 -0.12312195963E+03 -0.92843410365E+02 -0.11949969973E+03  0.19513217681E+03  0.41800000000E+01 0. -1.
        -11    1    1    2    0    0  0.66985070400E+02  0.14016725482E+03  0.98634292443E+02  0.18401788670E+03  0.00000000000E+00 0. -1.
         11    1    1    2    0    0  0.34749998377E+02 -0.39571052492E+01  0.42509850467E+02  0.55048237536E+02  0.00000000000E+00 0.  1.
</event>
<event>
 7    1  0.2679104E-009  0.1030546E+03  0.7561462E-02  0.1274001E+00
         -2   -1    0    0    0  501 -0.00000000000E+00  0.00000000000E+00  0.28642940306E+03  0.28642940306E+03  0.00000000000E+00 0.  1.
          2   -1    0    0  501    0  0.00000000000E+00 -0.00000000000E+00 -0.46582303839E+02  0.46582303839E+02  0.00000000000E+00 0. -1.
         25    2    1    2    0    0 -0.18481480331E+02  0.31376117915E+02  0.13370839346E+03  0.18668455226E+03  0.12508861532E+03 0.  0.
          5    1    3    3  502    0 -0.27459929276E+02  0.66737306972E+02  0.13130024885E+03  0.14988376698E+03  0.41800000000E+01 0.  1.
         -5    1    3    3    0  502  0.89784489450E+01 -0.35361189057E+02  0.24081446103E+01  0.36800785283E+02  0.41800000000E+01 0.  1.
        -11    1    1    2    0    0 -0.34048168013E+02  0.32224939183E+01  0.19840975029E+02  0.39538923888E+02  0.00000000000E+00 0. -1.
         11    1    1    2    0    0  0.52529648344E+02 -0.34598611833E+02  0.86297730740E+02  0.10678823075E+03  0.00000000000E+00 0.  1.
</event>
<event>
 7    1  0.2679104E-009  0.9204783E+02  0.7561462E-02  0.1297967E+00
         -2   -1    0    0    0  501 -0.00000000000E+00  0.00000000000E+00  0.11078760599E+03  0.11078760599E+03  0.00000000000E+00 0.  1.
          2   -1    0    0  501    0  0.00000000000E+00 -0.00000000000E+00 -0.17364720830E+03  0.17364720830E+03  0.00000000000E+00 0. -1.
         25    2    1    2    0    0  0.60359774131E+01 -0.59832739885E+02 -0.97577389470E+02  0.16966439400E+03  0.12509304485E+03 0.  0.
          5    1    3    3  502    0  0.43636606445E+02  0.59531279036E+01  0.22155507342E+01  0.44294178160E+02  0.41800000000E+01 0.  1.
         -5    1    3    3    0  502 -0.37600629031E+02 -0.65785867789E+02 -0.99792940204E+02  0.12537021584E+03  0.41800000000E+01 0.  1.
        -11    1    1    2    0    0 -0.10845546505E+02  0.13180819823E+02  0.59378229720E+02  0.61782959260E+02  0.00000000000E+00 0.  1.
         11    1    1    2    0    0  0.48095690921E+01  0.46651920062E+02 -0.24660442561E+02  0.52987461041E+02  0.00000000000E+00 0. -1.
</event>
<event>
 7    1  0.2679104E-009  0.2537150E+03  0.7561462E-02  0.1110979E+00
         -2   -1    0    0    0  501 -0.00000000000E+00  0.00000000000E+00  0.10982698865E+03  0.10982698865E+03  0.00000000000E+00 0.  1.
          2   -1    0    0  501    0  0.00000000000E+00 -0.00000000000E+00 -0.68179425397E+03  0.68179425397E+03  0.00000000000E+00 0. -1.
         25    2    1    2    0    0  0.74452470793E+02 -0.22316672252E+03 -0.41621245980E+03  0.49419261275E+03  0.12508785057E+03 0.  0.
          5    1    3    3  502    0 -0.27583672270E+02 -0.93990839444E+02 -0.19671903572E+03  0.21979760756E+03  0.41800000000E+01 0. -1.
         -5    1    3    3    0  502  0.10203614306E+03 -0.12917588308E+03 -0.21949342408E+03  0.27439500519E+03  0.41800000000E+01 0. -1.
        -11    1    1    2    0    0 -0.42125891630E+01  0.11905099215E+03 -0.37408521783E+02  0.12486105134E+03  0.00000000000E+00 0.  1.
         11    1    1    2    0    0 -0.70239881630E+02  0.10411573037E+03 -0.11834628374E+03  0.17256757852E+03  0.00000000000E+00 0. -1.
</event>
<event>
 7    1  0.2679104E-009  0.9510308E+02  0.7561462E-02  0.1290944E+00
         -2   -1    0    0    0  501 -0.00000000000E+00  0.00000000000E+00  0.36407586412E+02  0.36407586412E+02  0.00000000000E+00 0.  1.
          2   -1    0    0  501    0  0.00000000000E+00 -0.00000000000E+00 -0.32915501812E+03  0.32915501812E+03  0.00000000000E+00 0. -1.
         25    2    1    2    0    0  0.68474125015E+01  0.12016761041E+01 -0.17630580339E+03  0.21628687954E+03  0.12509175380E+03 0.  0.
          5    1    3    3  502    0  0.58386715390E+02  0.27611570039E+02 -0.11421356495E+03  0.13127687592E+03  0.41800000000E+01 0.  1.
         -5    1    3    3    0  502 -0.51539302888E+02 -0.26409893935E+02 -0.62092238440E+02  0.85010003613E+02  0.41800000000E+01 0.  1.
        -11    1    1    2    0    0  0.18827481769E+02 -0.25750756082E+02 -0.10820712621E+03  0.11281115934E+03  0.00000000000E+00 0. -1.
         11    1    1    2    0    0 -0.25674894271E+02  0.24549079978E+02 -0.82345021119E+01  0.36464565658E+02  0.00000000000E+00 0.  1.
</event>
<event>
 7    1  0.2679104E-009  0.1264196E+03  0.7561462E-02  0.1232867E+00
          2   -1    0    0  501    0  0.00000000000E+00  0.00000000000E+00  0.81313470064E+03  0.81313470064E+03  0.00000000000E+00 0. -1.
         -2   -1    0    0    0  501 -0.00000000000E+00 -0.00000000000E+00 -0.29099053882E+02  0.29099053882E+02  0.00000000000E+00 0.  1.
         25    2    1    2    0    0  0.95220551851E+02  0.45650443546E+02  0.34089988521E+03  0.37816828270E+03  0.12509037458E+03 0.  0.
          5    1    3    3  502    0  0.43317876188E+02 -0.24982072956E+02  0.38369289894E+02  0.63168165824E+02  0.41800000000E+01 0. -1.
         -5    1    3    3    0  502  0.51902675662E+02  0.70632516502E+02  0.30253059532E+03  0.31500011688E+03  0.41800000000E+01 0. -1.
        -11    1    1    2    0    0 -0.18769497780E+02  0.91145868827E+01  0.14935889809E+02  0.25660291217E+02  0.00000000000E+00 0.  1.
         11    1    1    2    0    0 -0.76451054071E+02 -0.54765030429E+02  0.42819987174E+03  0.43840518061E+03  0.00000000000E+00 0. -1.
</event>
<event>
 7    1  0.2679104E-009  0.1072670E+03  0.7561462E-02  0.1265716E+00
          2   -1    0    0  501    0  0.00000000000E+00  0.00000000000E+00  0.49194412775E+03  0.49194412775E+03  0.00000000000E+00 0. -1.
         -2   -1    0    0    0  501 -0.00000000000E+00 -0.00000000000E+00 -0.34702401819E+02  0.34702401819E+02  0.00000000000E+00 0.  1.
         25    2    1    2    0    0 -0.43817681439E+02 -0.29521309536E+02  0.15148661218E+03  0.20344123376E+03  0.12509454425E+03 0.  0.
          5    1    3    3  502    0 -0.42624023744E+01  0.45868019378E+02  0.79016190770E+02  0.91559128870E+02  0.41800000000E+01 0.  1.
         -5    1    3    3    0  502 -0.39555279065E+02 -0.75389328914E+02  0.72470421408E+02  0.11188210489E+03  0.41800000000E+01 0.  1.
        -11    1    1    2    0    0  0.29689931296E+01 -0.19218528182E+02  0.12462025312E+02  0.23096943966E+02  0.00000000000E+00 0.  1.
         11    1    1    2    0    0  0.40848688310E+02  0.48739837718E+02  0.29329308844E+03  0.30010835184E+03  0.00000000000E+00 0. -1.
</event>
<event>
 7    1  0.2679104E-009  0.9654917E+02  0.7561462E-02  0.1287725E+00
          1   -1    0    0  501    0  0.00000000000E+00  0.00000000000E+00  0.21669761603E+02  0.21669761603E+02  0.00000000000E+00 0. -1.
         -1   -1    0    0    0  501 -0.00000000000E+00 -0.00000000000E+00 -0.78511539317E+03  0.78511539317E+03  0.00000000000E+00 0.  1.
         25    2    1    2    0    0 -0.95324838660E+01 -0.70877372931E+02 -0.36544645003E+03  0.39283213311E+03  0.12510598197E+03 0.  0.
          5    1    3    3  502    0 -0.26462453098E+02 -0.76917633896E+02 -0.11079134647E+03  0.13750919489E+03  0.41800000000E+01 0.  1.
         -5    1    3    3    0  502  0.16929969232E+02  0.60402609657E+01 -0.25465510356E+03  0.25532293822E+03  0.41800000000E+01 0.  1.
        -11    1    1    2    0    0 -0.23339452811E+02  0.13218329509E+02 -0.30968292620E+02  0.40969371979E+02  0.00000000000E+00 0. -1.
         11    1    1    2    0    0  0.32871936677E+02  0.57659043421E+02 -0.36703088891E+03  0.37298364968E+03  0.00000000000E+00 0.  1.
</event>
<event>
 7    1  0.2679104E-009  0.1239743E+03  0.7561462E-02  0.1236681E+00
          3   -1    0    0  501    0  0.00000000000E+00  0.00000000000E+00  0.12867805368E+03  0.12867805368E+03  0.00000000000E+00 0. -1.
         -3   -1    0    0    0  501 -0.00000000000E+00 -0.00000000000E+00 -0.16985408051E+03  0.16985408051E+03  0.00000000000E+00 0.  1.
         25    2    1    2    0    0  0.46843054068E+02 -0.81732286376E+02  0.25126578969E+01  0.15661548624E+03  0.12509060209E+03 0.  0.
          5    1    3    3  502    0  0.55811421024E+02 -0.75688552267E+01  0.43514850449E+02  0.71296682221E+02  0.41800000000E+01 0.  1.
         -5    1    3    3    0  502 -0.89683669562E+01 -0.74163431150E+02 -0.41002192552E+02  0.85318804023E+02  0.41800000000E+01 0.  1.
        -11    1    1    2    0    0 -0.55469512814E+02  0.27824291556E+02  0.12794342483E+02  0.63362080553E+02  0.00000000000E+00 0. -1.
         11    1    1    2    0    0  0.86264587463E+01  0.53907994820E+02 -0.56483027204E+02  0.78554567393E+02  0.00000000000E+00 0.  1.
</event>
<event>
 7    1  0.2679104E-009  0.1099075E+03  0.7561462E-02  0.1260741E+00
          1   -1    0    0  501    0  0.00000000000E+00  0.00000000000E+00  0.58880520110E+03  0.58880520110E+03  0.00000000000E+00 0. -1.
         -1   -1    0    0    0  501 -0.00000000000E+00 -0.00000000000E+00 -0.48216179389E+02  0.48216179389E+02  0.00000000000E+00 0.  1.
         25    2    1    2    0    0  0.23705055990E+02  0.59003881943E+02  0.75841633652E+02  0.15951455860E+03  0.12509817443E+03 0.  0.
          5    1    3    3  502    0  0.52528955526E+02  0.61495655642E+02  0.30153276990E+01  0.81040554247E+02  0.41800000000E+01 0. -1.
         -5    1    3    3    0  502 -0.28823899535E+02 -0.24917736988E+01  0.72826305953E+02  0.78474004354E+02  0.41800000000E+01 0. -1.
        -11    1    1    2    0    0  0.31927746798E+02 -0.39175317821E+02  0.20720687770E+03  0.21328098066E+03  0.00000000000E+00 0.  1.
         11    1    1    2    0    0 -0.55632802788E+02 -0.19828564122E+02  0.25754051036E+03  0.26422584123E+03  0.00000000000E+00 0. -1.
</event>
<event>
 7    1  0.2877965E-009  0.1447245E+03  0.7561462E-02  0.1207110E+00
          1   -1    0    0  501    0  0.00000000000E+00  0.00000000000E+00  0.70633162762E+03  0.70633162762E+03  0.00000000000E+00 0. -1.
         -1   -1    0    0    0  501 -0.00000000000E+00 -0.00000000000E+00 -0.50420771937E+02  0.50420771937E+02  0.00000000000E+00 0.  1.
         25    2    1    2    0    0 -0.56559099067E+02  0.10164938985E+03  0.14227003104E+03  0.22230691765E+03  0.12509226100E+03 0.  0.
          5    1    3    3  502    0 -0.37750544343E+00  0.10064065517E+03  0.45943994793E+02  0.11071136816E+03  0.41800000000E+01 0. -1.
         -5    1    3    3    0  502 -0.56181593624E+02  0.10087346838E+01  0.96326036245E+02  0.11159554949E+03  0.41800000000E+01 0. -1.
        -11    1    1    2    0    0  0.33334882736E+01 -0.70753783429E+02  0.38948662988E+03  0.39587503694E+03  0.00000000000E+00 0. -1.
         11    1    1    2    0    0  0.53225610794E+02 -0.30895606422E+02  0.12415419476E+03  0.13857044496E+03  0.00000000000E+00 0.  1.
</event>
<event>
 7    1  0.2679104E-009  0.1142779E+03  0.7561462E-02  0.1252847E+00
          3   -1    0    0  501    0  0.00000000000E+00  0.00000000000E+00  0.14577579073E+03  0.14577579073E+03  0.00000000000E+00 0. -1.
         -3   -1    0    0    0  501 -0.00000000000E+00 -0.00000000000E+00 -0.13231327723E+03  0.13231327723E+03  0.00000000000E+00 0.  1.
         25    2    1    2    0    0  0.23822379151E+02 -0.50102283777E+02 -0.60396009820E+02  0.14957739657E+03  0.12509186614E+03 0.  0.
          5    1    3    3  502    0  0.11806514738E+02 -0.90577293497E+02 -0.55260852847E+02  0.10684041438E+03  0.41800000000E+01 0.  1.
         -5    1    3    3    0  502  0.12015864413E+02  0.40475009720E+02 -0.51351569729E+01  0.42736982188E+02  0.41800000000E+01 0.  1.
        -11    1    1    2    0    0 -0.33414290618E+01  0.67641887697E+02  0.24041530497E+02  0.71865049280E+02  0.00000000000E+00 0.  1.
         11    1    1    2    0    0 -0.20480950089E+02 -0.17539603920E+02  0.49816992824E+02  0.56646622108E+02  0.00000000000E+00 0. -1.
</event>
<event>
 7    1  0.2679104E-009  0.1439526E+03  0.7561462E-02  0.1208107E+00
         -2   -1    0    0    0  501 -0.00000000000E+00  0.00000000000E+00  0.21581833784E+02  0.21581833784E+02  0.00000000000E+00 0.  1.
          2   -1    0    0  501    0  0.00000000000E+00 -0.00000000000E+00 -0.11234346206E+04  0.11234346206E+04  0.00000000000E+00 0. -1.
         25    2    1    2    0    0  0.98068097896E+02 -0.14046965207E+02 -0.77464686803E+03  0.79091032976E+03  0.12508681195E+03 0.  0.
          5    1    3    3  502    0  0.53065685512E+02 -0.68151689902E+02 -0.49610805818E+03  0.50358842085E+03  0.41800000000E+01 0.  1.
         -5    1    3    3    0  502  0.45002412384E+02  0.54104724695E+02 -0.27853880984E+03  0.28732190892E+03  0.41800000000E+01 0.  1.
        -11    1    1    2    0    0 -0.28917643812E+02 -0.35555074682E+02 -0.74627631392E+02  0.87576691114E+02  0.00000000000E+00 0. -1.
         11    1    1    2    0    0 -0.69150454084E+02  0.49602039888E+02 -0.25257828738E+03  0.26652943349E+03  0.00000000000E+00 0.  1.
</event>
<event>
 7    1  0.2679104E-009  0.6667417E+02  0.7561462E-02  0.1371782E+00
         -1   -1    0    0    0  501 -0.00000000000E+00  0.00000000000E+00  0.63516758122E+02  0.63516758122E+02  0.00000000000E+00 0.  1.
          1   -1    0    0  501    0  0.00000000000E+00 -0.00000000000E+00 -0.24965520365E+03  0.24965520365E+03  0.00000000000E+00 0. -1.
         25    2    1    2    0    0 -0.52215930199E+02 -0.38247230600E+02 -0.94581065036E+02  0.16965333479E+03  0.12508925664E+03 0.  0.
          5    1    3    3  502    0 -0.39136342421E+02 -0.26588799304E+02 -0.12532335678E+03  0.13402251192E+03  0.41800000000E+01 0. -1.
         -5    1    3    3    0  502 -0.13079587778E+02 -0.11658431296E+02  0.30742291745E+02  0.35630822871E+02  0.41800000000E+01 0. -1.
        -11    1    1    2    0    0  0.28283046666E+02  0.82487270717E+01 -0.99979268144E+02  0.10422968044E+03  0.00000000000E+00 0. -1.
         11    1    1    2    0    0  0.23932883533E+02  0.29998503528E+02  0.84218876529E+01  0.39288946535E+02  0.00000000000E+00 0.  1.
</event>
<event>
 7    1  0.2679104E-009  0.1228984E+03  0.7561462E-02  0.1238391E+00
         -1   -1    0    0    0  501 -0.00000000000E+00  0.00000000000E+00  0.95550103326E+02  0.95550103326E+02  0.00000000000E+00 0.  1.
          1   -1    0    0  501    0  0.00000000000E+00 -0.00000000000E+00 -0.19177565581E+03  0.19177565581E+03  0.00000000000E+00 0. -1.
         25    2    1    2    0    0 -0.45941501516E+02 -0.44691953354E+02 -0.13007846464E+00  0.14055540240E+03  0.12509121459E+03 0.  0.
          5    1    3    3  502    0  0.20504817668E+02 -0.62784707783E+02 -0.19322373043E+02  0.68943408525E+02  0.41800000000E+01 0.  1.
         -5    1    3    3    0  502 -0.66446319184E+02  0.18092754429E+02  0.19192294578E+02  0.71611993878E+02  0.41800000000E+01 0.  1.
        -11    1    1    2    0    0  0.68785081702E+02  0.10615453306E+02 -0.55060760536E+02  0.88745493770E+02  0.00000000000E+00 0.  1.
         11    1    1    2    0    0 -0.22843580186E+02  0.34076500048E+02 -0.41034713484E+02  0.58024862964E+02  0.00000000000E+00 0. -1.
</event>
<event>
 7    1  0.2679104E-009  0.2281970E+03  0.7561462E-02  0.1127915E+00
         -2   -1    0    0    0  501 -0.00000000000E+00  0.00000000000E+00  0.52104692406E+03  0.52104692406E+03  0.00000000000E+00 0.  1.
          2   -1    0    0  501    0  0.00000000000E+00 -0.00000000000E+00 -0.11051957031E+03  0.11051957031E+03  0.00000000000E+00 0. -1.
         25    2    1    2    0    0  0.50001074138E+02 -0.20638249020E+03  0.21909052952E+03  0.32976660713E+03  0.12510601654E+03 0.  0.
          5    1    3    3  502    0  0.56274826605E+02 -0.86804152355E+02  0.33422410945E+02  0.10879497658E+03  0.41800000000E+01 0.  1.
         -5    1    3    3    0  502 -0.62737524661E+01 -0.11957833785E+03  0.18566811857E+03  0.22097163055E+03  0.41800000000E+01 0.  1.
        -11    1    1    2    0    0  0.28214700808E+02  0.75136637593E+02  0.72885342604E+02  0.10841520565E+03  0.00000000000E+00 0.  1.
         11    1    1    2    0    0 -0.78215774946E+02  0.13124585261E+03  0.11855148162E+03  0.19338468159E+03  0.00000000000E+00 0. -1.
</event>
<event>
 7    1  0.2679104E-009  0.1139616E+03  0.7561462E-02  0.1253405E+00
         -1   -1    0    0    0  501 -0.00000000000E+00  0.00000000000E+00  0.69633233582E+03  0.69633233582E+03  0.00000000000E+00 0.  1.
          1   -1    0    0  501    0  0.00000000000E+00 -0.00000000000E+00 -0.21243370492E+02  0.21243370492E+02  0.00000000000E+00 0. -1.
         25    2    1    2    0    0 -0.85934694745E+00  0.54201424190E+02  0.34300724284E+03  0.36910919108E+03  0.12509633665E+03 0.  0.
          5    1    3    3  502    0 -0.44587574566E+02  0.67416714363E+02  0.14702439229E+03  0.16782940597E+03  0.41800000000E+01 0. -1.
         -5    1    3    3    0  502  0.43728227619E+02 -0.13215290173E+02  0.19598285055E+03  0.20127978511E+03  0.41800000000E+01 0. -1.
        -11    1    1    2    0    0  0.38845240742E+02 -0.53171887162E+01  0.18090508462E+03  0.18510503738E+03  0.00000000000E+00 0.  1.
         11    1    1    2    0    0 -0.37985893794E+02 -0.48884235474E+02  0.15117663788E+03  0.16336147785E+03  0.00000000000E+00 0. -1.
</event>
<event>
 7    1  0.2679104E-009  0.1172707E+03  0.7561462E-02  0.1247669E+00
          2   -1    0    0  501    0  0.00000000000E+00  0.00000000000E+00  0.22944656422E+03  0.22944656422E+03  0.00000000000E+00 0. -1.
         -2   -1    0    0    0  501 -0.00000000000E+00 -0.00000000000E+00 -0.66805522226E+02  0.66805522226E+02  0.00000000000E+00 0.  1.
         25    2    1    2    0    0 -0.12009235514E+02 -0.56651142480E+02  0.88147127535E+02  0.16361793099E+03  0.12508931835E+03 0.  0.
          5    1    3    3  502    0  0.27874689984E+02 -0.80393635436E+02  0.32860567351E+02  0.91309497025E+02  0.41800000000E+01 0. -1.
         -5    1    3    3    0  502 -0.39883925498E+02  0.23742492956E+02  0.55286560184E+02  0.72308433961E+02  0.41800000000E+01 0. -1.
        -11    1    1    2    0    0 -0.54423523793E+01 -0.21752910779E+02 -0.94027324415E+00  0.22443093382E+02  0.00000000000E+00 0. -1.
         11    1    1    2    0    0  0.17451587893E+02  0.78404053259E+02  0.75434187701E+02  0.11019106208E+03  0.00000000000E+00 0.  1.
</event>
<event>
 7    1  0.2679104E-009  0.1227002E+03  0.7561462E-02  0.1238708E+00
         -2   -1    0    0    0  501 -0.00000000000E+00  0.00000000000E+00  0.15650888253E+03  0.15650888253E+03  0.00000000000E+00 0.  1.
          2   -1    0    0  501    0  0.00000000000E+00 -0.00000000000E+00 -0.10247559212E+03  0.10247559212E+03  0.00000000000E+00 0. -1.
         25    2    1    2    0    0  0.12711152378E+02 -0.52018608930E+02  0.61129829707E+02  0.14916861397E+03  0.12508761027E+03 0.  0.
          5    1    3    3  502    0  0.35350374019E+02 -0.87041609083E+02  0.39413608893E+02  0.10196467830E+03  0.41800000000E+01 0.  1.
         -5    1    3    3    0  502 -0.22639221640E+02  0.35023000153E+02  0.21716220814E+02  0.47203935669E+02  0.41800000000E+01 0.  1.
        -11    1    1    2    0    0 -0.28514670416E+02 -0.20570324009E+02  0.28096390322E+00  0.35161109190E+02  0.00000000000E+00 0. -1.
         11    1    1    2    0    0  0.15803518037E+02  0.72588932939E+02 -0.73775031977E+01  0.74654751497E+02  0.00000000000E+00 0.  1.
</event>
<event>
 7    1  0.2679104E-009  0.3950737E+03  0.7561462E-02  0.1045499E+00
         -2   -1    0    0    0  501 -0.00000000000E+00  0.00000000000E+00  0.58188975849E+02  0.58188975849E+02  0.00000000000E+00 0. -1.
          2   -1    0    0  501    0  0.00000000000E+00 -0.00000000000E+00 -0.27892812438E+04  0.27892812438E+04  0.00000000000E+00 0.  1.
         25    2    1    2    0    0 -0.84113468424E+02  0.37603510315E+03 -0.12270198541E+04  0.12921697574E+04  0.12508990834E+03 0.  0.
          5    1    3    3  502    0 -0.11619246764E+03  0.29061026515E+03 -0.91516295224E+03  0.96721027564E+03  0.41800000000E+01 0. -1.
         -5    1    3    3    0  502  0.32078999217E+02  0.85424837994E+02 -0.31185690184E+03  0.32495948173E+03  0.41800000000E+01 0. -1.
        -11    1    1    2    0    0  0.33204189472E+02 -0.10873528565E+03 -0.29890972825E+03  0.31980135426E+03  0.00000000000E+00 0. -1.
         11    1    1    2    0    0  0.50909278952E+02 -0.26729981749E+03 -0.12051626856E+04  0.12354991080E+04  0.00000000000E+00 0.  1.
</event>
<event>
 7    1  0.2679104E-009  0.8346924E+02  0.7561462E-02  0.1319485E+00
         -2   -1    0    0    0  501 -0.00000000000E+00  0.00000000000E+00  0.26149684834E+03  0.26149684834E+03  0.00000000000E+00 0. -1.
          2   -1    0    0  501    0  0.00000000000E+00 -0.00000000000E+00 -0.50497492343E+02  0.50497492343E+02  0.00000000000E+00 0.  1.
         25    2    1    2    0    0 -0.15111758143E+02 -0.13775407652E+02  0.80825907115E+02  0.15032598401E+03  0.12508775766E+03 0.  0.
          5    1    3    3  502    0 -0.49935571669E+02 -0.43587164218E+02  0.80411743308E+02  0.10429248805E+03  0.41800000000E+01 0.  1.
         -5    1    3    3    0  502  0.34823813526E+02  0.29811756566E+02  0.41416380619E+00  0.46033495953E+02  0.41800000000E+01 0.  1.
        -11    1    1    2    0    0  0.50390617583E+01  0.32682988375E+02  0.13559540421E+03  0.13956963679E+03  0.00000000000E+00 0. -1.
         11    1    1    2    0    0  0.10072696385E+02 -0.18907580722E+02 -0.54219553193E+01  0.22098719889E+02  0.00000000000E+00 0.  1.
</event>
<event>
 7    1  0.2679104E-009  0.2273744E+03  0.7561462E-02  0.1128502E+00
         -2   -1    0    0    0  501 -0.00000000000E+00  0.00000000000E+00  0.17696904956E+03  0.17696904956E+03  0.00000000000E+00 0.  1.
          2   -1    0    0  501    0  0.00000000000E+00 -0.00000000000E+00 -0.31111008318E+03  0.31111008318E+03  0.00000000000E+00 0. -1.
         25    2    1    2    0    0  0.10103091445E+02  0.20683584189E+03 -0.57581288229E+02  0.24868755019E+03  0.12508698940E+03 0.  0.
          5    1    3    3  502    0  0.59016009470E+02  0.85119114065E+02  0.39488564922E+01  0.10373629462E+03  0.41800000000E+01 0.  1.
         -5    1    3    3    0  502 -0.48912918025E+02  0.12171672783E+03 -0.61530144721E+02  0.14495125557E+03  0.41800000000E+01 0.  1.
        -11    1    1    2    0    0 -0.40904409344E+02 -0.87368528209E+02 -0.63126680084E+02  0.11528836959E+03  0.00000000000E+00 0. -1.
         11    1    1    2    0    0  0.30801317899E+02 -0.11946731369E+03 -0.13433065301E+02  0.12410321296E+03  0.00000000000E+00 0.  1.
</event>
<event>
 7    1  0.2679104E-009  0.1120488E+03  0.7561462E-02  0.1256822E+00
          2   -1    0    0  501    0  0.00000000000E+00  0.00000000000E+00  0.51393003657E+02  0.51393003657E+02  0.00000000000E+00 0. -1.
         -2   -1    0    0    0  501 -0.00000000000E+00 -0.00000000000E+00 -0.41033025544E+03  0.41033025544E+03  0.00000000000E+00 0.  1.
         25    2    1    2    0    0 -0.46122710752E+02 -0.84938500977E+02 -0.22853651945E+03  0.27788237942E+03  0.12509125739E+03 0.  0.
          5    1    3    3  502    0 -0.20930150350E+02 -0.92212338223E+01 -0.18582907445E+03  0.18727792090E+03  0.41800000000E+01 0.  1.
         -5    1    3    3    0  502 -0.25192560402E+02 -0.75717267155E+02 -0.42707445001E+02  0.90604458519E+02  0.41800000000E+01 0.  1.
        -11    1    1    2    0    0 -0.25378773275E+01  0.69988120781E+02 -0.41526144685E+02  0.81419890470E+02  0.00000000000E+00 0. -1.
         11    1    1    2    0    0  0.48660588079E+02  0.14950380197E+02 -0.88874587650E+02  0.10242098921E+03  0.00000000000E+00 0.  1.
</event>
<event>
 7    1  0.2679104E-009  0.8899449E+02  0.7561462E-02  0.1305305E+00
         -2   -1    0    0    0  501 -0.00000000000E+00  0.00000000000E+00  0.12228065630E+03  0.12228065630E+03  0.00000000000E+00 0.  1.
          2   -1    0    0  501    0  0.00000000000E+00 -0.00000000000E+00 -0.14284732341E+03  0.14284732341E+03  0.00000000000E+00 0. -1.
         25    2    1    2    0    0  0.15842554135E+02 -0.30403055580E+02 -0.76845969109E+02  0.15075858317E+03  0.12509002807E+03 0.  0.
          5    1    3    3  502    0  0.67948015060E+02 -0.30379050343E+01 -0.55932034572E+02  0.88159097709E+02  0.41800000000E+01 0.  1.
         -5    1    3    3    0  502 -0.52105460925E+02 -0.27365150546E+02 -0.20913934538E+02  0.62599485465E+02  0.41800000000E+01 0.  1.
        -11    1    1    2    0    0  0.59527783566E+01  0.28329833249E+02  0.78201058652E+02  0.83387172852E+02  0.00000000000E+00 0.  1.
         11    1    1    2    0    0 -0.21795332491E+02  0.20732223317E+01 -0.21921756660E+02  0.30982223683E+02  0.00000000000E+00 0. -1.
</event>
<event>
 7    1  0.2679104E-009  0.1385133E+03  0.7561462E-02  0.1215344E+00
         -2   -1    0    0    0  501 -0.00000000000E+00  0.00000000000E+00  0.45750411238E+02  0.45750411238E+02  0.00000000000E+00 0. -1.
          2   -1    0    0  501    0  0.00000000000E+00 -0.00000000000E+00 -0.54852158955E+03  0.54852158955E+03  0.00000000000E+00 0.  1.
         25    2    1    2    0    0  0.53533674954E+02 -0.99372472428E+02 -0.23956010807E+03  0.29288020860E+03  0.12509607741E+03 0.  0.
          5    1    3    3  502    0  0.61245841885E+02 -0.12196230239E+03 -0.22862403722E+03  0.26629359577E+03  0.41800000000E+01 0.  1.
         -5    1    3    3    0  502 -0.77121669312E+01  0.22589829964E+02 -0.10936070853E+02  0.26586612839E+02  0.41800000000E+01 0.  1.
        -11    1    1    2    0    0 -0.31472402459E+01  0.31837034712E+02 -0.18052369297E+03  0.18333659107E+03  0.00000000000E+00 0.  1.
         11    1    1    2    0    0 -0.50386434708E+02  0.67535437716E+02 -0.82687377270E+02  0.11805520111E+03  0.00000000000E+00 0. -1.
</event>
<event>
 7    1  0.2679104E-009  0.8663040E+02  0.7561462E-02  0.1311223E+00
          2   -1    0    0  501    0  0.00000000000E+00  0.00000000000E+00  0.68875545952E+02  0.68875545952E+02  0.00000000000E+00 0.  1.
         -2   -1    0    0    0  501 -0.00000000000E+00 -0.00000000000E+00 -0.21907557702E+03  0.21907557702E+03  0.00000000000E+00 0. -1.
         25    2    1    2    0    0 -0.50809588075E+02  0.21664192317E+00 -0.49334033099E+02  0.14374907609E+03  0.12509312084E+03 0.  0.
          5    1    3    3  502    0 -0.37593862965E+02 -0.23817847119E+02 -0.86501364477E+02  0.97368099655E+02  0.41800000000E+01 0. -1.
         -5    1    3    3    0  502 -0.13215725110E+02  0.24034489042E+02  0.37167331378E+02  0.46380976439E+02  0.41800000000E+01 0. -1.
        -11    1    1    2    0    0  0.49171944496E+02  0.38260805927E+02 -0.76365997273E+02  0.98557267288E+02  0.00000000000E+00 0. -1.
         11    1    1    2    0    0  0.16376435786E+01 -0.38477447851E+02 -0.24500000695E+02  0.45644779588E+02  0.00000000000E+00 0.  1.
</event>
<event>
 7    1  0.3475201E-009  0.1262660E+03  0.7561462E-02  0.1233104E+00
          2   -1    0    0  501    0  0.00000000000E+00  0.00000000000E+00  0.10526321657E+04  0.10526321657E+04  0.00000000000E+00 0. -1.
         -2   -1    0    0    0  501 -0.00000000000E+00 -0.00000000000E+00 -0.16454245449E+02  0.16454245449E+02  0.00000000000E+00 0.  1.
         25    2    1    2    0    0 -0.51951404067E+02  0.52240732330E+02  0.60303417102E+03  0.62026276254E+03  0.12509052993E+03 0.  0.
          5    1    3    3  502    0 -0.49737332452E+02 -0.32768463974E+02  0.22836441139E+03  0.23604099487E+03  0.41800000000E+01 0. -1.
         -5    1    3    3    0  502 -0.22140716141E+01  0.85009196304E+02  0.37466975963E+03  0.38422176767E+03  0.41800000000E+01 0. -1.
        -11    1    1    2    0    0  0.39410211545E+02  0.12805994050E+02  0.86583049904E+02  0.95988451328E+02  0.00000000000E+00 0. -1.
         11    1    1    2    0    0  0.12541192521E+02 -0.65046726380E+02  0.34656069935E+03  0.35283519731E+03  0.00000000000E+00 0.  1.
</event>
<event>
 7    1  0.2679104E-009  0.1142623E+03  0.7561462E-02  0.1252874E+00
          1   -1    0    0  501    0  0.00000000000E+00  0.00000000000E+00  0.62209005329E+03  0.62209005329E+03  0.00000000000E+00 0. -1.
         -1   -1    0    0    0  501 -0.00000000000E+00 -0.00000000000E+00 -0.48447643323E+02  0.48447643323E+02  0.00000000000E+00 0.  1.
         25    2    1    2    0    0  0.83310165515E+02  0.57989111565E+01  0.51029603349E+03  0.53200050475E+03  0.12509310219E+03 0.  0.
          5    1    3    3  502    0 -0.26724184582E+02  0.93523874709E+01  0.41361591891E+02  0.50298139893E+02  0.41800000000E+01 0.  1.
         -5    1    3    3    0  502  0.11003435010E+03 -0.35534763145E+01  0.46893444159E+03  0.48170236486E+03  0.41800000000E+01 0.  1.
        -11    1    1    2    0    0 -0.70752072687E+02 -0.17154852729E+02 -0.17065907430E+00  0.72802293138E+02  0.00000000000E+00 0.  1.
         11    1    1    2    0    0 -0.12558092828E+02  0.11355941572E+02  0.63517035555E+02  0.65734898724E+02  0.00000000000E+00 0. -1.
</event>
<event>
 7    1  0.2679104E-009  0.4488034E+02  0.7561462E-02  0.1475090E+00
          2   -1    0    0  501    0  0.00000000000E+00  0.00000000000E+00  0.18321550929E+02  0.18321550929E+02  0.00000000000E+00 0. -1.
         -2   -1    0    0    0  501 -0.00000000000E+00 -0.00000000000E+00 -0.68974692179E+03  0.68974692179E+03  0.00000000000E+00 0.  1.
         25    2    1    2    0    0  0.48502666426E+01  0.63396755851E+01 -0.48068878113E+03  0.49676216187E+03  0.12508886676E+03 0.  0.
          5    1    3    3  502    0 -0.36171153748E+01  0.17836233371E+02 -0.30844858850E+01  0.18926203996E+02  0.41800000000E+01 0.  1.
         -5    1    3    3    0  502  0.84673820174E+01 -0.11496557786E+02 -0.47760429524E+03  0.47783595787E+03  0.41800000000E+01 0.  1.
        -11    1    1    2    0    0 -0.28307525093E+02 -0.13937931318E+02 -0.18265237803E+03  0.18535768964E+03  0.00000000000E+00 0.  1.
         11    1    1    2    0    0  0.23457258450E+02  0.75982557334E+01 -0.80842117002E+01  0.25948621216E+02  0.00000000000E+00 0. -1.
</event>
<event>
 7    1  0.2679104E-009  0.9708860E+02  0.7561462E-02  0.1286540E+00
          3   -1    0    0  501    0  0.00000000000E+00  0.00000000000E+00  0.71120846859E+03  0.71120846859E+03  0.00000000000E+00 0. -1.
         -3   -1    0    0    0  501 -0.00000000000E+00 -0.00000000000E+00 -0.21798486973E+02  0.21798486973E+02  0.00000000000E+00 0.  1.
         25    2    1    2    0    0 -0.54552611349E+02  0.15836330084E+02  0.31574642197E+03  0.34434091800E+03  0.12509231816E+03 0.  0.
          5    1    3    3  502    0 -0.34209902428E+02  0.55162652574E+02  0.27949810986E+03  0.28696672538E+03  0.41800000000E+01 0.  1.
         -5    1    3    3    0  502 -0.20342708921E+02 -0.39326322490E+02  0.36248312113E+02  0.57374192612E+02  0.41800000000E+01 0.  1.
        -11    1    1    2    0    0  0.61879051197E+02  0.54787593600E+01  0.35187748813E+03  0.35731890579E+03  0.00000000000E+00 0. -1.
         11    1    1    2    0    0 -0.73264398477E+01 -0.21315089444E+02  0.21786071523E+02  0.31347131787E+02  0.00000000000E+00 0.  1.
</event>
<event>
 7    1  0.2679104E-009  0.9708151E+02  0.7561462E-02  0.1286556E+00
         -1   -1    0    0    0  501 -0.00000000000E+00  0.00000000000E+00  0.34127841839E+03  0.34127841839E+03  0.00000000000E+00 0.  1.
          1   -1    0    0  501    0  0.00000000000E+00 -0.00000000000E+00 -0.47577289299E+02  0.47577289299E+02  0.00000000000E+00 0. -1.
         25    2    1    2    0    0 -0.26137837384E+02  0.41882030151E+02  0.23909079270E+03  0.27431699053E+03  0.12509241842E+03 0.  0.
          5    1    3    3  502    0  0.26624365403E+02 -0.15444480575E+02  0.10518447741E+02  0.32794800750E+02  0.41800000000E+01 0. -1.
         -5    1    3    3    0  502 -0.52762202787E+02  0.57326510726E+02  0.22857234496E+03  0.24152218978E+03  0.41800000000E+01 0. -1.
        -11    1    1    2    0    0  0.49264791533E+02 -0.36552929378E+02  0.75170993338E+01  0.61803261349E+02  0.00000000000E+00 0. -1.
         11    1    1    2    0    0 -0.23126954150E+02 -0.53291007726E+01  0.47093237060E+02  0.52735455816E+02  0.00000000000E+00 0.  1.
</event>
<event>
 7    1  0.2679104E-009  0.1581094E+03  0.7561462E-02  0.1190848E+00
         -1   -1    0    0    0  501 -0.00000000000E+00  0.00000000000E+00  0.64912938921E+02  0.64912938921E+02  0.00000000000E+00 0.  1.
          1   -1    0    0  501    0  0.00000000000E+00 -0.00000000000E+00 -0.68972621509E+03  0.68972621509E+03  0.00000000000E+00 0. -1.
         25    2    1    2    0    0  0.50782347751E+02  0.13387883721E+03 -0.12688103624E+03  0.22857988934E+03  0.12509028161E+03 0.  0.
          5    1    3    3  502    0  0.37451491440E+02  0.49258132053E+02  0.14060799492E+02  0.63593681029E+02  0.41800000000E+01 0. -1.
         -5    1    3    3    0  502  0.13330856311E+02  0.84620705160E+02 -0.14094183573E+03  0.16498620831E+03  0.41800000000E+01 0. -1.
        -11    1    1    2    0    0  0.16072759556E+02 -0.82672782129E+02 -0.28120174683E+03  0.29354308871E+03  0.00000000000E+00 0.  1.
         11    1    1    2    0    0 -0.66855107307E+02 -0.51206055084E+02 -0.21673049309E+03  0.23251617596E+03  0.00000000000E+00 0. -1.
</event>
<event>
 7    1  0.2679104E-009  0.1317865E+03  0.7561462E-02  0.1224829E+00
         -1   -1    0    0    0  501 -0.00000000000E+00  0.00000000000E+00  0.59893941583E+03  0.59893941583E+03  0.00000000000E+00 0.  1.
          1   -1    0    0  501    0  0.00000000000E+00 -0.00000000000E+00 -0.52085659005E+02  0.52085659005E+02  0.00000000000E+00 0. -1.
         25    2    1    2    0    0 -0.42347629840E+02  0.11293068083E+03  0.41747967415E+03  0.45220002285E+03  0.12509565106E+03 0.  0.
          5    1    3    3  502    0  0.21816849665E+02  0.31264589424E+02  0.24045295543E+02  0.45266964984E+02  0.41800000000E+01 0.  1.
         -5    1    3    3    0  502 -0.64164479505E+02  0.81666091410E+02  0.39343437861E+03  0.40693305787E+03  0.41800000000E+01 0.  1.
        -11    1    1    2    0    0  0.37866286459E+01 -0.24711648564E+02  0.92348361436E+02  0.95672482936E+02  0.00000000000E+00 0.  1.
         11    1    1    2    0    0  0.38561001194E+02 -0.88219032269E+02  0.37025721241E+02  0.10315256905E+03  0.00000000000E+00 0. -1.
</event>
<event>
 7    1  0.2679104E-009  0.1057481E+03  0.7561462E-02  0.1268653E+00
          3   -1    0    0  501    0  0.00000000000E+00  0.00000000000E+00  0.99195776444E+02  0.99195776444E+02  0.00000000000E+00 0. -1.
         -3   -1    0    0    0  501 -0.00000000000E+00 -0.00000000000E+00 -0.16278861858E+03  0.16278861858E+03  0.00000000000E+00 0.  1.
         25    2    1    2    0    0 -0.41794673203E+02 -0.50847771841E+02 -0.28676453164E+02  0.14423144506E+03  0.12509228661E+03 0.  0.
          5    1    3    3  502    0 -0.65035485990E+02 -0.52030339842E+02  0.23760182488E+02  0.86710953022E+02  0.41800000000E+01 0.  1.
         -5    1    3    3    0  502  0.23240812787E+02  0.11825680010E+01 -0.52436635652E+02  0.57520492040E+02  0.41800000000E+01 0.  1.
        -11    1    1    2    0    0  0.34686850695E+02 -0.15315009544E+02 -0.34416424698E+02  0.51207591405E+02  0.00000000000E+00 0.  1.
         11    1    1    2    0    0  0.71078225083E+01  0.66162781385E+02 -0.49996427574E+00  0.66545358558E+02  0.00000000000E+00 0. -1.
</event>
<event>
 7    1  0.2679104E-009  0.5036348E+02  0.7561462E-02  0.1443391E+00
         -2   -1    0    0    0  501 -0.00000000000E+00  0.00000000000E+00  0.32778375676E+02  0.32778375676E+02  0.00000000000E+00 0.  1.
          2   -1    0    0  501    0  0.00000000000E+00 -0.00000000000E+00 -0.38031282832E+03  0.38031282832E+03  0.00000000000E+00 0. -1.
         25    2    1    2    0    0 -0.52781034348E+01  0.21564735825E+02 -0.17187316564E+03  0.21372849364E+03  0.12508632107E+03 0.  0.
          5    1    3    3  502    0 -0.64936370166E+01  0.15971490534E+02  0.17089537810E+02  0.24632915665E+02  0.41800000000E+01 0. -1.
         -5    1    3    3    0  502  0.12155335818E+01  0.55932452905E+01 -0.18896270345E+03  0.18909557797E+03  0.41800000000E+01 0. -1.
        -11    1    1    2    0    0  0.18714683187E+02 -0.45082831760E+02 -0.16166667209E+03  0.16887514308E+03  0.00000000000E+00 0. -1.
         11    1    1    2    0    0 -0.13436579752E+02  0.23518095935E+02 -0.13994614920E+02  0.30487567279E+02  0.00000000000E+00 0.  1.
</event>
<event>
 7    1  0.2679104E-009  0.1012380E+03  0.7561462E-02  0.1277714E+00
         -1   -1    0    0    0  501 -0.00000000000E+00  0.00000000000E+00  0.41176027578E+03  0.41176027578E+03  0.00000000000E+00 0.  1.
          1   -1    0    0  501    0  0.00000000000E+00 -0.00000000000E+00 -0.34486264664E+02  0.34486264664E+02  0.00000000000E+00 0. -1.
         25    2    1    2    0    0 -0.87410358548E+01  0.30227383294E+02  0.29859458342E+03  0.32526349758E+03  0.12509003638E+03 0.  0.
          5    1    3    3  502    0  0.24700699829E+02 -0.38551583323E+02  0.66408998083E+02  0.80771137018E+02  0.41800000000E+01 0. -1.
         -5    1    3    3    0  502 -0.33441735684E+02  0.68778966618E+02  0.23218558533E+03  0.24449236056E+03  0.41800000000E+01 0. -1.
        -11    1    1    2    0    0 -0.31531658813E+02 -0.22909101531E+02  0.68487414579E+02  0.78801005045E+02  0.00000000000E+00 0.  1.
         11    1    1    2    0    0  0.40272694668E+02 -0.73182817636E+01  0.10192013125E+02  0.42182037828E+02  0.00000000000E+00 0. -1.
</event>
<event>
 7    1  0.2679104E-009  0.9506216E+02  0.7561462E-02  0.1291036E+00
          1   -1    0    0  501    0  0.00000000000E+00  0.00000000000E+00  0.16621586911E+03  0.16621586911E+03  0.00000000000E+00 0. -1.
         -1   -1    0    0    0  501 -0.00000000000E+00 -0.00000000000E+00 -0.89575610063E+02  0.89575610063E+02  0.00000000000E+00 0.  1.
         25    2    1    2    0    0  0.13304165237E+02  0.54450925243E+02  0.41353895109E+02  0.14317275856E+03  0.12508553107E+03 0.  0.
          5    1    3    3  502    0  0.44816201691E+02  0.46192681441E+02  0.73106594823E+02  0.97490011588E+02  0.41800000000E+01 0.  1.
         -5    1    3    3    0  502 -0.31512036455E+02  0.82582438023E+01 -0.31752699714E+02  0.45682746977E+02  0.41800000000E+01 0.  1.
        -11    1    1    2    0    0 -0.44215938914E+02 -0.32029184719E+02 -0.76796472133E+01  0.55135241988E+02  0.00000000000E+00 0.  1.
         11    1    1    2    0    0  0.30911773677E+02 -0.22421740525E+02  0.42966011152E+02  0.57483478620E+02  0.00000000000E+00 0. -1.
</event>
<event>
 7    1  0.2679104E-009  0.7554899E+02  0.7561462E-02  0.1342179E+00
         -1   -1    0    0    0  501 -0.00000000000E+00  0.00000000000E+00  0.49839598708E+02  0.49839598708E+02  0.00000000000E+00 0.  1.
          1   -1    0    0  501    0  0.00000000000E+00 -0.00000000000E+00 -0.29090577106E+03  0.29090577106E+03  0.00000000000E+00 0. -1.
         25    2    1    2    0    0  0.23396660902E+02 -0.25990509578E+01 -0.68728396119E+02  0.14465835732E+03  0.12509312172E+03 0.  0.
          5    1    3    3  502    0  0.38290949164E+02 -0.25036067030E+02  0.21269367935E+02  0.50624696073E+02  0.41800000000E+01 0. -1.
         -5    1    3    3    0  502 -0.14894288262E+02  0.22437016072E+02 -0.89997764054E+02  0.94033661248E+02  0.41800000000E+01 0. -1.
        -11    1    1    2    0    0  0.11575774164E+02  0.30848137193E+02 -0.13077442265E+03  0.13486124624E+03  0.00000000000E+00 0. -1.
         11    1    1    2    0    0 -0.34972435066E+02 -0.28249086235E+02 -0.41563353581E+02  0.61225766214E+02  0.00000000000E+00 0.  1.
</event>
<event>
 7    1  0.2679104E-009  0.6752613E+02  0.7561462E-02  0.1368713E+00
          1   -1    0    0  501    0  0.00000000000E+00  0.00000000000E+00  0.21414788548E+03  0.21414788548E+03  0.00000000000E+00 0. -1.
         -1   -1    0    0    0  501 -0.00000000000E+00 -0.00000000000E+00 -0.83146395488E+02  0.83146395488E+02  0.00000000000E+00 0.  1.
         25    2    1    2    0    0 -0.35300237714E+01  0.26239652298E+02 -0.93168242111E+01  0.12820082553E+03  0.12509063927E+03 0.  0.
          5    1    3    3  502    0 -0.16330649748E+02  0.23036573815E+02  0.55238495481E+02  0.62178273033E+02  0.41800000000E+01 0. -1.
         -5    1    3    3    0  502  0.12800625977E+02  0.32030784827E+01 -0.64555319692E+02  0.66022552493E+02  0.41800000000E+01 0. -1.
        -11    1    1    2    0    0 -0.42656090880E+02 -0.11390048732E+02  0.82896768858E+02  0.93920975220E+02  0.00000000000E+00 0.  1.
         11    1    1    2    0    0  0.46186114652E+02 -0.14849603567E+02  0.57421545342E+02  0.75172480218E+02  0.00000000000E+00 0. -1.
</event>
<event>
 7    1  0.2679104E-009  0.1331792E+03  0.7561462E-02  0.1222813E+00
          2   -1    0    0  501    0  0.00000000000E+00  0.00000000000E+00  0.76898007218E+03  0.76898007218E+03  0.00000000000E+00 0. -1.
         -2   -1    0    0    0  501 -0.00000000000E+00 -0.00000000000E+00 -0.32017338255E+02  0.32017338255E+02  0.00000000000E+00 0.  1.
         25    2    1    2    0    0 -0.45728909279E+02  0.92954336645E+02  0.27596541086E+03  0.32021260055E+03  0.12509020632E+03 0.  0.
          5    1    3    3  502    0  0.34337051662E+02  0.70683937601E+02  0.14685926008E+03  0.16661442562E+03  0.41800000000E+01 0.  1.
         -5    1    3    3    0  502 -0.80065960941E+02  0.22270399044E+02  0.12910615077E+03  0.15359817493E+03  0.41800000000E+01 0.  1.
        -11    1    1    2    0    0  0.15768897313E+02 -0.19192092157E+02  0.17963223971E+02  0.30654068886E+02  0.00000000000E+00 0.  1.
         11    1    1    2    0    0  0.29960011966E+02 -0.73762244488E+02  0.44303409910E+03  0.45013074100E+03  0.00000000000E+00 0. -1.
</event>
<event>
 7    1  0.2679104E-009  0.9122510E+02  0.7561462E-02  0.1299912E+00
          2   -1    0    0  501    0  0.00000000000E+00  0.00000000000E+00  0.26423777862E+03  0.26423777862E+03  0.00000000000E+00 0. -1.
         -2   -1    0    0    0  501 -0.00000000000E+00 -0.00000000000E+00 -0.49068457794E+02  0.49068457794E+02  0.00000000000E+00 0.  1.
         25    2    1    2    0    0 -0.47944024024E+01 -0.11894972126E+02  0.11687945687E+03  0.17167389189E+03  0.12508653430E+03 0.  0.
          5    1    3    3  502    0 -0.41011971832E+02 -0.49084220099E+02  0.96286829509E+02  0.11567138122E+03  0.41800000000E+01 0. -1.
         -5    1    3    3    0  502  0.36217569429E+02  0.37189247973E+02  0.20592627356E+02  0.56002510672E+02  0.41800000000E+01 0. -1.
        -11    1    1    2    0    0  0.34943712433E+02  0.45304217364E+01  0.10423734672E+03  0.11003186907E+03  0.00000000000E+00 0. -1.
         11    1    1    2    0    0 -0.30149310031E+02  0.73645503892E+01 -0.59474827590E+01  0.31600475454E+02  0.00000000000E+00 0.  1.
</event>
<event>
 7    1  0.2679104E-009  0.3287415E+03  0.7561462E-02  0.1071695E+00
         -1   -1    0    0    0  501 -0.00000000000E+00  0.00000000000E+00  0.78460582952E+03  0.78460582952E+03  0.00000000000E+00 0.  1.
          1   -1    0    0  501    0  0.00000000000E+00 -0.00000000000E+00 -0.14474044662E+03  0.14474044662E+03  0.00000000000E+00 0. -1.
         25    2    1    2    0    0  0.27018481353E+03 -0.16605971511E+03  0.28313301609E+03  0.44315487840E+03  0.12508508707E+03 0.  0.
          5    1    3    3  502    0  0.21538849377E+03 -0.17085262471E+03  0.27223102280E+03  0.38692379714E+03  0.41800000000E+01 0. -1.
         -5    1    3    3    0  502  0.54796319766E+02  0.47929096020E+01  0.10901993286E+02  0.56231081263E+02  0.41800000000E+01 0. -1.
        -11    1    1    2    0    0 -0.61636210939E+02  0.14082930858E+01  0.43576319390E+02  0.75497691355E+02  0.00000000000E+00 0. -1.
         11    1    1    2    0    0 -0.20854860260E+03  0.16465142202E+03  0.31315604743E+03  0.41069370638E+03  0.00000000000E+00 0.  1.
</event>
<event>
 7    1  0.4678925E-009  0.5875320E+02  0.7561462E-02  0.1403140E+00
         -2   -1    0    0    0  501 -0.00000000000E+00  0.00000000000E+00  0.26040368839E+02  0.26040368839E+02  0.00000000000E+00 0.  1.
          2   -1    0    0  501    0  0.00000000000E+00 -0.00000000000E+00 -0.63056116062E+03  0.63056116062E+03  0.00000000000E+00 0. -1.
         25    2    1    2    0    0  0.32514510569E+02 -0.72285888730E+01 -0.48769006204E+03  0.50457457986E+03  0.12507783229E+03 0.  0.
          5    1    3    3  502    0  0.13477732934E+02  0.65226345827E+01 -0.47890187540E+03  0.47915412208E+03  0.41800000000E+01 0. -1.
         -5    1    3    3    0  502  0.19036777635E+02 -0.13751223456E+02 -0.87881866454E+01  0.25420457780E+02  0.41800000000E+01 0. -1.
        -11    1    1    2    0    0 -0.33823107042E+02  0.35948012674E+02 -0.11263234432E+03  0.12297279037E+03  0.00000000000E+00 0. -1.
         11    1    1    2    0    0  0.13085964725E+01 -0.28719423801E+02 -0.41983854181E+01  0.29054159226E+02  0.00000000000E+00 0.  1.
</event>
<event>
 7    1  0.2679104E-009  0.1923968E+03  0.7561462E-02  0.1156317E+00
         -2   -1    0    0    0  501 -0.00000000000E+00  0.00000000000E+00  0.62666277249E+02  0.62666277249E+02  0.00000000000E+00 0.  1.
          2   -1    0    0  501    0  0.00000000000E+00 -0.00000000000E+00 -0.67241464507E+03  0.67241464507E+03  0.00000000000E+00 0. -1.
         25    2    1    2    0    0  0.16530284182E+03 -0.47368948540E+02 -0.36425975109E+03  0.42178428380E+03  0.12509184224E+03 0.  0.
          5    1    3    3  502    0 -0.17532852879E+02 -0.21291114420E+02 -0.46223369883E+02  0.53988747037E+02  0.41800000000E+01 0. -1.
         -5    1    3    3    0  502  0.18283569470E+03 -0.26077834120E+02 -0.31803638121E+03  0.36779553676E+03  0.41800000000E+01 0. -1.
        -11    1    1    2    0    0 -0.13744791993E+03  0.36045638569E+02 -0.12544959847E+03  0.18954899237E+03  0.00000000000E+00 0.  1.
         11    1    1    2    0    0 -0.27854921894E+02  0.11323309971E+02 -0.12003901826E+03  0.12374764615E+03  0.00000000000E+00 0. -1.
</event>
<event>
 7    1  0.2679104E-009  0.9144708E+02  0.7561462E-02  0.1299385E+00
         -1   -1    0    0    0  501 -0.00000000000E+00  0.00000000000E+00  0.13149091072E+03  0.13149091072E+03  0.00000000000E+00 0.  1.
          1   -1    0    0  501    0  0.00000000000E+00 -0.00000000000E+00 -0.12424094185E+03  0.12424094185E+03  0.00000000000E+00 0. -1.
         25    2    1    2    0    0 -0.72940671022E+01  0.25528236450E+02 -0.60571653976E+02  0.14149363831E+03  0.12508649066E+03 0.  0.
          5    1    3    3  502    0 -0.56588881616E+02 -0.14828213040E+02 -0.49395900708E+02  0.76678581307E+02  0.41800000000E+01 0. -1.
         -5    1    3    3    0  502  0.49294814514E+02  0.40356449490E+02 -0.11175753268E+02  0.64815057005E+02  0.41800000000E+01 0. -1.
        -11    1    1    2    0    0  0.20703819382E+02 -0.37232769043E+02 -0.15394054268E+01  0.42629766557E+02  0.00000000000E+00 0. -1.
         11    1    1    2    0    0 -0.13409752280E+02  0.11704532592E+02  0.69361028270E+02  0.71608447701E+02  0.00000000000E+00 0.  1.
</event>
<event>
 7    1  0.2679104E-009  0.2666750E+03  0.7561462E-02  0.1103198E+00
          2   -1    0    0  501    0  0.00000000000E+00  0.00000000000E+00  0.10276168450E+04  0.10276168450E+04  0.00000000000E+00 0. -1.
         -2   -1    0    0    0  501 -0.00000000000E+00 -0.00000000000E+00 -0.18506103335E+03  0.18506103335E+03  0.00000000000E+00 0.  1.
         25    2    1    2    0    0  0.16036951998E+03 -0.20084148723E+03  0.89192259714E+03  0.93660528152E+03  0.12509135923E+03 0.  0.
          5    1    3    3  502    0  0.29882343322E+02 -0.10074736076E+02  0.29133874876E+03  0.29307028795E+03  0.41800000000E+01 0.  1.
         -5    1    3    3    0  502  0.13048717666E+03 -0.19076675115E+03  0.60058384838E+03  0.64353499357E+03  0.41800000000E+01 0.  1.
        -11    1    1    2    0    0 -0.49496998274E+02  0.12923784285E+03 -0.38469594097E+02  0.14363941845E+03  0.00000000000E+00 0.  1.
         11    1    1    2    0    0 -0.11087252171E+03  0.71603644380E+02 -0.10897191382E+02  0.13243317839E+03  0.00000000000E+00 0. -1.
</event>
<event>
 7    1  0.2810851E-009  0.1253399E+03  0.7561462E-02  0.1234539E+00
         -2   -1    0    0    0  501 -0.00000000000E+00  0.00000000000E+00  0.23247991428E+02  0.23247991428E+02  0.00000000000E+00 0.  1.
          2   -1    0    0  501    0  0.00000000000E+00 -0.00000000000E+00 -0.91910960359E+03  0.91910960359E+03  0.00000000000E+00 0. -1.
         25    2    1    2    0    0  0.73985643600E+02  0.63745766595E+02 -0.51194874358E+03  0.53598095965E+03  0.12508666932E+03 0.  0.
          5    1    3    3  502    0 -0.27936702816E+02  0.25859896073E+02 -0.60496424221E+02  0.71599464612E+02  0.41800000000E+01 0. -1.
         -5    1    3    3    0  502  0.10192234642E+03  0.37885870521E+02 -0.45145231935E+03  0.46438149504E+03  0.41800000000E+01 0. -1.
        -11    1    1    2    0    0 -0.14503149127E+02 -0.34204383589E+02 -0.34475024353E+02  0.50683414402E+02  0.00000000000E+00 0.  1.
         11    1    1    2    0    0 -0.59482494473E+02 -0.29541383006E+02 -0.34943784423E+03  0.35569322096E+03  0.00000000000E+00 0. -1.
</event>
<event>
 7    1  0.2679104E-009  0.1109369E+03  0.7561462E-02  0.1258845E+00
         -2   -1    0    0    0  501 -0.00000000000E+00  0.00000000000E+00  0.16283715686E+03  0.16283715686E+03  0.00000000000E+00 0.  1.
          2   -1    0    0  501    0  0.00000000000E+00 -0.00000000000E+00 -0.10771078154E+03  0.10771078154E+03  0.00000000000E+00 0. -1.
         25    2    1    2    0    0  0.41082124371E+02  0.29501047586E+02  0.84798798104E+02  0.15936285933E+03  0.12509049534E+03 0.  0.
          5    1    3    3  502    0 -0.28237452959E+02  0.35608918089E+02 -0.47419903280E+01  0.45883631824E+02  0.41800000000E+01 0.  1.
         -5    1    3    3    0  502  0.69319577330E+02 -0.61078705024E+01  0.89540788432E+02  0.11347922751E+03  0.41800000000E+01 0.  1.
        -11    1    1    2    0    0  0.16127265188E+02 -0.44539460172E+02 -0.19198746113E+02  0.51112073399E+02  0.00000000000E+00 0.  1.
         11    1    1    2    0    0 -0.57209389559E+02  0.15038412586E+02 -0.10473676674E+02  0.60073005667E+02  0.00000000000E+00 0. -1.
</event>
<event>
 7    1  0.2679104E-009  0.1344847E+03  0.7561462E-02  0.1220949E+00
          1   -1    0    0  501    0  0.00000000000E+00  0.00000000000E+00  0.19632568842E+03  0.19632568842E+03  0.00000000000E+00 0. -1.
         -1   -1    0    0    0  501 -0.00000000000E+00 -0.00000000000E+00 -0.17923965817E+03  0.17923965817E+03  0.00000000000E+00 0.  1.
         25    2    1    2    0    0 -0.55728778863E+02  0.11867332258E+03  0.88734626364E+02  0.20176693790E+03  0.12508800514E+03 0.  0.
          5    1    3    3  502    0 -0.56231206755E+02  0.74279995252E+02 -0.96430644676E+01  0.93754612687E+02  0.41800000000E+01 0. -1.
         -5    1    3    3    0  502  0.50242789218E+00  0.44393327328E+02  0.98377690832E+02  0.10801232522E+03  0.41800000000E+01 0. -1.
        -11    1    1    2    0    0  0.33202711678E+02 -0.68607995127E+02  0.84549593529E+01  0.76687439622E+02  0.00000000000E+00 0. -1.
         11    1    1    2    0    0  0.22526067185E+02 -0.50065327453E+02 -0.80103555466E+02  0.97110969072E+02  0.00000000000E+00 0.  1.
</event>
<event>
 7    1  0.2679104E-009  0.1728638E+03  0.7561462E-02  0.1174894E+00
          3   -1    0    0  501    0  0.00000000000E+00  0.00000000000E+00  0.85971925716E+03  0.85971925716E+03  0.00000000000E+00 0. -1.
         -3   -1    0    0    0  501 -0.00000000000E+00 -0.00000000000E+00 -0.42686710752E+02  0.42686710752E+02  0.00000000000E+00 0.  1.
         25    2    1    2    0    0  0.14842374642E+03 -0.46242272408E+02  0.44641992741E+03  0.48898540635E+03  0.12509204521E+03 0.  0.
          5    1    3    3  502    0 -0.15854329330E+01  0.14242640396E+02  0.15454708074E+03  0.15526634847E+03  0.41800000000E+01 0.  1.
         -5    1    3    3    0  502  0.15000917935E+03 -0.60484912804E+02  0.29187284668E+03  0.33371905788E+03  0.41800000000E+01 0.  1.
        -11    1    1    2    0    0 -0.69265897851E+02  0.56229498492E+02  0.11441690077E+03  0.14508876003E+03  0.00000000000E+00 0.  1.
         11    1    1    2    0    0 -0.79157848567E+02 -0.99872260844E+01  0.25619571823E+03  0.26833180153E+03  0.00000000000E+00 0. -1.
</event>
<event>
 7    1  0.2679104E-009  0.8492458E+02  0.7561462E-02  0.1315630E+00
         -2   -1    0    0    0  501 -0.00000000000E+00  0.00000000000E+00  0.11353647442E+03  0.11353647442E+03  0.00000000000E+00 0.  1.
          2   -1    0    0  501    0  0.00000000000E+00 -0.00000000000E+00 -0.11833716811E+03  0.11833716811E+03  0.00000000000E+00 0. -1.
         25    2    1    2    0    0 -0.14189133480E+02 -0.37363735639E+02 -0.14029685732E+02  0.13206428808E+03  0.12508702513E+03 0.  0.
          5    1    3    3  502    0  0.13418093737E+02  0.87534816280E+01  0.47473250673E+02  0.50277734731E+02  0.41800000000E+01 0. -1.
         -5    1    3    3    0  502 -0.27607227217E+02 -0.46117217267E+02 -0.61502936405E+02  0.81786553354E+02  0.41800000000E+01 0. -1.
        -11    1    1    2    0    0  0.14210624425E+02  0.67633795563E+02  0.66347189345E+01  0.69428320188E+02  0.00000000000E+00 0.  1.
         11    1    1    2    0    0 -0.21490944963E-01 -0.30270059925E+02  0.25942731016E+01  0.30381034259E+02  0.00000000000E+00 0. -1.
</event>
<event>
 7    1  0.2679104E-009  0.8940614E+02  0.7561462E-02  0.1304296E+00
          2   -1    0    0  501    0  0.00000000000E+00  0.00000000000E+00  0.82539098090E+02  0.82539098090E+02  0.00000000000E+00 0. -1.
         -2   -1    0    0    0  501 -0.00000000000E+00 -0.00000000000E+00 -0.17850524694E+03  0.17850524694E+03  0.00000000000E+00 0.  1.
         25    2    1    2    0    0 -0.40464281430E+02 -0.36942193710E+02 -0.74933139446E+02  0.15576486162E+03  0.12508250469E+03 0.  0.
          5    1    3    3  502    0  0.29186688228E+02 -0.34099966248E+02  0.96273699794E+01  0.46095868801E+02  0.41800000000E+01 0. -1.
         -5    1    3    3    0  502 -0.69650969658E+02 -0.28422274625E+01 -0.84560509425E+02  0.10966899282E+03  0.41800000000E+01 0. -1.
        -11    1    1    2    0    0  0.16262039147E+02 -0.36245319225E+01 -0.48053345497E+02  0.50859759755E+02  0.00000000000E+00 0.  1.
         11    1    1    2    0    0  0.24202242283E+02  0.40566725633E+02  0.27020336094E+02  0.54419723655E+02  0.00000000000E+00 0. -1.
</event>
<event>
 7    1  0.2679104E-009  0.1032680E+03  0.7561462E-02  0.1273570E+00
          1   -1    0    0  501    0  0.00000000000E+00  0.00000000000E+00  0.36100833842E+02  0.36100833842E+02  0.00000000000E+00 0.  1.
         -1   -1    0    0    0  501 -0.00000000000E+00 -0.00000000000E+00 -0.43280083164E+03  0.43280083164E+03  0.00000000000E+00 0. -1.
         25    2    1    2    0    0 -0.55702736728E+02  0.27898379002E+02 -0.21914624455E+03  0.25991090424E+03  0.12508991651E+03 0.  0.
          5    1    3    3  502    0 -0.76446570712E+02  0.45004859463E+02 -0.21469601199E+03  0.23233890228E+03  0.41800000000E+01 0. -1.
         -5    1    3    3    0  502  0.20743833984E+02 -0.17106480460E+02 -0.44502325567E+01  0.27572001957E+02  0.41800000000E+01 0. -1.
        -11    1    1    2    0    0  0.14829613055E+02  0.21677282330E+02 -0.76685470480E+01  0.27361078312E+02  0.00000000000E+00 0.  1.
         11    1    1    2    0    0  0.40873123673E+02 -0.49575661332E+02 -0.16988520621E+03  0.18162968294E+03  0.00000000000E+00 0. -1.
</event>
<event>
 7    1  0.2679104E-009  0.1400302E+03  0.7561462E-02  0.1213288E+00
         -1   -1    0    0    0  501 -0.00000000000E+00  0.00000000000E+00  0.29249756216E+03  0.29249756216E+03  0.00000000000E+00 0.  1.
          1   -1    0    0  501    0  0.00000000000E+00 -0.00000000000E+00 -0.11261254769E+03  0.11261254769E+03  0.00000000000E+00 0. -1.
         25    2    1    2    0    0  0.10786792505E+03 -0.55764237831E+02  0.24149674104E+02  0.17599793532E+03  0.12508767726E+03 0.  0.
          5    1    3    3  502    0  0.30937004164E+02  0.13328664146E+02 -0.41369772399E+02  0.53513381344E+02  0.41800000000E+01 0.  1.
         -5    1    3    3    0  502  0.76930920884E+02 -0.69092901977E+02  0.65519446502E+02  0.12248455397E+03  0.41800000000E+01 0.  1.
        -11    1    1    2    0    0 -0.56859530047E+02 -0.11700652112E+02  0.76187982797E+01  0.58548761766E+02  0.00000000000E+00 0. -1.
         11    1    1    2    0    0 -0.51008395001E+02  0.67464889942E+02  0.14811654208E+03  0.17056341277E+03  0.00000000000E+00 0.  1.
</event>
<event>
 7    1  0.2679104E-009  0.1982274E+03  0.7561462E-02  0.1151243E+00
          1   -1    0    0  501    0  0.00000000000E+00  0.00000000000E+00  0.14458395103E+03  0.14458395103E+03  0.00000000000E+00 0. -1.
         -1   -1    0    0    0  501 -0.00000000000E+00 -0.00000000000E+00 -0.32408024485E+03  0.32408024485E+03  0.00000000000E+00 0.  1.
         25    2    1    2    0    0  0.17433241606E+03  0.20681682333E+02 -0.16331685930E+03  0.27044062302E+03  0.12508481431E+03 0.  0.
          5    1    3    3  502    0  0.46833340157E+02 -0.40999296435E+02 -0.12730975512E+02  0.63669884528E+02  0.41800000000E+01 0. -1.
         -5    1    3    3    0  502  0.12749907591E+03  0.61680978768E+02 -0.15058588379E+03  0.20677073849E+03  0.41800000000E+01 0. -1.
        -11    1    1    2    0    0 -0.16812071052E+03  0.27393845902E+01 -0.29287227058E+02  0.17067460035E+03  0.00000000000E+00 0.  1.
         11    1    1    2    0    0 -0.62117055422E+01 -0.23421066923E+02  0.13107792532E+02  0.27548972515E+02  0.00000000000E+00 0. -1.
</event>
<event>
 7    1  0.2679104E-009  0.9747862E+02  0.7561462E-02  0.1285689E+00
          3   -1    0    0  501    0  0.00000000000E+00  0.00000000000E+00  0.16022235922E+03  0.16022235922E+03  0.00000000000E+00 0.  1.
         -3   -1    0    0    0  501 -0.00000000000E+00 -0.00000000000E+00 -0.88570206853E+02  0.88570206853E+02  0.00000000000E+00 0. -1.
         25    2    1    2    0    0  0.43805706455E+02  0.10772705104E+02  0.63209200846E+02  0.14723368080E+03  0.12508941841E+03 0.  0.
          5    1    3    3  502    0 -0.41422501208E+02  0.75278269675E+01  0.41191880359E+02  0.59048583325E+02  0.41800000000E+01 0. -1.
         -5    1    3    3    0  502  0.85228207663E+02  0.32448781370E+01  0.22017320486E+02  0.88185097477E+02  0.41800000000E+01 0. -1.
        -11    1    1    2    0    0 -0.51762677938E+02 -0.19621436599E+02 -0.28842756028E+02  0.62420190458E+02  0.00000000000E+00 0. -1.
         11    1    1    2    0    0  0.79569714825E+01  0.88487314942E+01  0.37285707549E+02  0.39138694813E+02  0.00000000000E+00 0.  1.
</event>
<event>
 7    1  0.2679104E-009  0.1218619E+03  0.7561462E-02  0.1240057E+00
         -4   -1    0    0    0  501 -0.00000000000E+00  0.00000000000E+00  0.62248935001E+02  0.62248935001E+02  0.00000000000E+00 0.  1.
          4   -1    0    0  501    0  0.00000000000E+00 -0.00000000000E+00 -0.29028900028E+03  0.29028900028E+03  0.00000000000E+00 0. -1.
         25    2    1    2    0    0  0.76936491099E+02 -0.14699320954E+02 -0.10106434458E+03  0.17887603619E+03  0.12508933160E+03 0.  0.
          5    1    3    3  502    0  0.84726078950E+02 -0.43360332505E+02 -0.11192157997E+03  0.14697802337E+03  0.41800000000E+01 0.  1.
         -5    1    3    3    0  502 -0.77895878513E+01  0.28661011551E+02  0.10857235390E+02  0.31898012828E+02  0.41800000000E+01 0.  1.
        -11    1    1    2    0    0 -0.34049738968E+02 -0.37666419189E+02 -0.55555967718E+02  0.75263599485E+02  0.00000000000E+00 0.  1.
         11    1    1    2    0    0 -0.42886752131E+02  0.52365740143E+02 -0.71419752983E+02  0.98398299605E+02  0.00000000000E+00 0. -1.
</event>
<event>
 7    1  0.2679104E-009  0.1370962E+03  0.7561462E-02  0.1217290E+00
         -1   -1    0    0    0  501 -0.00000000000E+00  0.00000000000E+00  0.81216608130E+03  0.81216608130E+03  0.00000000000E+00 0.  1.
          1   -1    0    0  501    0  0.00000000000E+00 -0.00000000000E+00 -0.36710820536E+02  0.36710820536E+02  0.00000000000E+00 0. -1.
         25    2    1    2    0    0  0.63774327704E+02 -0.91894652012E+02  0.22879110104E+03  0.28373251428E+03  0.12508788831E+03 0.  0.
          5    1    3    3  502    0  0.58259491160E+02 -0.13030848213E+02  0.24549954673E+02  0.64684959533E+02  0.41800000000E+01 0. -1.
         -5    1    3    3    0  502  0.55148365440E+01 -0.78863803799E+02  0.20424114637E+03  0.21904755475E+03  0.41800000000E+01 0. -1.
        -11    1    1    2    0    0 -0.59738257778E+02  0.19743241657E+02  0.35030097742E+03  0.35590620930E+03  0.00000000000E+00 0.  1.
         11    1    1    2    0    0 -0.40360699252E+01  0.72151410355E+02  0.19636318230E+03  0.20923817826E+03  0.00000000000E+00 0. -1.
</event>
<event>
 7    1  0.2679104E-009  0.2075407E+03  0.7561462E-02  0.1143528E+00
          2   -1    0    0  501    0  0.00000000000E+00  0.00000000000E+00  0.45992788352E+02  0.45992788352E+02  0.00000000000E+00 0. -1.
         -2   -1    0    0    0  501 -0.00000000000E+00 -0.00000000000E+00 -0.10652167814E+04  0.10652167814E+04  0.00000000000E+00 0.  1.
         25    2    1    2    0    0  0.17790547488E+03 -0.57364017093E+02 -0.64358543682E+03  0.68175596492E+03  0.12509193725E+03 0.  0.
          5    1    3    3  502    0  0.14142975015E+03  0.16178936763E+02 -0.42501834637E+03  0.44824345993E+03  0.41800000000E+01 0.  1.
         -5    1    3    3    0  502  0.36475724735E+02 -0.73542953856E+02 -0.21856709045E+03  0.23351250499E+03  0.41800000000E+01 0.  1.
        -11    1    1    2    0    0 -0.13116969650E+03  0.24762546534E+02 -0.33152700836E+03  0.35739170425E+03  0.00000000000E+00 0.  1.
         11    1    1    2    0    0 -0.46735778380E+02  0.32601470559E+02 -0.44111547908E+02  0.72061900628E+02  0.00000000000E+00 0. -1.
</event>
<event>
 7    1  0.2679104E-009  0.3403585E+03  0.7561462E-02  0.1066643E+00
          1   -1    0    0  501    0  0.00000000000E+00  0.00000000000E+00  0.13954356153E+04  0.13954356153E+04  0.00000000000E+00 0. -1.
         -1   -1    0    0    0  501 -0.00000000000E+00 -0.00000000000E+00 -0.98204720133E+02  0.98204720133E+02  0.00000000000E+00 0.  1.
         25    2    1    2    0    0  0.28832121195E+03  0.16750646358E+03  0.41992304953E+03  0.55060976878E+03  0.12509281892E+03 0.  0.
          5    1    3    3  502    0  0.16579915220E+03  0.13744325133E+03  0.18507785560E+03  0.28399170981E+03  0.41800000000E+01 0.  1.
         -5    1    3    3    0  502  0.12252205975E+03  0.30063212248E+02  0.23484519393E+03  0.26661805897E+03  0.41800000000E+01 0.  1.
        -11    1    1    2    0    0 -0.52289719553E+02 -0.50047291840E+01  0.21617136413E+03  0.22246195350E+03  0.00000000000E+00 0. -1.
         11    1    1    2    0    0 -0.23603149239E+03 -0.16250173440E+03  0.66113648147E+03  0.72056861312E+03  0.00000000000E+00 0.  1.
</event>
<event>
 7    1  0.2679104E-009  0.1072365E+03  0.7561462E-02  0.1265775E+00
          2   -1    0    0  501    0  0.00000000000E+00  0.00000000000E+00  0.22405950111E+03  0.22405950111E+03  0.00000000000E+00 0. -1.
         -2   -1    0    0    0  501 -0.00000000000E+00 -0.00000000000E+00 -0.60357542380E+02  0.60357542380E+02  0.00000000000E+00 0.  1.
         25    2    1    2    0    0  0.16580626000E+02  0.38316222331E+02  0.78427080426E+02  0.15342875559E+03  0.12508607454E+03 0.  0.
          5    1    3    3  502    0  0.34406552650E+02  0.79212230515E+02  0.58473302086E+02  0.10437905817E+03  0.41800000000E+01 0.  1.
         -5    1    3    3    0  502 -0.17825926650E+02 -0.40896008184E+02  0.19953778340E+02  0.49049697414E+02  0.41800000000E+01 0.  1.
        -11    1    1    2    0    0 -0.22310190103E+02  0.16712812562E+02  0.67251815381E+02  0.72800201636E+02  0.00000000000E+00 0. -1.
         11    1    1    2    0    0  0.57295641031E+01 -0.55029034893E+02  0.18023062922E+02  0.58188086265E+02  0.00000000000E+00 0.  1.
</event>
<event>
 7    1  0.2679104E-009  0.1300445E+03  0.7561462E-02  0.1227390E+00
          1   -1    0    0  501    0  0.00000000000E+00  0.00000000000E+00  0.83289064272E+03  0.83289064272E+03  0.00000000000E+00 0. -1.
         -1   -1    0    0    0  501 -0.00000000000E+00 -0.00000000000E+00 -0.24335878203E+02  0.24335878203E+02  0.00000000000E+00 0.  1.
         25    2    1    2    0    0  0.54092154664E+02 -0.68080538115E+02  0.31608489728E+03  0.35088004155E+03  0.12508485280E+03 0.  0.
          5    1    3    3  502    0  0.82734555090E+02 -0.83002836133E+02  0.21813997563E+03  0.24766307513E+03  0.41800000000E+01 0.  1.
         -5    1    3    3    0  502 -0.28642400426E+02  0.14922298018E+02  0.97944921648E+02  0.10321696642E+03  0.41800000000E+01 0.  1.
        -11    1    1    2    0    0  0.15528037904E+02  0.21371748048E+02  0.56264968305E+02  0.62158010217E+02  0.00000000000E+00 0.  1.
         11    1    1    2    0    0 -0.69620192568E+02  0.46708790067E+02  0.43620489893E+03  0.44418846916E+03  0.00000000000E+00 0. -1.
</event>
<event>
 7    1  0.2679104E-009  0.1031952E+03  0.7561462E-02  0.1273717E+00
          1   -1    0    0  501    0  0.00000000000E+00  0.00000000000E+00  0.26143475580E+03  0.26143475580E+03  0.00000000000E+00 0. -1.
         -1   -1    0    0    0  501 -0.00000000000E+00 -0.00000000000E+00 -0.58905868043E+02  0.58905868043E+02  0.00000000000E+00 0.  1.
         25    2    1    2    0    0  0.54462377501E+02  0.17457758953E+02  0.85328428622E+02  0.16185345433E+03  0.12507867938E+03 0.  0.
          5    1    3    3  502    0  0.76805665269E+02 -0.33213826464E+01  0.10123940988E+03  0.12718896301E+03  0.41800000000E+01 0. -1.
         -5    1    3    3    0  502 -0.22343287767E+02  0.20779141599E+02 -0.15910981254E+02  0.34664491318E+02  0.41800000000E+01 0. -1.
        -11    1    1    2    0    0 -0.59346718983E+02  0.18616996503E+02  0.42331282367E+02  0.75236713642E+02  0.00000000000E+00 0. -1.
         11    1    1    2    0    0  0.48843414824E+01 -0.36074755456E+02  0.74869176766E+02  0.83250455869E+02  0.00000000000E+00 0.  1.
</event>
<event>
 7    1  0.2679104E-009  0.9810955E+02  0.7561462E-02  0.1284322E+00
         -2   -1    0    0    0  501 -0.00000000000E+00  0.00000000000E+00  0.29464802316E+02  0.29464802316E+02  0.00000000000E+00 0.  1.
          2   -1    0    0  501    0  0.00000000000E+00 -0.00000000000E+00 -0.47024446839E+03  0.47024446839E+03  0.00000000000E+00 0. -1.
         25    2    1    2    0    0  0.64228517380E+02  0.33831252996E+02 -0.31660176873E+03  0.34807433693E+03  0.12509679429E+03 0.  0.
          5    1    3    3  502    0 -0.22215990468E+02  0.99839832715E+01 -0.19692932448E+03  0.19847383050E+03  0.41800000000E+01 0. -1.
         -5    1    3    3    0  502  0.86444507848E+02  0.23847269724E+02 -0.11967244424E+03  0.14960050642E+03  0.41800000000E+01 0. -1.
        -11    1    1    2    0    0 -0.42133283604E+02 -0.97919370032E+00 -0.89813416165E+02  0.99209990076E+02  0.00000000000E+00 0.  1.
         11    1    1    2    0    0 -0.22095233776E+02 -0.32852059295E+02 -0.34364481186E+02  0.52424943708E+02  0.00000000000E+00 0. -1.
</event>
<event>
 7    1  0.2679104E-009  0.1459933E+03  0.7561462E-02  0.1205485E+00
          3   -1    0    0  501    0  0.00000000000E+00  0.00000000000E+00  0.80179233657E+03  0.80179233657E+03  0.00000000000E+00 0. -1.
         -3   -1    0    0    0  501 -0.00000000000E+00 -0.00000000000E+00 -0.27510330120E+02  0.27510330120E+02  0.00000000000E+00 0.  1.
         25    2    1    2    0    0 -0.67657302910E+02 -0.70546166241E+02  0.48746859893E+03  0.51266669177E+03  0.12508888720E+03 0.  0.
          5    1    3    3  502    0  0.18547576905E+02  0.23487932724E+02  0.11645991344E+03  0.12031658003E+03  0.41800000000E+01 0. -1.
         -5    1    3    3    0  502 -0.86204879816E+02 -0.94034098965E+02  0.37100868549E+03  0.39235011174E+03  0.41800000000E+01 0. -1.
        -11    1    1    2    0    0 -0.16191472557E+02  0.42881178958E+02  0.10059846785E+03  0.11054868170E+03  0.00000000000E+00 0.  1.
         11    1    1    2    0    0  0.83848775467E+02  0.27664987283E+02  0.18621493967E+03  0.20608729322E+03  0.00000000000E+00 0. -1.
</event>
<event>
 7    1  0.2679104E-009  0.1088503E+03  0.7561462E-02  0.1262714E+00
         -2   -1    0    0    0  501 -0.00000000000E+00  0.00000000000E+00  0.20663993738E+02  0.20663993738E+02  0.00000000000E+00 0.  1.
          2   -1    0    0  501    0  0.00000000000E+00 -0.00000000000E+00 -0.64396135201E+03  0.64396135201E+03  0.00000000000E+00 0. -1.
         25    2    1    2    0    0 -0.18710014095E+02 -0.34197863614E+02 -0.30023176100E+03  0.32757496097E+03  0.12508671486E+03 0.  0.
          5    1    3    3  502    0  0.21688452181E+02 -0.67261179276E+02 -0.22526139762E+03  0.23612417253E+03  0.41800000000E+01 0. -1.
         -5    1    3    3    0  502 -0.40398466276E+02  0.33063315662E+02 -0.74970363384E+02  0.91450788438E+02  0.41800000000E+01 0. -1.
        -11    1    1    2    0    0 -0.20450124565E+02 -0.19378103409E+02 -0.12599382753E+03  0.12910524025E+03  0.00000000000E+00 0.  1.
         11    1    1    2    0    0  0.39160138660E+02  0.53575967023E+02 -0.19707176974E+03  0.20794514453E+03  0.00000000000E+00 0. -1.
</event>
<event>
 7    1  0.2679104E-009  0.1596908E+03  0.7561462E-02  0.1189046E+00
          2   -1    0    0  501    0  0.00000000000E+00  0.00000000000E+00  0.18147076864E+04  0.18147076864E+04  0.00000000000E+00 0. -1.
         -2   -1    0    0    0  501 -0.00000000000E+00 -0.00000000000E+00 -0.24084671076E+02  0.24084671076E+02  0.00000000000E+00 0.  1.
         25    2    1    2    0    0  0.47558397571E+02 -0.12674103106E+03  0.14454336279E+04  0.14571378643E+04  0.12508913957E+03 0.  0.
          5    1    3    3  502    0 -0.40411979414E+02 -0.42522343350E+02  0.61594221467E+03  0.61874353489E+03  0.41800000000E+01 0. -1.
         -5    1    3    3    0  502  0.87970376986E+02 -0.84218687707E+02  0.82949141321E+03  0.83839432941E+03  0.41800000000E+01 0. -1.
        -11    1    1    2    0    0 -0.14244125946E+02  0.80334347504E+02  0.29344964143E+03  0.30458035815E+03  0.00000000000E+00 0. -1.
         11    1    1    2    0    0 -0.33314271625E+02  0.46406683553E+02  0.51739746002E+02  0.77074135017E+02  0.00000000000E+00 0.  1.
</event>
<event>
 7    1  0.2679104E-009  0.1700250E+03  0.7561462E-02  0.1177822E+00
         -2   -1    0    0    0  501 -0.00000000000E+00  0.00000000000E+00  0.53620815019E+02  0.53620815019E+02  0.00000000000E+00 0.  1.
          2   -1    0    0  501    0  0.00000000000E+00 -0.00000000000E+00 -0.11809002128E+04  0.11809002128E+04  0.00000000000E+00 0. -1.
         25    2    1    2    0    0 -0.13078958522E+03 -0.29451218962E+02 -0.10290433021E+04  0.10452515996E+04  0.12508996367E+03 0.  0.
          5    1    3    3  502    0 -0.14558831335E+03  0.45742308859E+01 -0.84227506869E+03  0.85478748488E+03  0.41800000000E+01 0.  1.
         -5    1    3    3    0  502  0.14798728136E+02 -0.34025449848E+02 -0.18676823339E+03  0.19046411472E+03  0.41800000000E+01 0.  1.
        -11    1    1    2    0    0  0.35706582570E+02 -0.28459306027E+02 -0.50657161017E+02  0.68198534446E+02  0.00000000000E+00 0.  1.
         11    1    1    2    0    0  0.95083002647E+02  0.57910524989E+02 -0.47578934707E+02  0.12107089380E+03  0.00000000000E+00 0. -1.
</event>
<event>
 7    1  0.2679104E-009  0.1123594E+03  0.7561462E-02  0.1256262E+00
         -1   -1    0    0    0  501 -0.00000000000E+00  0.00000000000E+00  0.18573391948E+02  0.18573391948E+02  0.00000000000E+00 0.  1.
          1   -1    0    0  501    0  0.00000000000E+00 -0.00000000000E+00 -0.11758211660E+04  0.11758211660E+04  0.00000000000E+00 0. -1.
         25    2    1    2    0    0  0.52609310353E+02 -0.20494744408E+02 -0.96668065213E+03  0.97637443497E+03  0.12509108670E+03 0.  0.
          5    1    3    3  502    0  0.91242081148E+02 -0.26262544790E+02 -0.58398529773E+03  0.59166809868E+03  0.41800000000E+01 0. -1.
         -5    1    3    3    0  502 -0.38632770796E+02  0.57678003816E+01 -0.38269535440E+03  0.38470633629E+03  0.41800000000E+01 0. -1.
        -11    1    1    2    0    0 -0.26661773228E+01 -0.23613798570E+02 -0.10425573206E+02  0.25950193855E+02  0.00000000000E+00 0.  1.
         11    1    1    2    0    0 -0.49943133030E+02  0.44108542978E+02 -0.18014154871E+03  0.19206992912E+03  0.00000000000E+00 0. -1.
</event>
<event>
 7    1  0.2679104E-009  0.2323302E+03  0.7561462E-02  0.1125010E+00
         -2   -1    0    0    0  501 -0.00000000000E+00  0.00000000000E+00  0.52205291236E+02  0.52205291236E+02  0.00000000000E+00 0.  1.
          2   -1    0    0  501    0  0.00000000000E+00 -0.00000000000E+00 -0.12552763135E+04  0.12552763135E+04  0.00000000000E+00 0. -1.
         25    2    1    2    0    0 -0.12469692872E+03 -0.17547022759E+03 -0.83540478010E+03  0.87171669391E+03  0.12509885301E+03 0.  0.
          5    1    3    3  502    0 -0.13220322910E+03 -0.18534717532E+03 -0.82209945596E+03  0.85305114564E+03  0.41800000000E+01 0.  1.
         -5    1    3    3    0  502  0.75063003834E+01  0.98769477270E+01 -0.13305324138E+02  0.18665548271E+02  0.41800000000E+01 0.  1.
        -11    1    1    2    0    0  0.84827824849E+02  0.16000964877E+03 -0.23696983459E+03  0.29825081739E+03  0.00000000000E+00 0.  1.
         11    1    1    2    0    0  0.39869103869E+02  0.15460578826E+02 -0.13069640757E+03  0.13751409343E+03  0.00000000000E+00 0. -1.
</event>
<event>
 7    1  0.2679104E-009  0.1226492E+03  0.7561462E-02  0.1238790E+00
          3   -1    0    0  501    0  0.00000000000E+00  0.00000000000E+00  0.22894866066E+02  0.22894866066E+02  0.00000000000E+00 0. -1.
         -3   -1    0    0    0  501 -0.00000000000E+00 -0.00000000000E+00 -0.10437341807E+04  0.10437341807E+04  0.00000000000E+00 0.  1.
         25    2    1    2    0    0 -0.77490678675E+01 -0.67970725090E+02 -0.83880929092E+03  0.85084078669E+03  0.12509576426E+03 0.  0.
          5    1    3    3  502    0  0.56723848152E+02 -0.47522449390E+02 -0.47990918064E+03  0.48559887995E+03  0.41800000000E+01 0.  1.
         -5    1    3    3    0  502 -0.64472916020E+02 -0.20448275700E+02 -0.35890011028E+03  0.36524190674E+03  0.41800000000E+01 0.  1.
        -11    1    1    2    0    0  0.36951473917E+02  0.96507078834E+01 -0.24720164529E+02  0.45493231602E+02  0.00000000000E+00 0. -1.
         11    1    1    2    0    0 -0.29202406049E+02  0.58320017207E+02 -0.15730985916E+03  0.17029502845E+03  0.00000000000E+00 0.  1.
</event>
<event>
 7    1  0.2679104E-009  0.9963948E+02  0.7561462E-02  0.1281056E+00
         -1   -1    0    0    0  501 -0.00000000000E+00  0.00000000000E+00  0.16441605866E+03  0.16441605866E+03  0.00000000000E+00 0.  1.
          1   -1    0    0  501    0  0.00000000000E+00 -0.00000000000E+00 -0.92259616217E+02  0.92259616217E+02  0.00000000000E+00 0. -1.
         25    2    1    2    0    0  0.10168955764E+02 -0.31715493948E+02  0.92074588858E+02  0.15885380119E+03  0.12509004766E+03 0.  0.
          5    1    3    3  502    0  0.56385971461E+02 -0.26758703117E+02  0.93111884660E+02  0.11217264121E+03  0.41800000000E+01 0.  1.
         -5    1    3    3    0  502 -0.46217015697E+02 -0.49567908308E+01 -0.10372958029E+01  0.46681159988E+02  0.41800000000E+01 0.  1.
        -11    1    1    2    0    0  0.26483825251E+02  0.44037559416E+02 -0.27700058745E+02  0.58378017213E+02  0.00000000000E+00 0. -1.
         11    1    1    2    0    0 -0.36652781015E+02 -0.12322065468E+02  0.77819123288E+01  0.39443856468E+02  0.00000000000E+00 0.  1.
</event>
<event>
 7    1  0.2679104E-009  0.1014517E+03  0.7561462E-02  0.1277273E+00
          2   -1    0    0  501    0  0.00000000000E+00  0.00000000000E+00  0.57336180886E+03  0.57336180886E+03  0.00000000000E+00 0.  1.
         -2   -1    0    0    0  501 -0.00000000000E+00 -0.00000000000E+00 -0.25641214319E+02  0.25641214319E+02  0.00000000000E+00 0. -1.
         25    2    1    2    0    0  0.50181362575E+02  0.20868263676E+02  0.26189771236E+03  0.29528263800E+03  0.12509105079E+03 0.  0.
          5    1    3    3  502    0  0.65156182382E+02  0.58913264401E+02  0.21839646826E+03  0.23543702040E+03  0.41800000000E+01 0. -1.
         -5    1    3    3    0  502 -0.14974819807E+02 -0.38045000725E+02  0.43501244096E+02  0.59845617603E+02  0.41800000000E+01 0. -1.
        -11    1    1    2    0    0 -0.56375294353E+02 -0.47252111262E+01  0.27972129841E+03  0.28538483880E+03  0.00000000000E+00 0.  1.
         11    1    1    2    0    0  0.61939317780E+01 -0.16143052550E+02  0.61015837792E+01  0.18335546382E+02  0.00000000000E+00 0. -1.
</event>
<event>
 7    1  0.2679104E-009  0.1353631E+03  0.7561462E-02  0.1219708E+00
         -1   -1    0    0    0  501 -0.00000000000E+00  0.00000000000E+00  0.36454707051E+02  0.36454707051E+02  0.00000000000E+00 0.  1.
          1   -1    0    0  501    0  0.00000000000E+00 -0.00000000000E+00 -0.70114429759E+03  0.70114429759E+03  0.00000000000E+00 0. -1.
         25    2    1    2    0    0 -0.68889931390E+02 -0.84334191653E+02 -0.25704277346E+03  0.30590306909E+03  0.12509045433E+03 0.  0.
          5    1    3    3  502    0 -0.88190521853E+02 -0.82280228591E+02 -0.13025821838E+03  0.17757330886E+03  0.41800000000E+01 0. -1.
         -5    1    3    3    0  502  0.19300590463E+02 -0.20539630621E+01 -0.12678455508E+03  0.12832976024E+03  0.41800000000E+01 0. -1.
        -11    1    1    2    0    0  0.82432464591E+02  0.58708553428E+02 -0.37319655661E+03  0.38667489617E+03  0.00000000000E+00 0. -1.
         11    1    1    2    0    0 -0.13542533201E+02  0.25625638225E+02 -0.34450260464E+02  0.45021039370E+02  0.00000000000E+00 0.  1.
</event>
<event>
 7    1  0.2679104E-009  0.1575954E+03  0.7561462E-02  0.1191439E+00
          3   -1    0    0  501    0  0.00000000000E+00  0.00000000000E+00  0.50277108549E+03  0.50277108549E+03  0.00000000000E+00 0.  1.
         -3   -1    0    0    0  501 -0.00000000000E+00 -0.00000000000E+00 -0.67965645334E+02  0.67965645334E+02  0.00000000000E+00 0. -1.
         25    2    1    2    0    0 -0.13837632735E+03  0.13939136954E+02  0.14132019954E+03  0.23444064149E+03  0.12509479635E+03 0.  0.
          5    1    3    3  502    0  0.68830618397E+01  0.31528253101E+01 -0.17119448969E+02  0.19179801373E+02  0.41800000000E+01 0.  1.
         -5    1    3    3    0  502 -0.14525938919E+03  0.10786311643E+02  0.15843964851E+03  0.21526084012E+03  0.41800000000E+01 0.  1.
        -11    1    1    2    0    0  0.81772785284E+02 -0.47943599915E+02  0.20531284715E+03  0.22613876800E+03  0.00000000000E+00 0.  1.
         11    1    1    2    0    0  0.56603542067E+02  0.34004462961E+02  0.88172393467E+02  0.11015732134E+03  0.00000000000E+00 0. -1.
</event>
<event>
 7    1  0.2679104E-009  0.8601759E+02  0.7561462E-02  0.1312793E+00
         -2   -1    0    0    0  501 -0.00000000000E+00  0.00000000000E+00  0.99038122203E+02  0.99038122203E+02  0.00000000000E+00 0.  1.
          2   -1    0    0  501    0  0.00000000000E+00 -0.00000000000E+00 -0.15866113434E+03  0.15866113434E+03  0.00000000000E+00 0. -1.
         25    2    1    2    0    0  0.42934462068E+02  0.14834601259E+02 -0.78415517503E+02  0.15446068921E+03  0.12508268345E+03 0.  0.
          5    1    3    3  502    0 -0.11679512079E+01 -0.37524056617E+02 -0.77107543530E+02  0.85863057273E+02  0.41800000000E+01 0. -1.
         -5    1    3    3    0  502  0.44102413276E+02  0.52358657876E+02 -0.13079739732E+01  0.68597631937E+02  0.41800000000E+01 0. -1.
        -11    1    1    2    0    0 -0.24752005213E+02 -0.32145354981E+02 -0.28578862937E+02  0.49625971182E+02  0.00000000000E+00 0. -1.
         11    1    1    2    0    0 -0.18182456855E+02  0.17310753722E+02  0.47371368301E+02  0.53612596154E+02  0.00000000000E+00 0.  1.
</event>
<event>
 7    1  0.2679104E-009  0.1228308E+03  0.7561462E-02  0.1238499E+00
         -2   -1    0    0    0  501 -0.00000000000E+00  0.00000000000E+00  0.49462227490E+02  0.49462227490E+02  0.00000000000E+00 0.  1.
          2   -1    0    0  501    0  0.00000000000E+00 -0.00000000000E+00 -0.46805308145E+03  0.46805308145E+03  0.00000000000E+00 0. -1.
         25    2    1    2    0    0  0.76872257217E+02  0.63268155671E+02 -0.26510100501E+03  0.30957746839E+03  0.12508981825E+03 0.  0.
          5    1    3    3  502    0  0.45729219147E+02  0.32770228296E+01 -0.12002885545E+02  0.47575645280E+02  0.41800000000E+01 0.  1.
         -5    1    3    3    0  502  0.31143038070E+02  0.59991132841E+02 -0.25309811946E+03  0.26200182311E+03  0.41800000000E+01 0.  1.
        -11    1    1    2    0    0  0.49458494023E+01  0.16747106759E+02 -0.12848574820E+01  0.17509365204E+02  0.00000000000E+00 0.  1.
         11    1    1    2    0    0 -0.81818106619E+02 -0.80015262430E+02 -0.15220499147E+03  0.19042847534E+03  0.00000000000E+00 0. -1.
</event>
<event>
 7    1  0.2679104E-009  0.1117070E+03  0.7561462E-02  0.1257441E+00
          2   -1    0    0  501    0  0.00000000000E+00  0.00000000000E+00  0.17329804390E+03  0.17329804390E+03  0.00000000000E+00 0. -1.
         -2   -1    0    0    0  501 -0.00000000000E+00 -0.00000000000E+00 -0.86360575498E+02  0.86360575498E+02  0.00000000000E+00 0.  1.
         25    2    1    2    0    0  0.21957259689E+02  0.49994588982E+02  0.55804013606E+02  0.14745595140E+03  0.12509032532E+03 0.  0.
          5    1    3    3  502    0 -0.91963701122E+01 -0.32388954599E+02  0.48212141144E+02  0.58953376128E+02  0.41800000000E+01 0. -1.
         -5    1    3    3    0  502  0.31153629801E+02  0.82383543581E+02  0.75918724621E+01  0.88502575275E+02  0.41800000000E+01 0. -1.
        -11    1    1    2    0    0 -0.23087733943E+02  0.20458421385E+02  0.28016773287E+02  0.41671693625E+02  0.00000000000E+00 0.  1.
         11    1    1    2    0    0  0.11304742537E+01 -0.70453010367E+02  0.31166815090E+01  0.70530974369E+02  0.00000000000E+00 0. -1.
</event>
<event>
 7    1  0.2679104E-009  0.9579370E+02  0.7561462E-02  0.1289398E+00
          1   -1    0    0  501    0  0.00000000000E+00  0.00000000000E+00  0.92791074189E+03  0.92791074189E+03  0.00000000000E+00 0. -1.
         -1   -1    0    0    0  501 -0.00000000000E+00 -0.00000000000E+00 -0.14627900272E+02  0.14627900272E+02  0.00000000000E+00 0.  1.
         25    2    1    2    0    0  0.11598081056E+02 -0.14426462269E+02  0.67411154952E+03  0.68586849874E+03  0.12508628252E+03 0.  0.
          5    1    3    3  502    0  0.16844971888E+02 -0.69147720574E+02  0.38688574944E+03  0.39339956260E+03  0.41800000000E+01 0. -1.
         -5    1    3    3    0  502 -0.52468908322E+01  0.54721258305E+02  0.28722580008E+03  0.29246893613E+03  0.41800000000E+01 0. -1.
        -11    1    1    2    0    0  0.25875066202E+02  0.84322154347E+01  0.18851531698E+02  0.33105914207E+02  0.00000000000E+00 0.  1.
         11    1    1    2    0    0 -0.37473147258E+02  0.59942468345E+01  0.22031976041E+03  0.22356422922E+03  0.00000000000E+00 0. -1.
</event>
<event>
 7    1  0.3271199E-009  0.1024576E+03  0.7561462E-02  0.1275211E+00
          1   -1    0    0  501    0  0.00000000000E+00  0.00000000000E+00  0.19786933585E+04  0.19786933585E+04  0.00000000000E+00 0. -1.
         -1   -1    0    0    0  501 -0.00000000000E+00 -0.00000000000E+00 -0.88837250415E+01  0.88837250415E+01  0.00000000000E+00 0.  1.
         25    2    1    2    0    0 -0.76321433188E+01  0.13553351341E+01  0.16446278705E+04  0.16493961497E+04  0.12508692756E+03 0.  0.
          5    1    3    3  502    0  0.39369886590E+02  0.42253230630E+02  0.10237000440E+04  0.10253363234E+04  0.41800000000E+01 0.  1.
         -5    1    3    3    0  502 -0.47002029909E+02 -0.40897895496E+02  0.62092782651E+03  0.62405982630E+03  0.41800000000E+01 0.  1.
        -11    1    1    2    0    0 -0.37323340179E+02 -0.10326695088E+02  0.22088823204E+03  0.22425718139E+03  0.00000000000E+00 0. -1.
         11    1    1    2    0    0  0.44955483498E+02  0.89713599542E+01  0.10429353092E+03  0.11392375252E+03  0.00000000000E+00 0.  1.
</event>
<event>
 7    1  0.2679104E-009  0.1007688E+03  0.7561462E-02  0.1278688E+00
          2   -1    0    0  501    0  0.00000000000E+00  0.00000000000E+00  0.80314162384E+03  0.80314162384E+03  0.00000000000E+00 0. -1.
         -2   -1    0    0    0  501 -0.00000000000E+00 -0.00000000000E+00 -0.18695154759E+02  0.18695154759E+02  0.00000000000E+00 0.  1.
         25    2    1    2    0    0  0.37184033869E+02 -0.43060564199E+02  0.44697499546E+03  0.46762204693E+03  0.12508743998E+03 0.  0.
          5    1    3    3  502    0  0.55717689417E+02 -0.48703604783E+02  0.44061668885E+03  0.44680761064E+03  0.41800000000E+01 0.  1.
         -5    1    3    3    0  502 -0.18533655548E+02  0.56430405842E+01  0.63583066106E+01  0.20814436287E+02  0.41800000000E+01 0.  1.
        -11    1    1    2    0    0 -0.10575314188E+02 -0.28953301803E+02  0.93717389503E+02  0.98656373594E+02  0.00000000000E+00 0.  1.
         11    1    1    2    0    0 -0.26608719681E+02  0.72013866002E+02  0.24375408412E+03  0.25555835808E+03  0.00000000000E+00 0. -1.
</event>
<event>
 7    1  0.3471298E-009  0.2072103E+03  0.7561462E-02  0.1143794E+00
         -1   -1    0    0    0  501 -0.00000000000E+00  0.00000000000E+00  0.40020648505E+02  0.40020648505E+02  0.00000000000E+00 0.  1.
          1   -1    0    0  501    0  0.00000000000E+00 -0.00000000000E+00 -0.11362120060E+04  0.11362120060E+04  0.00000000000E+00 0. -1.
         25    2    1    2    0    0  0.11110894147E+03  0.13935261253E+03 -0.68603114712E+03  0.71975730120E+03  0.12508992897E+03 0.  0.
          5    1    3    3  502    0 -0.14784447427E+02  0.67168293898E+02 -0.16333425965E+03  0.17727298826E+03  0.41800000000E+01 0. -1.
         -5    1    3    3    0  502  0.12589338889E+03  0.72184318634E+02 -0.52269688747E+03  0.54248431295E+03  0.41800000000E+01 0. -1.
        -11    1    1    2    0    0 -0.74752211701E+02 -0.22658151660E+02 -0.15793628511E+03  0.17619635395E+03  0.00000000000E+00 0.  1.
         11    1    1    2    0    0 -0.36356729766E+02 -0.11669446087E+03 -0.25222392523E+03  0.28027899932E+03  0.00000000000E+00 0. -1.
</event>
<event>
 7    1  0.2679104E-009  0.1186516E+03  0.7561462E-02  0.1245338E+00
          1   -1    0    0  501    0  0.00000000000E+00  0.00000000000E+00  0.12138962561E+03  0.12138962561E+03  0.00000000000E+00 0. -1.
         -1   -1    0    0    0  501 -0.00000000000E+00 -0.00000000000E+00 -0.12181304938E+03  0.12181304938E+03  0.00000000000E+00 0.  1.
         25    2    1    2    0    0  0.54288335097E+02 -0.98970747806E+01 -0.40396401477E+01  0.13678070697E+03  0.12508983848E+03 0.  0.
          5    1    3    3  502    0 -0.36788570711E+02 -0.21257129854E+02  0.99667488893E+01  0.43841452850E+02  0.41800000000E+01 0. -1.
         -5    1    3    3    0  502  0.91076905808E+02  0.11360055073E+02 -0.14006389037E+02  0.92939254122E+02  0.41800000000E+01 0. -1.
        -11    1    1    2    0    0 -0.38897439361E+02  0.47915425658E+02  0.15664988519E+02  0.63673312071E+02  0.00000000000E+00 0. -1.
         11    1    1    2    0    0 -0.15390895736E+02 -0.38018350877E+02 -0.12048772145E+02  0.42748655946E+02  0.00000000000E+00 0.  1.
</event>
<event>
 7    1  0.2679104E-009  0.1180214E+03  0.7561462E-02  0.1246397E+00
         -3   -1    0    0    0  501 -0.00000000000E+00  0.00000000000E+00  0.10271953784E+04  0.10271953784E+04  0.00000000000E+00 0.  1.
          3   -1    0    0  501    0  0.00000000000E+00 -0.00000000000E+00 -0.35119131453E+02  0.35119131453E+02  0.00000000000E+00 0. -1.
         25    2    1    2    0    0 -0.39281851808E+02  0.70415349529E+02  0.89366320181E+03  0.90597039759E+03  0.12508819973E+03 0.  0.
          5    1    3    3  502    0 -0.61330844098E+02  0.29972138765E+02  0.78366520460E+03  0.78664377379E+03  0.41800000000E+01 0.  1.
         -5    1    3    3    0  502  0.22048992290E+02  0.40443210764E+02  0.10999799721E+03  0.11932662380E+03  0.41800000000E+01 0.  1.
        -11    1    1    2    0    0  0.53366312904E+02 -0.40094491771E+01  0.46280130765E+02  0.70752311194E+02  0.00000000000E+00 0.  1.
         11    1    1    2    0    0 -0.14084461096E+02 -0.66405900351E+02  0.52132914323E+02  0.85591801019E+02  0.00000000000E+00 0. -1.
</event>
<event>
 7    1  0.2679104E-009  0.1199855E+03  0.7561462E-02  0.1243121E+00
          1   -1    0    0  501    0  0.00000000000E+00  0.00000000000E+00  0.39481713230E+03  0.39481713230E+03  0.00000000000E+00 0. -1.
         -1   -1    0    0    0  501 -0.00000000000E+00 -0.00000000000E+00 -0.81786496789E+02  0.81786496789E+02  0.00000000000E+00 0.  1.
         25    2    1    2    0    0  0.48686269898E+02 -0.49170005452E+02  0.33233604139E+03  0.36177828137E+03  0.12509291808E+03 0.  0.
          5    1    3    3  502    0  0.43043018573E+01 -0.77628166906E+02  0.12069693957E+03  0.14363106535E+03  0.41800000000E+01 0.  1.
         -5    1    3    3    0  502  0.44381968040E+02  0.28458161453E+02  0.21163910182E+03  0.21814721602E+03  0.41800000000E+01 0.  1.
        -11    1    1    2    0    0  0.22279113744E+01 -0.21781160896E+02 -0.16562306718E+02  0.27453461765E+02  0.00000000000E+00 0.  1.
         11    1    1    2    0    0 -0.50914181272E+02  0.70951166349E+02 -0.27430991635E+01  0.87371885947E+02  0.00000000000E+00 0. -1.
</event>
<event>
 7    1  0.2679104E-009  0.1133482E+03  0.7561462E-02  0.1254492E+00
         -2   -1    0    0    0  501 -0.00000000000E+00  0.00000000000E+00  0.29577472896E+02  0.29577472896E+02  0.00000000000E+00 0.  1.
          2   -1    0    0  501    0  0.00000000000E+00 -0.00000000000E+00 -0.70414929429E+03  0.70414929429E+03  0.00000000000E+00 0. -1.
         25    2    1    2    0    0 -0.87212602714E+02  0.16282181303E+02 -0.43463238799E+03  0.46089232518E+03  0.12508107456E+03 0.  0.
          5    1    3    3  502    0  0.42699530322E+00 -0.18425430051E+02 -0.27360842554E+03  0.27426031744E+03  0.41800000000E+01 0. -1.
         -5    1    3    3    0  502 -0.87639598017E+02  0.34707611355E+02 -0.16102396245E+03  0.18663200773E+03  0.41800000000E+01 0. -1.
        -11    1    1    2    0    0 -0.11771583451E+02  0.39421571284E+01  0.84922386265E-01  0.12414426752E+02  0.00000000000E+00 0.  1.
         11    1    1    2    0    0  0.98984186165E+02 -0.20224338432E+02 -0.24002435578E+03  0.26042001526E+03  0.00000000000E+00 0. -1.
</event>
<event>
 7    1  0.2679104E-009  0.1133212E+03  0.7561462E-02  0.1254540E+00
         -2   -1    0    0    0  501 -0.00000000000E+00  0.00000000000E+00  0.50110122958E+03  0.50110122958E+03  0.00000000000E+00 0.  1.
          2   -1    0    0  501    0  0.00000000000E+00 -0.00000000000E+00 -0.35980905892E+02  0.35980905892E+02  0.00000000000E+00 0. -1.
         25    2    1    2    0    0  0.38125521741E+02  0.70186730181E+02  0.25043858441E+03  0.29111205902E+03  0.12508802437E+03 0.  0.
          5    1    3    3  502    0  0.83895707605E+01  0.10182904187E+03  0.19844162317E+03  0.22323998045E+03  0.41800000000E+01 0. -1.
         -5    1    3    3    0  502  0.29735950981E+02 -0.31642311693E+02  0.51996961249E+02  0.67872078568E+02  0.41800000000E+01 0. -1.
        -11    1    1    2    0    0 -0.14661220920E+02 -0.39482262176E+02  0.20039030275E+03  0.20476834195E+03  0.00000000000E+00 0.  1.
         11    1    1    2    0    0 -0.23464300821E+02 -0.30704468005E+02  0.14291436515E+02  0.41201734504E+02  0.00000000000E+00 0. -1.
</event>
<event>
 7    1  0.2679104E-009  0.1111751E+03  0.7561462E-02  0.1258409E+00
         -2   -1    0    0    0  501 -0.00000000000E+00  0.00000000000E+00  0.95287188885E+02  0.95287188885E+02  0.00000000000E+00 0.  1.
          2   -1    0    0  501    0  0.00000000000E+00 -0.00000000000E+00 -0.20315777198E+03  0.20315777198E+03  0.00000000000E+00 0. -1.
         25    2    1    2    0    0 -0.82542836145E+02  0.10318164300E+02 -0.84542506453E+02  0.17237818555E+03  0.12508804556E+03 0.  0.
          5    1    3    3  502    0 -0.10097257319E+03 -0.17339583227E+02 -0.27387611341E+02  0.10613046376E+03  0.41800000000E+01 0. -1.
         -5    1    3    3    0  502  0.18429737049E+02  0.27657747526E+02 -0.57154895112E+02  0.66247721781E+02  0.41800000000E+01 0. -1.
        -11    1    1    2    0    0  0.66176309145E+02  0.13945779321E+01  0.27288738194E+02  0.71595558325E+02  0.00000000000E+00 0.  1.
         11    1    1    2    0    0  0.16366527000E+02 -0.11712742232E+02 -0.50616814835E+02  0.54471216993E+02  0.00000000000E+00 0. -1.
</event>
<event>
 7    1  0.2679104E-009  0.1702638E+03  0.7561462E-02  0.1177573E+00
          1   -1    0    0  501    0  0.00000000000E+00  0.00000000000E+00  0.54992244110E+03  0.54992244110E+03  0.00000000000E+00 0. -1.
         -1   -1    0    0    0  501 -0.00000000000E+00 -0.00000000000E+00 -0.73131702257E+02  0.73131702257E+02  0.00000000000E+00 0.  1.
         25    2    1    2    0    0  0.12590540702E+03  0.98161113405E+02  0.16444995962E+03  0.26111203647E+03  0.12509168904E+03 0.  0.
          5    1    3    3  502    0  0.12056489912E+02  0.18940906934E+02  0.10951578184E+03  0.11187178275E+03  0.41800000000E+01 0. -1.
         -5    1    3    3    0  502  0.11384891711E+03  0.79220206471E+02  0.54934177780E+02  0.14924025372E+03  0.41800000000E+01 0. -1.
        -11    1    1    2    0    0 -0.53400678559E+02  0.41143054660E+01  0.13059440672E+03  0.14115048369E+03  0.00000000000E+00 0. -1.
         11    1    1    2    0    0 -0.72504728466E+02 -0.10227541887E+03  0.18174637250E+03  0.22079162319E+03  0.00000000000E+00 0.  1.
</event>
<event>
 7    1  0.2679104E-009  0.1457670E+03  0.7561462E-02  0.1205773E+00
          1   -1    0    0  501    0  0.00000000000E+00  0.00000000000E+00  0.11739273421E+04  0.11739273421E+04  0.00000000000E+00 0. -1.
         -1   -1    0    0    0  501 -0.00000000000E+00 -0.00000000000E+00 -0.29210394354E+02  0.29210394354E+02  0.00000000000E+00 0.  1.
         25    2    1    2    0    0  0.91853196154E+02  0.10638484305E+03  0.56846784733E+03  0.59879649543E+03  0.12508718967E+03 0.  0.
          5    1    3    3  502    0  0.22529106880E+02  0.41364248733E+02  0.41873204683E+03  0.42139359413E+03  0.41800000000E+01 0. -1.
         -5    1    3    3    0  502  0.69324089274E+02  0.65020594319E+02  0.14973580050E+03  0.17740290130E+03  0.41800000000E+01 0. -1.
        -11    1    1    2    0    0 -0.81941172042E+02 -0.59693853080E+02  0.52340079822E+03  0.53312860301E+03  0.00000000000E+00 0.  1.
         11    1    1    2    0    0 -0.99120241113E+01 -0.46690989973E+02  0.52848302173E+02  0.71212637988E+02  0.00000000000E+00 0. -1.
</event>
<event>
 7    1  0.2679104E-009  0.8749641E+02  0.7561462E-02  0.1309030E+00
          1   -1    0    0  501    0  0.00000000000E+00  0.00000000000E+00  0.16604447744E+03  0.16604447744E+03  0.00000000000E+00 0. -1.
         -1   -1    0    0    0  501 -0.00000000000E+00 -0.00000000000E+00 -0.82979130957E+02  0.82979130957E+02  0.00000000000E+00 0.  1.
         25    2    1    2    0    0 -0.14739403545E+02  0.40410561619E+02  0.29907928572E+02  0.13562596909E+03  0.12509858429E+03 0.  0.
          5    1    3    3  502    0  0.47163891720E+02  0.27356430473E+02 -0.16426220227E+02  0.57097286113E+02  0.41800000000E+01 0. -1.
         -5    1    3    3    0  502 -0.61903295265E+02  0.13054131145E+02  0.46334148799E+02  0.78528682974E+02  0.41800000000E+01 0. -1.
        -11    1    1    2    0    0 -0.66034296900E+01 -0.33980661330E+02  0.74742203361E+02  0.82369215070E+02  0.00000000000E+00 0. -1.
         11    1    1    2    0    0  0.21342833235E+02 -0.64299002888E+01 -0.21584785447E+02  0.31028424243E+02  0.00000000000E+00 0.  1.
</event>
<event>
 7    1  0.2679104E-009  0.1299994E+03  0.7561462E-02  0.1227457E+00
         -1   -1    0    0    0  501 -0.00000000000E+00  0.00000000000E+00  0.47195026740E+03  0.47195026740E+03  0.00000000000E+00 0.  1.
          1   -1    0    0  501    0  0.00000000000E+00 -0.00000000000E+00 -0.40349748386E+02  0.40349748386E+02  0.00000000000E+00 0. -1.
         25    2    1    2    0    0 -0.66385233106E+02 -0.53884512342E+02  0.24739826976E+03  0.29010988647E+03  0.12508917819E+03 0.  0.
          5    1    3    3  502    0 -0.82288843441E+02  0.94597976540E+01  0.16685790261E+03  0.18633296431E+03  0.41800000000E+01 0.  1.
         -5    1    3    3    0  502  0.15903610336E+02 -0.63344309996E+02  0.80540367154E+02  0.10377692215E+03  0.41800000000E+01 0.  1.
        -11    1    1    2    0    0  0.81921874345E+02  0.42019751395E+02  0.10076496610E+03  0.13649333829E+03  0.00000000000E+00 0. -1.
         11    1    1    2    0    0 -0.15536641240E+02  0.11864760947E+02  0.83437283154E+02  0.85696791033E+02  0.00000000000E+00 0.  1.
</event>
<event>
 7    1  0.2679104E-009  0.1426872E+03  0.7561462E-02  0.1209758E+00
         -1   -1    0    0    0  501 -0.00000000000E+00  0.00000000000E+00  0.93160753964E+03  0.93160753964E+03  0.00000000000E+00 0.  1.
          1   -1    0    0  501    0  0.00000000000E+00 -0.00000000000E+00 -0.23022235643E+02  0.23022235643E+02  0.00000000000E+00 0. -1.
         25    2    1    2    0    0  0.88387737513E+02  0.48353409641E+02  0.50423113377E+03  0.52919499642E+03  0.12509142099E+03 0.  0.
          5    1    3    3  502    0  0.84234130298E+02 -0.19187134879E+02  0.35334716926E+03  0.36377909406E+03  0.41800000000E+01 0. -1.
         -5    1    3    3    0  502  0.41536072146E+01  0.67540544520E+02  0.15088396451E+03  0.16541590236E+03  0.41800000000E+01 0. -1.
        -11    1    1    2    0    0 -0.75780536083E+02  0.53040030786E+01  0.20582990950E+03  0.21940094289E+03  0.00000000000E+00 0. -1.
         11    1    1    2    0    0 -0.12607201430E+02 -0.53657412719E+02  0.19852426073E+03  0.20603383597E+03  0.00000000000E+00 0.  1.
</event>
<event>
 7    1  0.2679104E-009  0.9279492E+02  0.7561462E-02  0.1296221E+00
         -3   -1    0    0    0  501 -0.00000000000E+00  0.00000000000E+00  0.94423305506E+02  0.94423305506E+02  0.00000000000E+00 0.  1.
          3   -1    0    0  501    0  0.00000000000E+00 -0.00000000000E+00 -0.17377133219E+03  0.17377133219E+03  0.00000000000E+00 0. -1.
         25    2    1    2    0    0 -0.18029914339E+02 -0.48361438004E+02 -0.90407896513E+02  0.16274383479E+03  0.12509221204E+03 0.  0.
          5    1    3    3  502    0  0.48173277567E+02 -0.34540537197E+01 -0.10509940362E+02  0.49603693461E+02  0.41800000000E+01 0.  1.
         -5    1    3    3    0  502 -0.66203191905E+02 -0.44907384285E+02 -0.79897956151E+02  0.11314014132E+03  0.41800000000E+01 0.  1.
        -11    1    1    2    0    0  0.17960865930E+02  0.14336326101E+02  0.49222281710E+02  0.54322702140E+02  0.00000000000E+00 0.  1.
         11    1    1    2    0    0  0.69048408664E-01  0.34025111904E+02 -0.38162411880E+02  0.51128100769E+02  0.00000000000E+00 0. -1.
</event>
<event>
 7    1  0.2679104E-009  0.1187483E+03  0.7561462E-02  0.1245176E+00
         -2   -1    0    0    0  501 -0.00000000000E+00  0.00000000000E+00  0.19637166949E+03  0.19637166949E+03  0.00000000000E+00 0.  1.
          2   -1    0    0  501    0  0.00000000000E+00 -0.00000000000E+00 -0.34809101383E+03  0.34809101383E+03  0.00000000000E+00 0. -1.
         25    2    1    2    0    0  0.61295640544E+02  0.60827685807E+02 -0.30637860828E+03  0.34201403627E+03  0.12509431034E+03 0.  0.
          5    1    3    3  502    0  0.80503960551E+01  0.69189061799E+02 -0.26472712305E+03  0.27376971569E+03  0.41800000000E+01 0.  1.
         -5    1    3    3    0  502  0.53245244489E+02 -0.83613759922E+01 -0.41651485233E+02  0.68244320579E+02  0.41800000000E+01 0.  1.
        -11    1    1    2    0    0 -0.44673450699E+02 -0.77917419298E+02  0.68232640749E+02  0.11279421391E+03  0.00000000000E+00 0. -1.
         11    1    1    2    0    0 -0.16622189845E+02  0.17089733491E+02  0.86426623195E+02  0.89654433147E+02  0.00000000000E+00 0.  1.
</event>
<event>
 7    1  0.2679104E-009  0.2117224E+03  0.7561462E-02  0.1140209E+00
          1   -1    0    0  501    0  0.00000000000E+00  0.00000000000E+00  0.14436228597E+03  0.14436228597E+03  0.00000000000E+00 0. -1.
         -1   -1    0    0    0  501 -0.00000000000E+00 -0.00000000000E+00 -0.36062955587E+03  0.36062955587E+03  0.00000000000E+00 0.  1.
         25    2    1    2    0    0  0.10903709959E+03 -0.16413052052E+03 -0.15730424006E+03  0.28146078853E+03  0.12509050599E+03 0.  0.
          5    1    3    3  502    0 -0.11556828369E+02 -0.10050755153E+02 -0.61588837675E+02  0.63602164172E+02  0.41800000000E+01 0. -1.
         -5    1    3    3    0  502  0.12059392795E+03 -0.15407976536E+03 -0.95715402387E+02  0.21785862436E+03  0.41800000000E+01 0. -1.
        -11    1    1    2    0    0 -0.35451269852E+02  0.12204960688E+03 -0.55523192903E+02  0.13869291266E+03  0.00000000000E+00 0.  1.
         11    1    1    2    0    0 -0.73585829734E+02  0.42080913641E+02 -0.34398369346E+01  0.84838140648E+02  0.00000000000E+00 0. -1.
</event>
<event>
 7    1  0.2679104E-009  0.9057317E+02  0.7561462E-02  0.1301470E+00
         -1   -1    0    0    0  501 -0.00000000000E+00  0.00000000000E+00  0.13298468294E+02  0.13298468294E+02  0.00000000000E+00 0.  1.
          1   -1    0    0  501    0  0.00000000000E+00 -0.00000000000E+00 -0.12086953102E+04  0.12086953102E+04  0.00000000000E+00 0. -1.
         25    2    1    2    0    0 -0.63639388536E+01  0.29651638371E+02 -0.94281936272E+03  0.95156495675E+03  0.12509115405E+03 0.  0.
          5    1    3    3  502    0 -0.44573095731E+02  0.50023248170E+01 -0.80737629936E+03  0.80863202094E+03  0.41800000000E+01 0.  1.
         -5    1    3    3    0  502  0.38209156878E+02  0.24649313554E+02 -0.13544306336E+03  0.14293293581E+03  0.41800000000E+01 0.  1.
        -11    1    1    2    0    0  0.87670507040E+01  0.29735769647E+02 -0.13700517729E+03  0.14046884274E+03  0.00000000000E+00 0. -1.
         11    1    1    2    0    0 -0.24031118504E+01 -0.59387408018E+02 -0.11557230186E+03  0.12995997898E+03  0.00000000000E+00 0.  1.
</event>
<event>
 7    1  0.2679104E-009  0.1151534E+03  0.7561462E-02  0.1251314E+00
         -2   -1    0    0    0  501 -0.00000000000E+00  0.00000000000E+00  0.73465631390E+02  0.73465631390E+02  0.00000000000E+00 0.  1.
          2   -1    0    0  501    0  0.00000000000E+00 -0.00000000000E+00 -0.27704205656E+03  0.27704205656E+03  0.00000000000E+00 0. -1.
         25    2    1    2    0    0  0.84659591640E+02 -0.29457562861E+02 -0.12229125510E+03  0.19656551070E+03  0.12509138442E+03 0.  0.
          5    1    3    3  502    0  0.13691444108E+02  0.23739901628E+02  0.16160213851E+02  0.32088369899E+02  0.41800000000E+01 0.  1.
         -5    1    3    3    0  502  0.70968147532E+02 -0.53197464488E+02 -0.13845146895E+03  0.16447714080E+03  0.41800000000E+01 0.  1.
        -11    1    1    2    0    0  0.12501166852E+02  0.95232834753E+00 -0.44466232641E+02  0.46199912849E+02  0.00000000000E+00 0. -1.
         11    1    1    2    0    0 -0.97160758491E+02  0.28505234513E+02 -0.36818937434E+02  0.10774226440E+03  0.00000000000E+00 0.  1.
</event>
<event>
 7    1  0.2890791E-009  0.1228521E+03  0.7561462E-02  0.1238465E+00
         -1   -1    0    0    0  501 -0.00000000000E+00  0.00000000000E+00  0.32648628659E+02  0.32648628659E+02  0.00000000000E+00 0.  1.
          1   -1    0    0  501    0  0.00000000000E+00 -0.00000000000E+00 -0.77578758155E+03  0.77578758155E+03  0.00000000000E+00 0. -1.
         25    2    1    2    0    0 -0.97461510024E+02 -0.27887760707E+02 -0.54329055796E+03  0.56664427707E+03  0.12507850827E+03 0.  0.
          5    1    3    3  502    0 -0.68770681514E+02 -0.65973025276E+02 -0.46653282092E+03  0.47618503976E+03  0.41800000000E+01 0.  1.
         -5    1    3    3    0  502 -0.28690828510E+02  0.38085264569E+02 -0.76757737045E+02  0.90459237307E+02  0.41800000000E+01 0.  1.
        -11    1    1    2    0    0  0.45958982170E+02  0.54881055139E+01 -0.17384551692E+03  0.17990167064E+03  0.00000000000E+00 0. -1.
         11    1    1    2    0    0  0.51502527854E+02  0.22399655193E+02 -0.26002878007E+02  0.61890262504E+02  0.00000000000E+00 0.  1.
</event>
<event>
 7    1  0.2679104E-009  0.1020579E+03  0.7561462E-02  0.1276027E+00
         -2   -1    0    0    0  501 -0.00000000000E+00  0.00000000000E+00  0.35677018746E+03  0.35677018746E+03  0.00000000000E+00 0.  1.
          2   -1    0    0  501    0  0.00000000000E+00 -0.00000000000E+00 -0.49236291755E+02  0.49236291755E+02  0.00000000000E+00 0. -1.
         25    2    1    2    0    0  0.53669524256E+02 -0.21337812396E+02  0.24282580234E+03  0.27919070637E+03  0.12508940870E+03 0.  0.
          5    1    3    3  502    0  0.84748435431E+02 -0.46045710779E+02  0.15328032843E+03  0.18114865793E+03  0.41800000000E+01 0. -1.
         -5    1    3    3    0  502 -0.31078911175E+02  0.24707898383E+02  0.89545473919E+02  0.98042048437E+02  0.41800000000E+01 0. -1.
        -11    1    1    2    0    0 -0.18099887753E+02 -0.96201586603E+01  0.75675297730E+02  0.78402194331E+02  0.00000000000E+00 0.  1.
         11    1    1    2    0    0 -0.35569636502E+02  0.30957971056E+02 -0.10967204370E+02  0.48413578514E+02  0.00000000000E+00 0. -1.
</event>
<event>
 7    1  0.2679104E-009  0.1525504E+03  0.7561462E-02  0.1197374E+00
         -2   -1    0    0    0  501 -0.00000000000E+00  0.00000000000E+00  0.75717815592E+02  0.75717815592E+02  0.00000000000E+00 0. -1.
          2   -1    0    0  501    0  0.00000000000E+00 -0.00000000000E+00 -0.44060663143E+03  0.44060663143E+03  0.00000000000E+00 0.  1.
         25    2    1    2    0    0  0.11157747971E+03  0.54531545574E+02 -0.81573066793E+02  0.19422930878E+03  0.12509051012E+03 0.  0.
          5    1    3    3  502    0  0.55737919327E+02 -0.37971615044E+02 -0.38996972821E+02  0.78017917745E+02  0.41800000000E+01 0.  1.
         -5    1    3    3    0  502  0.55839560381E+02  0.92503160618E+02 -0.42576093972E+02  0.11621139103E+03  0.41800000000E+01 0.  1.
        -11    1    1    2    0    0 -0.44029084813E+02 -0.24414595682E+01 -0.26414785256E+02  0.51402936827E+02  0.00000000000E+00 0. -1.
         11    1    1    2    0    0 -0.67548394895E+02 -0.52090086005E+02 -0.25690096379E+03  0.27069220142E+03  0.00000000000E+00 0.  1.
</event>
<event>
 7    1  0.2679104E-009  0.1335387E+03  0.7561462E-02  0.1222297E+00
          2   -1    0    0  501    0  0.00000000000E+00  0.00000000000E+00  0.61412054332E+03  0.61412054332E+03  0.00000000000E+00 0. -1.
         -2   -1    0    0    0  501 -0.00000000000E+00 -0.00000000000E+00 -0.31372391665E+02  0.31372391665E+02  0.00000000000E+00 0.  1.
         25    2    1    2    0    0  0.98483186943E+01  0.86396916603E+02  0.31072187550E+03  0.34606142706E+03  0.12509600634E+03 0.  0.
          5    1    3    3  502    0 -0.55629310164E+02  0.58935669064E+02  0.16025240855E+03  0.17962833876E+03  0.41800000000E+01 0. -1.
         -5    1    3    3    0  502  0.65477628858E+02  0.27461247539E+02  0.15046946695E+03  0.16643308830E+03  0.41800000000E+01 0. -1.
        -11    1    1    2    0    0 -0.41917182795E+02 -0.60387064382E+02  0.22572686195E+03  0.23739474292E+03  0.00000000000E+00 0. -1.
         11    1    1    2    0    0  0.32068864101E+02 -0.26009852221E+02  0.46299414192E+02  0.62036765001E+02  0.00000000000E+00 0.  1.
</event>
<event>
 7    1  0.2679104E-009  0.2285141E+03  0.7561462E-02  0.1127690E+00
          1   -1    0    0  501    0  0.00000000000E+00  0.00000000000E+00  0.38461816548E+03  0.38461816548E+03  0.00000000000E+00 0. -1.
         -1   -1    0    0    0  501 -0.00000000000E+00 -0.00000000000E+00 -0.15608149306E+03  0.15608149306E+03  0.00000000000E+00 0.  1.
         25    2    1    2    0    0 -0.91878596577E+02 -0.19818922200E+03  0.96813572644E+02  0.26970470254E+03  0.12508842672E+03 0.  0.
          5    1    3    3  502    0 -0.10150945788E+03 -0.19309778500E+03  0.11610318866E+03  0.24716057013E+03  0.41800000000E+01 0.  1.
         -5    1    3    3    0  502  0.96308612995E+01 -0.50914370042E+01 -0.19289616018E+02  0.22544132413E+02  0.41800000000E+01 0.  1.
        -11    1    1    2    0    0  0.80200354478E+02  0.99543981898E+02  0.11149143236E+03  0.16962146291E+03  0.00000000000E+00 0.  1.
         11    1    1    2    0    0  0.11678242098E+02  0.98645240103E+02  0.20231667425E+02  0.10137349308E+03  0.00000000000E+00 0. -1.
</event>
<event>
 7    1  0.2679104E-009  0.1740228E+03  0.7561462E-02  0.1173716E+00
         -2   -1    0    0    0  501 -0.00000000000E+00  0.00000000000E+00  0.14948383587E+03  0.14948383587E+03  0.00000000000E+00 0. -1.
          2   -1    0    0  501    0  0.00000000000E+00 -0.00000000000E+00 -0.25859082105E+03  0.25859082105E+03  0.00000000000E+00 0.  1.
         25    2    1    2    0    0  0.14805008890E+03  0.63098531902E+02 -0.85748501638E+02  0.22113453592E+03  0.12508966341E+03 0.  0.
          5    1    3    3  502    0  0.66282592728E+02  0.16680251138E+02  0.27578436685E+02  0.73821781656E+02  0.41800000000E+01 0.  1.
         -5    1    3    3    0  502  0.81767496173E+02  0.46418280764E+02 -0.11332693832E+03  0.14731275426E+03  0.41800000000E+01 0.  1.
        -11    1    1    2    0    0 -0.46836191018E+02 -0.69753604982E+02 -0.90992996286E+01  0.84510303814E+02  0.00000000000E+00 0. -1.
         11    1    1    2    0    0 -0.10121389788E+03  0.66550730800E+01 -0.14259183923E+02  0.10242981718E+03  0.00000000000E+00 0.  1.
</event>
<event>
 7    1  0.2679104E-009  0.1086401E+03  0.7561462E-02  0.1263109E+00
         -1   -1    0    0    0  501 -0.00000000000E+00  0.00000000000E+00  0.10523027512E+03  0.10523027512E+03  0.00000000000E+00 0.  1.
          1   -1    0    0  501    0  0.00000000000E+00 -0.00000000000E+00 -0.16687290358E+03  0.16687290358E+03  0.00000000000E+00 0. -1.
         25    2    1    2    0    0  0.16833633405E+02 -0.60931987076E+02  0.10132339066E+02  0.14052088619E+03  0.12508947557E+03 0.  0.
          5    1    3    3  502    0 -0.45513520155E+02 -0.29352481854E+01  0.27632097173E+02  0.53489264277E+02  0.41800000000E+01 0.  1.
         -5    1    3    3    0  502  0.62347153559E+02 -0.57996738890E+02 -0.17499758107E+02  0.87031621912E+02  0.41800000000E+01 0.  1.
        -11    1    1    2    0    0 -0.35056236651E+02  0.57998241482E+02 -0.85121991573E+02  0.10880482155E+03  0.00000000000E+00 0. -1.
         11    1    1    2    0    0  0.18222603247E+02  0.29337455935E+01  0.13347024044E+02  0.22777470956E+02  0.00000000000E+00 0.  1.
</event>
<event>
 7    1  0.2679104E-009  0.2037016E+03  0.7561462E-02  0.1146653E+00
          2   -1    0    0  501    0  0.00000000000E+00  0.00000000000E+00  0.85935672607E+03  0.85935672607E+03  0.00000000000E+00 0. -1.
         -2   -1    0    0    0  501 -0.00000000000E+00 -0.00000000000E+00 -0.19444898763E+03  0.19444898763E+03  0.00000000000E+00 0.  1.
         25    2    1    2    0    0  0.11041145662E+03  0.15206736461E+03 -0.11015783663E+03  0.25119256366E+03  0.12509109455E+03 0.  0.
          5    1    3    3  502    0  0.69316281694E+02  0.23805230864E+02  0.54985226431E+01  0.73614822391E+02  0.41800000000E+01 0.  1.
         -5    1    3    3    0  502  0.41095174929E+02  0.12826213374E+03 -0.11565635927E+03  0.17757774127E+03  0.41800000000E+01 0.  1.
        -11    1    1    2    0    0 -0.21447418875E+02  0.17856663004E+01  0.31820637923E+02  0.38415275325E+02  0.00000000000E+00 0.  1.
         11    1    1    2    0    0 -0.88964037748E+02 -0.15385303091E+03  0.74324493714E+03  0.76419787471E+03  0.00000000000E+00 0. -1.
</event>
<event>
 7    1  0.2679104E-009  0.1174337E+03  0.7561462E-02  0.1247392E+00
          2   -1    0    0  501    0  0.00000000000E+00  0.00000000000E+00  0.12595246090E+04  0.12595246090E+04  0.00000000000E+00 0.  1.
         -2   -1    0    0    0  501 -0.00000000000E+00 -0.00000000000E+00 -0.31621550777E+02  0.31621550777E+02  0.00000000000E+00 0. -1.
         25    2    1    2    0    0  0.78612336325E+02  0.29730421275E+02  0.11052940455E+04  0.11155204744E+04  0.12508878633E+03 0.  0.
          5    1    3    3  502    0  0.27558559511E+02  0.76390789791E+02  0.57708091864E+03  0.58278202273E+03  0.41800000000E+01 0.  1.
         -5    1    3    3    0  502  0.51053776814E+02 -0.46660368516E+02  0.52821312685E+03  0.53273845167E+03  0.41800000000E+01 0.  1.
        -11    1    1    2    0    0 -0.46018675923E+02 -0.20545148297E+02  0.13132144038E+03  0.14065966855E+03  0.00000000000E+00 0.  1.
         11    1    1    2    0    0 -0.32593660402E+02 -0.91852729780E+01 -0.87124276289E+01  0.34966016834E+02  0.00000000000E+00 0. -1.
</event>
<event>
 7    1  0.2679104E-009  0.1749286E+03  0.7561462E-02  0.1172803E+00
         -3   -1    0    0    0  501 -0.00000000000E+00  0.00000000000E+00  0.10535706811E+03  0.10535706811E+03  0.00000000000E+00 0.  1.
          3   -1    0    0  501    0  0.00000000000E+00 -0.00000000000E+00 -0.33094104269E+03  0.33094104269E+03  0.00000000000E+00 0. -1.
         25    2    1    2    0    0 -0.56256886819E+02 -0.12482958806E+03 -0.43147747930E+02  0.19041262113E+03  0.12509186531E+03 0.  0.
          5    1    3    3  502    0 -0.46685162559E+02 -0.15048361539E+03 -0.33975290177E+02  0.16123466019E+03  0.41800000000E+01 0. -1.
         -5    1    3    3    0  502 -0.95717242604E+01  0.25654027331E+02 -0.91724577533E+01  0.29177960944E+02  0.41800000000E+01 0. -1.
        -11    1    1    2    0    0  0.40537438073E+02  0.18666663688E+01 -0.38670270768E+02  0.56054956695E+02  0.00000000000E+00 0.  1.
         11    1    1    2    0    0  0.15719448746E+02  0.12296292169E+03 -0.14376595588E+03  0.18983053298E+03  0.00000000000E+00 0. -1.
</event>
<event>
 7    1  0.2679104E-009  0.8581826E+02  0.7561462E-02  0.1313306E+00
         -2   -1    0    0    0  501 -0.00000000000E+00  0.00000000000E+00  0.12898034590E+02  0.12898034590E+02  0.00000000000E+00 0.  1.
          2   -1    0    0  501    0  0.00000000000E+00 -0.00000000000E+00 -0.11168112314E+04  0.11168112314E+04  0.00000000000E+00 0. -1.
         25    2    1    2    0    0  0.17760924164E+02 -0.59239551588E+01 -0.95812560286E+03  0.96643870421E+03  0.12509418240E+03 0.  0.
          5    1    3    3  502    0 -0.15410546436E+02 -0.48876520760E+02 -0.73397803290E+03  0.73577688494E+03  0.41800000000E+01 0. -1.
         -5    1    3    3    0  502  0.33171470600E+02  0.42952565601E+02 -0.22414756995E+03  0.23066181927E+03  0.41800000000E+01 0. -1.
        -11    1    1    2    0    0 -0.12028056682E+02 -0.28476199733E+02 -0.33011473391E+02  0.45225274728E+02  0.00000000000E+00 0.  1.
         11    1    1    2    0    0 -0.57328674817E+01  0.34400154892E+02 -0.11277612052E+03  0.11804528701E+03  0.00000000000E+00 0. -1.
</event>
<event>
 7    1  0.2679104E-009  0.1047191E+03  0.7561462E-02  0.1270674E+00
         -2   -1    0    0    0  501 -0.00000000000E+00  0.00000000000E+00  0.25366732756E+03  0.25366732756E+03  0.00000000000E+00 0.  1.
          2   -1    0    0  501    0  0.00000000000E+00 -0.00000000000E+00 -0.44563848925E+02  0.44563848925E+02  0.00000000000E+00 0. -1.
         25    2    1    2    0    0 -0.12913231557E+02  0.10786977872E+02  0.13384681192E+03  0.18397187149E+03  0.12509024741E+03 0.  0.
          5    1    3    3  502    0  0.32782553905E+02 -0.43782394916E+02  0.61111520575E+02  0.82119938456E+02  0.41800000000E+01 0.  1.
         -5    1    3    3    0  502 -0.45695785461E+02  0.54569372788E+02  0.72735291349E+02  0.10185193304E+03  0.41800000000E+01 0.  1.
        -11    1    1    2    0    0  0.10235150193E+02  0.35487180683E+02  0.19543655695E+02  0.41785796274E+02  0.00000000000E+00 0. -1.
         11    1    1    2    0    0  0.26780813636E+01 -0.46274158555E+02  0.55713011021E+02  0.72473508724E+02  0.00000000000E+00 0.  1.
</event>
<event>
 7    1  0.2679104E-009  0.2171371E+03  0.7561462E-02  0.1136036E+00
         -2   -1    0    0    0  501 -0.00000000000E+00  0.00000000000E+00  0.45006045849E+02  0.45006045849E+02  0.00000000000E+00 0.  1.
          2   -1    0    0  501    0  0.00000000000E+00 -0.00000000000E+00 -0.10940615950E+04  0.10940615950E+04  0.00000000000E+00 0. -1.
         25    2    1    2    0    0  0.18390049827E+03  0.52695618036E+02 -0.48374351786E+03  0.53502525180E+03  0.12509199644E+03 0.  0.
          5    1    3    3  502    0  0.24686448087E+02 -0.35603651795E+02 -0.13109574934E+03  0.13813257630E+03  0.41800000000E+01 0. -1.
         -5    1    3    3    0  502  0.15921405018E+03  0.88299269831E+02 -0.35264776852E+03  0.39689267551E+03  0.41800000000E+01 0. -1.
        -11    1    1    2    0    0 -0.16642527540E+03 -0.15011126867E+02 -0.49421009938E+03  0.52169562826E+03  0.00000000000E+00 0. -1.
         11    1    1    2    0    0 -0.17475222870E+02 -0.37684491168E+02 -0.71101931881E+02  0.82346760751E+02  0.00000000000E+00 0.  1.
</event>
<event>
 7    1  0.2679104E-009  0.9273447E+02  0.7561462E-02  0.1296362E+00
          1   -1    0    0  501    0  0.00000000000E+00  0.00000000000E+00  0.44342762987E+03  0.44342762987E+03  0.00000000000E+00 0. -1.
         -1   -1    0    0    0  501 -0.00000000000E+00 -0.00000000000E+00 -0.66873159527E+02  0.66873159527E+02  0.00000000000E+00 0.  1.
         25    2    1    2    0    0 -0.27764287199E+02 -0.74944197698E+02  0.35745825477E+03  0.38705523210E+03  0.12509140808E+03 0.  0.
          5    1    3    3  502    0 -0.74602287629E+01 -0.74276915476E+02  0.35857259765E+03  0.36628471899E+03  0.41800000000E+01 0. -1.
         -5    1    3    3    0  502 -0.20304058436E+02 -0.66728222186E+00 -0.11143428732E+01  0.20770513103E+02  0.41800000000E+01 0. -1.
        -11    1    1    2    0    0  0.35278445018E+02  0.36398281555E+02 -0.31132807339E+02  0.59486597447E+02  0.00000000000E+00 0.  1.
         11    1    1    2    0    0 -0.75141578188E+01  0.38545916143E+02  0.50229022905E+02  0.63758959849E+02  0.00000000000E+00 0. -1.
</event>
<event>
 7    1  0.2684726E-009  0.1053098E+03  0.7561462E-02  0.1269510E+00
          1   -1    0    0  501    0  0.00000000000E+00  0.00000000000E+00  0.65230211306E+03  0.65230211306E+03  0.00000000000E+00 0. -1.
         -1   -1    0    0    0  501 -0.00000000000E+00 -0.00000000000E+00 -0.30482713081E+02  0.30482713081E+02  0.00000000000E+00 0.  1.
         25    2    1    2    0    0  0.67240401850E+02  0.57791147433E+02  0.37743462316E+03  0.40738896629E+03  0.12509111372E+03 0.  0.
          5    1    3    3  502    0  0.10840655168E+02  0.97746603142E+01 -0.63804376352E+01  0.16469552913E+02  0.41800000000E+01 0. -1.
         -5    1    3    3    0  502  0.56399746682E+02  0.48016487119E+02  0.38381506080E+03  0.39091941338E+03  0.41800000000E+01 0. -1.
        -11    1    1    2    0    0 -0.57623455365E+02  0.48920602393E+01  0.15786017512E+03  0.16811968876E+03  0.00000000000E+00 0. -1.
         11    1    1    2    0    0 -0.96169464852E+01 -0.62683207673E+02  0.86524601701E+02  0.10727617109E+03  0.00000000000E+00 0.  1.
</event>
<event>
 7    1  0.2679104E-009  0.8498169E+02  0.7561462E-02  0.1315480E+00
          1   -1    0    0  501    0  0.00000000000E+00  0.00000000000E+00  0.44133485015E+03  0.44133485015E+03  0.00000000000E+00 0. -1.
         -1   -1    0    0    0  501 -0.00000000000E+00 -0.00000000000E+00 -0.53447835939E+02  0.53447835939E+02  0.00000000000E+00 0.  1.
         25    2    1    2    0    0  0.33986889733E+02 -0.39637410560E+02  0.54402540072E+02  0.14605965361E+03  0.12509017970E+03 0.  0.
          5    1    3    3  502    0 -0.58107554995E+01 -0.41493453964E+02 -0.30626480147E+02  0.52066546722E+02  0.41800000000E+01 0. -1.
         -5    1    3    3    0  502  0.39797645233E+02  0.18560434041E+01  0.85029020219E+02  0.93993106888E+02  0.41800000000E+01 0. -1.
        -11    1    1    2    0    0 -0.55783843213E+02  0.22837558074E+02  0.29682468541E+03  0.30288328625E+03  0.00000000000E+00 0.  1.
         11    1    1    2    0    0  0.21796953480E+02  0.16799852485E+02  0.36659788733E+02  0.45839746230E+02  0.00000000000E+00 0. -1.
</event>
<event>
 7    1  0.2679656E-009  0.1111217E+03  0.7561462E-02  0.1258507E+00
         -1   -1    0    0    0  501 -0.00000000000E+00  0.00000000000E+00  0.21889351066E+02  0.21889351066E+02  0.00000000000E+00 0.  1.
          1   -1    0    0  501    0  0.00000000000E+00 -0.00000000000E+00 -0.11822901096E+04  0.11822901096E+04  0.00000000000E+00 0. -1.
         25    2    1    2    0    0 -0.67688696615E+02 -0.55232070489E+02 -0.91848870834E+03  0.93107501656E+03  0.12508732095E+03 0.  0.
          5    1    3    3  502    0 -0.50987194672E+00 -0.18356218555E+02 -0.68574861028E+03  0.68600717170E+03  0.41800000000E+01 0.  1.
         -5    1    3    3    0  502 -0.67178824668E+02 -0.36875851934E+02 -0.23274009806E+03  0.24506784486E+03  0.41800000000E+01 0.  1.
        -11    1    1    2    0    0  0.83981446356E+02  0.17813027655E+02 -0.15925680147E+03  0.18092240354E+03  0.00000000000E+00 0.  1.
         11    1    1    2    0    0 -0.16292749742E+02  0.37419042834E+02 -0.82655248694E+02  0.92182040536E+02  0.00000000000E+00 0. -1.
</event>
<event>
 7    1  0.2679104E-009  0.1012259E+03  0.7561462E-02  0.1277739E+00
          1   -1    0    0  501    0  0.00000000000E+00  0.00000000000E+00  0.15907361335E+03  0.15907361335E+03  0.00000000000E+00 0. -1.
         -1   -1    0    0    0  501 -0.00000000000E+00 -0.00000000000E+00 -0.10780594338E+03  0.10780594338E+03  0.00000000000E+00 0.  1.
         25    2    1    2    0    0  0.29006446696E+02  0.27324400630E+02 -0.33971389855E+02  0.13560792682E+03  0.12508979842E+03 0.  0.
          5    1    3    3  502    0  0.63864814134E+02  0.19188561960E+02  0.20857255198E+02  0.69995806224E+02  0.41800000000E+01 0. -1.
         -5    1    3    3    0  502 -0.34858367439E+02  0.81358386691E+01 -0.54828645053E+02  0.65612120600E+02  0.41800000000E+01 0. -1.
        -11    1    1    2    0    0 -0.56292444697E+02 -0.40449981297E+02  0.63392321314E+02  0.93934161616E+02  0.00000000000E+00 0.  1.
         11    1    1    2    0    0  0.27285998001E+02  0.13125580668E+02  0.21846738509E+02  0.37337468290E+02  0.00000000000E+00 0. -1.
</event>
<event>
 7    1  0.2679104E-009  0.1318650E+03  0.7561462E-02  0.1224714E+00
          2   -1    0    0  501    0  0.00000000000E+00  0.00000000000E+00  0.41553571551E+03  0.41553571551E+03  0.00000000000E+00 0. -1.
         -2   -1    0    0    0  501 -0.00000000000E+00 -0.00000000000E+00 -0.61076096376E+02  0.61076096376E+02  0.00000000000E+00 0.  1.
         25    2    1    2    0    0  0.93910006079E+02  0.66862264732E+02  0.16631544794E+03  0.23790538010E+03  0.12509392459E+03 0.  0.
          5    1    3    3  502    0  0.96014457782E+02  0.48625502278E+02  0.18326532173E+03  0.21257202573E+03  0.41800000000E+01 0. -1.
         -5    1    3    3    0  502 -0.21044517030E+01  0.18236762454E+02 -0.16949873792E+02  0.25333354364E+02  0.41800000000E+01 0. -1.
        -11    1    1    2    0    0 -0.73483993482E+02 -0.83225226918E+02  0.10997248661E+03  0.15626990595E+03  0.00000000000E+00 0.  1.
         11    1    1    2    0    0 -0.20426012597E+02  0.16362962186E+02  0.78171684587E+02  0.82436525844E+02  0.00000000000E+00 0. -1.
</event>
<event>
 7    1  0.2679104E-009  0.1171330E+03  0.7561462E-02  0.1247903E+00
         -2   -1    0    0    0  501 -0.00000000000E+00  0.00000000000E+00  0.22645401952E+03  0.22645401952E+03  0.00000000000E+00 0. -1.
          2   -1    0    0  501    0  0.00000000000E+00 -0.00000000000E+00 -0.99418260072E+02  0.99418260072E+02  0.00000000000E+00 0.  1.
         25    2    1    2    0    0 -0.67145974313E+02 -0.78807056135E+02  0.71011393611E+02  0.17722664080E+03  0.12509008843E+03 0.  0.
          5    1    3    3  502    0 -0.20511719323E+02 -0.33288374796E+02  0.98740327066E+02  0.10628250616E+03  0.41800000000E+01 0.  1.
         -5    1    3    3    0  502 -0.46634254989E+02 -0.45518681339E+02 -0.27728933456E+02  0.70944134640E+02  0.41800000000E+01 0.  1.
        -11    1    1    2    0    0  0.74776886642E+02  0.30535715532E+02  0.97762295416E+01  0.81360846622E+02  0.00000000000E+00 0.  1.
         11    1    1    2    0    0 -0.76309123298E+01  0.48271340602E+02  0.46248136293E+02  0.67284792168E+02  0.00000000000E+00 0. -1.
</event>
<event>
 7    1  0.2679104E-009  0.1036873E+03  0.7561462E-02  0.1272728E+00
         -1   -1    0    0    0  501 -0.00000000000E+00  0.00000000000E+00  0.26337980520E+03  0.26337980520E+03  0.00000000000E+00 0.  1.
          1   -1    0    0  501    0  0.00000000000E+00 -0.00000000000E+00 -0.50677717630E+02  0.50677717630E+02  0.00000000000E+00 0. -1.
         25    2    1    2    0    0 -0.23865079266E+02  0.29669782413E+02  0.10372632741E+03  0.16689977898E+03  0.12508615922E+03 0.  0.
          5    1    3    3  502    0  0.37195042211E+02  0.36169696185E+02  0.89803873854E+02  0.10379752524E+03  0.41800000000E+01 0.  1.
         -5    1    3    3    0  502 -0.61060121477E+02 -0.64999137717E+01  0.13922453559E+02  0.63102253739E+02  0.41800000000E+01 0.  1.
        -11    1    1    2    0    0  0.30491616048E+02  0.24554914857E+02  0.69469174003E+02  0.79741135116E+02  0.00000000000E+00 0. -1.
         11    1    1    2    0    0 -0.66265367818E+01 -0.54224697270E+02  0.39506586157E+02  0.67416608736E+02  0.00000000000E+00 0.  1.
</event>
<event>
 7    1  0.2679104E-009  0.1096327E+03  0.7561462E-02  0.1261252E+00
         -1   -1    0    0    0  501 -0.00000000000E+00  0.00000000000E+00  0.75634367407E+02  0.75634367407E+02  0.00000000000E+00 0.  1.
          1   -1    0    0  501    0  0.00000000000E+00 -0.00000000000E+00 -0.28866846165E+03  0.28866846165E+03  0.00000000000E+00 0. -1.
         25    2    1    2    0    0  0.10028281733E+03 -0.98909812336E+01 -0.10460640142E+03  0.19168810071E+03  0.12508938314E+03 0.  0.
          5    1    3    3  502    0  0.51175996482E+02 -0.11616211809E+02  0.21053613914E+02  0.56697848739E+02  0.41800000000E+01 0. -1.
         -5    1    3    3    0  502  0.49106820851E+02  0.17252305757E+01 -0.12566001533E+03  0.13499025197E+03  0.41800000000E+01 0. -1.
        -11    1    1    2    0    0 -0.11578231985E+02  0.24789253097E+02 -0.69338409032E+02  0.74541112764E+02  0.00000000000E+00 0.  1.
         11    1    1    2    0    0 -0.88704585348E+02 -0.14898271863E+02 -0.39089283798E+02  0.98073615586E+02  0.00000000000E+00 0. -1.
</event>
<event>
 7    1  0.2679104E-009  0.1328127E+03  0.7561462E-02  0.1223341E+00
          1   -1    0    0  501    0  0.00000000000E+00  0.00000000000E+00  0.14592885575E+02  0.14592885575E+02  0.00000000000E+00 0. -1.
         -1   -1    0    0    0  501 -0.00000000000E+00 -0.00000000000E+00 -0.15454338098E+04  0.15454338098E+04  0.00000000000E+00 0.  1.
         25    2    1    2    0    0 -0.98463407318E+02  0.27506336838E+02 -0.90996071995E+03  0.92419101400E+03  0.12509547297E+03 0.  0.
          5    1    3    3  502    0 -0.30621149727E+02 -0.28833368003E+02 -0.89327199250E+02  0.98822258863E+02  0.41800000000E+01 0. -1.
         -5    1    3    3    0  502 -0.67842257591E+02  0.56339704841E+02 -0.82063352070E+03  0.82536875514E+03  0.41800000000E+01 0. -1.
        -11    1    1    2    0    0  0.68924115992E+02  0.26235749706E+02 -0.28400292207E+03  0.29342206473E+03  0.00000000000E+00 0.  1.
         11    1    1    2    0    0  0.29539291325E+02 -0.53742086544E+02 -0.33687728225E+03  0.34241361668E+03  0.00000000000E+00 0. -1.
</event>
<event>
 7    1  0.2679104E-009  0.9489530E+02  0.7561462E-02  0.1291412E+00
         -1   -1    0    0    0  501 -0.00000000000E+00  0.00000000000E+00  0.27683568066E+02  0.27683568066E+02  0.00000000000E+00 0.  1.
          1   -1    0    0  501    0  0.00000000000E+00 -0.00000000000E+00 -0.61471133423E+03  0.61471133423E+03  0.00000000000E+00 0. -1.
         25    2    1    2    0    0  0.69965043371E+02 -0.21724799667E+02 -0.33890765238E+03  0.36860921342E+03  0.12508909289E+03 0.  0.
          5    1    3    3  502    0  0.47650893246E+02 -0.30566410944E+02 -0.33952541689E+03  0.34423813591E+03  0.41800000000E+01 0. -1.
         -5    1    3    3    0  502  0.22314150125E+02  0.88416112771E+01  0.61776450474E+00  0.24371077505E+02  0.41800000000E+01 0. -1.
        -11    1    1    2    0    0 -0.67382691967E+02 -0.17286415709E+02 -0.10925499994E+03  0.12952182193E+03  0.00000000000E+00 0.  1.
         11    1    1    2    0    0 -0.25823514038E+01  0.39011215376E+02 -0.13886511384E+03  0.14426386695E+03  0.00000000000E+00 0. -1.
</event>
<event>
 7    1  0.2679104E-009  0.1691236E+03  0.7561462E-02  0.1178765E+00
         -2   -1    0    0    0  501 -0.00000000000E+00  0.00000000000E+00  0.39217312932E+02  0.39217312932E+02  0.00000000000E+00 0.  1.
          2   -1    0    0  501    0  0.00000000000E+00 -0.00000000000E+00 -0.87318473375E+03  0.87318473375E+03  0.00000000000E+00 0. -1.
         25    2    1    2    0    0  0.58751102733E+02  0.12280287440E+03 -0.59035905247E+03  0.61862894433E+03  0.12508286012E+03 0.  0.
          5    1    3    3  502    0 -0.15880284392E+02 -0.13800456725E+02 -0.28988578073E+02  0.36061698475E+02  0.41800000000E+01 0. -1.
         -5    1    3    3    0  502  0.74631387125E+02  0.13660333113E+03 -0.56137047440E+03  0.58256724586E+03  0.41800000000E+01 0. -1.
        -11    1    1    2    0    0 -0.74990894873E+02 -0.59502778554E+02 -0.11596287567E+03  0.15037155151E+03  0.00000000000E+00 0.  1.
         11    1    1    2    0    0  0.16239792141E+02 -0.63300095847E+02 -0.12764549267E+03  0.14340155083E+03  0.00000000000E+00 0. -1.
</event>
<event>
 7    1  0.2679104E-009  0.1168429E+03  0.7561462E-02  0.1248398E+00
          2   -1    0    0  501    0  0.00000000000E+00  0.00000000000E+00  0.68370792415E+03  0.68370792415E+03  0.00000000000E+00 0. -1.
         -2   -1    0    0    0  501 -0.00000000000E+00 -0.00000000000E+00 -0.23026907064E+02  0.23026907064E+02  0.00000000000E+00 0.  1.
         25    2    1    2    0    0  0.35818190132E+02  0.60990266431E+02  0.41944219477E+03  0.44337532559E+03  0.12508864555E+03 0.  0.
          5    1    3    3  502    0  0.12120515151E+02  0.96998917896E+02  0.32635843178E+03  0.34070954691E+03  0.41800000000E+01 0. -1.
         -5    1    3    3    0  502  0.23697674980E+02 -0.36008651465E+02  0.93083762987E+02  0.10266577868E+03  0.41800000000E+01 0. -1.
        -11    1    1    2    0    0 -0.51075672619E+02 -0.33463211081E+02  0.89203333196E+02  0.10810062665E+03  0.00000000000E+00 0.  1.
         11    1    1    2    0    0  0.15257482488E+02 -0.27527055349E+02  0.15203548912E+03  0.15525887898E+03  0.00000000000E+00 0. -1.
</event>
<event>
 7    1  0.2679104E-009  0.1036048E+03  0.7561462E-02  0.1272893E+00
          1   -1    0    0  501    0  0.00000000000E+00  0.00000000000E+00  0.55720047194E+03  0.55720047194E+03  0.00000000000E+00 0. -1.
         -1   -1    0    0    0  501 -0.00000000000E+00 -0.00000000000E+00 -0.24347440421E+02  0.24347440421E+02  0.00000000000E+00 0.  1.
         25    2    1    2    0    0  0.21387174197E+02 -0.34362704735E+02  0.32782415762E+03  0.35320887772E+03  0.12509846637E+03 0.  0.
          5    1    3    3  502    0 -0.26080724471E+02  0.36197661361E+02  0.88652076317E+02  0.99333468238E+02  0.41800000000E+01 0. -1.
         -5    1    3    3    0  502  0.47467898668E+02 -0.70560366097E+02  0.23917208130E+03  0.25387540948E+03  0.41800000000E+01 0. -1.
        -11    1    1    2    0    0 -0.18882418489E+02 -0.17254134268E+02  0.15257777475E+03  0.15470691073E+03  0.00000000000E+00 0. -1.
         11    1    1    2    0    0 -0.25047557086E+01  0.51616839004E+02  0.52451099144E+02  0.73632123909E+02  0.00000000000E+00 0.  1.
</event>
<event>
 7    1  0.2679104E-009  0.1061875E+03  0.7561462E-02  0.1267797E+00
         -2   -1    0    0    0  501 -0.00000000000E+00  0.00000000000E+00  0.26288679797E+03  0.26288679797E+03  0.00000000000E+00 0.  1.
          2   -1    0    0  501    0  0.00000000000E+00 -0.00000000000E+00 -0.12159182924E+03  0.12159182924E+03  0.00000000000E+00 0. -1.
         25    2    1    2    0    0  0.81502732937E+02  0.41552209809E+00 -0.50032263424E+02  0.15745934174E+03  0.12508936319E+03 0.  0.
          5    1    3    3  502    0  0.85211362522E+02 -0.23835343650E+01 -0.85876709547E+02  0.12107410616E+03  0.41800000000E+01 0. -1.
         -5    1    3    3    0  502 -0.37086295848E+01  0.27990564631E+01  0.35844446123E+02  0.36385235582E+02  0.41800000000E+01 0. -1.
        -11    1    1    2    0    0 -0.42104334514E+02  0.44343986926E+02  0.11407526133E+03  0.12943079004E+03  0.00000000000E+00 0. -1.
         11    1    1    2    0    0 -0.39398398422E+02 -0.44759509024E+02  0.77251970816E+02  0.97588495435E+02  0.00000000000E+00 0.  1.
</event>
<event>
 7    1  0.2679104E-009  0.1265191E+03  0.7561462E-02  0.1232714E+00
          2   -1    0    0  501    0  0.00000000000E+00  0.00000000000E+00  0.14241424552E+03  0.14241424552E+03  0.00000000000E+00 0. -1.
         -2   -1    0    0    0  501 -0.00000000000E+00 -0.00000000000E+00 -0.25972811658E+03  0.25972811658E+03  0.00000000000E+00 0.  1.
         25    2    1    2    0    0 -0.38196471878E+02  0.76838448657E+02 -0.20095024599E+03  0.25177864937E+03  0.12509344210E+03 0.  0.
          5    1    3    3  502    0  0.40316362141E+02  0.41477403791E+02 -0.12110096627E+03  0.13427099654E+03  0.41800000000E+01 0.  1.
         -5    1    3    3    0  502 -0.78512834019E+02  0.35361044866E+02 -0.79849279722E+02  0.11750765282E+03  0.41800000000E+01 0.  1.
        -11    1    1    2    0    0 -0.15599871462E+02 -0.41845572579E+02 -0.35578058310E+00  0.44660211754E+02  0.00000000000E+00 0.  1.
         11    1    1    2    0    0  0.53796343340E+02 -0.34992876078E+02  0.83992155511E+02  0.10570350098E+03  0.00000000000E+00 0. -1.
</event>
<event>
 7    1  0.2679104E-009  0.1031133E+03  0.7561462E-02  0.1273882E+00
         -3   -1    0    0    0  501 -0.00000000000E+00  0.00000000000E+00  0.47309161353E+02  0.47309161353E+02  0.00000000000E+00 0.  1.
          3   -1    0    0  501    0  0.00000000000E+00 -0.00000000000E+00 -0.39674734156E+03  0.39674734156E+03  0.00000000000E+00 0. -1.
         25    2    1    2    0    0 -0.36673622915E+02  0.22660637017E+02 -0.79465806503E+02  0.15432738286E+03  0.12507464815E+03 0.  0.
          5    1    3    3  502    0  0.32666688657E+02  0.90438882142E+01 -0.76154404375E+02  0.83461788667E+02  0.41800000000E+01 0. -1.
         -5    1    3    3    0  502 -0.69340311572E+02  0.13616748803E+02 -0.33114021282E+01  0.70865594197E+02  0.41800000000E+01 0. -1.
        -11    1    1    2    0    0  0.12430404082E+02  0.35854283632E+02 -0.65804848065E+02  0.75962639693E+02  0.00000000000E+00 0.  1.
         11    1    1    2    0    0  0.24243218833E+02 -0.58514920648E+02 -0.20416752563E+03  0.21376648035E+03  0.00000000000E+00 0. -1.
</event>
<event>
 7    1  0.2679104E-009  0.8810088E+02  0.7561462E-02  0.1307517E+00
         -2   -1    0    0    0  501 -0.00000000000E+00  0.00000000000E+00  0.81899109759E+02  0.81899109759E+02  0.00000000000E+00 0.  1.
          2   -1    0    0  501    0  0.00000000000E+00 -0.00000000000E+00 -0.17826017452E+03  0.17826017452E+03  0.00000000000E+00 0. -1.
         25    2    1    2    0    0 -0.10393001736E+02 -0.34261608173E+02 -0.96607484589E+02  0.16205703357E+03  0.12509038241E+03 0.  0.
          5    1    3    3  502    0 -0.40917287435E+02 -0.31270489539E+02 -0.11498413675E+03  0.12605908151E+03  0.41800000000E+01 0.  1.
         -5    1    3    3    0  502  0.30524285699E+02 -0.29911186346E+01  0.18376652157E+02  0.35997952062E+02  0.41800000000E+01 0.  1.
        -11    1    1    2    0    0  0.12834299875E+02 -0.28245898448E+02 -0.13853866535E+02  0.33977634561E+02  0.00000000000E+00 0. -1.
         11    1    1    2    0    0 -0.24412981390E+01  0.62507506621E+02  0.14100286365E+02  0.64124616148E+02  0.00000000000E+00 0.  1.
</event>
<event>
 7    1  0.2679104E-009  0.1037761E+03  0.7561462E-02  0.1272550E+00
         -2   -1    0    0    0  501 -0.00000000000E+00  0.00000000000E+00  0.12273087691E+03  0.12273087691E+03  0.00000000000E+00 0. -1.
          2   -1    0    0  501    0  0.00000000000E+00 -0.00000000000E+00 -0.97702144821E+02  0.97702144821E+02  0.00000000000E+00 0.  1.
         25    2    1    2    0    0 -0.72500761429E+01 -0.83305039297E+01 -0.23647675261E+01  0.12560644096E+03  0.12509766179E+03 0.  0.
          5    1    3    3  502    0  0.23894433923E+02  0.50381651294E+02  0.12677141089E+02  0.57336175891E+02  0.41800000000E+01 0.  1.
         -5    1    3    3    0  502 -0.31144510066E+02 -0.58712155224E+02 -0.15041908615E+02  0.68270265072E+02  0.41800000000E+01 0.  1.
        -11    1    1    2    0    0 -0.19107505741E+02  0.39706477364E+02 -0.24507897632E+01  0.44132839142E+02  0.00000000000E+00 0.  1.
         11    1    1    2    0    0  0.26357581883E+02 -0.31375973434E+02  0.29844289380E+02  0.50693741628E+02  0.00000000000E+00 0. -1.
</event>
<event>
 7    1  0.2679104E-009  0.2415535E+03  0.7561462E-02  0.1118762E+00
          1   -1    0    0  501    0  0.00000000000E+00  0.00000000000E+00  0.82876788582E+02  0.82876788582E+02  0.00000000000E+00 0. -1.
         -1   -1    0    0    0  501 -0.00000000000E+00 -0.00000000000E+00 -0.78436352869E+03  0.78436352869E+03  0.00000000000E+00 0.  1.
         25    2    1    2    0    0  0.10148710511E+03  0.19958967674E+03 -0.45489930411E+03  0.52222303624E+03  0.12509137115E+03 0.  0.
          5    1    3    3  502    0  0.60825780022E+02  0.90976040457E+01 -0.11136433463E+03  0.12728719237E+03  0.41800000000E+01 0.  1.
         -5    1    3    3    0  502  0.40661325092E+02  0.19049207269E+03 -0.34353496949E+03  0.39493584387E+03  0.41800000000E+01 0.  1.
        -11    1    1    2    0    0  0.23305809882E+01 -0.12082504145E+02 -0.58754057367E+02  0.60028807844E+02  0.00000000000E+00 0.  1.
         11    1    1    2    0    0 -0.10381768610E+03 -0.18750717259E+03 -0.18783337863E+03  0.28498847318E+03  0.00000000000E+00 0. -1.
</event>
<event>
 7    1  0.2679104E-009  0.2174152E+03  0.7561462E-02  0.1135825E+00
         -2   -1    0    0    0  501 -0.00000000000E+00  0.00000000000E+00  0.47885030273E+02  0.47885030273E+02  0.00000000000E+00 0.  1.
          2   -1    0    0  501    0  0.00000000000E+00 -0.00000000000E+00 -0.13151845097E+04  0.13151845097E+04  0.00000000000E+00 0. -1.
         25    2    1    2    0    0 -0.10071230302E+03  0.17617489578E+03 -0.92112210972E+03  0.95146924786E+03  0.12508887528E+03 0.  0.
          5    1    3    3  502    0  0.21613276058E+02  0.49937270169E+02 -0.33921898969E+03  0.34358093663E+03  0.41800000000E+01 0.  1.
         -5    1    3    3    0  502 -0.12232557908E+03  0.12623762561E+03 -0.58190312003E+03  0.60788831123E+03  0.41800000000E+01 0.  1.
        -11    1    1    2    0    0  0.43894004539E+02 -0.10155295156E+03 -0.10378062342E+03  0.15169081515E+03  0.00000000000E+00 0.  1.
         11    1    1    2    0    0  0.56818298483E+02 -0.74621944222E+02 -0.24239674628E+03  0.25990947695E+03  0.00000000000E+00 0. -1.
</event>
<event>
 7    1  0.2679104E-009  0.9991135E+02  0.7561462E-02  0.1280482E+00
         -1   -1    0    0    0  501 -0.00000000000E+00  0.00000000000E+00  0.21315318184E+02  0.21315318184E+02  0.00000000000E+00 0.  1.
          1   -1    0    0  501    0  0.00000000000E+00 -0.00000000000E+00 -0.55060000742E+03  0.55060000742E+03  0.00000000000E+00 0. -1.
         25    2    1    2    0    0 -0.19412636330E+02  0.39456322862E+02 -0.39072438624E+03  0.41260965490E+03  0.12509008533E+03 0.  0.
          5    1    3    3  502    0 -0.57216555183E+02 -0.16660420549E+02 -0.24031325955E+03  0.24762721764E+03  0.41800000000E+01 0.  1.
         -5    1    3    3    0  502  0.37803918853E+02  0.56116743412E+02 -0.15041112669E+03  0.16498243726E+03  0.41800000000E+01 0.  1.
        -11    1    1    2    0    0  0.14466661306E+02 -0.54535825357E+02 -0.12894808235E+03  0.14075172638E+03  0.00000000000E+00 0. -1.
         11    1    1    2    0    0  0.49459750243E+01  0.15079502495E+02 -0.96122206456E+01  0.18553944329E+02  0.00000000000E+00 0.  1.
</event>
<event>
 7    1  0.2679104E-009  0.9301607E+02  0.7561462E-02  0.1295708E+00
          1   -1    0    0  501    0  0.00000000000E+00  0.00000000000E+00  0.12247161021E+04  0.12247161021E+04  0.00000000000E+00 0. -1.
         -1   -1    0    0    0  501 -0.00000000000E+00 -0.00000000000E+00 -0.96868941207E+01  0.96868941207E+01  0.00000000000E+00 0.  1.
         25    2    1    2    0    0 -0.15034053911E+02  0.23583897432E+02  0.94296110747E+03  0.95163306366E+03  0.12509042592E+03 0.  0.
          5    1    3    3  502    0  0.45730120494E+02 -0.86436751330E+01  0.19568678971E+03  0.20118834238E+03  0.41800000000E+01 0. -1.
         -5    1    3    3    0  502 -0.60764174405E+02  0.32227572565E+02  0.74727431776E+03  0.75044472128E+03  0.41800000000E+01 0. -1.
        -11    1    1    2    0    0 -0.23282619111E+02 -0.22022644310E+02  0.68564832377E+02  0.75684961874E+02  0.00000000000E+00 0.  1.
         11    1    1    2    0    0  0.38316673022E+02 -0.15612531222E+01  0.20350326811E+03  0.20708497066E+03  0.00000000000E+00 0. -1.
</event>
<event>
 7    1  0.2679104E-009  0.9947884E+02  0.7561462E-02  0.1281396E+00
         -1   -1    0    0    0  501 -0.00000000000E+00  0.00000000000E+00  0.54426070577E+02  0.54426070577E+02  0.00000000000E+00 0.  1.
          1   -1    0    0  501    0  0.00000000000E+00 -0.00000000000E+00 -0.24568008766E+03  0.24568008766E+03  0.00000000000E+00 0. -1.
         25    2    1    2    0    0  0.27268283021E+02  0.19132809287E+02 -0.76652494994E+02  0.15044310342E+03  0.12509156138E+03 0.  0.
          5    1    3    3  502    0 -0.37158067104E+02  0.55283006153E+01  0.12247820606E+02  0.39733683044E+02  0.41800000000E+01 0.  1.
         -5    1    3    3    0  502  0.64426350125E+02  0.13604508672E+02 -0.88900315600E+02  0.11070942038E+03  0.41800000000E+01 0.  1.
        -11    1    1    2    0    0  0.32510151605E+02 -0.13269198582E+02 -0.53402160789E+02  0.63912223912E+02  0.00000000000E+00 0.  1.
         11    1    1    2    0    0 -0.59778434626E+02 -0.58636107049E+01 -0.61199361295E+02  0.85750830898E+02  0.00000000000E+00 0. -1.
</event>
<event>
 7    1  0.2679104E-009  0.1551792E+03  0.7561462E-02  0.1194249E+00
         -1   -1    0    0    0  501 -0.00000000000E+00  0.00000000000E+00  0.61922370168E+03  0.61922370168E+03  0.00000000000E+00 0.  1.
          1   -1    0    0  501    0  0.00000000000E+00 -0.00000000000E+00 -0.56969809024E+02  0.56969809024E+02  0.00000000000E+00 0. -1.
         25    2    1    2    0    0  0.13914504136E+03  0.41367674405E+02  0.38485013782E+03  0.42991782132E+03  0.12508827876E+03 0.  0.
          5    1    3    3  502    0  0.13933615123E+03  0.48579586431E+02  0.22048075050E+03  0.26533709314E+03  0.41800000000E+01 0. -1.
         -5    1    3    3    0  502 -0.19110986457E+00 -0.72119120260E+01  0.16436938732E+03  0.16458072818E+03  0.41800000000E+01 0. -1.
        -11    1    1    2    0    0 -0.11450103306E+03 -0.54124908570E+02  0.17807265358E+03  0.21851741865E+03  0.00000000000E+00 0.  1.
         11    1    1    2    0    0 -0.24644008299E+02  0.12757234165E+02 -0.66889874765E+00  0.27758270734E+02  0.00000000000E+00 0. -1.
</event>
<event>
 7    1  0.2679104E-009  0.8872832E+02  0.7561462E-02  0.1305961E+00
         -1   -1    0    0    0  501 -0.00000000000E+00  0.00000000000E+00  0.23492911584E+02  0.23492911584E+02  0.00000000000E+00 0. -1.
          1   -1    0    0  501    0  0.00000000000E+00 -0.00000000000E+00 -0.51755609684E+03  0.51755609684E+03  0.00000000000E+00 0.  1.
         25    2    1    2    0    0 -0.18970369711E+02 -0.64955446886E+01 -0.30712248317E+03  0.33222387648E+03  0.12508564027E+03 0.  0.
          5    1    3    3  502    0  0.45298348964E+02  0.19116212500E+02 -0.73426159597E+02  0.88466057403E+02  0.41800000000E+01 0. -1.
         -5    1    3    3    0  502 -0.64268718675E+02 -0.25611757189E+02 -0.23369632358E+03  0.24375781907E+03  0.41800000000E+01 0. -1.
        -11    1    1    2    0    0  0.19695576847E+02  0.29672394465E+02 -0.18156111431E+03  0.18502109331E+03  0.00000000000E+00 0.  1.
         11    1    1    2    0    0 -0.72520713634E+00 -0.23176849777E+02 -0.53795877780E+01  0.23804038641E+02  0.00000000000E+00 0. -1.
</event>
<event>
 7    1  0.2679104E-009  0.2009739E+03  0.7561462E-02  0.1148920E+00
          1   -1    0    0  501    0  0.00000000000E+00  0.00000000000E+00  0.96284854287E+02  0.96284854287E+02  0.00000000000E+00 0. -1.
         -1   -1    0    0    0  501 -0.00000000000E+00 -0.00000000000E+00 -0.43972616854E+03  0.43972616854E+03  0.00000000000E+00 0.  1.
         25    2    1    2    0    0 -0.11510386772E+03  0.13007119064E+03 -0.19327414952E+03  0.28839061762E+03  0.12508731536E+03 0.  0.
          5    1    3    3  502    0 -0.96187300477E+02  0.24999306282E+02 -0.13180505059E+03  0.16512724139E+03  0.41800000000E+01 0. -1.
         -5    1    3    3    0  502 -0.18916567239E+02  0.10507188436E+03 -0.61469098928E+02  0.12326337624E+03  0.41800000000E+01 0. -1.
        -11    1    1    2    0    0  0.41349345441E+02 -0.11243935817E+03 -0.78134984279E+02  0.14302955429E+03  0.00000000000E+00 0.  1.
         11    1    1    2    0    0  0.73754522275E+02 -0.17631832471E+02 -0.72032180455E+02  0.10459085091E+03  0.00000000000E+00 0. -1.
</event>
<event>
 7    1  0.2679104E-009  0.1460659E+03  0.7561462E-02  0.1205392E+00
          2   -1    0    0  501    0  0.00000000000E+00  0.00000000000E+00  0.41995337345E+03  0.41995337345E+03  0.00000000000E+00 0. -1.
         -2   -1    0    0    0  501 -0.00000000000E+00 -0.00000000000E+00 -0.69532106748E+02  0.69532106748E+02  0.00000000000E+00 0.  1.
         25    2    1    2    0    0 -0.36255787188E+02 -0.11705157335E+03  0.11662280286E+03  0.21038823502E+03  0.12508708311E+03 0.  0.
          5    1    3    3  502    0 -0.27327168056E+02 -0.13933713963E+03  0.71330371852E+02  0.15895630514E+03  0.41800000000E+01 0. -1.
         -5    1    3    3    0  502 -0.89286191322E+01  0.22285566288E+02  0.45292431010E+02  0.51431929880E+02  0.41800000000E+01 0. -1.
        -11    1    1    2    0    0  0.38078369319E+02  0.79859757328E+02  0.22363331688E+03  0.24049824005E+03  0.00000000000E+00 0. -1.
         11    1    1    2    0    0 -0.18225821302E+01  0.37191816018E+02  0.10165146969E+02  0.38599005133E+02  0.00000000000E+00 0.  1.
</event>
<event>
 7    1  0.2679104E-009  0.7239041E+02  0.7561462E-02  0.1352148E+00
          2   -1    0    0  501    0  0.00000000000E+00  0.00000000000E+00  0.18249634923E+03  0.18249634923E+03  0.00000000000E+00 0. -1.
         -2   -1    0    0    0  501 -0.00000000000E+00 -0.00000000000E+00 -0.86055673073E+02  0.86055673073E+02  0.00000000000E+00 0.  1.
         25    2    1    2    0    0  0.16025900736E+02 -0.12392659254E+02 -0.36191400908E+01  0.12677189009E+03  0.12509039310E+03 0.  0.
          5    1    3    3  502    0 -0.65481819100E+01 -0.25388446661E+02 -0.59401984537E+02  0.65065506046E+02  0.41800000000E+01 0. -1.
         -5    1    3    3    0  502  0.22574082646E+02  0.12995787407E+02  0.55782844446E+02  0.61706384047E+02  0.41800000000E+01 0. -1.
        -11    1    1    2    0    0 -0.48644624287E+02  0.27524511919E+02  0.87234144233E+02  0.10360354313E+03  0.00000000000E+00 0. -1.
         11    1    1    2    0    0  0.32618723551E+02 -0.15131852665E+02  0.12825672011E+02  0.38176589079E+02  0.00000000000E+00 0.  1.
</event>
<event>
 7    1  0.2679104E-009  0.1513218E+03  0.7561462E-02  0.1198858E+00
         -2   -1    0    0    0  501 -0.00000000000E+00  0.00000000000E+00  0.19224840773E+03  0.19224840773E+03  0.00000000000E+00 0.  1.
          2   -1    0    0  501    0  0.00000000000E+00 -0.00000000000E+00 -0.16073417190E+03  0.16073417190E+03  0.00000000000E+00 0. -1.
         25    2    1    2    0    0  0.15368350917E+02 -0.13698759807E+03 -0.21050064488E+01  0.18615341087E+03  0.12508746177E+03 0.  0.
          5    1    3    3  502    0  0.19764899271E+02 -0.44243137377E+02  0.57828340552E+02  0.75562529200E+02  0.41800000000E+01 0.  1.
         -5    1    3    3    0  502 -0.43965483540E+01 -0.92744460693E+02 -0.59933347001E+02  0.11059088167E+03  0.41800000000E+01 0.  1.
        -11    1    1    2    0    0 -0.44761136379E+02  0.41085213778E+02 -0.85647420570E+00  0.60764197264E+02  0.00000000000E+00 0. -1.
         11    1    1    2    0    0  0.29392785462E+02  0.95902384292E+02  0.34475716481E+02  0.10606497149E+03  0.00000000000E+00 0.  1.
</event>
<event>
 7    1  0.2679104E-009  0.8302887E+02  0.7561462E-02  0.1320669E+00
         -2   -1    0    0    0  501 -0.00000000000E+00  0.00000000000E+00  0.35495535216E+02  0.35495535216E+02  0.00000000000E+00 0.  1.
          2   -1    0    0  501    0  0.00000000000E+00 -0.00000000000E+00 -0.38196016127E+03  0.38196016127E+03  0.00000000000E+00 0. -1.
         25    2    1    2    0    0  0.74513196779E+01 -0.37484301339E+02 -0.17438891264E+03  0.21799353347E+03  0.12509633396E+03 0.  0.
          5    1    3    3  502    0 -0.42958672984E+02 -0.18725853205E+02 -0.14475768425E+02  0.49225251998E+02  0.41800000000E+01 0. -1.
         -5    1    3    3    0  502  0.50409992662E+02 -0.18758448133E+02 -0.15991314422E+03  0.16876828147E+03  0.41800000000E+01 0. -1.
        -11    1    1    2    0    0  0.22845621757E+02  0.17263419490E+02 -0.15773928501E+03  0.16031727955E+03  0.00000000000E+00 0. -1.
         11    1    1    2    0    0 -0.30296941435E+02  0.20220881848E+02 -0.14336428407E+02  0.39144883478E+02  0.00000000000E+00 0.  1.
</event>
<event>
 7    1  0.2679104E-009  0.1311012E+03  0.7561462E-02  0.1225831E+00
          1   -1    0    0  501    0  0.00000000000E+00  0.00000000000E+00  0.62060172628E+03  0.62060172628E+03  0.00000000000E+00 0. -1.
         -1   -1    0    0    0  501 -0.00000000000E+00 -0.00000000000E+00 -0.35742941025E+02  0.35742941025E+02  0.00000000000E+00 0.  1.
         25    2    1    2    0    0 -0.10086496640E+03  0.15672497756E+01  0.29039494833E+03  0.33189326608E+03  0.12509083234E+03 0.  0.
          5    1    3    3  502    0  0.17395918412E+02 -0.77500353087E+01  0.13473517153E+03  0.13613860536E+03  0.41800000000E+01 0. -1.
         -5    1    3    3    0  502 -0.11826088481E+03  0.93172850844E+01  0.15565977681E+03  0.19575466072E+03  0.41800000000E+01 0. -1.
        -11    1    1    2    0    0  0.12653819724E+02 -0.28987714716E+02  0.14760784704E+03  0.15095854817E+03  0.00000000000E+00 0. -1.
         11    1    1    2    0    0  0.88211146674E+02  0.27420464940E+02  0.14685598988E+03  0.17349285305E+03  0.00000000000E+00 0.  1.
</event>
<event>
 7    1  0.2679104E-009  0.9781911E+02  0.7561462E-02  0.1284950E+00
         -1   -1    0    0    0  501 -0.00000000000E+00  0.00000000000E+00  0.15375751899E+02  0.15375751899E+02  0.00000000000E+00 0.  1.
          1   -1    0    0  501    0  0.00000000000E+00 -0.00000000000E+00 -0.81614430491E+03  0.81614430491E+03  0.00000000000E+00 0. -1.
         25    2    1    2    0    0 -0.78276237035E+01  0.10179789895E+02 -0.54471346490E+03  0.55903908063E+03  0.12508810898E+03 0.  0.
          5    1    3    3  502    0  0.14103705495E+02 -0.44598812950E+02 -0.10081389013E+03  0.11121547315E+03  0.41800000000E+01 0. -1.
         -5    1    3    3    0  502 -0.21931329198E+02  0.54778602845E+02 -0.44389957478E+03  0.44782360748E+03  0.41800000000E+01 0. -1.
        -11    1    1    2    0    0 -0.40323513962E+02 -0.92081852370E+01 -0.15672484410E+03  0.16209087948E+03  0.00000000000E+00 0. -1.
         11    1    1    2    0    0  0.48151137666E+02 -0.97160465817E+00 -0.99330244014E+02  0.11039009670E+03  0.00000000000E+00 0.  1.
</event>
<event>
 7    1  0.2679104E-009  0.1192357E+03  0.7561462E-02  0.1244363E+00
         -1   -1    0    0    0  501 -0.00000000000E+00  0.00000000000E+00  0.34073970276E+02  0.34073970276E+02  0.00000000000E+00 0.  1.
          1   -1    0    0  501    0  0.00000000000E+00 -0.00000000000E+00 -0.99102210589E+03  0.99102210589E+03  0.00000000000E+00 0. -1.
         25    2    1    2    0    0  0.37797087680E+01 -0.68585933959E+02 -0.87391508826E+03  0.88549081046E+03  0.12509227544E+03 0.  0.
          5    1    3    3  502    0  0.76619293441E+01  0.28911865165E+02 -0.42515077702E+03  0.42622207441E+03  0.41800000000E+01 0. -1.
         -5    1    3    3    0  502 -0.38822205761E+01 -0.97497799124E+02 -0.44876431124E+03  0.45926873605E+03  0.41800000000E+01 0. -1.
        -11    1    1    2    0    0 -0.16756986570E+02  0.86710462347E+02 -0.56026054375E+02  0.10458689998E+03  0.00000000000E+00 0.  1.
         11    1    1    2    0    0  0.12977277802E+02 -0.18124528389E+02 -0.27006992981E+02  0.35018365729E+02  0.00000000000E+00 0. -1.
</event>
<event>
 7    1  0.4965367E-009  0.1044333E+03  0.7561462E-02  0.1271240E+00
         -1   -1    0    0    0  501 -0.00000000000E+00  0.00000000000E+00  0.12294328685E+03  0.12294328685E+03  0.00000000000E+00 0.  1.
          1   -1    0    0  501    0  0.00000000000E+00 -0.00000000000E+00 -0.14666205017E+03  0.14666205017E+03  0.00000000000E+00 0. -1.
         25    2    1    2    0    0 -0.37213674754E+02 -0.58281718525E+02 -0.50629459084E+02  0.15163212156E+03  0.12508933551E+03 0.  0.
          5    1    3    3  502    0  0.36406574329E+02 -0.52700727216E+01  0.14620894224E+02  0.39805216603E+02  0.41800000000E+01 0.  1.
         -5    1    3    3    0  502 -0.73620249083E+02 -0.53011645803E+02 -0.65250353308E+02  0.11182690496E+03  0.41800000000E+01 0.  1.
        -11    1    1    2    0    0  0.12848190167E+01  0.41243033341E+02  0.55384357076E+02  0.69065661278E+02  0.00000000000E+00 0.  1.
         11    1    1    2    0    0  0.35928855737E+02  0.17038685184E+02 -0.28473661318E+02  0.48907554184E+02  0.00000000000E+00 0. -1.
</event>
<event>
 7    1  0.3194780E-009  0.1085351E+03  0.7561462E-02  0.1263307E+00
         -1   -1    0    0    0  501 -0.00000000000E+00  0.00000000000E+00  0.29177234415E+03  0.29177234415E+03  0.00000000000E+00 0.  1.
          1   -1    0    0  501    0  0.00000000000E+00 -0.00000000000E+00 -0.63900250678E+02  0.63900250678E+02  0.00000000000E+00 0. -1.
         25    2    1    2    0    0  0.14505443587E+02 -0.12576821304E+02  0.23022728066E+03  0.26271755740E+03  0.12508928761E+03 0.  0.
          5    1    3    3  502    0  0.65287546603E+02  0.13776380131E+02  0.14862083284E+03  0.16296587601E+03  0.41800000000E+01 0. -1.
         -5    1    3    3    0  502 -0.50782103016E+02 -0.26353201435E+02  0.81606447823E+02  0.99751681384E+02  0.41800000000E+01 0. -1.
        -11    1    1    2    0    0 -0.55039117376E+01 -0.39559784180E+02  0.85246797048E+00  0.39949922033E+02  0.00000000000E+00 0. -1.
         11    1    1    2    0    0 -0.90015318496E+01  0.52136605485E+02 -0.32076551562E+01  0.53005115401E+02  0.00000000000E+00 0.  1.
</event>
<event>
 7    1  0.2679104E-009  0.9043260E+02  0.7561462E-02  0.1301807E+00
         -1   -1    0    0    0  501 -0.00000000000E+00  0.00000000000E+00  0.48846738412E+02  0.48846738412E+02  0.00000000000E+00 0.  1.
          1   -1    0    0  501    0  0.00000000000E+00 -0.00000000000E+00 -0.54731854208E+03  0.54731854208E+03  0.00000000000E+00 0. -1.
         25    2    1    2    0    0  0.55082832437E+02  0.37803327468E+01 -0.46381207343E+03  0.48354667384E+03  0.12508931598E+03 0.  0.
          5    1    3    3  502    0 -0.32635707088E+02  0.87206792631E+01 -0.49975910975E+02  0.60466550271E+02  0.41800000000E+01 0. -1.
         -5    1    3    3    0  502  0.87718539524E+02 -0.49403465162E+01 -0.41383616246E+03  0.42308012356E+03  0.41800000000E+01 0. -1.
        -11    1    1    2    0    0 -0.44222610953E+02  0.55275190228E+01 -0.65153056781E+02  0.78937403009E+02  0.00000000000E+00 0. -1.
         11    1    1    2    0    0 -0.10860221484E+02 -0.93078517696E+01  0.30493326544E+02  0.33681203645E+02  0.00000000000E+00 0.  1.
</event>
<event>
 7    1  0.2679104E-009  0.1755602E+03  0.7561462E-02  0.1172170E+00
          2   -1    0    0  501    0  0.00000000000E+00  0.00000000000E+00  0.14790128618E+04  0.14790128618E+04  0.00000000000E+00 0. -1.
         -2   -1    0    0    0  501 -0.00000000000E+00 -0.00000000000E+00 -0.28828403238E+02  0.28828403238E+02  0.00000000000E+00 0.  1.
         25    2    1    2    0    0 -0.16754048456E+02  0.16245191831E+03  0.10006247231E+04  0.10215522954E+04  0.12509169402E+03 0.  0.
          5    1    3    3  502    0  0.21512603980E+02  0.79361113072E+01  0.30193497389E+02  0.38143068535E+02  0.41800000000E+01 0.  1.
         -5    1    3    3    0  502 -0.38266652437E+02  0.15451580700E+03  0.97043122571E+03  0.98340922689E+03  0.41800000000E+01 0.  1.
        -11    1    1    2    0    0 -0.11548553701E+02 -0.90854710709E+02  0.13997542284E+03  0.16727542124E+03  0.00000000000E+00 0.  1.
         11    1    1    2    0    0  0.28302602157E+02 -0.71597207599E+02  0.30958431265E+03  0.31901354840E+03  0.00000000000E+00 0. -1.
</event>
<event>
 7    1  0.2679104E-009  0.3637839E+03  0.7561462E-02  0.1057096E+00
         -2   -1    0    0    0  501 -0.00000000000E+00  0.00000000000E+00  0.85808176091E+03  0.85808176091E+03  0.00000000000E+00 0.  1.
          2   -1    0    0  501    0  0.00000000000E+00 -0.00000000000E+00 -0.20180217114E+03  0.20180217114E+03  0.00000000000E+00 0. -1.
         25    2    1    2    0    0 -0.85694602301E+02  0.34006913632E+03  0.58031481826E+03  0.68949505708E+03  0.12509021988E+03 0.  0.
          5    1    3    3  502    0 -0.10121502249E+03  0.34138433702E+03  0.55853050714E+03  0.66239078054E+03  0.41800000000E+01 0.  1.
         -5    1    3    3    0  502  0.15520420190E+02 -0.13152007044E+01  0.21784311121E+02  0.27104276541E+02  0.41800000000E+01 0. -1.
        -11    1    1    2    0    0  0.24960181543E+02 -0.21353001948E+03  0.81516312851E+02  0.22991952753E+03  0.00000000000E+00 0.  1.
         11    1    1    2    0    0  0.60734420759E+02 -0.12653911684E+03 -0.55515413436E+01  0.14046934743E+03  0.00000000000E+00 0. -1.
</event>
<event>
 7    1  0.2679104E-009  0.1709510E+03  0.7561462E-02  0.1176860E+00
          1   -1    0    0  501    0  0.00000000000E+00  0.00000000000E+00  0.13067859303E+04  0.13067859303E+04  0.00000000000E+00 0. -1.
         -1   -1    0    0    0  501 -0.00000000000E+00 -0.00000000000E+00 -0.28093411910E+02  0.28093411910E+02  0.00000000000E+00 0.  1.
         25    2    1    2    0    0 -0.13215540799E+02 -0.15649645596E+03  0.69391772728E+03  0.72238182154E+03  0.12509153693E+03 0.  0.
          5    1    3    3  502    0  0.46507005712E+01  0.10305476287E+02  0.20715865599E+03  0.20750906730E+03  0.41800000000E+01 0.  1.
         -5    1    3    3    0  502 -0.17866241370E+02 -0.16680193225E+03  0.48675907128E+03  0.51487275424E+03  0.41800000000E+01 0.  1.
        -11    1    1    2    0    0  0.24400077211E+02  0.58186147282E+02  0.10396840717E+03  0.12161587558E+03  0.00000000000E+00 0.  1.
         11    1    1    2    0    0 -0.11184536412E+02  0.98310308682E+02  0.48080638395E+03  0.49088164510E+03  0.00000000000E+00 0. -1.
</event>
<event>
 7    1  0.2679104E-009  0.1117878E+03  0.7561462E-02  0.1257295E+00
          2   -1    0    0  501    0  0.00000000000E+00  0.00000000000E+00  0.53385175365E+03  0.53385175365E+03  0.00000000000E+00 0. -1.
         -2   -1    0    0    0  501 -0.00000000000E+00 -0.00000000000E+00 -0.27438888579E+02  0.27438888579E+02  0.00000000000E+00 0.  1.
         25    2    1    2    0    0 -0.12037433924E+02 -0.28455975880E+02  0.38440113300E+03  0.40542046207E+03  0.12508747994E+03 0.  0.
          5    1    3    3  502    0 -0.61638620619E+02  0.11499550607E+02  0.22784895231E+03  0.23635603797E+03  0.41800000000E+01 0.  1.
         -5    1    3    3    0  502  0.49601186695E+02 -0.39955526486E+02  0.15655218069E+03  0.16906442410E+03  0.41800000000E+01 0.  1.
        -11    1    1    2    0    0  0.51928248417E+02  0.22413556547E+02  0.67821298846E+02  0.88309903623E+02  0.00000000000E+00 0.  1.
         11    1    1    2    0    0 -0.39890814493E+02  0.60424193333E+01  0.54190433226E+02  0.67560276535E+02  0.00000000000E+00 0. -1.
</event>
<event>
 7    1  0.2679104E-009  0.1112523E+03  0.7561462E-02  0.1258268E+00
          2   -1    0    0  501    0  0.00000000000E+00  0.00000000000E+00  0.28475653797E+03  0.28475653797E+03  0.00000000000E+00 0. -1.
         -2   -1    0    0    0  501 -0.00000000000E+00 -0.00000000000E+00 -0.64173159416E+02  0.64173159416E+02  0.00000000000E+00 0.  1.
         25    2    1    2    0    0 -0.32699906055E+02 -0.46980521271E+02  0.19201112390E+03  0.23620338907E+03  0.12508923244E+03 0.  0.
          5    1    3    3  502    0 -0.44115884081E+02 -0.74372326525E+02  0.18666227175E+03  0.20576134301E+03  0.41800000000E+01 0. -1.
         -5    1    3    3    0  502  0.11415978026E+02  0.27391805254E+02  0.53488521520E+01  0.30442046067E+02  0.41800000000E+01 0. -1.
        -11    1    1    2    0    0  0.61160562495E+02  0.47591751893E+02  0.86426591323E+01  0.77976181042E+02  0.00000000000E+00 0.  1.
         11    1    1    2    0    0 -0.28460656440E+02 -0.61123062245E+00  0.19929595522E+02  0.34750127273E+02  0.00000000000E+00 0. -1.
</event>
<event>
 7    1  0.2679104E-009  0.1025921E+03  0.7561462E-02  0.1274938E+00
          1   -1    0    0  501    0  0.00000000000E+00  0.00000000000E+00  0.98406284547E+03  0.98406284547E+03  0.00000000000E+00 0. -1.
         -1   -1    0    0    0  501 -0.00000000000E+00 -0.00000000000E+00 -0.15820749617E+02  0.15820749617E+02  0.00000000000E+00 0.  1.
         25    2    1    2    0    0  0.35965992686E+02  0.50270931761E+02  0.54423537395E+03  0.56183759663E+03  0.12509445837E+03 0.  0.
          5    1    3    3  502    0 -0.48210182900E+01  0.67121578363E+02  0.14230085367E+03  0.15746604032E+03  0.41800000000E+01 0. -1.
         -5    1    3    3    0  502  0.40787010976E+02 -0.16850646602E+02  0.40193452028E+03  0.40437155631E+03  0.41800000000E+01 0. -1.
        -11    1    1    2    0    0 -0.60829469928E+01  0.17950146287E+02  0.21306354441E+02  0.28516148677E+02  0.00000000000E+00 0.  1.
         11    1    1    2    0    0 -0.29883045693E+02 -0.68221078048E+02  0.40270036747E+03  0.40952984979E+03  0.00000000000E+00 0. -1.
</event>
<event>
 7    1  0.2679104E-009  0.9402290E+02  0.7561462E-02  0.1293392E+00
          4   -1    0    0  501    0  0.00000000000E+00  0.00000000000E+00  0.22672691291E+03  0.22672691291E+03  0.00000000000E+00 0.  1.
         -4   -1    0    0    0  501 -0.00000000000E+00 -0.00000000000E+00 -0.70359207523E+02  0.70359207523E+02  0.00000000000E+00 0. -1.
         25    2    1    2    0    0  0.47724786074E+02  0.24275261672E+02  0.47057155872E+02  0.14397496898E+03  0.12508985666E+03 0.  0.
          5    1    3    3  502    0  0.60459975727E+02  0.65798384250E+00 -0.26063629174E+02  0.65974440304E+02  0.41800000000E+01 0.  1.
         -5    1    3    3    0  502 -0.12735189653E+02  0.23617277830E+02  0.73120785046E+02  0.78000528674E+02  0.41800000000E+01 0.  1.
        -11    1    1    2    0    0 -0.64192256686E+02  0.73647291077E+01  0.94527142122E+02  0.11450006834E+03  0.00000000000E+00 0.  1.
         11    1    1    2    0    0  0.16467470612E+02 -0.31639990780E+02  0.14783407395E+02  0.38611083113E+02  0.00000000000E+00 0. -1.
</event>
<event>
 7    1  0.2679104E-009  0.1109357E+03  0.7561462E-02  0.1258847E+00
         -2   -1    0    0    0  501 -0.00000000000E+00  0.00000000000E+00  0.28414404879E+03  0.28414404879E+03  0.00000000000E+00 0. -1.
          2   -1    0    0  501    0  0.00000000000E+00 -0.00000000000E+00 -0.53330590933E+02  0.53330590933E+02  0.00000000000E+00 0.  1.
         25    2    1    2    0    0  0.16015658298E+02 -0.54310717929E+02  0.11981694805E+03  0.18223746658E+03  0.12509291664E+03 0.  0.
          5    1    3    3  502    0 -0.16780054518E+02  0.23282188354E+02 -0.70933634437E+01  0.29856636266E+02  0.41800000000E+01 0. -1.
         -5    1    3    3    0  502  0.32795712815E+02 -0.77592906282E+02  0.12691031149E+03  0.15238083032E+03  0.41800000000E+01 0. -1.
        -11    1    1    2    0    0 -0.38423670537E+01 -0.26513808276E+02  0.27082145204E+02  0.38094466826E+02  0.00000000000E+00 0. -1.
         11    1    1    2    0    0 -0.12173291244E+02  0.80824526205E+02  0.83914364598E+02  0.11714270631E+03  0.00000000000E+00 0.  1.
</event>
<event>
 7    1  0.2679104E-009  0.6444312E+02  0.7561462E-02  0.1380079E+00
         -2   -1    0    0    0  501 -0.00000000000E+00  0.00000000000E+00  0.46231425428E+02  0.46231425428E+02  0.00000000000E+00 0.  1.
          2   -1    0    0  501    0  0.00000000000E+00 -0.00000000000E+00 -0.29668091953E+03  0.29668091953E+03  0.00000000000E+00 0. -1.
         25    2    1    2    0    0 -0.37213483124E+02  0.17687830420E+02 -0.14044850197E+03  0.19253969656E+03  0.12509216752E+03 0.  0.
          5    1    3    3  502    0 -0.22468947603E+02  0.31519991533E+02  0.10388974563E+02  0.40295988201E+02  0.41800000000E+01 0. -1.
         -5    1    3    3    0  502 -0.14744535521E+02 -0.13832161113E+02 -0.15083747653E+03  0.15224370836E+03  0.41800000000E+01 0. -1.
        -11    1    1    2    0    0 -0.44218187083E+01  0.15465537441E+02  0.10109583374E+02  0.18998394801E+02  0.00000000000E+00 0.  1.
         11    1    1    2    0    0  0.41635301832E+02 -0.33153367861E+02 -0.12011057550E+03  0.13137425359E+03  0.00000000000E+00 0. -1.
</event>
<event>
 7    1  0.2679104E-009  0.9268466E+02  0.7561462E-02  0.1296478E+00
         -1   -1    0    0    0  501 -0.00000000000E+00  0.00000000000E+00  0.45123195850E+02  0.45123195850E+02  0.00000000000E+00 0.  1.
          1   -1    0    0  501    0  0.00000000000E+00 -0.00000000000E+00 -0.26405555647E+03  0.26405555647E+03  0.00000000000E+00 0. -1.
         25    2    1    2    0    0  0.18467917279E+00  0.86974444107E+01 -0.11642653141E+03  0.17110524504E+03  0.12508472336E+03 0.  0.
          5    1    3    3  502    0 -0.47175487780E+02 -0.99811226409E+00 -0.26859431576E+01  0.47446913135E+02  0.41800000000E+01 0.  1.
         -5    1    3    3    0  502  0.47360166953E+02  0.96955566748E+01 -0.11374058825E+03  0.12365833190E+03  0.41800000000E+01 0.  1.
        -11    1    1    2    0    0  0.14193670306E+02 -0.46718349810E+02 -0.38186633629E+02  0.61986155499E+02  0.00000000000E+00 0.  1.
         11    1    1    2    0    0 -0.14378349479E+02  0.38020905399E+02 -0.64319195585E+02  0.76087351786E+02  0.00000000000E+00 0. -1.
</event>
<event>
 7    1  0.2679104E-009  0.1085501E+03  0.7561462E-02  0.1263279E+00
         -3   -1    0    0    0  501 -0.00000000000E+00  0.00000000000E+00  0.14722685594E+03  0.14722685594E+03  0.00000000000E+00 0.  1.
          3   -1    0    0  501    0  0.00000000000E+00 -0.00000000000E+00 -0.10738908351E+03  0.10738908351E+03  0.00000000000E+00 0. -1.
         25    2    1    2    0    0 -0.53421464225E+02 -0.25998348196E+02  0.43433861125E+02  0.14513695358E+03  0.12509383700E+03 0.  0.
          5    1    3    3  502    0  0.23917850587E+02 -0.17149116277E+02 -0.26938268506E+02  0.40116062567E+02  0.41800000000E+01 0. -1.
         -5    1    3    3    0  502 -0.77339314812E+02 -0.88492319189E+01  0.70372129631E+02  0.10502089102E+03  0.41800000000E+01 0. -1.
        -11    1    1    2    0    0  0.62542623564E+02  0.52332519447E+02 -0.24178744994E+01  0.81585038279E+02  0.00000000000E+00 0. -1.
         11    1    1    2    0    0 -0.91211593384E+01 -0.26334171251E+02 -0.11782141906E+01  0.27893947584E+02  0.00000000000E+00 0.  1.
</event>
<event>
 7    1  0.2679104E-009  0.1994427E+03  0.7561462E-02  0.1150210E+00
         -1   -1    0    0    0  501 -0.00000000000E+00  0.00000000000E+00  0.41434469476E+02  0.41434469476E+02  0.00000000000E+00 0.  1.
          1   -1    0    0  501    0  0.00000000000E+00 -0.00000000000E+00 -0.11042007658E+04  0.11042007658E+04  0.00000000000E+00 0. -1.
         25    2    1    2    0    0  0.16962355180E+03  0.21829811269E+02 -0.36838744037E+03  0.42497878775E+03  0.12509585854E+03 0.  0.
          5    1    3    3  502    0 -0.82169552593E+01 -0.25900356524E+02 -0.54594918489E+02  0.61126298322E+02  0.41800000000E+01 0.  1.
         -5    1    3    3    0  502  0.17784050706E+03  0.47730167792E+02 -0.31379252188E+03  0.36385248942E+03  0.41800000000E+01 0.  1.
        -11    1    1    2    0    0 -0.14075883353E+03 -0.47526422651E+02 -0.46838238271E+03  0.49137955442E+03  0.00000000000E+00 0.  1.
         11    1    1    2    0    0 -0.28864718276E+02  0.25696611383E+02 -0.22599647321E+03  0.22927689308E+03  0.00000000000E+00 0. -1.
</event>
<event>
 7    1  0.2679104E-009  0.1197357E+03  0.7561462E-02  0.1243534E+00
         -2   -1    0    0    0  501 -0.00000000000E+00  0.00000000000E+00  0.14890208554E+03  0.14890208554E+03  0.00000000000E+00 0.  1.
          2   -1    0    0  501    0  0.00000000000E+00 -0.00000000000E+00 -0.14872789148E+03  0.14872789148E+03  0.00000000000E+00 0. -1.
         25    2    1    2    0    0  0.92928390171E+02 -0.41801759975E+02  0.50369339246E+01  0.16142372320E+03  0.12509666211E+03 0.  0.
          5    1    3    3  502    0  0.58971285074E+01 -0.47049428599E+02  0.44923990159E+02  0.65452747443E+02  0.41800000000E+01 0.  1.
         -5    1    3    3    0  502  0.87031261663E+02  0.52476686241E+01 -0.39887056234E+02  0.95970975757E+02  0.41800000000E+01 0.  1.
        -11    1    1    2    0    0 -0.38221417349E+02  0.47688794212E+01  0.40636923066E+02  0.55990878465E+02  0.00000000000E+00 0.  1.
         11    1    1    2    0    0 -0.54706972822E+02  0.37032880553E+02 -0.45499662929E+02  0.80215375359E+02  0.00000000000E+00 0. -1.
</event>
<event>
 7    1  0.2679104E-009  0.1036350E+03  0.7561462E-02  0.1272833E+00
          1   -1    0    0  501    0  0.00000000000E+00  0.00000000000E+00  0.14424386998E+03  0.14424386998E+03  0.00000000000E+00 0. -1.
         -1   -1    0    0    0  501 -0.00000000000E+00 -0.00000000000E+00 -0.10871708803E+03  0.10871708803E+03  0.00000000000E+00 0.  1.
         25    2    1    2    0    0  0.52143353081E+02 -0.21649223523E+01 -0.13723709963E+02  0.13623209488E+03  0.12508887760E+03 0.  0.
          5    1    3    3  502    0 -0.56786159162E+01 -0.55774322362E+02 -0.82302893641E+00  0.56224296263E+02  0.41800000000E+01 0. -1.
         -5    1    3    3    0  502  0.57821968997E+02  0.53609400010E+02 -0.12900681026E+02  0.80007798614E+02  0.41800000000E+01 0. -1.
        -11    1    1    2    0    0 -0.15210854408E+02  0.24567261693E+02 -0.19978400335E+02  0.35129146287E+02  0.00000000000E+00 0.  1.
         11    1    1    2    0    0 -0.36932498673E+02 -0.22402339341E+02  0.69228892255E+02  0.81599716844E+02  0.00000000000E+00 0. -1.
</event>
<event>
 7    1  0.2679104E-009  0.1107631E+03  0.7561462E-02  0.1259163E+00
         -2   -1    0    0    0  501 -0.00000000000E+00  0.00000000000E+00  0.29344018272E+03  0.29344018272E+03  0.00000000000E+00 0.  1.
          2   -1    0    0  501    0  0.00000000000E+00 -0.00000000000E+00 -0.81883261904E+02  0.81883261904E+02  0.00000000000E+00 0. -1.
         25    2    1    2    0    0  0.61601351819E+02  0.79474541826E+02  0.16526816616E+03  0.23036944449E+03  0.12508231235E+03 0.  0.
          5    1    3    3  502    0  0.49858587843E+02  0.33048463313E+02  0.17170143530E+03  0.18187065457E+03  0.41800000000E+01 0. -1.
         -5    1    3    3    0  502  0.11742763976E+02  0.46426078513E+02 -0.64332691400E+01  0.48498789920E+02  0.41800000000E+01 0. -1.
        -11    1    1    2    0    0 -0.35612574214E+02 -0.79925322666E+02 -0.48012977190E+01  0.87631986770E+02  0.00000000000E+00 0.  1.
         11    1    1    2    0    0 -0.25988777604E+02  0.45078083965E+00  0.51090052379E+02  0.57322013370E+02  0.00000000000E+00 0. -1.
</event>
<event>
 7    1  0.2679104E-009  0.3222991E+03  0.7561462E-02  0.1074596E+00
         -2   -1    0    0    0  501 -0.00000000000E+00  0.00000000000E+00  0.10067716896E+03  0.10067716896E+03  0.00000000000E+00 0.  1.
          2   -1    0    0  501    0  0.00000000000E+00 -0.00000000000E+00 -0.10975865209E+04  0.10975865209E+04  0.00000000000E+00 0. -1.
         25    2    1    2    0    0  0.31361474008E+03  0.11841374143E+02 -0.49201526444E+03  0.59684294198E+03  0.12509218047E+03 0.  0.
          5    1    3    3  502    0  0.56702807603E+02 -0.38842496633E+02 -0.15832401771E+03  0.17264968844E+03  0.41800000000E+01 0.  1.
         -5    1    3    3    0  502  0.25691193248E+03  0.50683870776E+02 -0.33369124673E+03  0.42419325354E+03  0.41800000000E+01 0.  1.
        -11    1    1    2    0    0 -0.95556575562E+02 -0.27932641059E+01 -0.23911731115E+03  0.25751883416E+03  0.00000000000E+00 0. -1.
         11    1    1    2    0    0 -0.21805816452E+03 -0.90481100370E+01 -0.26577677634E+03  0.34390191371E+03  0.00000000000E+00 0.  1.
</event>
<event>
 7    1  0.2679104E-009  0.9150093E+02  0.7561462E-02  0.1299257E+00
          1   -1    0    0  501    0  0.00000000000E+00  0.00000000000E+00  0.10018225299E+03  0.10018225299E+03  0.00000000000E+00 0. -1.
         -1   -1    0    0    0  501 -0.00000000000E+00 -0.00000000000E+00 -0.13561232743E+03  0.13561232743E+03  0.00000000000E+00 0.  1.
         25    2    1    2    0    0  0.76239608703E+01 -0.30097466237E+02  0.25777418661E+00  0.12887682259E+03  0.12508072073E+03 0.  0.
          5    1    3    3  502    0 -0.36669188057E+02 -0.31713711751E+02 -0.44361119169E+02  0.65846565284E+02  0.41800000000E+01 0. -1.
         -5    1    3    3    0  502  0.44293148927E+02  0.16162455137E+01  0.44618893355E+02  0.63030257303E+02  0.41800000000E+01 0. -1.
        -11    1    1    2    0    0  0.38492529502E+02  0.12714626844E+02  0.76924655969E+01  0.41261490402E+02  0.00000000000E+00 0. -1.
         11    1    1    2    0    0 -0.46116490373E+02  0.17382839393E+02 -0.43380314227E+02  0.65656267424E+02  0.00000000000E+00 0.  1.
</event>
<event>
 7    1  0.2679104E-009  0.9670794E+02  0.7561462E-02  0.1287375E+00
          1   -1    0    0  501    0  0.00000000000E+00  0.00000000000E+00  0.58587910854E+03  0.58587910854E+03  0.00000000000E+00 0. -1.
         -1   -1    0    0    0  501 -0.00000000000E+00 -0.00000000000E+00 -0.20970582379E+02  0.20970582379E+02  0.00000000000E+00 0.  1.
         25    2    1    2    0    0  0.18215220883E+02  0.16451617533E+02  0.37940961498E+03  0.40025267030E+03  0.12509234248E+03 0.  0.
          5    1    3    3  502    0 -0.46984170546E+02  0.13346822890E+02  0.25528824805E+03  0.25995232631E+03  0.41800000000E+01 0. -1.
         -5    1    3    3    0  502  0.65199391428E+02  0.31047946433E+01  0.12412136694E+03  0.14030034399E+03  0.41800000000E+01 0. -1.
        -11    1    1    2    0    0  0.29190106277E+02 -0.12985261781E+01  0.12444202351E+03  0.12782631063E+03  0.00000000000E+00 0. -1.
         11    1    1    2    0    0 -0.47405327159E+02 -0.15153091355E+02  0.61056887668E+02  0.78770709990E+02  0.00000000000E+00 0.  1.
</event>
<event>
 7    1  0.2679104E-009  0.9914789E+02  0.7561462E-02  0.1282098E+00
          1   -1    0    0  501    0  0.00000000000E+00  0.00000000000E+00  0.23155235429E+03  0.23155235429E+03  0.00000000000E+00 0. -1.
         -1   -1    0    0    0  501 -0.00000000000E+00 -0.00000000000E+00 -0.68037838897E+02  0.68037838897E+02  0.00000000000E+00 0.  1.
         25    2    1    2    0    0 -0.47613145153E+02 -0.56022181296E+01  0.14368333575E+03  0.19644232051E+03  0.12508512253E+03 0.  0.
          5    1    3    3  502    0 -0.83084274306E+02 -0.15605415577E+02  0.56688440671E+02  0.10187039481E+03  0.41800000000E+01 0.  1.
         -5    1    3    3    0  502  0.35471129153E+02  0.10003197448E+02  0.86994895078E+02  0.94571925708E+02  0.41800000000E+01 0.  1.
        -11    1    1    2    0    0 -0.13802776661E+01 -0.20843545409E+02 -0.24342811490E+02  0.32076954701E+02  0.00000000000E+00 0.  1.
         11    1    1    2    0    0  0.48993422820E+02  0.26445763538E+02  0.44173991139E+02  0.71070917975E+02  0.00000000000E+00 0. -1.
</event>
<event>
 7    1  0.3664826E-009  0.1096453E+03  0.7561462E-02  0.1261228E+00
         -2   -1    0    0    0  501 -0.00000000000E+00  0.00000000000E+00  0.54227420673E+02  0.54227420673E+02  0.00000000000E+00 0.  1.
          2   -1    0    0  501    0  0.00000000000E+00 -0.00000000000E+00 -0.36311771789E+03  0.36311771789E+03  0.00000000000E+00 0. -1.
         25    2    1    2    0    0  0.38156221938E+02 -0.72871488179E+02 -0.11907611077E+03  0.19129291115E+03  0.12509079358E+03 0.  0.
          5    1    3    3  502    0  0.64327810949E+02 -0.83364050560E+01 -0.16194088298E+02  0.66987191362E+02  0.41800000000E+01 0. -1.
         -5    1    3    3    0  502 -0.26171589011E+02 -0.64535083123E+02 -0.10288202247E+03  0.12430571979E+03  0.41800000000E+01 0. -1.
        -11    1    1    2    0    0 -0.10660675747E+02  0.41324591695E+02 -0.17731396161E+03  0.18237766549E+03  0.00000000000E+00 0. -1.
         11    1    1    2    0    0 -0.27495546190E+02  0.31546896484E+02 -0.12500224836E+02  0.43674561922E+02  0.00000000000E+00 0.  1.
</event>
<event>
 7    1  0.2679104E-009  0.1809457E+03  0.7561462E-02  0.1166891E+00
         -2   -1    0    0    0  501 -0.00000000000E+00  0.00000000000E+00  0.81619939965E+02  0.81619939965E+02  0.00000000000E+00 0. -1.
          2   -1    0    0  501    0  0.00000000000E+00 -0.00000000000E+00 -0.41867857112E+03  0.41867857112E+03  0.00000000000E+00 0.  1.
         25    2    1    2    0    0  0.14705639139E+03 -0.27051243782E+02 -0.17452071626E+03  0.26165303081E+03  0.12508987206E+03 0.  0.
          5    1    3    3  502    0  0.13938747834E+03 -0.65245815299E+02 -0.15253139420E+03  0.21672375077E+03  0.41800000000E+01 0. -1.
         -5    1    3    3    0  502  0.76689130502E+01  0.38194571517E+02 -0.21989322059E+02  0.44929280045E+02  0.41800000000E+01 0. -1.
        -11    1    1    2    0    0  0.21544335968E+00  0.21369556527E+02 -0.46119913904E+02  0.50830609090E+02  0.00000000000E+00 0.  1.
         11    1    1    2    0    0 -0.14727183475E+03  0.56816872550E+01 -0.11641800099E+03  0.18781487118E+03  0.00000000000E+00 0. -1.
</event>
<event>
 7    1  0.2679104E-009  0.1626456E+03  0.7561462E-02  0.1185742E+00
         -2   -1    0    0    0  501 -0.00000000000E+00  0.00000000000E+00  0.13496413242E+03  0.13496413242E+03  0.00000000000E+00 0.  1.
          2   -1    0    0  501    0  0.00000000000E+00 -0.00000000000E+00 -0.21171629274E+03  0.21171629274E+03  0.00000000000E+00 0. -1.
         25    2    1    2    0    0  0.15913539265E+02  0.12087889004E+03 -0.84917718676E+02  0.19423285761E+03  0.12510170758E+03 0.  0.
          5    1    3    3  502    0 -0.42725356957E+02  0.10414256194E+03 -0.64422527621E+02  0.12976464773E+03  0.41800000000E+01 0. -1.
         -5    1    3    3    0  502  0.58638896222E+02  0.16736328095E+02 -0.20495191054E+02  0.64468209876E+02  0.41800000000E+01 0. -1.
        -11    1    1    2    0    0 -0.50181113733E+02 -0.98645105312E+02  0.12457560853E+02  0.11137410740E+03  0.00000000000E+00 0.  1.
         11    1    1    2    0    0  0.34267574469E+02 -0.22233784726E+02 -0.42920024909E+01  0.41073460149E+02  0.00000000000E+00 0. -1.
</event>
<event>
 7    1  0.2679104E-009  0.1168828E+03  0.7561462E-02  0.1248330E+00
          2   -1    0    0  501    0  0.00000000000E+00  0.00000000000E+00  0.76330507345E+03  0.76330507345E+03  0.00000000000E+00 0.  1.
         -2   -1    0    0    0  501 -0.00000000000E+00 -0.00000000000E+00 -0.20931679579E+02  0.20931679579E+02  0.00000000000E+00 0. -1.
         25    2    1    2    0    0  0.63114600160E+02 -0.12297465466E+02  0.39642610825E+03  0.42063961324E+03  0.12509734015E+03 0.  0.
          5    1    3    3  502    0 -0.13830682320E+02 -0.47815337226E+02  0.92908290394E+02  0.10548467695E+03  0.41800000000E+01 0.  1.
         -5    1    3    3    0  502  0.76945282479E+02  0.35517871760E+02  0.30351781786E+03  0.31515493629E+03  0.41800000000E+01 0.  1.
        -11    1    1    2    0    0 -0.76050152091E+02 -0.63003485321E+01  0.32079637413E+03  0.32974783348E+03  0.00000000000E+00 0.  1.
         11    1    1    2    0    0  0.12935551932E+02  0.18597813998E+02  0.25150911484E+02  0.33849306312E+02  0.00000000000E+00 0. -1.
</event>
<event>
 7    1  0.2679104E-009  0.1559411E+03  0.7561462E-02  0.1193357E+00
         -4   -1    0    0    0  501 -0.00000000000E+00  0.00000000000E+00  0.18406593795E+03  0.18406593795E+03  0.00000000000E+00 0.  1.
          4   -1    0    0  501    0  0.00000000000E+00 -0.00000000000E+00 -0.13711571067E+03  0.13711571067E+03  0.00000000000E+00 0. -1.
         25    2    1    2    0    0  0.10918386059E+03 -0.38161327882E+02  0.29036046782E+02  0.17282300514E+03  0.12508915514E+03 0.  0.
          5    1    3    3  502    0  0.12392940897E+03  0.50420303031E+01  0.15767617180E+02  0.12510000252E+03  0.41800000000E+01 0. -1.
         -5    1    3    3    0  502 -0.14745548383E+02 -0.43203358185E+02  0.13268429602E+02  0.47723002626E+02  0.41800000000E+01 0. -1.
        -11    1    1    2    0    0 -0.10818076311E+03  0.45127364004E+01  0.30388077244E+02  0.11245833689E+03  0.00000000000E+00 0.  1.
         11    1    1    2    0    0 -0.10030974753E+01  0.33648591481E+02 -0.12473896744E+02  0.35900306589E+02  0.00000000000E+00 0. -1.
</event>
<event>
 7    1  0.2679104E-009  0.1314976E+03  0.7561462E-02  0.1225250E+00
          2   -1    0    0  501    0  0.00000000000E+00  0.00000000000E+00  0.54700376289E+02  0.54700376289E+02  0.00000000000E+00 0. -1.
         -2   -1    0    0    0  501 -0.00000000000E+00 -0.00000000000E+00 -0.41147609700E+03  0.41147609700E+03  0.00000000000E+00 0.  1.
         25    2    1    2    0    0  0.18991288175E+02 -0.99135967200E+02 -0.22739671209E+03  0.27846864364E+03  0.12508761650E+03 0.  0.
          5    1    3    3  502    0 -0.27198710544E+02 -0.92333761188E+02 -0.84749026788E+02  0.12831665228E+03  0.41800000000E+01 0.  1.
         -5    1    3    3    0  502  0.46189998719E+02 -0.68022060120E+01 -0.14264768530E+03  0.15015199136E+03  0.41800000000E+01 0.  1.
        -11    1    1    2    0    0  0.22946920561E+02  0.51037450681E+02 -0.17016937238E+02  0.58488962106E+02  0.00000000000E+00 0. -1.
         11    1    1    2    0    0 -0.41938208736E+02  0.48098516519E+02 -0.11236207138E+03  0.12921886754E+03  0.00000000000E+00 0.  1.
</event>
<event>
 7    1  0.2679104E-009  0.1001488E+03  0.7561462E-02  0.1279983E+00
          2   -1    0    0  501    0  0.00000000000E+00  0.00000000000E+00  0.10275890465E+03  0.10275890465E+03  0.00000000000E+00 0. -1.
         -2   -1    0    0    0  501 -0.00000000000E+00 -0.00000000000E+00 -0.11119551096E+03  0.11119551096E+03  0.00000000000E+00 0.  1.
         25    2    1    2    0    0  0.94086463849E+01  0.48742357830E+02  0.70755254054E+01  0.13476691369E+03  0.12509083856E+03 0.  0.
          5    1    3    3  502    0  0.66699403422E+02  0.26220871041E+02 -0.47365416611E+01  0.71946172393E+02  0.41800000000E+01 0. -1.
         -5    1    3    3    0  502 -0.57290757037E+02  0.22521486789E+02  0.11812067066E+02  0.62820741300E+02  0.41800000000E+01 0. -1.
        -11    1    1    2    0    0  0.95530870844E+01  0.43009950368E+01 -0.20103938721E+02  0.22669988603E+02  0.00000000000E+00 0.  1.
         11    1    1    2    0    0 -0.18961733469E+02 -0.53043352867E+02  0.45918070010E+01  0.56517513313E+02  0.00000000000E+00 0. -1.
</event>
<event>
 7    1  0.2679104E-009  0.1017132E+03  0.7561462E-02  0.1276734E+00
         -4   -1    0    0    0  501 -0.00000000000E+00  0.00000000000E+00  0.13275230973E+02  0.13275230973E+02  0.00000000000E+00 0.  1.
          4   -1    0    0  501    0  0.00000000000E+00 -0.00000000000E+00 -0.18790843624E+04  0.18790843624E+04  0.00000000000E+00 0. -1.
         25    2    1    2    0    0  0.52137393655E+02 -0.31651155378E+02 -0.15775382002E+04  0.15836648145E+04  0.12508944127E+03 0.  0.
          5    1    3    3  502    0  0.73705307574E+02 -0.49629052783E+01 -0.14382288993E+04  0.14401308767E+04  0.41800000000E+01 0.  1.
         -5    1    3    3    0  502 -0.21567913919E+02 -0.26688250100E+02 -0.13930930091E+03  0.14353393788E+03  0.41800000000E+01 0.  1.
        -11    1    1    2    0    0 -0.55762301574E+02 -0.68640073235E+01 -0.85779278525E+02  0.10254088696E+03  0.00000000000E+00 0.  1.
         11    1    1    2    0    0  0.36249079188E+01  0.38515162702E+02 -0.20249165267E+03  0.20615389183E+03  0.00000000000E+00 0. -1.
</event>
<event>
 7    1  0.2679104E-009  0.1151229E+03  0.7561462E-02  0.1251367E+00
          1   -1    0    0  501    0  0.00000000000E+00  0.00000000000E+00  0.23934709915E+03  0.23934709915E+03  0.00000000000E+00 0. -1.
         -1   -1    0    0    0  501 -0.00000000000E+00 -0.00000000000E+00 -0.71726203857E+02  0.71726203857E+02  0.00000000000E+00 0.  1.
         25    2    1    2    0    0  0.53346406680E+02  0.41064555720E+02  0.13400649125E+03  0.19528403492E+03  0.12508388289E+03 0.  0.
          5    1    3    3  502    0  0.28542384491E+01  0.78672946064E+02  0.70493344792E+02  0.10575614961E+03  0.41800000000E+01 0. -1.
         -5    1    3    3    0  502  0.50492168231E+02 -0.37608390344E+02  0.63513146456E+02  0.89527885319E+02  0.41800000000E+01 0. -1.
        -11    1    1    2    0    0  0.73124319332E+01 -0.24304641256E+02 -0.20628716601E+02  0.32706745420E+02  0.00000000000E+00 0.  1.
         11    1    1    2    0    0 -0.60658838613E+02 -0.16759914464E+02  0.54243120645E+02  0.83082522663E+02  0.00000000000E+00 0. -1.
</event>
<event>
 7    1  0.2679104E-009  0.1039308E+03  0.7561462E-02  0.1272241E+00
          4   -1    0    0  501    0  0.00000000000E+00  0.00000000000E+00  0.10206566784E+03  0.10206566784E+03  0.00000000000E+00 0. -1.
         -4   -1    0    0    0  501 -0.00000000000E+00 -0.00000000000E+00 -0.16282744559E+03  0.16282744559E+03  0.00000000000E+00 0.  1.
         25    2    1    2    0    0  0.26761718962E+02  0.65184859864E+02 -0.31334237747E+02  0.14695166208E+03  0.12509077094E+03 0.  0.
          5    1    3    3  502    0 -0.11757687607E+01  0.94594509534E+02  0.13302886777E+01  0.94703462102E+02  0.41800000000E+01 0.  1.
         -5    1    3    3    0  502  0.27937487723E+02 -0.29409649670E+02 -0.32664526425E+02  0.52248199974E+02  0.41800000000E+01 0.  1.
        -11    1    1    2    0    0 -0.26713264060E+02 -0.45926393779E+02 -0.61040370289E+02  0.80924402545E+02  0.00000000000E+00 0.  1.
         11    1    1    2    0    0 -0.48454901660E-01 -0.19258466085E+02  0.31612830291E+02  0.37017048813E+02  0.00000000000E+00 0. -1.
</event>
<event>
 7    1  0.2679104E-009  0.1025630E+03  0.7561462E-02  0.1274997E+00
         -3   -1    0    0    0  501 -0.00000000000E+00  0.00000000000E+00  0.38812308773E+03  0.38812308773E+03  0.00000000000E+00 0.  1.
          3   -1    0    0  501    0  0.00000000000E+00 -0.00000000000E+00 -0.33742543585E+02  0.33742543585E+02  0.00000000000E+00 0. -1.
         25    2    1    2    0    0 -0.29648239578E+02 -0.11933146476E+01  0.16096212755E+03  0.20600158214E+03  0.12508958082E+03 0.  0.
          5    1    3    3  502    0  0.36917078380E+01 -0.54219167669E+02  0.33655024718E+02  0.64058410363E+02  0.41800000000E+01 0.  1.
         -5    1    3    3    0  502 -0.33339947416E+02  0.53025853021E+02  0.12730710284E+03  0.14194317178E+03  0.41800000000E+01 0.  1.
        -11    1    1    2    0    0 -0.18499675846E+02  0.27374491455E+02  0.34536021008E+02  0.47794743810E+02  0.00000000000E+00 0. -1.
         11    1    1    2    0    0  0.48147915423E+02 -0.26181176807E+02  0.15888239558E+03  0.16806930536E+03  0.00000000000E+00 0.  1.
</event>
<event>
 7    1  0.2679104E-009  0.8235979E+02  0.7561462E-02  0.1322485E+00
         -1   -1    0    0    0  501 -0.00000000000E+00  0.00000000000E+00  0.12316008980E+03  0.12316008980E+03  0.00000000000E+00 0.  1.
          1   -1    0    0  501    0  0.00000000000E+00 -0.00000000000E+00 -0.11218374057E+03  0.11218374057E+03  0.00000000000E+00 0. -1.
         25    2    1    2    0    0  0.21877561281E+02  0.33834832113E+02 -0.12896395940E+02  0.13205103529E+03  0.12509090831E+03 0.  0.
          5    1    3    3  502    0 -0.22114334191E+02 -0.24415791945E+02 -0.41839423721E+02  0.53415208044E+02  0.41800000000E+01 0. -1.
         -5    1    3    3    0  502  0.43991895472E+02  0.58250624057E+02  0.28943027781E+02  0.78635827251E+02  0.41800000000E+01 0. -1.
        -11    1    1    2    0    0  0.47271175337E+01 -0.31319807478E+02 -0.29702551315E+02  0.43422546393E+02  0.00000000000E+00 0. -1.
         11    1    1    2    0    0 -0.26604678815E+02 -0.25150246353E+01  0.53575296485E+02  0.59870248682E+02  0.00000000000E+00 0.  1.
</event>
<event>
 7    1  0.2679104E-009  0.1508484E+03  0.7561462E-02  0.1199434E+00
         -1   -1    0    0    0  501 -0.00000000000E+00  0.00000000000E+00  0.79910533465E+02  0.79910533465E+02  0.00000000000E+00 0.  1.
          1   -1    0    0  501    0  0.00000000000E+00 -0.00000000000E+00 -0.71649177353E+03  0.71649177353E+03  0.00000000000E+00 0. -1.
         25    2    1    2    0    0  0.32374868199E+02  0.79608178651E+02 -0.62041518883E+03  0.63870875795E+03  0.12509307240E+03 0.  0.
          5    1    3    3  502    0 -0.40143990551E+02  0.11749235023E+01 -0.24754441620E+03  0.25081593014E+03  0.41800000000E+01 0.  1.
         -5    1    3    3    0  502  0.72518858750E+02  0.78433255149E+02 -0.37287077263E+03  0.38789282781E+03  0.41800000000E+01 0.  1.
        -11    1    1    2    0    0 -0.20828841649E+02 -0.11516388536E+03 -0.24074427958E+02  0.11948279884E+03  0.00000000000E+00 0.  1.
         11    1    1    2    0    0 -0.11546026550E+02  0.35555706712E+02  0.79083767172E+01  0.38210750204E+02  0.00000000000E+00 0. -1.
</event>
<event>
 7    1  0.2679104E-009  0.1550192E+03  0.7561462E-02  0.1194438E+00
          2   -1    0    0  501    0  0.00000000000E+00  0.00000000000E+00  0.95759258380E+03  0.95759258380E+03  0.00000000000E+00 0. -1.
         -2   -1    0    0    0  501 -0.00000000000E+00 -0.00000000000E+00 -0.35157169137E+02  0.35157169137E+02  0.00000000000E+00 0.  1.
         25    2    1    2    0    0  0.11648558177E+03 -0.88570199283E+02  0.43741176721E+03  0.47790188168E+03  0.12509030124E+03 0.  0.
          5    1    3    3  502    0  0.10768248671E+02 -0.36204059668E+02  0.27224704771E+03  0.27488655206E+03  0.41800000000E+01 0.  1.
         -5    1    3    3    0  502  0.10571733310E+03 -0.52366139615E+02  0.16516471949E+03  0.20301532962E+03  0.41800000000E+01 0.  1.
        -11    1    1    2    0    0 -0.11157821821E+03  0.63380655622E+02  0.46475721195E+03  0.48214735543E+03  0.00000000000E+00 0. -1.
         11    1    1    2    0    0 -0.49073635672E+01  0.25189543662E+02  0.20266435504E+02  0.32700515823E+02  0.00000000000E+00 0.  1.
</event>
<event>
 7    1  0.2679104E-009  0.1054245E+03  0.7561462E-02  0.1269285E+00
          1   -1    0    0  501    0  0.00000000000E+00  0.00000000000E+00  0.97037083395E+02  0.97037083395E+02  0.00000000000E+00 0. -1.
         -1   -1    0    0    0  501 -0.00000000000E+00 -0.00000000000E+00 -0.14866541459E+03  0.14866541459E+03  0.00000000000E+00 0.  1.
         25    2    1    2    0    0 -0.38339187512E+02  0.28022591693E+02 -0.39641400568E+02  0.13954871492E+03  0.12508894536E+03 0.  0.
          5    1    3    3  502    0 -0.75088569540E+02  0.19067338471E+02 -0.58413274211E+02  0.97115599550E+02  0.41800000000E+01 0. -1.
         -5    1    3    3    0  502  0.36749382028E+02  0.89552532222E+01  0.18771873643E+02  0.42433115368E+02  0.41800000000E+01 0. -1.
        -11    1    1    2    0    0  0.10383727335E+02  0.29488978940E+02 -0.26032918892E+02  0.40683344729E+02  0.00000000000E+00 0.  1.
         11    1    1    2    0    0  0.27955460176E+02 -0.57511570634E+02  0.14045988261E+02  0.65470438341E+02  0.00000000000E+00 0. -1.
</event>
<event>
 7    1  0.2679104E-009  0.9588691E+02  0.7561462E-02  0.1289191E+00
         -1   -1    0    0    0  501 -0.00000000000E+00  0.00000000000E+00  0.28594281553E+02  0.28594281553E+02  0.00000000000E+00 0.  1.
          1   -1    0    0  501    0  0.00000000000E+00 -0.00000000000E+00 -0.61605549463E+03  0.61605549463E+03  0.00000000000E+00 0. -1.
         25    2    1    2    0    0  0.70935880734E+01 -0.67670719530E+02 -0.41653795099E+03  0.44020534916E+03  0.12508892653E+03 0.  0.
          5    1    3    3  502    0  0.21806106463E+02 -0.64386018669E+02 -0.41888595575E+03  0.42438659499E+03  0.41800000000E+01 0. -1.
         -5    1    3    3    0  502 -0.14712518390E+02 -0.32847008603E+01  0.23480047651E+01  0.15818754170E+02  0.41800000000E+01 0. -1.
        -11    1    1    2    0    0  0.71508750497E+01  0.85164314804E+02 -0.10880716515E+03  0.13835857298E+03  0.00000000000E+00 0.  1.
         11    1    1    2    0    0 -0.14244463123E+02 -0.17493595275E+02 -0.62116096949E+02  0.66085854050E+02  0.00000000000E+00 0. -1.
</event>
<event>
 7    1  0.2679104E-009  0.1766160E+03  0.7561462E-02  0.1171119E+00
          2   -1    0    0  501    0  0.00000000000E+00  0.00000000000E+00  0.29318608960E+03  0.29318608960E+03  0.00000000000E+00 0. -1.
         -2   -1    0    0    0  501 -0.00000000000E+00 -0.00000000000E+00 -0.13596164143E+03  0.13596164143E+03  0.00000000000E+00 0.  1.
         25    2    1    2    0    0 -0.27003452772E+01  0.14716540447E+03  0.16621703175E+03  0.25483515747E+03  0.12509159725E+03 0.  0.
          5    1    3    3  502    0 -0.40522034296E+02  0.11157450254E+01  0.23107753814E+02  0.46847847728E+02  0.41800000000E+01 0.  1.
         -5    1    3    3    0  502  0.37821689019E+02  0.14604965944E+03  0.14310927793E+03  0.20798730974E+03  0.41800000000E+01 0.  1.
        -11    1    1    2    0    0  0.14967391819E+02 -0.11357879957E+01 -0.22608163067E+02  0.27137462473E+02  0.00000000000E+00 0.  1.
         11    1    1    2    0    0 -0.12267046542E+02 -0.14602961647E+03  0.13615579493E+02  0.14717511108E+03  0.00000000000E+00 0. -1.
</event>
<event>
 7    1  0.2679104E-009  0.1168952E+03  0.7561462E-02  0.1248309E+00
         -3   -1    0    0    0  501 -0.00000000000E+00  0.00000000000E+00  0.13638366404E+03  0.13638366404E+03  0.00000000000E+00 0.  1.
          3   -1    0    0  501    0  0.00000000000E+00 -0.00000000000E+00 -0.18143958016E+03  0.18143958016E+03  0.00000000000E+00 0. -1.
         25    2    1    2    0    0 -0.10249058224E+03  0.35431441060E+02 -0.73598731268E+02  0.18117486276E+03  0.12509137136E+03 0.  0.
          5    1    3    3  502    0 -0.50004012032E+02  0.19238256570E+01 -0.10116911314E+03  0.11294584622E+03  0.41800000000E+01 0.  1.
         -5    1    3    3    0  502 -0.52486570207E+02  0.33507615403E+02  0.27570381870E+02  0.68229016544E+02  0.41800000000E+01 0.  1.
        -11    1    1    2    0    0  0.26953629149E+02 -0.36800281587E+02  0.39459646065E+02  0.60314364100E+02  0.00000000000E+00 0.  1.
         11    1    1    2    0    0  0.75536953090E+02  0.13688405271E+01 -0.10916830917E+02  0.76334017343E+02  0.00000000000E+00 0. -1.
</event>
<event>
 7    1  0.2679104E-009  0.1680730E+03  0.7561462E-02  0.1179872E+00
         -2   -1    0    0    0  501 -0.00000000000E+00  0.00000000000E+00  0.22010047003E+03  0.22010047003E+03  0.00000000000E+00 0. -1.
          2   -1    0    0  501    0  0.00000000000E+00 -0.00000000000E+00 -0.13505141165E+03  0.13505141165E+03  0.00000000000E+00 0.  1.
         25    2    1    2    0    0 -0.74452788718E+02 -0.10980243151E+03  0.59758496526E+02  0.19188162696E+03  0.12509072365E+03 0.  0.
          5    1    3    3  502    0 -0.69199334519E+02 -0.13393589844E+03  0.31407776360E+02  0.15404964656E+03  0.41800000000E+01 0. -1.
         -5    1    3    3    0  502 -0.52534541994E+01  0.24133466931E+02  0.28350720166E+02  0.37831980401E+02  0.41800000000E+01 0. -1.
        -11    1    1    2    0    0 -0.14546700151E+02  0.52388297772E+02  0.17305095486E+02  0.57057922837E+02  0.00000000000E+00 0.  1.
         11    1    1    2    0    0  0.88999488869E+02  0.57414133737E+02  0.79854663626E+01  0.10621233189E+03  0.00000000000E+00 0. -1.
</event>
<event>
 7    1  0.2679104E-009  0.1527786E+03  0.7561462E-02  0.1197100E+00
          2   -1    0    0  501    0  0.00000000000E+00  0.00000000000E+00  0.15105479719E+04  0.15105479719E+04  0.00000000000E+00 0.  1.
         -2   -1    0    0    0  501 -0.00000000000E+00 -0.00000000000E+00 -0.45081344590E+02  0.45081344590E+02  0.00000000000E+00 0. -1.
         25    2    1    2    0    0 -0.70153247392E+02 -0.13137889637E+03  0.13003437772E+04  0.13148091512E+04  0.12508905906E+03 0.  0.
          5    1    3    3  502    0 -0.49973351725E+02 -0.61397978740E+02  0.25773799369E+03  0.26965421092E+03  0.41800000000E+01 0.  1.
         -5    1    3    3    0  502 -0.20179895667E+02 -0.69980917634E+02  0.10426057835E+04  0.10451549403E+04  0.41800000000E+01 0.  1.
        -11    1    1    2    0    0  0.49663379180E+02  0.54352784814E+02  0.21731431565E+02  0.76765432106E+02  0.00000000000E+00 0. -1.
         11    1    1    2    0    0  0.20489868212E+02  0.77026111560E+02  0.14339141854E+03  0.16405473316E+03  0.00000000000E+00 0.  1.
</event>
<event>
 7    1  0.2679104E-009  0.1038043E+03  0.7561462E-02  0.1272493E+00
         -2   -1    0    0    0  501 -0.00000000000E+00  0.00000000000E+00  0.34008425411E+02  0.34008425411E+02  0.00000000000E+00 0.  1.
          2   -1    0    0  501    0  0.00000000000E+00 -0.00000000000E+00 -0.61404770915E+03  0.61404770915E+03  0.00000000000E+00 0. -1.
         25    2    1    2    0    0  0.44138542359E+02  0.31609297221E+02 -0.49046659347E+03  0.50906903073E+03  0.12508573117E+03 0.  0.
          5    1    3    3  502    0 -0.32347146183E+02  0.20843465819E+02 -0.31421693229E+03  0.31659207329E+03  0.41800000000E+01 0. -1.
         -5    1    3    3    0  502  0.76485688543E+02  0.10765831402E+02 -0.17624966118E+03  0.19247695744E+03  0.41800000000E+01 0. -1.
        -11    1    1    2    0    0 -0.27063825645E+02  0.22257352258E+02 -0.24275838318E+01  0.35124543433E+02  0.00000000000E+00 0.  1.
         11    1    1    2    0    0 -0.17074716714E+02 -0.53866649479E+02 -0.87145106438E+02  0.10386256040E+03  0.00000000000E+00 0. -1.
</event>
<event>
 7    1  0.2679104E-009  0.1181933E+03  0.7561462E-02  0.1246108E+00
          2   -1    0    0  501    0  0.00000000000E+00  0.00000000000E+00  0.34263835345E+03  0.34263835345E+03  0.00000000000E+00 0. -1.
         -2   -1    0    0    0  501 -0.00000000000E+00 -0.00000000000E+00 -0.50282567959E+02  0.50282567959E+02  0.00000000000E+00 0.  1.
         25    2    1    2    0    0  0.65995838803E+02 -0.16355793010E+02  0.20161796714E+03  0.24681912500E+03  0.12508762164E+03 0.  0.
          5    1    3    3  502    0 -0.21657783953E+02 -0.39546250134E+02  0.35565794922E+02  0.57579194800E+02  0.41800000000E+01 0.  1.
         -5    1    3    3    0  502  0.87653622755E+02  0.23190457124E+02  0.16605217221E+03  0.18923993020E+03  0.41800000000E+01 0.  1.
        -11    1    1    2    0    0  0.50780062052E+01  0.27878500872E+02 -0.23304987418E+01  0.28432871510E+02  0.00000000000E+00 0.  1.
         11    1    1    2    0    0 -0.71073845008E+02 -0.11522707862E+02  0.93068317097E+02  0.11766892490E+03  0.00000000000E+00 0. -1.
</event>
<event>
 7    1  0.2679104E-009  0.5880568E+02  0.7561462E-02  0.1402913E+00
          2   -1    0    0  501    0  0.00000000000E+00  0.00000000000E+00  0.78796050465E+02  0.78796050465E+02  0.00000000000E+00 0. -1.
         -2   -1    0    0    0  501 -0.00000000000E+00 -0.00000000000E+00 -0.17183756709E+03  0.17183756709E+03  0.00000000000E+00 0.  1.
         25    2    1    2    0    0 -0.14075088096E+02 -0.48354687123E+01 -0.11189839397E+03  0.16849533752E+03  0.12509171967E+03 0.  0.
          5    1    3    3  502    0 -0.42828112280E+02 -0.13770332897E+02  0.70466408393E+01  0.45727418653E+02  0.41800000000E+01 0.  1.
         -5    1    3    3    0  502  0.28753024184E+02  0.89348641846E+01 -0.11894503481E+03  0.12276791887E+03  0.41800000000E+01 0.  1.
        -11    1    1    2    0    0  0.15433020474E+00 -0.16530532733E+02 -0.25841763998E+02  0.30677012514E+02  0.00000000000E+00 0.  1.
         11    1    1    2    0    0  0.13920757891E+02  0.21366001445E+02  0.44698641337E+02  0.51461267526E+02  0.00000000000E+00 0. -1.
</event>
<event>
 7    1  0.2679104E-009  0.6676974E+02  0.7561462E-02  0.1371435E+00
          1   -1    0    0  501    0  0.00000000000E+00  0.00000000000E+00  0.19284553514E+03  0.19284553514E+03  0.00000000000E+00 0. -1.
         -1   -1    0    0    0  501 -0.00000000000E+00 -0.00000000000E+00 -0.83266152515E+02  0.83266152515E+02  0.00000000000E+00 0.  1.
         25    2    1    2    0    0  0.36049811159E+02  0.36513984990E+02  0.10762610697E+03  0.17280199603E+03  0.12507713999E+03 0.  0.
          5    1    3    3  502    0  0.81094053785E+01  0.48837901411E+02  0.12701655778E+03  0.13638761462E+03  0.41800000000E+01 0. -1.
         -5    1    3    3    0  502  0.27940405780E+02 -0.12323916421E+02 -0.19390450814E+02  0.36414381415E+02  0.41800000000E+01 0. -1.
        -11    1    1    2    0    0 -0.16750155881E+02 -0.26346512293E+02 -0.43119703676E+02  0.53235470104E+02  0.00000000000E+00 0.  1.
         11    1    1    2    0    0 -0.19299655278E+02 -0.10167472697E+02  0.45072979334E+02  0.50074221521E+02  0.00000000000E+00 0. -1.
</event>
<event>
 7    1  0.2745900E-009  0.2800625E+03  0.7561462E-02  0.1095655E+00
         -2   -1    0    0    0  501 -0.00000000000E+00  0.00000000000E+00  0.34834673823E+02  0.34834673823E+02  0.00000000000E+00 0.  1.
          2   -1    0    0  501    0  0.00000000000E+00 -0.00000000000E+00 -0.24354577814E+04  0.24354577814E+04  0.00000000000E+00 0. -1.
         25    2    1    2    0    0 -0.24475556512E+03 -0.82709237526E+02 -0.15573425905E+04  0.15835751156E+04  0.12509235722E+03 0.  0.
          5    1    3    3  502    0 -0.21894964338E+03 -0.21308390163E+02 -0.11642289649E+04  0.11848373512E+04  0.41800000000E+01 0.  1.
         -5    1    3    3    0  502 -0.25805921737E+02 -0.61400847363E+02 -0.39311362567E+03  0.39873776438E+03  0.41800000000E+01 0.  1.
        -11    1    1    2    0    0  0.12894969072E+03  0.90125993380E+02 -0.51757908093E+03  0.54096101749E+03  0.00000000000E+00 0.  1.
         11    1    1    2    0    0  0.11580587440E+03 -0.74167558542E+01 -0.32570143611E+03  0.34575632214E+03  0.00000000000E+00 0. -1.
</event>
<event>
 7    1  0.2679104E-009  0.2662940E+03  0.7561462E-02  0.1103420E+00
          2   -1    0    0  501    0  0.00000000000E+00  0.00000000000E+00  0.48951604887E+02  0.48951604887E+02  0.00000000000E+00 0.  1.
         -2   -1    0    0    0  501 -0.00000000000E+00 -0.00000000000E+00 -0.17100219552E+04  0.17100219552E+04  0.00000000000E+00 0. -1.
         25    2    1    2    0    0  0.24969119370E+03  0.12754364608E+02 -0.57082834418E+03  0.63561115266E+03  0.12509265698E+03 0.  0.
          5    1    3    3  502    0  0.48788643207E+02 -0.28538215786E+02 -0.49052706050E+02  0.74955999340E+02  0.41800000000E+01 0.  1.
         -5    1    3    3    0  502  0.20090255050E+03  0.41292580394E+02 -0.52177563813E+03  0.56065515332E+03  0.41800000000E+01 0.  1.
        -11    1    1    2    0    0 -0.10520323768E+03 -0.57004569157E+02 -0.48368757965E+03  0.49826791672E+03  0.00000000000E+00 0.  1.
         11    1    1    2    0    0 -0.14448795602E+03  0.44250204549E+02 -0.60655442652E+03  0.62509449075E+03  0.00000000000E+00 0. -1.
</event>
<event>
 7    1  0.2679104E-009  0.1190135E+03  0.7561462E-02  0.1244733E+00
          2   -1    0    0  501    0  0.00000000000E+00  0.00000000000E+00  0.33814379585E+03  0.33814379585E+03  0.00000000000E+00 0. -1.
         -2   -1    0    0    0  501 -0.00000000000E+00 -0.00000000000E+00 -0.49457815412E+02  0.49457815412E+02  0.00000000000E+00 0.  1.
         25    2    1    2    0    0  0.10919027503E+02 -0.46590148030E+02  0.23280610601E+03  0.26857944689E+03  0.12508544775E+03 0.  0.
          5    1    3    3  502    0 -0.52517410643E+02 -0.45158879045E+02  0.10548273849E+03  0.12625958695E+03  0.41800000000E+01 0.  1.
         -5    1    3    3    0  502  0.63436438146E+02 -0.14312689850E+01  0.12732336752E+03  0.14231985994E+03  0.41800000000E+01 0.  1.
        -11    1    1    2    0    0 -0.46231005823E+02 -0.44379882183E+00  0.26258475765E+02  0.53169638012E+02  0.00000000000E+00 0.  1.
         11    1    1    2    0    0  0.35311978320E+02  0.47033946852E+02  0.29621398655E+02  0.65852526358E+02  0.00000000000E+00 0. -1.
</event>
<event>
 7    1  0.2679104E-009  0.3373376E+02  0.7561462E-02  0.1560141E+00
         -2   -1    0    0    0  501 -0.00000000000E+00  0.00000000000E+00  0.12244419318E+03  0.12244419318E+03  0.00000000000E+00 0.  1.
          2   -1    0    0  501    0  0.00000000000E+00 -0.00000000000E+00 -0.98766154433E+02  0.98766154433E+02  0.00000000000E+00 0. -1.
         25    2    1    2    0    0  0.87316769632E+01  0.96894828643E+01  0.28454406705E+02  0.12894747786E+03  0.12509064923E+03 0.  0.
          5    1    3    3  502    0  0.10269654602E+01  0.13865986148E+02  0.77551819951E+02  0.78899159739E+02  0.41800000000E+01 0. -1.
         -5    1    3    3    0  502  0.77047115030E+01 -0.41765032835E+01 -0.49097413246E+02  0.50048318118E+02  0.41800000000E+01 0. -1.
        -11    1    1    2    0    0 -0.11607166295E+02 -0.25051741502E+02 -0.42924375042E+02  0.51037417983E+02  0.00000000000E+00 0. -1.
         11    1    1    2    0    0  0.28754893321E+01  0.15362258637E+02  0.38148007082E+02  0.41225451770E+02  0.00000000000E+00 0.  1.
</event>
<event>
 7    1  0.2679104E-009  0.6533230E+02  0.7561462E-02  0.1376726E+00
         -3   -1    0    0    0  501 -0.00000000000E+00  0.00000000000E+00  0.14573447448E+03  0.14573447448E+03  0.00000000000E+00 0.  1.
          3   -1    0    0  501    0  0.00000000000E+00 -0.00000000000E+00 -0.86326279657E+02  0.86326279657E+02  0.00000000000E+00 0. -1.
         25    2    1    2    0    0 -0.30716396474E+01 -0.84306257958E+01  0.78408004119E+01  0.12565915451E+03  0.12509290363E+03 0.  0.
          5    1    3    3  502    0  0.15384252765E+02  0.29102250185E+02  0.53904980443E+02  0.63299569632E+02  0.41800000000E+01 0. -1.
         -5    1    3    3    0  502 -0.18455892412E+02 -0.37532875981E+02 -0.46064180031E+02  0.62359584877E+02  0.41800000000E+01 0. -1.
        -11    1    1    2    0    0 -0.25862632104E+02  0.44197637581E+01  0.67999653226E+02  0.72885958112E+02  0.00000000000E+00 0.  1.
         11    1    1    2    0    0  0.28934271751E+02  0.40108620377E+01 -0.16432258819E+02  0.33515641512E+02  0.00000000000E+00 0. -1.
</event>
<event>
 7    1  0.2901273E-009  0.1347258E+03  0.7561462E-02  0.1220607E+00
         -1   -1    0    0    0  501 -0.00000000000E+00  0.00000000000E+00  0.62116718685E+02  0.62116718685E+02  0.00000000000E+00 0.  1.
          1   -1    0    0  501    0  0.00000000000E+00 -0.00000000000E+00 -0.38472044592E+03  0.38472044592E+03  0.00000000000E+00 0. -1.
         25    2    1    2    0    0 -0.96931090409E+02 -0.13034737862E+01 -0.24828424042E+03  0.29442494429E+03  0.12507457154E+03 0.  0.
          5    1    3    3  502    0 -0.11800030289E+03  0.60247920509E+01 -0.13749932684E+03  0.18133920393E+03  0.41800000000E+01 0. -1.
         -5    1    3    3    0  502  0.21069212479E+02 -0.73282658371E+01 -0.11078491358E+03  0.11308574036E+03  0.41800000000E+01 0. -1.
        -11    1    1    2    0    0  0.12859042349E+02  0.35507726706E+02 -0.47679289543E+01  0.38064245329E+02  0.00000000000E+00 0.  1.
         11    1    1    2    0    0  0.84072048061E+02 -0.34204252920E+02 -0.69551557856E+02  0.11434797498E+03  0.00000000000E+00 0. -1.
</event>
<event>
 7    1  0.2679104E-009  0.9709265E+02  0.7561462E-02  0.1286531E+00
          4   -1    0    0  501    0  0.00000000000E+00  0.00000000000E+00  0.30706807505E+03  0.30706807505E+03  0.00000000000E+00 0.  1.
         -4   -1    0    0    0  501 -0.00000000000E+00 -0.00000000000E+00 -0.39461492378E+02  0.39461492378E+02  0.00000000000E+00 0. -1.
         25    2    1    2    0    0  0.12074789773E+02 -0.96903659420E+01  0.18164234949E+03  0.22109093499E+03  0.12509018614E+03 0.  0.
          5    1    3    3  502    0  0.34603488622E+02  0.49888318171E+02  0.10485378339E+03  0.12123544864E+03  0.41800000000E+01 0.  1.
         -5    1    3    3    0  502 -0.22528698850E+02 -0.59578684113E+02  0.76788566093E+02  0.99855486355E+02  0.41800000000E+01 0.  1.
        -11    1    1    2    0    0  0.21213361364E+02  0.25056735198E+02  0.82282693144E+02  0.88590565356E+02  0.00000000000E+00 0.  1.
         11    1    1    2    0    0 -0.33288151137E+02 -0.15366369256E+02  0.36815400386E+01  0.36848067077E+02  0.00000000000E+00 0. -1.
</event>
<event>
 7    1  0.2679104E-009  0.2795438E+03  0.7561462E-02  0.1095938E+00
          1   -1    0    0  501    0  0.00000000000E+00  0.00000000000E+00  0.43046249823E+03  0.43046249823E+03  0.00000000000E+00 0. -1.
         -1   -1    0    0    0  501 -0.00000000000E+00 -0.00000000000E+00 -0.20248557106E+03  0.20248557106E+03  0.00000000000E+00 0.  1.
         25    2    1    2    0    0 -0.20710462908E+03  0.17640294147E+03  0.78392487515E+02  0.30952086336E+03  0.12508979821E+03 0.  0.
          5    1    3    3  502    0 -0.69846885145E+02  0.11493908861E+03  0.84593790242E+02  0.15894389955E+03  0.41800000000E+01 0.  1.
         -5    1    3    3    0  502 -0.13725774393E+03  0.61463852853E+02 -0.62013027269E+01  0.15057696382E+03  0.41800000000E+01 0.  1.
        -11    1    1    2    0    0  0.66066582115E+02 -0.36772962867E+02  0.87139442768E+02  0.11537038856E+03  0.00000000000E+00 0. -1.
         11    1    1    2    0    0  0.14103804696E+03 -0.13962997860E+03  0.62444996892E+02  0.20805681736E+03  0.00000000000E+00 0.  1.
</event>
<event>
 7    1  0.2679104E-009  0.1128385E+03  0.7561462E-02  0.1255402E+00
         -1   -1    0    0    0  501 -0.00000000000E+00  0.00000000000E+00  0.22518102883E+03  0.22518102883E+03  0.00000000000E+00 0.  1.
          1   -1    0    0  501    0  0.00000000000E+00 -0.00000000000E+00 -0.59122467240E+02  0.59122467240E+02  0.00000000000E+00 0. -1.
         25    2    1    2    0    0  0.16684095202E+00 -0.39202301012E+02  0.85405632119E+02  0.15645439328E+03  0.12508799677E+03 0.  0.
          5    1    3    3  502    0 -0.15955503949E+02  0.42040047188E+02  0.46601243341E+02  0.64892926847E+02  0.41800000000E+01 0. -1.
         -5    1    3    3    0  502  0.16122344901E+02 -0.81242348200E+02  0.38804388779E+02  0.91561466429E+02  0.41800000000E+01 0. -1.
        -11    1    1    2    0    0 -0.40830598700E+02  0.39656193107E+02  0.58155717560E+02  0.81374682346E+02  0.00000000000E+00 0. -1.
         11    1    1    2    0    0  0.40663757748E+02 -0.45389209508E+00  0.22497211911E+02  0.46474420448E+02  0.00000000000E+00 0.  1.
</event>
<event>
 7    1  0.2679104E-009  0.1545692E+03  0.7561462E-02  0.1194968E+00
         -1   -1    0    0    0  501 -0.00000000000E+00  0.00000000000E+00  0.11075065291E+03  0.11075065291E+03  0.00000000000E+00 0.  1.
          1   -1    0    0  501    0  0.00000000000E+00 -0.00000000000E+00 -0.39480633947E+03  0.39480633947E+03  0.00000000000E+00 0. -1.
         25    2    1    2    0    0 -0.10380546981E+03  0.10314908690E+03 -0.32153832021E+02  0.19518291110E+03  0.12508872922E+03 0.  0.
          5    1    3    3  502    0 -0.74832599074E+02  0.84709352065E+02  0.36044703247E+02  0.11871093144E+03  0.41800000000E+01 0. -1.
         -5    1    3    3    0  502 -0.28972870734E+02  0.18439734839E+02 -0.68198535268E+02  0.76471979654E+02  0.41800000000E+01 0. -1.
        -11    1    1    2    0    0  0.24205176065E+02 -0.71996152564E+02 -0.49498761350E+02  0.90661259133E+02  0.00000000000E+00 0.  1.
         11    1    1    2    0    0  0.79600293743E+02 -0.31152934340E+02 -0.20240309320E+03  0.21971282215E+03  0.00000000000E+00 0. -1.
</event>
<event>
 7    1  0.3487297E-009  0.1255934E+03  0.7561462E-02  0.1234145E+00
         -2   -1    0    0    0  501 -0.00000000000E+00  0.00000000000E+00  0.21348805234E+02  0.21348805234E+02  0.00000000000E+00 0.  1.
          2   -1    0    0  501    0  0.00000000000E+00 -0.00000000000E+00 -0.12566503506E+04  0.12566503506E+04  0.00000000000E+00 0. -1.
         25    2    1    2    0    0  0.62913977511E+02  0.73873376635E+02 -0.94887594804E+03  0.96199203078E+03  0.12509059988E+03 0.  0.
          5    1    3    3  502    0 -0.49388926786E+01 -0.24838398497E+02 -0.36720513630E+03  0.36810110463E+03  0.41800000000E+01 0.  1.
         -5    1    3    3    0  502  0.67852870189E+02  0.98711775133E+02 -0.58167081173E+03  0.59389092615E+03  0.41800000000E+01 0.  1.
        -11    1    1    2    0    0 -0.42906278125E+02 -0.74132633977E+02 -0.28303602992E+03  0.29571268210E+03  0.00000000000E+00 0. -1.
         11    1    1    2    0    0 -0.20007699386E+02  0.25925734110E+00 -0.33895674551E+01  0.20294442998E+02  0.00000000000E+00 0.  1.
</event>
<event>
 7    1  0.2679104E-009  0.8336610E+02  0.7561462E-02  0.1319762E+00
          2   -1    0    0  501    0  0.00000000000E+00  0.00000000000E+00  0.13083856898E+04  0.13083856898E+04  0.00000000000E+00 0.  1.
         -2   -1    0    0    0  501 -0.00000000000E+00 -0.00000000000E+00 -0.11244318134E+02  0.11244318134E+02  0.00000000000E+00 0. -1.
         25    2    1    2    0    0 -0.12278657071E+02 -0.35596754719E+01  0.10703974337E+04  0.10777577463E+04  0.12509059444E+03 0.  0.
          5    1    3    3  502    0 -0.42770277353E+02 -0.37174999530E+02  0.88567451550E+03  0.88749540677E+03  0.41800000000E+01 0. -1.
         -5    1    3    3    0  502  0.30491620281E+02  0.33615324058E+02  0.18472291821E+03  0.19026233949E+03  0.41800000000E+01 0. -1.
        -11    1    1    2    0    0 -0.19728656637E+02 -0.17208327942E+02  0.23825090953E+02  0.35397477343E+02  0.00000000000E+00 0. -1.
         11    1    1    2    0    0  0.32007313709E+02  0.20768003414E+02  0.20291884704E+03  0.20647478437E+03  0.00000000000E+00 0.  1.
</event>
<event>
 7    1  0.2679104E-009  0.1094559E+03  0.7561462E-02  0.1261581E+00
          2   -1    0    0  501    0  0.00000000000E+00  0.00000000000E+00  0.17695779377E+03  0.17695779377E+03  0.00000000000E+00 0.  1.
         -2   -1    0    0    0  501 -0.00000000000E+00 -0.00000000000E+00 -0.10083456865E+03  0.10083456865E+03  0.00000000000E+00 0. -1.
         25    2    1    2    0    0  0.57377503617E+02  0.12043795648E+02 -0.10182387637E+02  0.13852242407E+03  0.12509016755E+03 0.  0.
          5    1    3    3  502    0 -0.21187153485E+02  0.46242006064E+02 -0.13083320718E+02  0.52686471495E+02  0.41800000000E+01 0.  1.
         -5    1    3    3    0  502  0.78564657101E+02 -0.34198210417E+02  0.29009330811E+01  0.85835952572E+02  0.41800000000E+01 0.  1.
        -11    1    1    2    0    0 -0.68669383846E+02 -0.51578802163E+01  0.99226124117E+02  0.12078042769E+03  0.00000000000E+00 0.  1.
         11    1    1    2    0    0  0.11291880229E+02 -0.68859154313E+01 -0.12920511366E+02  0.18489510659E+02  0.00000000000E+00 0. -1.
</event>
<event>
 7    1  0.2679104E-009  0.1355504E+03  0.7561462E-02  0.1219445E+00
         -1   -1    0    0    0  501 -0.00000000000E+00  0.00000000000E+00  0.84181962406E+02  0.84181962406E+02  0.00000000000E+00 0. -1.
          1   -1    0    0  501    0  0.00000000000E+00 -0.00000000000E+00 -0.25601917243E+03  0.25601917243E+03  0.00000000000E+00 0.  1.
         25    2    1    2    0    0 -0.74940254419E+02  0.68661667100E+02 -0.85468509436E+02  0.18243688016E+03  0.12509149801E+03 0.  0.
          5    1    3    3  502    0 -0.41996856529E+02 -0.19361624745E+02 -0.74411268013E+02  0.87710419440E+02  0.41800000000E+01 0.  1.
         -5    1    3    3    0  502 -0.32943397890E+02  0.88023291845E+02 -0.11057241423E+02  0.94726460715E+02  0.41800000000E+01 0.  1.
        -11    1    1    2    0    0  0.75307134071E+02 -0.14827525247E+02 -0.62019430335E+02  0.98678415502E+02  0.00000000000E+00 0. -1.
         11    1    1    2    0    0 -0.36687965251E+00 -0.53834141853E+02 -0.24349270258E+02  0.59085839182E+02  0.00000000000E+00 0.  1.
</event>
<event>
 7    1  0.2679104E-009  0.9927154E+02  0.7561462E-02  0.1281835E+00
         -2   -1    0    0    0  501 -0.00000000000E+00  0.00000000000E+00  0.11750348150E+03  0.11750348150E+03  0.00000000000E+00 0.  1.
          2   -1    0    0  501    0  0.00000000000E+00 -0.00000000000E+00 -0.15257542910E+03  0.15257542910E+03  0.00000000000E+00 0. -1.
         25    2    1    2    0    0 -0.51388168061E+02 -0.44710706841E+02  0.16507872860E+02  0.14338661035E+03  0.12508964400E+03 0.  0.
          5    1    3    3  502    0 -0.70539559037E+02 -0.21716241253E+02 -0.36444181001E+02  0.82420114366E+02  0.41800000000E+01 0.  1.
         -5    1    3    3    0  502  0.19151390976E+02 -0.22994465589E+02  0.52952053861E+02  0.60966495980E+02  0.41800000000E+01 0.  1.
        -11    1    1    2    0    0  0.12481697490E+02 -0.17218068997E+02  0.16389358325E+02  0.26848942968E+02  0.00000000000E+00 0.  1.
         11    1    1    2    0    0  0.38906470571E+02  0.61928775838E+02 -0.67969178780E+02  0.99843357281E+02  0.00000000000E+00 0. -1.
</event>
<event>
 7    1  0.2679104E-009  0.8076384E+02  0.7561462E-02  0.1326898E+00
         -1   -1    0    0    0  501 -0.00000000000E+00  0.00000000000E+00  0.11273300651E+03  0.11273300651E+03  0.00000000000E+00 0.  1.
          1   -1    0    0  501    0  0.00000000000E+00 -0.00000000000E+00 -0.12291303354E+03  0.12291303354E+03  0.00000000000E+00 0. -1.
         25    2    1    2    0    0  0.41379631428E+01 -0.12218727760E+02 -0.50694665664E+02  0.13558732331E+03  0.12509017974E+03 0.  0.
          5    1    3    3  502    0  0.21974395731E+02  0.53190994284E+02 -0.20289371078E+02  0.61166060192E+02  0.41800000000E+01 0.  1.
         -5    1    3    3    0  502 -0.17836432588E+02 -0.65409722044E+02 -0.30405294586E+02  0.74421263118E+02  0.41800000000E+01 0.  1.
        -11    1    1    2    0    0  0.18509405294E+01  0.23261895481E+02  0.66890422353E+02  0.70843986088E+02  0.00000000000E+00 0.  1.
         11    1    1    2    0    0 -0.59889036722E+01 -0.11043167721E+02 -0.26375783718E+02  0.29214730655E+02  0.00000000000E+00 0. -1.
</event>
<event>
 7    1  0.2679104E-009  0.9339096E+02  0.7561462E-02  0.1294842E+00
          1   -1    0    0  501    0  0.00000000000E+00  0.00000000000E+00  0.25179352387E+02  0.25179352387E+02  0.00000000000E+00 0. -1.
         -1   -1    0    0    0  501 -0.00000000000E+00 -0.00000000000E+00 -0.60760036418E+03  0.60760036418E+03  0.00000000000E+00 0.  1.
         25    2    1    2    0    0  0.35963180787E+02 -0.11600077065E+02 -0.45087078496E+03  0.46942532655E+03  0.12509100814E+03 0.  0.
          5    1    3    3  502    0 -0.34806373026E+02  0.30747607220E+02 -0.19781831894E+03  0.20323990420E+03  0.41800000000E+01 0. -1.
         -5    1    3    3    0  502  0.70769553813E+02 -0.42347684285E+02 -0.25305246602E+03  0.26618542235E+03  0.41800000000E+01 0. -1.
        -11    1    1    2    0    0 -0.96042230867E+01 -0.16471174716E+02  0.64143512075E+01  0.20116774071E+02  0.00000000000E+00 0. -1.
         11    1    1    2    0    0 -0.26358957700E+02  0.28071251781E+02 -0.13796457804E+03  0.14323761594E+03  0.00000000000E+00 0.  1.
</event>
<event>
 7    1  0.2679104E-009  0.1173607E+03  0.7561462E-02  0.1247516E+00
          1   -1    0    0  501    0  0.00000000000E+00  0.00000000000E+00  0.35085540882E+03  0.35085540882E+03  0.00000000000E+00 0. -1.
         -1   -1    0    0    0  501 -0.00000000000E+00 -0.00000000000E+00 -0.58240769065E+02  0.58240769065E+02  0.00000000000E+00 0.  1.
         25    2    1    2    0    0 -0.11551887488E+02 -0.72083498683E+02  0.25065154571E+03  0.28948074148E+03  0.12507368002E+03 0.  0.
          5    1    3    3  502    0  0.23244010133E+02 -0.93447267818E+02  0.12859046280E+03  0.16070362594E+03  0.41800000000E+01 0.  1.
         -5    1    3    3    0  502 -0.34795897621E+02  0.21363769135E+02  0.12206108291E+03  0.12877711553E+03  0.41800000000E+01 0.  1.
        -11    1    1    2    0    0  0.62757970112E+01  0.84013187939E+02  0.55445717594E+02  0.10085548560E+03  0.00000000000E+00 0. -1.
         11    1    1    2    0    0  0.52760904763E+01 -0.11929689256E+02 -0.13482623551E+02  0.18759950807E+02  0.00000000000E+00 0.  1.
</event>
<event>
 7    1  0.2679104E-009  0.8688523E+02  0.7561462E-02  0.1310575E+00
         -3   -1    0    0    0  501 -0.00000000000E+00  0.00000000000E+00  0.39362955154E+02  0.39362955154E+02  0.00000000000E+00 0.  1.
          3   -1    0    0  501    0  0.00000000000E+00 -0.00000000000E+00 -0.34165653675E+03  0.34165653675E+03  0.00000000000E+00 0. -1.
         25    2    1    2    0    0  0.10928757184E+02  0.20151141636E+02 -0.23315455006E+03  0.26557625622E+03  0.12507676608E+03 0.  0.
          5    1    3    3  502    0  0.61540814488E+02  0.33172408649E+02 -0.16753465449E+03  0.18158472788E+03  0.41800000000E+01 0.  1.
         -5    1    3    3    0  502 -0.50612057305E+02 -0.13021267014E+02 -0.65619895570E+02  0.83991528346E+02  0.41800000000E+01 0.  1.
        -11    1    1    2    0    0 -0.46209966500E+01  0.14947538943E+02  0.16462211665E+02  0.22710943252E+02  0.00000000000E+00 0.  1.
         11    1    1    2    0    0 -0.63077605336E+01 -0.35098680579E+02 -0.85601243207E+02  0.92732292433E+02  0.00000000000E+00 0. -1.
</event>
<event>
 7    1  0.2679104E-009  0.3188475E+03  0.7561462E-02  0.1076181E+00
         -2   -1    0    0    0  501 -0.00000000000E+00  0.00000000000E+00  0.10987397825E+03  0.10987397825E+03  0.00000000000E+00 0.  1.
          2   -1    0    0  501    0  0.00000000000E+00 -0.00000000000E+00 -0.93741133715E+03  0.93741133715E+03  0.00000000000E+00 0. -1.
         25    2    1    2    0    0 -0.45872483023E+02  0.29590964758E+03 -0.38992059931E+03  0.50729855992E+03  0.12508777278E+03 0.  0.
          5    1    3    3  502    0 -0.81220664497E+02  0.13946889806E+03 -0.22780529223E+03  0.27921513826E+03  0.41800000000E+01 0. -1.
         -5    1    3    3    0  502  0.35348181474E+02  0.15644074952E+03 -0.16211530708E+03  0.22808342166E+03  0.41800000000E+01 0. -1.
        -11    1    1    2    0    0  0.42011396001E+02 -0.34481224493E+02 -0.87759009753E+02  0.10322575274E+03  0.00000000000E+00 0. -1.
         11    1    1    2    0    0  0.38610870221E+01 -0.26142842309E+03 -0.34985774985E+03  0.43676100275E+03  0.00000000000E+00 0.  1.
</event>
<event>
 7    1  0.2679104E-009  0.7273422E+02  0.7561462E-02  0.1351035E+00
          1   -1    0    0  501    0  0.00000000000E+00  0.00000000000E+00  0.66046221913E+02  0.66046221913E+02  0.00000000000E+00 0. -1.
         -1   -1    0    0    0  501 -0.00000000000E+00 -0.00000000000E+00 -0.28559185760E+03  0.28559185760E+03  0.00000000000E+00 0.  1.
         25    2    1    2    0    0 -0.65157163197E+02  0.58369216045E+01 -0.54947747909E+02  0.15148005071E+03  0.12508966861E+03 0.  0.
          5    1    3    3  502    0 -0.18196636708E+02  0.23221922494E+02  0.36510921716E+02  0.47126373469E+02  0.41800000000E+01 0.  1.
         -5    1    3    3    0  502 -0.46960526490E+02 -0.17385000889E+02 -0.91458669626E+02  0.10435367724E+03  0.41800000000E+01 0.  1.
        -11    1    1    2    0    0  0.53756141232E+02 -0.45330295141E+01 -0.17593909775E+03  0.18402401255E+03  0.00000000000E+00 0.  1.
         11    1    1    2    0    0  0.11401021965E+02 -0.13038920903E+01  0.11341209981E+02  0.16134016247E+02  0.00000000000E+00 0. -1.
</event>
<event>
 7    1  0.2679104E-009  0.9241348E+02  0.7561462E-02  0.1297110E+00
          1   -1    0    0  501    0  0.00000000000E+00  0.00000000000E+00  0.10218559998E+03  0.10218559998E+03  0.00000000000E+00 0. -1.
         -1   -1    0    0    0  501 -0.00000000000E+00 -0.00000000000E+00 -0.15772493869E+03  0.15772493869E+03  0.00000000000E+00 0.  1.
         25    2    1    2    0    0  0.79915721904E+01 -0.43750591370E+02 -0.79061786611E+02  0.15451692675E+03  0.12508691011E+03 0.  0.
          5    1    3    3  502    0  0.65488356064E+02 -0.20192290840E+02 -0.54152049336E+02  0.87443525984E+02  0.41800000000E+01 0.  1.
         -5    1    3    3    0  502 -0.57496783874E+02 -0.23558300530E+02 -0.24909737275E+02  0.67073400770E+02  0.41800000000E+01 0.  1.
        -11    1    1    2    0    0  0.11311593627E+02  0.22501966253E+02  0.56387410049E+02  0.61756219506E+02  0.00000000000E+00 0. -1.
         11    1    1    2    0    0 -0.19303165817E+02  0.21248625118E+02 -0.32864962143E+02  0.43637392414E+02  0.00000000000E+00 0.  1.
</event>
<event>
 7    1  0.2679104E-009  0.1078181E+03  0.7561462E-02  0.1264665E+00
          1   -1    0    0  501    0  0.00000000000E+00  0.00000000000E+00  0.64636823620E+02  0.64636823620E+02  0.00000000000E+00 0. -1.
         -1   -1    0    0    0  501 -0.00000000000E+00 -0.00000000000E+00 -0.31379620725E+03  0.31379620725E+03  0.00000000000E+00 0.  1.
         25    2    1    2    0    0  0.43424514664E+02 -0.20835512976E+02 -0.38504553254E+02  0.13945837843E+03  0.12508489764E+03 0.  0.
          5    1    3    3  502    0  0.54327161810E+02 -0.53390379368E+02 -0.61447165994E+02  0.97955090364E+02  0.41800000000E+01 0. -1.
         -5    1    3    3    0  502 -0.10902647146E+02  0.32554866393E+02  0.22942612740E+02  0.41503288062E+02  0.41800000000E+01 0. -1.
        -11    1    1    2    0    0  0.21995404466E+02  0.31563755103E+02 -0.12423949104E+03  0.13005967703E+03  0.00000000000E+00 0. -1.
         11    1    1    2    0    0 -0.65419919130E+02 -0.10728242127E+02 -0.86415339335E+02  0.10891497542E+03  0.00000000000E+00 0.  1.
</event>
<event>
 7    1  0.2679104E-009  0.1060915E+03  0.7561462E-02  0.1267984E+00
         -2   -1    0    0    0  501 -0.00000000000E+00  0.00000000000E+00  0.29249381085E+02  0.29249381085E+02  0.00000000000E+00 0.  1.
          2   -1    0    0  501    0  0.00000000000E+00 -0.00000000000E+00 -0.39578080910E+03  0.39578080910E+03  0.00000000000E+00 0. -1.
         25    2    1    2    0    0 -0.20798471908E+01  0.52068580392E+01 -0.23575133681E+03  0.26694104664E+03  0.12508953768E+03 0.  0.
          5    1    3    3  502    0  0.60483272921E+02  0.12815910601E+01 -0.93623133367E+02  0.11154654759E+03  0.41800000000E+01 0.  1.
         -5    1    3    3    0  502 -0.62563120111E+02  0.39252669791E+01 -0.14212820344E+03  0.15539449904E+03  0.41800000000E+01 0.  1.
        -11    1    1    2    0    0  0.20352480424E+02  0.37276258851E+02 -0.66396967484E+02  0.78818146542E+02  0.00000000000E+00 0.  1.
         11    1    1    2    0    0 -0.18272633233E+02 -0.42483116890E+02 -0.64383123718E+02  0.79270997002E+02  0.00000000000E+00 0. -1.
</event>
<event>
 7    1  0.2679104E-009  0.2057996E+03  0.7561462E-02  0.1144936E+00
         -1   -1    0    0    0  501 -0.00000000000E+00  0.00000000000E+00  0.19539845078E+03  0.19539845078E+03  0.00000000000E+00 0.  1.
          1   -1    0    0  501    0  0.00000000000E+00 -0.00000000000E+00 -0.26934182738E+03  0.26934182738E+03  0.00000000000E+00 0. -1.
         25    2    1    2    0    0  0.16618740914E+03 -0.76644173144E+02  0.48645009084E+02  0.22695174715E+03  0.12509266324E+03 0.  0.
          5    1    3    3  502    0  0.16511374760E+02  0.32288759074E+02  0.74674193417E+01  0.37261564790E+02  0.41800000000E+01 0.  1.
         -5    1    3    3    0  502  0.14967603438E+03 -0.10893293222E+03  0.41177589742E+02  0.18969018236E+03  0.41800000000E+01 0.  1.
        -11    1    1    2    0    0 -0.95770868334E+02  0.16211397324E+02 -0.19469330752E+02  0.99065248521E+02  0.00000000000E+00 0.  1.
         11    1    1    2    0    0 -0.70416540802E+02  0.60432775820E+02 -0.10311905493E+03  0.13872328248E+03  0.00000000000E+00 0. -1.
</event>
<event>
 7    1  0.2679104E-009  0.8460872E+02  0.7561462E-02  0.1316459E+00
          1   -1    0    0  501    0  0.00000000000E+00  0.00000000000E+00  0.28319576736E+02  0.28319576736E+02  0.00000000000E+00 0. -1.
         -1   -1    0    0    0  501 -0.00000000000E+00 -0.00000000000E+00 -0.68213020925E+03  0.68213020925E+03  0.00000000000E+00 0.  1.
         25    2    1    2    0    0  0.67944454256E+02 -0.30915446130E+02 -0.42574030394E+03  0.44997106196E+03  0.12508771533E+03 0.  0.
          5    1    3    3  502    0  0.44333876615E+02 -0.25695105833E+02 -0.44658031017E+02  0.68099509645E+02  0.41800000000E+01 0.  1.
         -5    1    3    3    0  502  0.23610577641E+02 -0.52203402964E+01 -0.38108227293E+03  0.38187155232E+03  0.41800000000E+01 0.  1.
        -11    1    1    2    0    0 -0.75011238127E+02  0.15910369302E+02 -0.23121403819E+03  0.24359753109E+03  0.00000000000E+00 0.  1.
         11    1    1    2    0    0  0.70667838715E+01  0.15005076827E+02  0.31437096162E+01  0.16881192939E+02  0.00000000000E+00 0. -1.
</event>
<event>
 7    1  0.2679104E-009  0.1023943E+03  0.7561462E-02  0.1275340E+00
          1   -1    0    0  501    0  0.00000000000E+00  0.00000000000E+00  0.24356227075E+03  0.24356227075E+03  0.00000000000E+00 0. -1.
         -1   -1    0    0    0  501 -0.00000000000E+00 -0.00000000000E+00 -0.53935727005E+02  0.53935727005E+02  0.00000000000E+00 0.  1.
         25    2    1    2    0    0 -0.75787132094E+01 -0.26940644043E+02  0.13662187956E+03  0.18733832432E+03  0.12508746776E+03 0.  0.
          5    1    3    3  502    0  0.56835331270E+02 -0.22049220128E+02  0.84220638892E+02  0.10405292598E+03  0.41800000000E+01 0.  1.
         -5    1    3    3    0  502 -0.64414044480E+02 -0.48914239153E+01  0.52401240664E+02  0.83285398344E+02  0.41800000000E+01 0.  1.
        -11    1    1    2    0    0 -0.24369094768E+02 -0.13145550124E+02 -0.95464703924E+01  0.29288109615E+02  0.00000000000E+00 0.  1.
         11    1    1    2    0    0  0.31947807977E+02  0.40086194167E+02  0.62551134586E+02  0.80871563825E+02  0.00000000000E+00 0. -1.
</event>
<event>
 7    1  0.2679104E-009  0.9011988E+02  0.7561462E-02  0.1302562E+00
         -2   -1    0    0    0  501 -0.00000000000E+00  0.00000000000E+00  0.10878394077E+03  0.10878394077E+03  0.00000000000E+00 0.  1.
          2   -1    0    0  501    0  0.00000000000E+00 -0.00000000000E+00 -0.14266898163E+03  0.14266898163E+03  0.00000000000E+00 0. -1.
         25    2    1    2    0    0 -0.51992004704E+02 -0.10052887505E+02 -0.53117743670E+02  0.14585869416E+03  0.12509610253E+03 0.  0.
          5    1    3    3  502    0  0.60475040132E+01 -0.29903740940E+02 -0.74620126528E+02  0.80724480240E+02  0.41800000000E+01 0. -1.
         -5    1    3    3    0  502 -0.58039508718E+02  0.19850853435E+02  0.21502382858E+02  0.65134213919E+02  0.41800000000E+01 0. -1.
        -11    1    1    2    0    0  0.21853175103E+02  0.39933837918E+02  0.37895551961E+02  0.59231288449E+02  0.00000000000E+00 0.  1.
         11    1    1    2    0    0  0.30138829601E+02 -0.29880950412E+02 -0.18662849156E+02  0.46362939789E+02  0.00000000000E+00 0. -1.
</event>
<event>
 7    1  0.2679104E-009  0.1241860E+03  0.7561462E-02  0.1236347E+00
         -3   -1    0    0    0  501 -0.00000000000E+00  0.00000000000E+00  0.90857533723E+02  0.90857533723E+02  0.00000000000E+00 0.  1.
          3   -1    0    0  501    0  0.00000000000E+00 -0.00000000000E+00 -0.24470934233E+03  0.24470934233E+03  0.00000000000E+00 0. -1.
         25    2    1    2    0    0  0.69099772747E+02  0.56027999609E+02 -0.14226337442E+03  0.20928606332E+03  0.12509145960E+03 0.  0.
          5    1    3    3  502    0  0.30140313054E+00 -0.31233296630E+02 -0.69734519561E+02  0.76524409705E+02  0.41800000000E+01 0. -1.
         -5    1    3    3    0  502  0.68798369616E+02  0.87261296239E+02 -0.72528854859E+02  0.13276165361E+03  0.41800000000E+01 0. -1.
        -11    1    1    2    0    0 -0.37073130056E+02 -0.62798679874E+02 -0.39789269712E+02  0.83073925814E+02  0.00000000000E+00 0. -1.
         11    1    1    2    0    0 -0.32026642691E+02  0.67706802649E+01  0.28200835523E+02  0.43206886922E+02  0.00000000000E+00 0.  1.
</event>
<event>
 7    1  0.2679104E-009  0.1182979E+03  0.7561462E-02  0.1245932E+00
         -2   -1    0    0    0  501 -0.00000000000E+00  0.00000000000E+00  0.41815926381E+02  0.41815926381E+02  0.00000000000E+00 0.  1.
          2   -1    0    0  501    0  0.00000000000E+00 -0.00000000000E+00 -0.56876065729E+03  0.56876065729E+03  0.00000000000E+00 0. -1.
         25    2    1    2    0    0 -0.68427541089E+02 -0.25270613021E+02 -0.44641606218E+03  0.46931454351E+03  0.12509159807E+03 0.  0.
          5    1    3    3  502    0 -0.10393946745E+02  0.38357028414E+02 -0.27017119076E+03  0.27311030826E+03  0.41800000000E+01 0.  1.
         -5    1    3    3    0  502 -0.58033594344E+02 -0.63627641435E+02 -0.17624487142E+03  0.19620423525E+03  0.41800000000E+01 0.  1.
        -11    1    1    2    0    0  0.25182487247E+02 -0.30686377971E+02 -0.90583381298E+01  0.40716887732E+02  0.00000000000E+00 0.  1.
         11    1    1    2    0    0  0.43245053842E+02  0.55956990993E+02 -0.71470330598E+02  0.10054515244E+03  0.00000000000E+00 0. -1.
</event>
<event>
 7    1  0.2679104E-009  0.1155878E+03  0.7561462E-02  0.1250559E+00
          3   -1    0    0  501    0  0.00000000000E+00  0.00000000000E+00  0.56577755054E+02  0.56577755054E+02  0.00000000000E+00 0. -1.
         -3   -1    0    0    0  501 -0.00000000000E+00 -0.00000000000E+00 -0.28846801239E+03  0.28846801239E+03  0.00000000000E+00 0.  1.
         25    2    1    2    0    0 -0.61391743802E+02  0.11229595699E+02 -0.17115637604E+03  0.22099212474E+03  0.12509182273E+03 0.  0.
          5    1    3    3  502    0 -0.55294965689E+02  0.64197812011E+02 -0.12021106964E+03  0.14712941909E+03  0.41800000000E+01 0.  1.
         -5    1    3    3    0  502 -0.60967781130E+01 -0.52968216313E+02 -0.50945306403E+02  0.73862705658E+02  0.41800000000E+01 0.  1.
        -11    1    1    2    0    0  0.63397179282E+02  0.16140239293E+02 -0.69303915965E+02  0.95303422989E+02  0.00000000000E+00 0.  1.
         11    1    1    2    0    0 -0.20054354801E+01 -0.27369834992E+02  0.85700346708E+01  0.28750219707E+02  0.00000000000E+00 0. -1.
</event>
<event>
 7    1  0.2679104E-009  0.1048903E+03  0.7561462E-02  0.1270336E+00
          2   -1    0    0  501    0  0.00000000000E+00  0.00000000000E+00  0.20974141416E+03  0.20974141416E+03  0.00000000000E+00 0. -1.
         -2   -1    0    0    0  501 -0.00000000000E+00 -0.00000000000E+00 -0.59249802232E+02  0.59249802232E+02  0.00000000000E+00 0.  1.
         25    2    1    2    0    0  0.16503037556E+02 -0.10274407067E+02  0.66318007571E+02  0.14289632978E+03  0.12507345540E+03 0.  0.
          5    1    3    3  502    0 -0.48210486712E+02  0.19023498630E+02  0.11969621495E+02  0.53356243945E+02  0.41800000000E+01 0. -1.
         -5    1    3    3    0  502  0.64713524268E+02 -0.29297905697E+02  0.54348386077E+02  0.89540085831E+02  0.41800000000E+01 0. -1.
        -11    1    1    2    0    0 -0.26327174696E+02  0.44122285572E+02  0.72711978115E+02  0.89033296990E+02  0.00000000000E+00 0. -1.
         11    1    1    2    0    0  0.98241371403E+01 -0.33847878505E+02  0.11461626246E+02  0.37061589632E+02  0.00000000000E+00 0.  1.
</event>
<event>
 7    1  0.2679104E-009  0.1081941E+03  0.7561462E-02  0.1263951E+00
          1   -1    0    0  501    0  0.00000000000E+00  0.00000000000E+00  0.77264122879E+02  0.77264122879E+02  0.00000000000E+00 0. -1.
         -1   -1    0    0    0  501 -0.00000000000E+00 -0.00000000000E+00 -0.18892852598E+03  0.18892852598E+03  0.00000000000E+00 0.  1.
         25    2    1    2    0    0 -0.44751675461E+02 -0.16485941415E+02 -0.35485511826E+02  0.13849226561E+03  0.12508552020E+03 0.  0.
          5    1    3    3  502    0 -0.22143837096E+02  0.45706177310E+02 -0.49142723756E+02  0.70794659854E+02  0.41800000000E+01 0. -1.
         -5    1    3    3    0  502 -0.22607838365E+02 -0.62192118726E+02  0.13657211930E+02  0.67697605754E+02  0.41800000000E+01 0. -1.
        -11    1    1    2    0    0  0.28474800818E+02  0.52430995180E+02 -0.61264913179E+02  0.85517326455E+02  0.00000000000E+00 0.  1.
         11    1    1    2    0    0  0.16276874643E+02 -0.35945053765E+02 -0.14913978099E+02  0.42183056801E+02  0.00000000000E+00 0. -1.
</event>
<event>
 7    1  0.2679104E-009  0.8310352E+02  0.7561462E-02  0.1320468E+00
         -1   -1    0    0    0  501 -0.00000000000E+00  0.00000000000E+00  0.55838047834E+02  0.55838047834E+02  0.00000000000E+00 0.  1.
          1   -1    0    0  501    0  0.00000000000E+00 -0.00000000000E+00 -0.30521849312E+03  0.30521849312E+03  0.00000000000E+00 0. -1.
         25    2    1    2    0    0 -0.40358238485E+01  0.26660088880E+02 -0.23122513274E+03  0.26427188995E+03  0.12509005394E+03 0.  0.
          5    1    3    3  502    0 -0.39569384082E+02 -0.22316663209E+02 -0.31241162958E+02  0.55292425127E+02  0.41800000000E+01 0. -1.
         -5    1    3    3    0  502  0.35533560233E+02  0.48976752089E+02 -0.19998396978E+03  0.20897946482E+03  0.41800000000E+01 0. -1.
        -11    1    1    2    0    0 -0.17792435023E+02  0.75696114982E+01  0.28814990316E+02  0.34701202129E+02  0.00000000000E+00 0.  1.
         11    1    1    2    0    0  0.21828258872E+02 -0.34229700378E+02 -0.46970302866E+02  0.62083448878E+02  0.00000000000E+00 0. -1.
</event>
<event>
 7    1  0.2679104E-009  0.1482191E+03  0.7561462E-02  0.1202679E+00
         -3   -1    0    0    0  501 -0.00000000000E+00  0.00000000000E+00  0.13775196720E+03  0.13775196720E+03  0.00000000000E+00 0.  1.
          3   -1    0    0  501    0  0.00000000000E+00 -0.00000000000E+00 -0.25052645352E+03  0.25052645352E+03  0.00000000000E+00 0. -1.
         25    2    1    2    0    0  0.66987126705E+02  0.12631922932E+03 -0.10868195595E+03  0.21886866827E+03  0.12509158071E+03 0.  0.
          5    1    3    3  502    0  0.18518082969E+01 -0.42674108582E+01 -0.66658420629E+02  0.66951157049E+02  0.41800000000E+01 0.  1.
         -5    1    3    3    0  502  0.65135318408E+02  0.13058664017E+03 -0.42023535317E+02  0.15191751122E+03  0.41800000000E+01 0.  1.
        -11    1    1    2    0    0 -0.41681342682E+02 -0.58683505545E+02  0.42384294146E+02  0.83531530221E+02  0.00000000000E+00 0.  1.
         11    1    1    2    0    0 -0.25305784023E+02 -0.67635723771E+02 -0.46476824524E+02  0.85878222227E+02  0.00000000000E+00 0. -1.
</event>
<event>
 7    1  0.2679104E-009  0.2084061E+03  0.7561462E-02  0.1142834E+00
          2   -1    0    0  501    0  0.00000000000E+00  0.00000000000E+00  0.32100687754E+03  0.32100687754E+03  0.00000000000E+00 0. -1.
         -2   -1    0    0    0  501 -0.00000000000E+00 -0.00000000000E+00 -0.21788723985E+03  0.21788723985E+03  0.00000000000E+00 0.  1.
         25    2    1    2    0    0  0.18442404547E+03 -0.74832752121E+02  0.19111916304E+03  0.30296056986E+03  0.12508558299E+03 0.  0.
          5    1    3    3  502    0  0.18442791540E+02  0.76584308860E+01  0.88981706414E+02  0.91290769521E+02  0.41800000000E+01 0.  1.
         -5    1    3    3    0  502  0.16598125393E+03 -0.82491183007E+02  0.10213745662E+03  0.21166980034E+03  0.41800000000E+01 0.  1.
        -11    1    1    2    0    0 -0.45926659131E+02  0.54111138507E+02 -0.60411213855E+02  0.93202940344E+02  0.00000000000E+00 0. -1.
         11    1    1    2    0    0 -0.13849738634E+03  0.20721613614E+02 -0.27588311493E+02  0.14273060718E+03  0.00000000000E+00 0.  1.
</event>
<event>
 7    1  0.2679104E-009  0.8953587E+02  0.7561462E-02  0.1303980E+00
          1   -1    0    0  501    0  0.00000000000E+00  0.00000000000E+00  0.50572173504E+03  0.50572173504E+03  0.00000000000E+00 0. -1.
         -1   -1    0    0    0  501 -0.00000000000E+00 -0.00000000000E+00 -0.33621443501E+02  0.33621443501E+02  0.00000000000E+00 0.  1.
         25    2    1    2    0    0 -0.29471499338E+01  0.47369411905E+02  0.36955960112E+03  0.39303258518E+03  0.12509103627E+03 0.  0.
          5    1    3    3  502    0 -0.52617413513E+01  0.74732239338E+02  0.35258304690E+03  0.36047866911E+03  0.41800000000E+01 0.  1.
         -5    1    3    3    0  502  0.23145914175E+01 -0.27362827433E+02  0.16976554218E+02  0.32553916073E+02  0.41800000000E+01 0.  1.
        -11    1    1    2    0    0  0.15733224501E+02  0.92263755636E+01  0.83160936676E+02  0.85137546054E+02  0.00000000000E+00 0. -1.
         11    1    1    2    0    0 -0.12786074567E+02 -0.56595787469E+02  0.19379753748E+02  0.61173047312E+02  0.00000000000E+00 0.  1.
</event>
<event>
 7    1  0.2679104E-009  0.8519545E+02  0.7561462E-02  0.1314922E+00
          1   -1    0    0  501    0  0.00000000000E+00  0.00000000000E+00  0.20782740004E+03  0.20782740004E+03  0.00000000000E+00 0. -1.
         -1   -1    0    0    0  501 -0.00000000000E+00 -0.00000000000E+00 -0.76261105530E+02  0.76261105530E+02  0.00000000000E+00 0.  1.
         25    2    1    2    0    0  0.32415691727E+02 -0.31294351842E+01  0.13169980065E+03  0.18453829791E+03  0.12509586512E+03 0.  0.
          5    1    3    3  502    0  0.39292920594E+02  0.45372650598E+02  0.21542870542E+02  0.63907579381E+02  0.41800000000E+01 0. -1.
         -5    1    3    3    0  502 -0.68772288666E+01 -0.48502085782E+02  0.11015693011E+03  0.12063071853E+03  0.41800000000E+01 0. -1.
        -11    1    1    2    0    0 -0.40926306253E+02  0.17377037190E+02 -0.37819674781E+02  0.58371669204E+02  0.00000000000E+00 0.  1.
         11    1    1    2    0    0  0.85106145259E+01 -0.14247602006E+02  0.37686168645E+02  0.41178538460E+02  0.00000000000E+00 0. -1.
</event>
<event>
 7    1  0.2679104E-009  0.1188920E+03  0.7561462E-02  0.1244936E+00
         -1   -1    0    0    0  501 -0.00000000000E+00  0.00000000000E+00  0.16761227662E+03  0.16761227662E+03  0.00000000000E+00 0.  1.
          1   -1    0    0  501    0  0.00000000000E+00 -0.00000000000E+00 -0.14587015476E+03  0.14587015476E+03  0.00000000000E+00 0. -1.
         25    2    1    2    0    0 -0.64649712729E+02 -0.91334577092E+02  0.41676869332E+01  0.16788827445E+03  0.12509001860E+03 0.  0.
          5    1    3    3  502    0  0.36105472023E+01 -0.38612084579E+02  0.55195488929E+02  0.67586563197E+02  0.41800000000E+01 0.  1.
         -5    1    3    3    0  502 -0.68260259932E+02 -0.52722492514E+02 -0.51027801996E+02  0.10030171125E+03  0.41800000000E+01 0.  1.
        -11    1    1    2    0    0  0.11757562631E+02  0.24672900214E+02  0.47988806619E+02  0.55226061282E+02  0.00000000000E+00 0.  1.
         11    1    1    2    0    0  0.52892150098E+02  0.66661676879E+02 -0.30414371691E+02  0.90368095651E+02  0.00000000000E+00 0. -1.
</event>
<event>
 7    1  0.2679104E-009  0.7951019E+02  0.7561462E-02  0.1330447E+00
         -3   -1    0    0    0  501 -0.00000000000E+00  0.00000000000E+00  0.20042645084E+03  0.20042645084E+03  0.00000000000E+00 0.  1.
          3   -1    0    0  501    0  0.00000000000E+00 -0.00000000000E+00 -0.10393692518E+03  0.10393692518E+03  0.00000000000E+00 0. -1.
         25    2    1    2    0    0  0.23445943606E+02  0.56354146092E+02  0.35367546712E+02  0.14360921082E+03  0.12508892844E+03 0.  0.
          5    1    3    3  502    0  0.55791292226E+01  0.51664464994E+00  0.73315505706E+02  0.73648010031E+02  0.41800000000E+01 0.  1.
         -5    1    3    3    0  502  0.17866814384E+02  0.55837501442E+02 -0.37947958994E+02  0.69961200785E+02  0.41800000000E+01 0.  1.
        -11    1    1    2    0    0  0.16945982390E+02 -0.49455178444E+02  0.94438275415E+02  0.10794243307E+03  0.00000000000E+00 0.  1.
         11    1    1    2    0    0 -0.40391925996E+02 -0.68989676473E+01 -0.33316296472E+02  0.52811732133E+02  0.00000000000E+00 0. -1.
</event>
<event>
 7    1  0.2679104E-009  0.1291828E+03  0.7561462E-02  0.1228673E+00
         -2   -1    0    0    0  501 -0.00000000000E+00  0.00000000000E+00  0.15101867630E+03  0.15101867630E+03  0.00000000000E+00 0.  1.
          2   -1    0    0  501    0  0.00000000000E+00 -0.00000000000E+00 -0.11204349930E+03  0.11204349930E+03  0.00000000000E+00 0. -1.
         25    2    1    2    0    0  0.12407574518E+02  0.67337097512E+02  0.12555456086E+02  0.14315517377E+03  0.12509009430E+03 0.  0.
          5    1    3    3  502    0  0.27932153863E+02  0.10095598596E+03  0.39370246661E+01  0.10490609555E+03  0.41800000000E+01 0. -1.
         -5    1    3    3    0  502 -0.15524579345E+02 -0.33618888446E+02  0.86184314198E+01  0.38249078216E+02  0.41800000000E+01 0. -1.
        -11    1    1    2    0    0 -0.71389491452E+01 -0.91378063759E+02  0.26073984088E+02  0.95293062588E+02  0.00000000000E+00 0.  1.
         11    1    1    2    0    0 -0.52686253728E+01  0.24040966247E+02  0.34573681963E+00  0.24613939249E+02  0.00000000000E+00 0. -1.
</event>
<event>
 7    1  0.2679104E-009  0.1273368E+03  0.7561462E-02  0.1231462E+00
          1   -1    0    0  501    0  0.00000000000E+00  0.00000000000E+00  0.15165362015E+03  0.15165362015E+03  0.00000000000E+00 0. -1.
         -1   -1    0    0    0  501 -0.00000000000E+00 -0.00000000000E+00 -0.18860358771E+03  0.18860358771E+03  0.00000000000E+00 0.  1.
         25    2    1    2    0    0 -0.58795799102E+02  0.98807420212E+02 -0.78539434547E+02  0.18717873757E+03  0.12509030634E+03 0.  0.
          5    1    3    3  502    0 -0.30180588221E+02  0.41315755172E+02  0.31118926036E+02  0.60030987735E+02  0.41800000000E+01 0.  1.
         -5    1    3    3    0  502 -0.28615210880E+02  0.57491665040E+02 -0.10965836058E+03  0.12714774984E+03  0.41800000000E+01 0.  1.
        -11    1    1    2    0    0 -0.12550357933E+02 -0.52375603639E+02 -0.81743622004E+01  0.54475090988E+02  0.00000000000E+00 0.  1.
         11    1    1    2    0    0  0.71346157035E+02 -0.46431816573E+02  0.49763829181E+02  0.98603379297E+02  0.00000000000E+00 0. -1.
</event>
<event>
 7    1  0.2679104E-009  0.2086585E+03  0.7561462E-02  0.1142633E+00
         -3   -1    0    0    0  501 -0.00000000000E+00  0.00000000000E+00  0.11763799742E+03  0.11763799742E+03  0.00000000000E+00 0.  1.
          3   -1    0    0  501    0  0.00000000000E+00 -0.00000000000E+00 -0.43530538159E+03  0.43530538159E+03  0.00000000000E+00 0. -1.
         25    2    1    2    0    0 -0.19536826635E+03 -0.33860519488E+02 -0.18052711221E+03  0.29589340632E+03  0.12509026894E+03 0.  0.
          5    1    3    3  502    0 -0.83651700752E+02  0.98349461266E+01 -0.14993730706E+03  0.17202616560E+03  0.41800000000E+01 0.  1.
         -5    1    3    3    0  502 -0.11171656560E+03 -0.43695465615E+02 -0.30589805156E+02  0.12386724072E+03  0.41800000000E+01 0.  1.
        -11    1    1    2    0    0  0.78095489380E+02 -0.24653645061E+02 -0.28165420116E+02  0.86602532102E+02  0.00000000000E+00 0.  1.
         11    1    1    2    0    0  0.11727277697E+03  0.58514164549E+02 -0.10897485184E+03  0.17044744059E+03  0.00000000000E+00 0. -1.
</event>
<event>
 7    1  0.2679104E-009  0.1213574E+03  0.7561462E-02  0.1240874E+00
          2   -1    0    0  501    0  0.00000000000E+00  0.00000000000E+00  0.91471833820E+03  0.91471833820E+03  0.00000000000E+00 0. -1.
         -2   -1    0    0    0  501 -0.00000000000E+00 -0.00000000000E+00 -0.16579545683E+02  0.16579545683E+02  0.00000000000E+00 0.  1.
         25    2    1    2    0    0 -0.41578093356E+02 -0.41009168336E+02  0.49847249028E+03  0.51723691094E+03  0.12509479902E+03 0.  0.
          5    1    3    3  502    0 -0.83455996366E+02 -0.40612543073E+02  0.38929519287E+03  0.40022806195E+03  0.41800000000E+01 0.  1.
         -5    1    3    3    0  502  0.41877903010E+02 -0.39662526278E+00  0.10917729741E+03  0.11700884899E+03  0.41800000000E+01 0.  1.
        -11    1    1    2    0    0 -0.17347821455E+02  0.45428564854E+02  0.20055730048E+03  0.20636843797E+03  0.00000000000E+00 0. -1.
         11    1    1    2    0    0  0.58925914810E+02 -0.44193965180E+01  0.19910900176E+03  0.20769253498E+03  0.00000000000E+00 0.  1.
</event>
<event>
 7    1  0.2679104E-009  0.8289181E+02  0.7561462E-02  0.1321040E+00
          2   -1    0    0  501    0  0.00000000000E+00  0.00000000000E+00  0.24012292919E+03  0.24012292919E+03  0.00000000000E+00 0. -1.
         -2   -1    0    0    0  501 -0.00000000000E+00 -0.00000000000E+00 -0.63165817793E+02  0.63165817793E+02  0.00000000000E+00 0.  1.
         25    2    1    2    0    0 -0.86162745939E+01  0.35129228782E+02  0.39827590189E+02  0.13617093437E+03  0.12509190032E+03 0.  0.
          5    1    3    3  502    0  0.31609634413E+02  0.74120162055E+01  0.70922709913E+02  0.78112804029E+02  0.41800000000E+01 0.  1.
         -5    1    3    3    0  502 -0.40225909007E+02  0.27717212576E+02 -0.31095119724E+02  0.58058130344E+02  0.41800000000E+01 0.  1.
        -11    1    1    2    0    0 -0.26829515341E+02 -0.40078771498E+02  0.11582909864E+03  0.12546916319E+03  0.00000000000E+00 0. -1.
         11    1    1    2    0    0  0.35445789935E+02  0.49495427158E+01  0.21300422560E+02  0.41648649419E+02  0.00000000000E+00 0.  1.
</event>
<event>
 7    1  0.2679104E-009  0.5843225E+02  0.7561462E-02  0.1404531E+00
         -1   -1    0    0    0  501 -0.00000000000E+00  0.00000000000E+00  0.51050413661E+02  0.51050413661E+02  0.00000000000E+00 0.  1.
          1   -1    0    0  501    0  0.00000000000E+00 -0.00000000000E+00 -0.27274335984E+03  0.27274335984E+03  0.00000000000E+00 0. -1.
         25    2    1    2    0    0  0.39360891753E+02 -0.19795160001E+02 -0.14947887065E+03  0.19983073738E+03  0.12508901899E+03 0.  0.
          5    1    3    3  502    0  0.22349694843E+02 -0.34698101859E+02 -0.16626201498E+03  0.17135926341E+03  0.41800000000E+01 0.  1.
         -5    1    3    3    0  502  0.17011196910E+02  0.14902941858E+02  0.16783144329E+02  0.28471473968E+02  0.41800000000E+01 0.  1.
        -11    1    1    2    0    0 -0.30145099444E+01  0.15490347376E+02  0.19576139174E+02  0.25144847524E+02  0.00000000000E+00 0.  1.
         11    1    1    2    0    0 -0.36346381808E+02  0.43048126250E+01 -0.91790214702E+02  0.98818188596E+02  0.00000000000E+00 0. -1.
</event>
<event>
 7    1  0.2679104E-009  0.2501628E+03  0.7561462E-02  0.1113202E+00
          1   -1    0    0  501    0  0.00000000000E+00  0.00000000000E+00  0.59222450160E+03  0.59222450160E+03  0.00000000000E+00 0. -1.
         -1   -1    0    0    0  501 -0.00000000000E+00 -0.00000000000E+00 -0.12656436197E+03  0.12656436197E+03  0.00000000000E+00 0.  1.
         25    2    1    2    0    0  0.19767500741E+03 -0.11404232593E+03  0.37692296918E+03  0.45803833548E+03  0.12508849434E+03 0.  0.
          5    1    3    3  502    0  0.31258959842E+01 -0.53550186119E+02  0.54259595557E+02  0.76413151807E+02  0.41800000000E+01 0. -1.
         -5    1    3    3    0  502  0.19454911143E+03 -0.60492139808E+02  0.32266337362E+03  0.38162518367E+03  0.41800000000E+01 0. -1.
        -11    1    1    2    0    0 -0.20018526182E+03  0.91578052249E+02  0.90637123844E+02  0.23806672788E+03  0.00000000000E+00 0.  1.
         11    1    1    2    0    0  0.25102544132E+01  0.22464273678E+02 -0.18999533910E+01  0.22683800211E+02  0.00000000000E+00 0. -1.
</event>
<event>
 7    1  0.2679104E-009  0.9679521E+02  0.7561462E-02  0.1287183E+00
         -2   -1    0    0    0  501 -0.00000000000E+00  0.00000000000E+00  0.67248238890E+02  0.67248238890E+02  0.00000000000E+00 0.  1.
          2   -1    0    0  501    0  0.00000000000E+00 -0.00000000000E+00 -0.24786790613E+03  0.24786790613E+03  0.00000000000E+00 0. -1.
         25    2    1    2    0    0 -0.20838829850E+02  0.46786375916E+01 -0.21018181359E+02  0.12862951164E+03  0.12509053056E+03 0.  0.
          5    1    3    3  502    0 -0.41558464895E+02  0.39635003839E+02  0.28655041593E+02  0.64316586838E+02  0.41800000000E+01 0. -1.
         -5    1    3    3    0  502  0.20719635044E+02 -0.34956366248E+02 -0.49673222952E+02  0.64312924798E+02  0.41800000000E+01 0. -1.
        -11    1    1    2    0    0 -0.21824575880E+02  0.32110462996E+02 -0.80517210065E+02  0.89389121614E+02  0.00000000000E+00 0. -1.
         11    1    1    2    0    0  0.42663405731E+02 -0.36789100587E+02 -0.79084275814E+02  0.97097511768E+02  0.00000000000E+00 0.  1.
</event>
<event>
 7    1  0.2679104E-009  0.1279651E+03  0.7561462E-02  0.1230507E+00
          2   -1    0    0  501    0  0.00000000000E+00  0.00000000000E+00  0.48108213496E+03  0.48108213496E+03  0.00000000000E+00 0. -1.
         -2   -1    0    0    0  501 -0.00000000000E+00 -0.00000000000E+00 -0.47025533141E+02  0.47025533141E+02  0.00000000000E+00 0.  1.
         25    2    1    2    0    0  0.71022249589E+02 -0.74868189162E+01  0.35041268871E+03  0.37886187235E+03  0.12508818297E+03 0.  0.
          5    1    3    3  502    0  0.48053568776E+02  0.53141584328E+02  0.12357162680E+03  0.14290063963E+03  0.41800000000E+01 0.  1.
         -5    1    3    3    0  502  0.22968680813E+02 -0.60628403244E+02  0.22684106191E+03  0.23596123272E+03  0.41800000000E+01 0.  1.
        -11    1    1    2    0    0  0.23954042011E+02  0.46047083349E+00  0.24258837640E+01  0.24080969127E+02  0.00000000000E+00 0.  1.
         11    1    1    2    0    0 -0.94976291599E+02  0.70263480827E+01  0.81218029350E+02  0.12516482663E+03  0.00000000000E+00 0. -1.
</event>
<event>
 7    1  0.2679104E-009  0.1557519E+03  0.7561462E-02  0.1193578E+00
          2   -1    0    0  501    0  0.00000000000E+00  0.00000000000E+00  0.62496738227E+03  0.62496738227E+03  0.00000000000E+00 0. -1.
         -2   -1    0    0    0  501 -0.00000000000E+00 -0.00000000000E+00 -0.47312149001E+02  0.47312149001E+02  0.00000000000E+00 0.  1.
         25    2    1    2    0    0  0.13848459837E+03  0.14828468198E+02  0.29336446912E+03  0.34800319670E+03  0.12508255561E+03 0.  0.
          5    1    3    3  502    0  0.22292875300E+02 -0.29990835709E+02  0.16451597729E+03  0.16875841223E+03  0.41800000000E+01 0. -1.
         -5    1    3    3    0  502  0.11619172307E+03  0.44819303906E+02  0.12884849183E+03  0.17924478447E+03  0.41800000000E+01 0. -1.
        -11    1    1    2    0    0 -0.69224262035E+02  0.19606529694E+02  0.18440676270E+03  0.19794511510E+03  0.00000000000E+00 0.  1.
         11    1    1    2    0    0 -0.69260336332E+02 -0.34434997892E+02  0.99884001451E+02  0.12633121948E+03  0.00000000000E+00 0. -1.
</event>
<event>
 7    1  0.2679104E-009  0.7015412E+02  0.7561462E-02  0.1359570E+00
         -1   -1    0    0    0  501 -0.00000000000E+00  0.00000000000E+00  0.76938069945E+01  0.76938069945E+01  0.00000000000E+00 0.  1.
          1   -1    0    0  501    0  0.00000000000E+00 -0.00000000000E+00 -0.16398032041E+04  0.16398032041E+04  0.00000000000E+00 0. -1.
         25    2    1    2    0    0  0.22552751101E+02  0.12518918594E+02 -0.12058961208E+04  0.12126410631E+04  0.12509014279E+03 0.  0.
          5    1    3    3  502    0 -0.10399512832E+02  0.17169670230E+02 -0.30411583594E+02  0.36678116905E+02  0.41800000000E+01 0. -1.
         -5    1    3    3    0  502  0.32952263933E+02 -0.46507516366E+01 -0.11754845372E+04  0.11759629462E+04  0.41800000000E+01 0. -1.
        -11    1    1    2    0    0  0.18512328407E+02  0.24682641482E+02 -0.15415521178E+03  0.15721249446E+03  0.00000000000E+00 0.  1.
         11    1    1    2    0    0 -0.41065079508E+02 -0.37201560076E+02 -0.27205806459E+03  0.27764345361E+03  0.00000000000E+00 0. -1.
</event>
<event>
 7    1  0.2679104E-009  0.1194981E+03  0.7561462E-02  0.1243927E+00
          1   -1    0    0  501    0  0.00000000000E+00  0.00000000000E+00  0.14529682608E+03  0.14529682608E+03  0.00000000000E+00 0. -1.
         -1   -1    0    0    0  501 -0.00000000000E+00 -0.00000000000E+00 -0.15065267236E+03  0.15065267236E+03  0.00000000000E+00 0.  1.
         25    2    1    2    0    0  0.74866867184E+02  0.19681858466E+02 -0.66229741773E+02  0.16132816289E+03  0.12509186261E+03 0.  0.
          5    1    3    3  502    0  0.31384158967E+02  0.71901348653E+02 -0.41836109991E+02  0.89008437079E+02  0.41800000000E+01 0. -1.
         -5    1    3    3    0  502  0.43482708217E+02 -0.52219490186E+02 -0.24393631783E+02  0.72319725807E+02  0.41800000000E+01 0. -1.
        -11    1    1    2    0    0 -0.19082506591E+02 -0.30064010980E+02  0.68662733499E+02  0.77346995970E+02  0.00000000000E+00 0. -1.
         11    1    1    2    0    0 -0.55784360593E+02  0.10382152513E+02 -0.77888380076E+01  0.57274339587E+02  0.00000000000E+00 0.  1.
</event>
<event>
 7    1  0.2679104E-009  0.2945016E+03  0.7561462E-02  0.1088022E+00
         -2   -1    0    0    0  501 -0.00000000000E+00  0.00000000000E+00  0.21993050151E+03  0.21993050151E+03  0.00000000000E+00 0.  1.
          2   -1    0    0  501    0  0.00000000000E+00 -0.00000000000E+00 -0.52493182505E+03  0.52493182505E+03  0.00000000000E+00 0. -1.
         25    2    1    2    0    0  0.28450306189E+03  0.45922877504E+02  0.31679057626E+01  0.31418063642E+03  0.12509409967E+03 0.  0.
          5    1    3    3  502    0  0.14767799325E+03  0.26313862392E+02 -0.60679894996E+02  0.16186639893E+03  0.41800000000E+01 0. -1.
         -5    1    3    3    0  502  0.13682506864E+03  0.19609015112E+02  0.63847800759E+02  0.15231423749E+03  0.41800000000E+01 0. -1.
        -11    1    1    2    0    0 -0.12983754662E+03  0.22076412603E+02 -0.14296741495E+03  0.19438322521E+03  0.00000000000E+00 0. -1.
         11    1    1    2    0    0 -0.15466551527E+03 -0.67999290107E+02 -0.16520181435E+03  0.23629846494E+03  0.00000000000E+00 0.  1.
</event>
<event>
 7    1  0.2679104E-009  0.8659236E+02  0.7561462E-02  0.1311320E+00
          2   -1    0    0  501    0  0.00000000000E+00  0.00000000000E+00  0.13358919863E+04  0.13358919863E+04  0.00000000000E+00 0. -1.
         -2   -1    0    0    0  501 -0.00000000000E+00 -0.00000000000E+00 -0.16318228361E+02  0.16318228361E+02  0.00000000000E+00 0.  1.
         25    2    1    2    0    0  0.70427524902E+02  0.71620554637E+00  0.10743615833E+04  0.10839095808E+04  0.12508644386E+03 0.  0.
          5    1    3    3  502    0  0.41661373922E+02 -0.56989964961E+01  0.10276552036E+04  0.10285236208E+04  0.41800000000E+01 0. -1.
         -5    1    3    3    0  502  0.28766150980E+02  0.64152020424E+01  0.46706379667E+02  0.55385959963E+02  0.41800000000E+01 0. -1.
        -11    1    1    2    0    0  0.44262541855E+01  0.22388545770E+02  0.21834509905E+02  0.31584561586E+02  0.00000000000E+00 0. -1.
         11    1    1    2    0    0 -0.74853779087E+02 -0.23104751316E+02  0.22337766473E+03  0.23671607228E+03  0.00000000000E+00 0.  1.
</event>
<event>
 7    1  0.2992351E-009  0.1655507E+03  0.7561462E-02  0.1182569E+00
         -2   -1    0    0    0  501 -0.00000000000E+00  0.00000000000E+00  0.28647774944E+02  0.28647774944E+02  0.00000000000E+00 0.  1.
          2   -1    0    0  501    0  0.00000000000E+00 -0.00000000000E+00 -0.10313002832E+04  0.10313002832E+04  0.00000000000E+00 0. -1.
         25    2    1    2    0    0 -0.10974247147E+03  0.61458509510E+02 -0.66348148113E+03  0.68678700203E+03  0.12509257340E+03 0.  0.
          5    1    3    3  502    0 -0.11266573306E+03 -0.17003902442E+01 -0.38399290472E+03  0.40020554970E+03  0.41800000000E+01 0. -1.
         -5    1    3    3    0  502  0.29232615973E+01  0.63158899754E+02 -0.27948857641E+03  0.28658145233E+03  0.41800000000E+01 0. -1.
        -11    1    1    2    0    0  0.82225927502E+01 -0.52418250105E+02 -0.13236576835E+03  0.14260427976E+03  0.00000000000E+00 0.  1.
         11    1    1    2    0    0  0.10151987872E+03 -0.90402594049E+01 -0.20680525877E+03  0.23055677635E+03  0.00000000000E+00 0. -1.
</event>
<event>
 7    1  0.2679104E-009  0.1537579E+03  0.7561462E-02  0.1195930E+00
          2   -1    0    0  501    0  0.00000000000E+00  0.00000000000E+00  0.31645120828E+03  0.31645120828E+03  0.00000000000E+00 0. -1.
         -2   -1    0    0    0  501 -0.00000000000E+00 -0.00000000000E+00 -0.19119045468E+03  0.19119045468E+03  0.00000000000E+00 0.  1.
         25    2    1    2    0    0 -0.15041386720E+02 -0.11712462693E+03 -0.12947162389E+03  0.21529897803E+03  0.12508527891E+03 0.  0.
          5    1    3    3  502    0 -0.65178106417E+02 -0.81428102952E+02 -0.10743066172E+03  0.14979165859E+03  0.41800000000E+01 0. -1.
         -5    1    3    3    0  502  0.50136719697E+02 -0.35696523977E+02 -0.22040962170E+02  0.65507319434E+02  0.41800000000E+01 0. -1.
        -11    1    1    2    0    0  0.10794790879E+02  0.12868005884E+03  0.21553731154E+03  0.25125966194E+03  0.00000000000E+00 0.  1.
         11    1    1    2    0    0  0.42465958411E+01 -0.11555431916E+02  0.39195065954E+02  0.41083022991E+02  0.00000000000E+00 0. -1.
</event>
<event>
 7    1  0.2679104E-009  0.1044626E+03  0.7561462E-02  0.1271182E+00
         -1   -1    0    0    0  501 -0.00000000000E+00  0.00000000000E+00  0.46329878015E+02  0.46329878015E+02  0.00000000000E+00 0.  1.
          1   -1    0    0  501    0  0.00000000000E+00 -0.00000000000E+00 -0.29356862039E+03  0.29356862039E+03  0.00000000000E+00 0. -1.
         25    2    1    2    0    0 -0.20929438011E+02 -0.40731478721E+02 -0.13152411640E+03  0.18719852876E+03  0.12509037229E+03 0.  0.
          5    1    3    3  502    0 -0.41118609156E+02  0.25221686844E+02 -0.10029104322E+03  0.11136713724E+03  0.41800000000E+01 0. -1.
         -5    1    3    3    0  502  0.20189171145E+02 -0.65953165566E+02 -0.31233073182E+02  0.75831391521E+02  0.41800000000E+01 0. -1.
        -11    1    1    2    0    0  0.15512994534E+02 -0.22836800826E+02 -0.10267702572E+02  0.29455019734E+02  0.00000000000E+00 0. -1.
         11    1    1    2    0    0  0.54164434769E+01  0.63568279548E+02 -0.10544692340E+03  0.12324494991E+03  0.00000000000E+00 0.  1.
</event>
<event>
 7    1  0.2679104E-009  0.1114857E+03  0.7561462E-02  0.1257843E+00
         -3   -1    0    0    0  501 -0.00000000000E+00  0.00000000000E+00  0.51215975996E+02  0.51215975996E+02  0.00000000000E+00 0.  1.
          3   -1    0    0  501    0  0.00000000000E+00 -0.00000000000E+00 -0.42289543526E+03  0.42289543526E+03  0.00000000000E+00 0. -1.
         25    2    1    2    0    0  0.70421592109E+02  0.39927643851E+02 -0.29892306895E+03  0.33400140098E+03  0.12509403394E+03 0.  0.
          5    1    3    3  502    0  0.66222741351E+01 -0.30310829732E+02 -0.17546039765E+03  0.17823137899E+03  0.41800000000E+01 0. -1.
         -5    1    3    3    0  502  0.63799317974E+02  0.70238473583E+02 -0.12346267129E+03  0.15577002198E+03  0.41800000000E+01 0. -1.
        -11    1    1    2    0    0 -0.47367421356E+02 -0.52266019863E+02 -0.85649365541E+02  0.11095595187E+03  0.00000000000E+00 0. -1.
         11    1    1    2    0    0 -0.23054170753E+02  0.12338376012E+02  0.12892975221E+02  0.29154058410E+02  0.00000000000E+00 0.  1.
</event>
<event>
 7    1  0.2679104E-009  0.1033134E+03  0.7561462E-02  0.1273479E+00
         -1   -1    0    0    0  501 -0.00000000000E+00  0.00000000000E+00  0.54388091342E+02  0.54388091342E+02  0.00000000000E+00 0.  1.
          1   -1    0    0  501    0  0.00000000000E+00 -0.00000000000E+00 -0.35023499182E+03  0.35023499182E+03  0.00000000000E+00 0. -1.
         25    2    1    2    0    0 -0.57715643569E+02  0.58476562466E+01 -0.24148699888E+03  0.27808001847E+03  0.12508891016E+03 0.  0.
          5    1    3    3  502    0 -0.70714176197E+02  0.27228726749E+02 -0.24104260703E+03  0.25270716072E+03  0.41800000000E+01 0.  1.
         -5    1    3    3    0  502  0.12998532628E+02 -0.21381070502E+02 -0.44439185502E+00  0.25372857750E+02  0.41800000000E+01 0.  1.
        -11    1    1    2    0    0 -0.23477016290E+02 -0.57659544176E+01 -0.35895891699E+02  0.43277379370E+02  0.00000000000E+00 0.  1.
         11    1    1    2    0    0  0.81192659859E+02 -0.81701828997E-01 -0.18464009890E+02  0.83265685318E+02  0.00000000000E+00 0. -1.
</event>
<event>
 7    1  0.2679104E-009  0.1179676E+03  0.7561462E-02  0.1246488E+00
          3   -1    0    0  501    0  0.00000000000E+00  0.00000000000E+00  0.61017352046E+02  0.61017352046E+02  0.00000000000E+00 0. -1.
         -3   -1    0    0    0  501 -0.00000000000E+00 -0.00000000000E+00 -0.35584062220E+03  0.35584062220E+03  0.00000000000E+00 0.  1.
         25    2    1    2    0    0 -0.86130666172E+02  0.43648380382E+02 -0.11700403433E+03  0.19662371015E+03  0.12508903461E+03 0.  0.
          5    1    3    3  502    0 -0.67967286641E+02 -0.14133689175E+02 -0.11676742361E+03  0.13590959068E+03  0.41800000000E+01 0.  1.
         -5    1    3    3    0  502 -0.18163379531E+02  0.57782069557E+02 -0.23661071756E+00  0.60714119469E+02  0.41800000000E+01 0.  1.
        -11    1    1    2    0    0  0.48587589912E+02 -0.64917999632E+00 -0.20247285279E+02  0.52641503486E+02  0.00000000000E+00 0. -1.
         11    1    1    2    0    0  0.37543076261E+02 -0.42999200386E+02 -0.15757195055E+03  0.16759276061E+03  0.00000000000E+00 0.  1.
</event>
<event>
 7    1  0.2679104E-009  0.1231084E+03  0.7561462E-02  0.1238055E+00
          2   -1    0    0  501    0  0.00000000000E+00  0.00000000000E+00  0.12601404431E+04  0.12601404431E+04  0.00000000000E+00 0.  1.
         -2   -1    0    0    0  501 -0.00000000000E+00 -0.00000000000E+00 -0.24297267412E+02  0.24297267412E+02  0.00000000000E+00 0. -1.
         25    2    1    2    0    0 -0.44876628928E+02  0.87640350107E+02  0.99697045646E+03  0.10095998710E+04  0.12508823198E+03 0.  0.
          5    1    3    3  502    0 -0.49409372223E+02  0.61710716332E+01  0.69430749892E+03  0.69610325645E+03  0.41800000000E+01 0.  1.
         -5    1    3    3    0  502  0.45327432950E+01  0.81469278474E+02  0.30266295754E+03  0.31349661459E+03  0.41800000000E+01 0.  1.
        -11    1    1    2    0    0 -0.75182170812E+01 -0.48670840768E+02  0.34088231777E+02  0.59894756656E+02  0.00000000000E+00 0. -1.
         11    1    1    2    0    0  0.52394846009E+02 -0.38969509339E+02  0.20478448749E+03  0.21494308284E+03  0.00000000000E+00 0.  1.
</event>
<event>
 7    1  0.2679104E-009  0.9824735E+02  0.7561462E-02  0.1284025E+00
         -1   -1    0    0    0  501 -0.00000000000E+00  0.00000000000E+00  0.24566501389E+02  0.24566501389E+02  0.00000000000E+00 0.  1.
          1   -1    0    0  501    0  0.00000000000E+00 -0.00000000000E+00 -0.49990240392E+03  0.49990240392E+03  0.00000000000E+00 0. -1.
         25    2    1    2    0    0 -0.19614368014E+02  0.28028345933E+01 -0.28242292026E+03  0.30951996907E+03  0.12508927233E+03 0.  0.
          5    1    3    3  502    0 -0.38260348286E+02 -0.43717723143E+02 -0.69218396619E+02  0.90464094525E+02  0.41800000000E+01 0.  1.
         -5    1    3    3    0  502  0.18645980272E+02  0.46520557736E+02 -0.21320452364E+03  0.21905587454E+03  0.41800000000E+01 0.  1.
        -11    1    1    2    0    0  0.35894946391E+02 -0.36090160023E+02 -0.69855804722E+02  0.86433675615E+02  0.00000000000E+00 0.  1.
         11    1    1    2    0    0 -0.16280578377E+02  0.33287325430E+02 -0.12305717755E+03  0.12851526062E+03  0.00000000000E+00 0. -1.
</event>
<event>
 7    1  0.3395782E-009  0.9126715E+02  0.7561462E-02  0.1299812E+00
         -1   -1    0    0    0  501 -0.00000000000E+00  0.00000000000E+00  0.54974963997E+02  0.54974963997E+02  0.00000000000E+00 0.  1.
          1   -1    0    0  501    0  0.00000000000E+00 -0.00000000000E+00 -0.34569664333E+03  0.34569664333E+03  0.00000000000E+00 0. -1.
         25    2    1    2    0    0  0.88216415492E+01  0.33097600575E+02 -0.27241674864E+03  0.30171449073E+03  0.12508987352E+03 0.  0.
          5    1    3    3  502    0  0.63269646580E+02  0.26134937379E+02 -0.10442255379E+03  0.12493048175E+03  0.41800000000E+01 0. -1.
         -5    1    3    3    0  502 -0.54448005031E+02  0.69626631966E+01 -0.16799419485E+03  0.17678400898E+03  0.41800000000E+01 0. -1.
        -11    1    1    2    0    0  0.86661190063E+01  0.94970287577E+01  0.29746434388E+02  0.32405949032E+02  0.00000000000E+00 0.  1.
         11    1    1    2    0    0 -0.17487760556E+02 -0.42594629333E+02 -0.48051365079E+02  0.66551167557E+02  0.00000000000E+00 0. -1.
</event>
<event>
 7    1  0.2679104E-009  0.1004643E+03  0.7561462E-02  0.1279323E+00
         -2   -1    0    0    0  501 -0.00000000000E+00  0.00000000000E+00  0.52930751358E+02  0.52930751358E+02  0.00000000000E+00 0. -1.
          2   -1    0    0  501    0  0.00000000000E+00 -0.00000000000E+00 -0.30566267115E+03  0.30566267115E+03  0.00000000000E+00 0.  1.
         25    2    1    2    0    0 -0.32430366963E+02 -0.13001125288E+02 -0.21789256212E+03  0.25365842432E+03  0.12507865383E+03 0.  0.
          5    1    3    3  502    0  0.33879991335E+02 -0.38098525640E+02 -0.50780799078E+02  0.72079909987E+02  0.41800000000E+01 0.  1.
         -5    1    3    3    0  502 -0.66310358298E+02  0.25097400352E+02 -0.16711176304E+03  0.18157851434E+03  0.41800000000E+01 0.  1.
        -11    1    1    2    0    0  0.50989667989E+02 -0.69958122769E+01  0.10017304090E+02  0.52433138493E+02  0.00000000000E+00 0. -1.
         11    1    1    2    0    0 -0.18559301025E+02  0.19996937565E+02 -0.44856661767E+02  0.52501859695E+02  0.00000000000E+00 0.  1.
</event>
<event>
 7    1  0.2679104E-009  0.1344856E+03  0.7561462E-02  0.1220948E+00
         -2   -1    0    0    0  501 -0.00000000000E+00  0.00000000000E+00  0.21923535657E+02  0.21923535657E+02  0.00000000000E+00 0. -1.
          2   -1    0    0  501    0  0.00000000000E+00 -0.00000000000E+00 -0.11342513091E+04  0.11342513091E+04  0.00000000000E+00 0.  1.
         25    2    1    2    0    0 -0.98080901523E+02 -0.56636541015E+02 -0.54848410168E+03  0.57385467152E+03  0.12508722239E+03 0.  0.
          5    1    3    3  502    0 -0.23644599923E+02 -0.47450544156E+02 -0.62339535459E+02  0.81940901432E+02  0.41800000000E+01 0.  1.
         -5    1    3    3    0  502 -0.74436301600E+02 -0.91859968587E+01 -0.48614456623E+03  0.49191377009E+03  0.41800000000E+01 0.  1.
        -11    1    1    2    0    0  0.41404383741E+02 -0.19493330320E+02 -0.26004166290E+03  0.26403783699E+03  0.00000000000E+00 0. -1.
         11    1    1    2    0    0  0.56676517782E+02  0.76129871334E+02 -0.30380200886E+03  0.31828233624E+03  0.00000000000E+00 0.  1.
</event>
<event>
 7    1  0.2679104E-009  0.1634660E+03  0.7561462E-02  0.1184838E+00
          2   -1    0    0  501    0  0.00000000000E+00  0.00000000000E+00  0.86400624014E+03  0.86400624014E+03  0.00000000000E+00 0. -1.
         -2   -1    0    0    0  501 -0.00000000000E+00 -0.00000000000E+00 -0.48711681917E+02  0.48711681917E+02  0.00000000000E+00 0.  1.
         25    2    1    2    0    0  0.10879990465E+03  0.11721203788E+03  0.58750717799E+03  0.62160066049E+03  0.12508643353E+03 0.  0.
          5    1    3    3  502    0  0.44578301339E+02  0.79060268561E+02  0.13359334458E+03  0.16156238773E+03  0.41800000000E+01 0.  1.
         -5    1    3    3    0  502  0.64221603309E+02  0.38151769318E+02  0.45391383341E+03  0.46003827275E+03  0.41800000000E+01 0.  1.
        -11    1    1    2    0    0 -0.46202384064E+02 -0.64977834990E+02  0.17938058685E+03  0.19630123349E+03  0.00000000000E+00 0. -1.
         11    1    1    2    0    0 -0.62597520585E+02 -0.52234202889E+02  0.48406793392E+02  0.94816028083E+02  0.00000000000E+00 0.  1.
</event>
<event>
 7    1  0.2679104E-009  0.1026732E+03  0.7561462E-02  0.1274773E+00
         -2   -1    0    0    0  501 -0.00000000000E+00  0.00000000000E+00  0.54924485532E+02  0.54924485532E+02  0.00000000000E+00 0.  1.
          2   -1    0    0  501    0  0.00000000000E+00 -0.00000000000E+00 -0.29357929654E+03  0.29357929654E+03  0.00000000000E+00 0. -1.
         25    2    1    2    0    0  0.58044057535E+02  0.30175292215E+02 -0.13952788790E+03  0.19848216278E+03  0.12508987395E+03 0.  0.
          5    1    3    3  502    0 -0.32102333646E+02  0.20488193218E+02 -0.87555379123E+01  0.39299589451E+02  0.41800000000E+01 0. -1.
         -5    1    3    3    0  502  0.90146391181E+02  0.96870989975E+01 -0.13077234998E+03  0.15918257333E+03  0.41800000000E+01 0. -1.
        -11    1    1    2    0    0 -0.26682127929E+02 -0.35554510559E+02  0.15054306656E+01  0.44478371074E+02  0.00000000000E+00 0.  1.
         11    1    1    2    0    0 -0.31361929607E+02  0.53792183435E+01 -0.10063235377E+03  0.10554324822E+03  0.00000000000E+00 0. -1.
</event>
<event>
 7    1  0.2679104E-009  0.1060988E+03  0.7561462E-02  0.1267970E+00
          1   -1    0    0  501    0  0.00000000000E+00  0.00000000000E+00  0.44036106634E+03  0.44036106634E+03  0.00000000000E+00 0. -1.
         -1   -1    0    0    0  501 -0.00000000000E+00 -0.00000000000E+00 -0.40832769065E+02  0.40832769065E+02  0.00000000000E+00 0.  1.
         25    2    1    2    0    0  0.29946765934E+02  0.50920249542E+02  0.31558404400E+03  0.34457311719E+03  0.12509062180E+03 0.  0.
          5    1    3    3  502    0  0.63557030996E+02  0.47144335463E+02  0.29339217179E+03  0.30390545145E+03  0.41800000000E+01 0.  1.
         -5    1    3    3    0  502 -0.33610265061E+02  0.37759140788E+01  0.22191872209E+02  0.40667665740E+02  0.41800000000E+01 0.  1.
        -11    1    1    2    0    0 -0.15684996282E+01 -0.66488407558E+02  0.79967155941E+02  0.10400920421E+03  0.00000000000E+00 0. -1.
         11    1    1    2    0    0 -0.28378266306E+02  0.15568158017E+02  0.39770973395E+01  0.32611514007E+02  0.00000000000E+00 0.  1.
</event>
<event>
 7    1  0.2679104E-009  0.1261697E+03  0.7561462E-02  0.1233252E+00
         -1   -1    0    0    0  501 -0.00000000000E+00  0.00000000000E+00  0.79440542929E+02  0.79440542929E+02  0.00000000000E+00 0.  1.
          1   -1    0    0  501    0  0.00000000000E+00 -0.00000000000E+00 -0.27002983527E+03  0.27002983527E+03  0.00000000000E+00 0. -1.
         25    2    1    2    0    0  0.14171448795E+02 -0.95177920153E+02 -0.10232014193E+03  0.18808427677E+03  0.12508643922E+03 0.  0.
          5    1    3    3  502    0  0.60018999834E+02 -0.24657582963E+02 -0.14919146832E+02  0.66710794335E+02  0.41800000000E+01 0.  1.
         -5    1    3    3    0  502 -0.45847551039E+02 -0.70520337190E+02 -0.87400995100E+02  0.12137348243E+03  0.41800000000E+01 0.  1.
        -11    1    1    2    0    0 -0.26771875790E+02  0.70025808879E+02 -0.68937575639E+01  0.75285265064E+02  0.00000000000E+00 0.  1.
         11    1    1    2    0    0  0.12600426995E+02  0.25152111274E+02 -0.81375392845E+02  0.86100836365E+02  0.00000000000E+00 0. -1.
</event>
<event>
 7    1  0.2679104E-009  0.1147362E+03  0.7561462E-02  0.1252042E+00
          2   -1    0    0  501    0  0.00000000000E+00  0.00000000000E+00  0.61937704750E+02  0.61937704750E+02  0.00000000000E+00 0. -1.
         -2   -1    0    0    0  501 -0.00000000000E+00 -0.00000000000E+00 -0.27308162723E+03  0.27308162723E+03  0.00000000000E+00 0.  1.
         25    2    1    2    0    0 -0.32030216975E+02 -0.44007346088E+02 -0.68207317113E+02  0.15251845786E+03  0.12508821115E+03 0.  0.
          5    1    3    3  502    0  0.10749293661E+02  0.39958505060E+02 -0.14956289549E+02  0.44197199435E+02  0.41800000000E+01 0.  1.
         -5    1    3    3    0  502 -0.42779510635E+02 -0.83965851148E+02 -0.53251027564E+02  0.10832125842E+03  0.41800000000E+01 0.  1.
        -11    1    1    2    0    0 -0.16753445180E+02  0.41445562083E+02 -0.12091820323E+03  0.12891712227E+03  0.00000000000E+00 0.  1.
         11    1    1    2    0    0  0.48783662155E+02  0.25617840049E+01 -0.22018402142E+02  0.53583751860E+02  0.00000000000E+00 0. -1.
</event>
<event>
 7    1  0.2679104E-009  0.1069509E+03  0.7561462E-02  0.1266323E+00
         -1   -1    0    0    0  501 -0.00000000000E+00  0.00000000000E+00  0.21887725680E+02  0.21887725680E+02  0.00000000000E+00 0.  1.
          1   -1    0    0  501    0  0.00000000000E+00 -0.00000000000E+00 -0.65066551865E+03  0.65066551865E+03  0.00000000000E+00 0. -1.
         25    2    1    2    0    0 -0.45815664911E+02 -0.21866549754E+02 -0.36851519140E+03  0.39246397206E+03  0.12508917586E+03 0.  0.
          5    1    3    3  502    0 -0.32755009876E+02  0.37525323884E+02 -0.28339651540E+03  0.28777091227E+03  0.41800000000E+01 0. -1.
         -5    1    3    3    0  502 -0.13060655035E+02 -0.59391873638E+02 -0.85118676004E+02  0.10469305979E+03  0.41800000000E+01 0. -1.
        -11    1    1    2    0    0  0.73183250078E+02  0.17526067437E+02 -0.20231858242E+03  0.21586051034E+03  0.00000000000E+00 0. -1.
         11    1    1    2    0    0 -0.27367585167E+02  0.43404823179E+01 -0.57944019145E+02  0.64228761932E+02  0.00000000000E+00 0.  1.
</event>
<event>
 7    1  0.2679104E-009  0.1113994E+03  0.7561462E-02  0.1258000E+00
          4   -1    0    0  501    0  0.00000000000E+00  0.00000000000E+00  0.25684262031E+03  0.25684262031E+03  0.00000000000E+00 0. -1.
         -4   -1    0    0    0  501 -0.00000000000E+00 -0.00000000000E+00 -0.67852449016E+02  0.67852449016E+02  0.00000000000E+00 0.  1.
         25    2    1    2    0    0 -0.59886273721E+02 -0.17761088202E+01  0.48335466465E+02  0.14687962854E+03  0.12509111726E+03 0.  0.
          5    1    3    3  502    0  0.30834090799E+02 -0.80636763490E+00  0.46602185863E+02  0.56041301835E+02  0.41800000000E+01 0.  1.
         -5    1    3    3    0  502 -0.90720364521E+02 -0.96974118530E+00  0.17332806022E+01  0.90838326704E+02  0.41800000000E+01 0.  1.
        -11    1    1    2    0    0  0.56020752176E+02 -0.33559691817E+02  0.56096404794E+02  0.86089396677E+02  0.00000000000E+00 0.  1.
         11    1    1    2    0    0  0.38655215450E+01  0.35335800637E+02  0.84558300031E+02  0.91726044108E+02  0.00000000000E+00 0. -1.
</event>
<event>
 7    1  0.2679104E-009  0.1423526E+03  0.7561462E-02  0.1210198E+00
          1   -1    0    0  501    0  0.00000000000E+00  0.00000000000E+00  0.48357930825E+03  0.48357930825E+03  0.00000000000E+00 0. -1.
         -1   -1    0    0    0  501 -0.00000000000E+00 -0.00000000000E+00 -0.75516743502E+02  0.75516743502E+02  0.00000000000E+00 0.  1.
         25    2    1    2    0    0  0.55757052988E+02  0.90018854702E+02  0.38250068760E+03  0.41613107596E+03  0.12508418447E+03 0.  0.
          5    1    3    3  502    0  0.80180550458E+02  0.10188868194E+03  0.25972069306E+03  0.29031454491E+03  0.41800000000E+01 0. -1.
         -5    1    3    3    0  502 -0.24423497470E+02 -0.11869827238E+02  0.12277999454E+03  0.12581653105E+03  0.41800000000E+01 0. -1.
        -11    1    1    2    0    0 -0.42347970666E+02 -0.64087092906E+01 -0.19480380592E+02  0.47052177445E+02  0.00000000000E+00 0.  1.
         11    1    1    2    0    0 -0.13409082322E+02 -0.83610145412E+02  0.45042257738E+02  0.95912798346E+02  0.00000000000E+00 0. -1.
</event>
<event>
 7    1  0.2679104E-009  0.1040670E+03  0.7561462E-02  0.1271969E+00
          1   -1    0    0  501    0  0.00000000000E+00  0.00000000000E+00  0.42014248832E+02  0.42014248832E+02  0.00000000000E+00 0. -1.
         -1   -1    0    0    0  501 -0.00000000000E+00 -0.00000000000E+00 -0.29524756514E+03  0.29524756514E+03  0.00000000000E+00 0.  1.
         25    2    1    2    0    0 -0.32087448448E+01 -0.25408195225E+02 -0.13538001560E+03  0.18609384346E+03  0.12508915829E+03 0.  0.
          5    1    3    3  502    0  0.55454363386E+02 -0.11155525165E+02 -0.28992328983E+02  0.63699762167E+02  0.41800000000E+01 0. -1.
         -5    1    3    3    0  502 -0.58663108231E+02 -0.14252670059E+02 -0.10638768662E+03  0.12239408129E+03  0.41800000000E+01 0. -1.
        -11    1    1    2    0    0 -0.31476123887E+02 -0.17271945001E+02 -0.68197581785E+02  0.77071243797E+02  0.00000000000E+00 0.  1.
         11    1    1    2    0    0  0.34684868732E+02  0.42680140225E+02 -0.49655718923E+02  0.74096726718E+02  0.00000000000E+00 0. -1.
</event>
<event>
 7    1  0.2679104E-009  0.1026316E+03  0.7561462E-02  0.1274857E+00
          2   -1    0    0  501    0  0.00000000000E+00  0.00000000000E+00  0.72592226542E+02  0.72592226542E+02  0.00000000000E+00 0. -1.
         -2   -1    0    0    0  501 -0.00000000000E+00 -0.00000000000E+00 -0.28330953631E+03  0.28330953631E+03  0.00000000000E+00 0.  1.
         25    2    1    2    0    0 -0.61539608357E+02  0.78506211860E+00 -0.28871231983E+02  0.14236569447E+03  0.12508678270E+03 0.  0.
          5    1    3    3  502    0 -0.95931532797E+02 -0.76669829563E+01 -0.41011055726E+02  0.10469489340E+03  0.41800000000E+01 0.  1.
         -5    1    3    3    0  502  0.34391924440E+02  0.84520450749E+01  0.12139823743E+02  0.37670801068E+02  0.41800000000E+01 0.  1.
        -11    1    1    2    0    0  0.50493475285E+02  0.16186217727E+02 -0.18552628170E+03  0.19295488046E+03  0.00000000000E+00 0.  1.
         11    1    1    2    0    0  0.11046133072E+02 -0.16971279845E+02  0.36802039190E+01  0.20581187923E+02  0.00000000000E+00 0. -1.
</event>
<event>
 7    1  0.2679104E-009  0.1761834E+03  0.7561462E-02  0.1171549E+00
         -1   -1    0    0    0  501 -0.00000000000E+00  0.00000000000E+00  0.96651348062E+02  0.96651348062E+02  0.00000000000E+00 0.  1.
          1   -1    0    0  501    0  0.00000000000E+00 -0.00000000000E+00 -0.43052375543E+03  0.43052375543E+03  0.00000000000E+00 0. -1.
         25    2    1    2    0    0 -0.16887067504E+03  0.15407412863E+02 -0.21726978451E+03  0.30267012041E+03  0.12509336221E+03 0.  0.
          5    1    3    3  502    0 -0.12107497196E+03  0.40983222738E+02 -0.70241636123E+02  0.14591138827E+03  0.41800000000E+01 0. -1.
         -5    1    3    3    0  502 -0.47795703073E+02 -0.25575809875E+02 -0.14702814839E+03  0.15675873214E+03  0.41800000000E+01 0. -1.
        -11    1    1    2    0    0  0.42146259770E+02 -0.97276121531E+01 -0.82496575963E+02  0.93148369263E+02  0.00000000000E+00 0. -1.
         11    1    1    2    0    0  0.12672441527E+03 -0.56798007097E+01 -0.34106046901E+02  0.13135661383E+03  0.00000000000E+00 0.  1.
</event>
<event>
 7    1  0.2679104E-009  0.3432086E+03  0.7561462E-02  0.1065438E+00
         -2   -1    0    0    0  501 -0.00000000000E+00  0.00000000000E+00  0.57296333721E+02  0.57296333721E+02  0.00000000000E+00 0.  1.
          2   -1    0    0  501    0  0.00000000000E+00 -0.00000000000E+00 -0.21678664002E+04  0.21678664002E+04  0.00000000000E+00 0. -1.
         25    2    1    2    0    0  0.10457432137E+03  0.31372603688E+03 -0.12434971025E+04  0.12927849385E+04  0.12509211942E+03 0.  0.
          5    1    3    3  502    0  0.10777083081E+03  0.13125446060E+03 -0.54781785821E+03  0.57355397617E+03  0.41800000000E+01 0. -1.
         -5    1    3    3    0  502 -0.31965094440E+01  0.18247157628E+03 -0.69567924431E+03  0.71923096233E+03  0.41800000000E+01 0. -1.
        -11    1    1    2    0    0 -0.52012175958E+02 -0.87987076275E+02 -0.37112689247E+03  0.38494436267E+03  0.00000000000E+00 0. -1.
         11    1    1    2    0    0 -0.52562145409E+02 -0.22573896060E+03 -0.49594607152E+03  0.54743343278E+03  0.00000000000E+00 0.  1.
</event>
<event>
 7    1  0.2679104E-009  0.1367954E+03  0.7561462E-02  0.1217707E+00
         -2   -1    0    0    0  501 -0.00000000000E+00  0.00000000000E+00  0.25382919526E+03  0.25382919526E+03  0.00000000000E+00 0.  1.
          2   -1    0    0  501    0  0.00000000000E+00 -0.00000000000E+00 -0.84470322756E+02  0.84470322756E+02  0.00000000000E+00 0. -1.
         25    2    1    2    0    0  0.20549107875E+02  0.94604648077E+02  0.10733780654E+03  0.19116139209E+03  0.12509583462E+03 0.  0.
          5    1    3    3  502    0 -0.22155517222E+02  0.10991160767E+03  0.82559474476E+02  0.13930171453E+03  0.41800000000E+01 0.  1.
         -5    1    3    3    0  502  0.42704625096E+02 -0.15306959593E+02  0.24778332068E+02  0.51859677560E+02  0.41800000000E+01 0.  1.
        -11    1    1    2    0    0 -0.18693150464E+02  0.23682441828E+01 -0.14353382023E+02  0.23686747989E+02  0.00000000000E+00 0. -1.
         11    1    1    2    0    0 -0.18559574107E+01 -0.96972892259E+02  0.76374447981E+02  0.12345137794E+03  0.00000000000E+00 0.  1.
</event>
<event>
 7    1  0.2679104E-009  0.1192325E+03  0.7561462E-02  0.1244369E+00
         -2   -1    0    0    0  501 -0.00000000000E+00  0.00000000000E+00  0.30882176029E+02  0.30882176029E+02  0.00000000000E+00 0.  1.
          2   -1    0    0  501    0  0.00000000000E+00 -0.00000000000E+00 -0.49516403711E+03  0.49516403711E+03  0.00000000000E+00 0. -1.
         25    2    1    2    0    0  0.77219506297E+01  0.59508374193E+02 -0.24341418392E+03  0.28017665240E+03  0.12509043327E+03 0.  0.
          5    1    3    3  502    0 -0.18403984878E+02 -0.31116323756E+02 -0.31298021901E+02  0.47999696233E+02  0.41800000000E+01 0.  1.
         -5    1    3    3    0  502  0.26125935508E+02  0.90624697949E+02 -0.21211616202E+03  0.23217695617E+03  0.41800000000E+01 0.  1.
        -11    1    1    2    0    0  0.12797945777E+02  0.20994510074E+02 -0.42409691477E+02  0.49021819637E+02  0.00000000000E+00 0.  1.
         11    1    1    2    0    0 -0.20519896406E+02 -0.80502884266E+02 -0.17845798568E+03  0.19684774111E+03  0.00000000000E+00 0. -1.
</event>
<event>
 7    1  0.2679104E-009  0.7690325E+02  0.7561462E-02  0.1338077E+00
         -1   -1    0    0    0  501 -0.00000000000E+00  0.00000000000E+00  0.13882261754E+03  0.13882261754E+03  0.00000000000E+00 0.  1.
          1   -1    0    0  501    0  0.00000000000E+00 -0.00000000000E+00 -0.12176684593E+03  0.12176684593E+03  0.00000000000E+00 0. -1.
         25    2    1    2    0    0 -0.10266000689E+02 -0.71014374127E+02  0.14843600919E+02  0.14495288679E+03  0.12507027944E+03 0.  0.
          5    1    3    3  502    0 -0.24607453252E+02 -0.45400503237E+02  0.67157846703E+02  0.84819698322E+02  0.41800000000E+01 0.  1.
         -5    1    3    3    0  502  0.14341452564E+02 -0.25613870890E+02 -0.52314245784E+02  0.60133188470E+02  0.41800000000E+01 0.  1.
        -11    1    1    2    0    0  0.16757445886E+01  0.43254065071E+02  0.45948425846E+02  0.63126698811E+02  0.00000000000E+00 0.  1.
         11    1    1    2    0    0  0.85902561000E+01  0.27760309057E+02 -0.43736255159E+02  0.52509877872E+02  0.00000000000E+00 0. -1.
</event>
<event>
 7    1  0.2679104E-009  0.1356969E+03  0.7561462E-02  0.1219239E+00
         -2   -1    0    0    0  501 -0.00000000000E+00  0.00000000000E+00  0.61071904363E+02  0.61071904363E+02  0.00000000000E+00 0.  1.
          2   -1    0    0  501    0  0.00000000000E+00 -0.00000000000E+00 -0.44151206580E+03  0.44151206580E+03  0.00000000000E+00 0. -1.
         25    2    1    2    0    0  0.92718222087E+02 -0.70605584137E+02 -0.15862183335E+03  0.23321568893E+03  0.12508738677E+03 0.  0.
          5    1    3    3  502    0 -0.39832628134E+01 -0.47669674752E+02 -0.24817975975E+01  0.48082179577E+02  0.41800000000E+01 0. -1.
         -5    1    3    3    0  502  0.96701484900E+02 -0.22935909385E+02 -0.15614003575E+03  0.18513350935E+03  0.41800000000E+01 0. -1.
        -11    1    1    2    0    0 -0.89314479970E+02  0.48687875594E+02 -0.22503277437E+03  0.24695614003E+03  0.00000000000E+00 0.  1.
         11    1    1    2    0    0 -0.34037421174E+01  0.21917708543E+02  0.32144462774E+01  0.22412141197E+02  0.00000000000E+00 0. -1.
</event>
<event>
 7    1  0.2679104E-009  0.1135213E+03  0.7561462E-02  0.1254185E+00
          1   -1    0    0  501    0  0.00000000000E+00  0.00000000000E+00  0.42556208290E+02  0.42556208290E+02  0.00000000000E+00 0. -1.
         -1   -1    0    0    0  501 -0.00000000000E+00 -0.00000000000E+00 -0.33372063980E+03  0.33372063980E+03  0.00000000000E+00 0.  1.
         25    2    1    2    0    0 -0.21594688845E+02  0.44120411210E+02 -0.18519050614E+03  0.22880782767E+03  0.12507820420E+03 0.  0.
          5    1    3    3  502    0  0.23360977499E+02 -0.34482374014E+02 -0.77173983486E+02  0.87795589380E+02  0.41800000000E+01 0. -1.
         -5    1    3    3    0  502 -0.44955666344E+02  0.78602785224E+02 -0.10801652265E+03  0.14101223829E+03  0.41800000000E+01 0. -1.
        -11    1    1    2    0    0 -0.30745399229E+02 -0.11298024050E+02 -0.11754126847E+02  0.34800638199E+02  0.00000000000E+00 0. -1.
         11    1    1    2    0    0  0.52340088074E+02 -0.32822387161E+02 -0.94219798531E+02  0.11266838223E+03  0.00000000000E+00 0.  1.
</event>
<event>
 7    1  0.2679104E-009  0.2265606E+03  0.7561462E-02  0.1129084E+00
         -2   -1    0    0    0  501 -0.00000000000E+00  0.00000000000E+00  0.94705051213E+02  0.94705051213E+02  0.00000000000E+00 0.  1.
          2   -1    0    0  501    0  0.00000000000E+00 -0.00000000000E+00 -0.57507183919E+03  0.57507183919E+03  0.00000000000E+00 0. -1.
         25    2    1    2    0    0  0.11351607092E+03 -0.16418887902E+03 -0.17232730554E+03  0.29186996842E+03  0.12508993516E+03 0.  0.
          5    1    3    3  502    0  0.23755492391E+02 -0.13914591971E+03 -0.90062335148E+02  0.16749509546E+03  0.41800000000E+01 0.  1.
         -5    1    3    3    0  502  0.89760578532E+02 -0.25042959310E+02 -0.82264970390E+02  0.12437487296E+03  0.41800000000E+01 0.  1.
        -11    1    1    2    0    0 -0.53128642214E+02  0.14628223723E+03 -0.22807984768E+03  0.27611874705E+03  0.00000000000E+00 0. -1.
         11    1    1    2    0    0 -0.60387428709E+02  0.17906641790E+02 -0.79959634759E+02  0.10178817494E+03  0.00000000000E+00 0.  1.
</event>
<event>
 7    1  0.2679104E-009  0.1401741E+03  0.7561462E-02  0.1213095E+00
         -1   -1    0    0    0  501 -0.00000000000E+00  0.00000000000E+00  0.16640679541E+03  0.16640679541E+03  0.00000000000E+00 0.  1.
          1   -1    0    0  501    0  0.00000000000E+00 -0.00000000000E+00 -0.15652664679E+03  0.15652664679E+03  0.00000000000E+00 0. -1.
         25    2    1    2    0    0  0.96391052403E+01 -0.11845505421E+03  0.57644938304E+01  0.17262758700E+03  0.12507014906E+03 0.  0.
          5    1    3    3  502    0 -0.46710897074E+02 -0.40622579710E+02 -0.31373549855E+02  0.69526066466E+02  0.41800000000E+01 0.  1.
         -5    1    3    3    0  502  0.56350002314E+02 -0.77832474502E+02  0.37138043685E+02  0.10310152054E+03  0.41800000000E+01 0.  1.
        -11    1    1    2    0    0 -0.18690717856E+02  0.56531504687E+02 -0.41746845906E+02  0.72718313369E+02  0.00000000000E+00 0. -1.
         11    1    1    2    0    0  0.90516126157E+01  0.61923549525E+02  0.45862500703E+02  0.77587541831E+02  0.00000000000E+00 0.  1.
</event>
<event>
 7    1  0.2679104E-009  0.1023058E+03  0.7561462E-02  0.1275521E+00
         -2   -1    0    0    0  501 -0.00000000000E+00  0.00000000000E+00  0.53924929901E+02  0.53924929901E+02  0.00000000000E+00 0. -1.
          2   -1    0    0  501    0  0.00000000000E+00 -0.00000000000E+00 -0.25341564090E+03  0.25341564090E+03  0.00000000000E+00 0.  1.
         25    2    1    2    0    0  0.32689977398E+02 -0.25937781967E+02 -0.12618021545E+03  0.18251042601E+03  0.12508879117E+03 0.  0.
          5    1    3    3  502    0  0.32954955849E+01 -0.69578008861E+02 -0.37263495284E+02  0.79107522328E+02  0.41800000000E+01 0. -1.
         -5    1    3    3    0  502  0.29394481813E+02  0.43640226893E+02 -0.88916720169E+02  0.10340290368E+03  0.41800000000E+01 0. -1.
        -11    1    1    2    0    0  0.22563315036E+02  0.84409799570E+01 -0.60993101734E+02  0.65578287467E+02  0.00000000000E+00 0.  1.
         11    1    1    2    0    0 -0.55253292434E+02  0.17496802010E+02 -0.12317393808E+02  0.59251857318E+02  0.00000000000E+00 0. -1.
</event>
<event>
 7    1  0.2679104E-009  0.9337811E+02  0.7561462E-02  0.1294871E+00
         -1   -1    0    0    0  501 -0.00000000000E+00  0.00000000000E+00  0.12014511901E+04  0.12014511901E+04  0.00000000000E+00 0. -1.
          1   -1    0    0  501    0  0.00000000000E+00 -0.00000000000E+00 -0.12003080427E+02  0.12003080427E+02  0.00000000000E+00 0.  1.
         25    2    1    2    0    0  0.28785172588E+02 -0.27042727999E+01  0.87603740260E+03  0.88539521814E+03  0.12508901748E+03 0.  0.
          5    1    3    3  502    0 -0.28343646122E+02 -0.16939948510E+02  0.67631962613E+03  0.67713811975E+03  0.41800000000E+01 0. -1.
         -5    1    3    3    0  502  0.57128818710E+02  0.14235675710E+02  0.19971777647E+03  0.20825709838E+03  0.41800000000E+01 0. -1.
        -11    1    1    2    0    0 -0.40932452418E+02  0.38778165173E+02  0.22181204573E+03  0.22886632646E+03  0.00000000000E+00 0. -1.
         11    1    1    2    0    0  0.12147279831E+02 -0.36073892373E+02  0.91598661350E+02  0.99192725939E+02  0.00000000000E+00 0.  1.
</event>
<event>
 7    1  0.2679104E-009  0.1094580E+03  0.7561462E-02  0.1261577E+00
         -1   -1    0    0    0  501 -0.00000000000E+00  0.00000000000E+00  0.95036956883E+02  0.95036956883E+02  0.00000000000E+00 0.  1.
          1   -1    0    0  501    0  0.00000000000E+00 -0.00000000000E+00 -0.16405009716E+03  0.16405009716E+03  0.00000000000E+00 0. -1.
         25    2    1    2    0    0 -0.14871425851E+02 -0.58102521913E+02 -0.56134532994E+02  0.14965007795E+03  0.12508795976E+03 0.  0.
          5    1    3    3  502    0  0.42398221197E+02 -0.46289955803E+02  0.72303635176E+01  0.63325506121E+02  0.41800000000E+01 0. -1.
         -5    1    3    3    0  502 -0.57269647048E+02 -0.11812566109E+02 -0.63364896512E+02  0.86324571826E+02  0.41800000000E+01 0. -1.
        -11    1    1    2    0    0 -0.23745177407E+02  0.53446609175E+02  0.16414731439E+02  0.60743862988E+02  0.00000000000E+00 0.  1.
         11    1    1    2    0    0  0.38616603258E+02  0.46559127374E+01 -0.29293338720E+02  0.48693113107E+02  0.00000000000E+00 0. -1.
</event>
<event>
 7    1  0.2679104E-009  0.1386038E+03  0.7561462E-02  0.1215220E+00
          1   -1    0    0  501    0  0.00000000000E+00  0.00000000000E+00  0.25705443911E+03  0.25705443911E+03  0.00000000000E+00 0. -1.
         -1   -1    0    0    0  501 -0.00000000000E+00 -0.00000000000E+00 -0.10242578267E+03  0.10242578267E+03  0.00000000000E+00 0.  1.
         25    2    1    2    0    0 -0.11504387458E+03  0.25799642376E+02  0.11289755970E+03  0.20565612830E+03  0.12509144453E+03 0.  0.
          5    1    3    3  502    0 -0.12690608903E+03  0.27737706215E+01  0.48205015814E+02  0.13584566679E+03  0.41800000000E+01 0.  1.
         -5    1    3    3    0  502  0.11862214443E+02  0.23025871754E+02  0.64692543885E+02  0.69810461507E+02  0.41800000000E+01 0.  1.
        -11    1    1    2    0    0  0.35196455968E+02  0.98092369166E+01 -0.24629410453E+02  0.44063811692E+02  0.00000000000E+00 0.  1.
         11    1    1    2    0    0  0.79847418617E+02 -0.35608879293E+02  0.66360507189E+02  0.10976028179E+03  0.00000000000E+00 0. -1.
</event>
<event>
 7    1  0.2679104E-009  0.1002083E+03  0.7561462E-02  0.1279858E+00
         -4   -1    0    0    0  501 -0.00000000000E+00  0.00000000000E+00  0.19632199910E+03  0.19632199910E+03  0.00000000000E+00 0. -1.
          4   -1    0    0  501    0  0.00000000000E+00 -0.00000000000E+00 -0.64309592422E+02  0.64309592422E+02  0.00000000000E+00 0.  1.
         25    2    1    2    0    0  0.49870909636E+01  0.29243190400E+02  0.79809292521E+02  0.15131513542E+03  0.12508681695E+03 0.  0.
          5    1    3    3  502    0  0.63985866361E+02  0.63228321083E+01  0.32381433766E+02  0.72112404984E+02  0.41800000000E+01 0.  1.
         -5    1    3    3    0  502 -0.58998775397E+02  0.22920358292E+02  0.47427858755E+02  0.79202730437E+02  0.41800000000E+01 0.  1.
        -11    1    1    2    0    0  0.17462552416E+02 -0.42869441290E+02 -0.48168471891E+01  0.46539571875E+02  0.00000000000E+00 0.  1.
         11    1    1    2    0    0 -0.22449643380E+02  0.13626250890E+02  0.57019961349E+02  0.62776884228E+02  0.00000000000E+00 0. -1.
</event>
<event>
 7    1  0.2679104E-009  0.1100509E+03  0.7561462E-02  0.1260476E+00
          2   -1    0    0  501    0  0.00000000000E+00  0.00000000000E+00  0.93393894202E+02  0.93393894202E+02  0.00000000000E+00 0. -1.
         -2   -1    0    0    0  501 -0.00000000000E+00 -0.00000000000E+00 -0.13649073500E+03  0.13649073500E+03  0.00000000000E+00 0.  1.
         25    2    1    2    0    0 -0.12734310869E+02  0.27656982651E+02 -0.27693836927E+02  0.13168646304E+03  0.12508918651E+03 0.  0.
          5    1    3    3  502    0  0.54621648488E+02  0.11085115366E+01 -0.21651805869E+02  0.58915417156E+02  0.41800000000E+01 0. -1.
         -5    1    3    3    0  502 -0.67355959357E+02  0.26548471114E+02 -0.60420310581E+01  0.72771045881E+02  0.41800000000E+01 0. -1.
        -11    1    1    2    0    0  0.49437999953E+02 -0.50808240158E+01 -0.22451494061E+02  0.54534394629E+02  0.00000000000E+00 0.  1.
         11    1    1    2    0    0 -0.36703689084E+02 -0.22576158635E+02  0.70484901851E+01  0.43663771538E+02  0.00000000000E+00 0. -1.
</event>
<event>
 7    1  0.2679104E-009  0.1400979E+03  0.7561462E-02  0.1213197E+00
         -1   -1    0    0    0  501 -0.00000000000E+00  0.00000000000E+00  0.51004268712E+02  0.51004268712E+02  0.00000000000E+00 0.  1.
          1   -1    0    0  501    0  0.00000000000E+00 -0.00000000000E+00 -0.61812345685E+03  0.61812345685E+03  0.00000000000E+00 0. -1.
         25    2    1    2    0    0  0.53123171960E+02  0.10382250855E+03 -0.15187715789E+03  0.22872537720E+03  0.12508973742E+03 0.  0.
          5    1    3    3  502    0 -0.19256417220E+02  0.34566304865E+02  0.74462783523E+01  0.40479111866E+02  0.41800000000E+01 0.  1.
         -5    1    3    3    0  502  0.72379589180E+02  0.69256203686E+02 -0.15932343624E+03  0.18824626534E+03  0.41800000000E+01 0.  1.
        -11    1    1    2    0    0 -0.68877180043E+02 -0.10357806850E+03 -0.39827688779E+03  0.41724927987E+03  0.00000000000E+00 0. -1.
         11    1    1    2    0    0  0.15754008083E+02 -0.24444005461E+00 -0.16965142459E+02  0.23153068485E+02  0.00000000000E+00 0.  1.
</event>
<event>
 7    1  0.2679104E-009  0.8406555E+02  0.7561462E-02  0.1317894E+00
          1   -1    0    0  501    0  0.00000000000E+00  0.00000000000E+00  0.30940408821E+02  0.30940408821E+02  0.00000000000E+00 0. -1.
         -1   -1    0    0    0  501 -0.00000000000E+00 -0.00000000000E+00 -0.48699193759E+03  0.48699193759E+03  0.00000000000E+00 0.  1.
         25    2    1    2    0    0  0.51628564722E+02 -0.20802521897E+02 -0.30930893973E+03  0.33825761366E+03  0.12509172392E+03 0.  0.
          5    1    3    3  502    0  0.47379905448E+02 -0.36461719035E+02 -0.49008439720E+02  0.77418421316E+02  0.41800000000E+01 0. -1.
         -5    1    3    3    0  502  0.42486592743E+01  0.15659197138E+02 -0.26030050001E+03  0.26083919235E+03  0.41800000000E+01 0. -1.
        -11    1    1    2    0    0  0.78311357987E+01 -0.18554414127E+02 -0.46122736688E+01  0.20660736673E+02  0.00000000000E+00 0. -1.
         11    1    1    2    0    0 -0.59459700521E+02  0.39356936024E+02 -0.14213031537E+03  0.15901399607E+03  0.00000000000E+00 0.  1.
</event>
<event>
 7    1  0.2679104E-009  0.1533038E+03  0.7561462E-02  0.1196471E+00
          1   -1    0    0  501    0  0.00000000000E+00  0.00000000000E+00  0.72396727671E+02  0.72396727671E+02  0.00000000000E+00 0. -1.
         -1   -1    0    0    0  501 -0.00000000000E+00 -0.00000000000E+00 -0.43308144436E+03  0.43308144436E+03  0.00000000000E+00 0.  1.
         25    2    1    2    0    0  0.89490827701E+02  0.97747843153E+02 -0.13219168989E+03  0.22513478363E+03  0.12509108217E+03 0.  0.
          5    1    3    3  502    0  0.48186407674E+02  0.11594701460E+03 -0.58420219018E+02  0.13854975449E+03  0.41800000000E+01 0.  1.
         -5    1    3    3    0  502  0.41304420027E+02 -0.18199171452E+02 -0.73771470870E+02  0.86585029131E+02  0.41800000000E+01 0.  1.
        -11    1    1    2    0    0 -0.65033506086E+02 -0.50115426220E+02 -0.55117851497E+02  0.98888272372E+02  0.00000000000E+00 0. -1.
         11    1    1    2    0    0 -0.24457321614E+02 -0.47632416933E+02 -0.17337517530E+03  0.18145511603E+03  0.00000000000E+00 0.  1.
</event>
<event>
 7    1  0.2679104E-009  0.6706546E+02  0.7561462E-02  0.1370366E+00
         -3   -1    0    0    0  501 -0.00000000000E+00  0.00000000000E+00  0.54416027751E+03  0.54416027751E+03  0.00000000000E+00 0.  1.
          3   -1    0    0  501    0  0.00000000000E+00 -0.00000000000E+00 -0.26503465970E+02  0.26503465970E+02  0.00000000000E+00 0. -1.
         25    2    1    2    0    0  0.18882322159E+02  0.29124997498E+02  0.37931193246E+03  0.40091120011E+03  0.12508973060E+03 0.  0.
          5    1    3    3  502    0  0.23670525369E+02  0.30202847210E+02  0.23814586369E+02  0.45355404031E+02  0.41800000000E+01 0. -1.
         -5    1    3    3    0  502 -0.47882032107E+01 -0.10778497127E+01  0.35549734609E+03  0.35555579608E+03  0.41800000000E+01 0. -1.
        -11    1    1    2    0    0 -0.47476863798E+02  0.10821596130E+01  0.36992345076E+02  0.60196821010E+02  0.00000000000E+00 0. -1.
         11    1    1    2    0    0  0.28594541639E+02 -0.30207157111E+02  0.10135253401E+03  0.10955572236E+03  0.00000000000E+00 0.  1.
</event>
<event>
 7    1  0.3990369E-009  0.9785263E+02  0.7561462E-02  0.1284877E+00
         -2   -1    0    0    0  501 -0.00000000000E+00  0.00000000000E+00  0.98150646004E+01  0.98150646004E+01  0.00000000000E+00 0.  1.
          2   -1    0    0  501    0  0.00000000000E+00 -0.00000000000E+00 -0.14802648379E+04  0.14802648379E+04  0.00000000000E+00 0. -1.
         25    2    1    2    0    0 -0.19726249510E+02  0.85868676251E+01 -0.11313296230E+04  0.11384275139E+04  0.12509048430E+03 0.  0.
          5    1    3    3  502    0 -0.54894894604E+02  0.29549011666E+02 -0.96722557502E+03  0.96924165145E+03  0.41800000000E+01 0. -1.
         -5    1    3    3    0  502  0.35168645094E+02 -0.20962144041E+02 -0.16410404803E+03  0.16918586247E+03  0.41800000000E+01 0. -1.
        -11    1    1    2    0    0  0.24812176281E+02 -0.47091792134E+02 -0.17043035005E+03  0.17854911144E+03  0.00000000000E+00 0. -1.
         11    1    1    2    0    0 -0.50859267706E+01  0.38504924509E+02 -0.16868980023E+03  0.17310327716E+03  0.00000000000E+00 0.  1.
</event>
<event>
 7    1  0.2679104E-009  0.1743650E+03  0.7561462E-02  0.1173371E+00
         -1   -1    0    0    0  501 -0.00000000000E+00  0.00000000000E+00  0.22118959953E+02  0.22118959953E+02  0.00000000000E+00 0.  1.
          1   -1    0    0  501    0  0.00000000000E+00 -0.00000000000E+00 -0.18974364874E+04  0.18974364874E+04  0.00000000000E+00 0. -1.
         25    2    1    2    0    0 -0.13647300771E+03 -0.46585522204E+02 -0.14272476976E+04  0.14399578688E+04  0.12509029051E+03 0.  0.
          5    1    3    3  502    0 -0.14194637258E+03 -0.28946089451E+01 -0.12057519332E+04  0.12140891023E+04  0.41800000000E+01 0.  1.
         -5    1    3    3    0  502  0.54733648776E+01 -0.43690913259E+02 -0.22149576444E+03  0.22586876652E+03  0.41800000000E+01 0.  1.
        -11    1    1    2    0    0  0.13076450296E+03  0.16455036943E+02 -0.41028738643E+03  0.43093603115E+03  0.00000000000E+00 0. -1.
         11    1    1    2    0    0  0.57085047463E+01  0.30130485261E+02 -0.37782443359E+02  0.48661547393E+02  0.00000000000E+00 0.  1.
</event>
<event>
 7    1  0.2679104E-009  0.1868676E+03  0.7561462E-02  0.1161317E+00
         -1   -1    0    0    0  501 -0.00000000000E+00  0.00000000000E+00  0.84542040160E+02  0.84542040160E+02  0.00000000000E+00 0.  1.
          1   -1    0    0  501    0  0.00000000000E+00 -0.00000000000E+00 -0.56689670612E+03  0.56689670612E+03  0.00000000000E+00 0. -1.
         25    2    1    2    0    0 -0.15857454828E+03 -0.58843645745E+02 -0.12188006619E+03  0.24312779099E+03  0.12509160727E+03 0.  0.
          5    1    3    3  502    0  0.61985625842E+01 -0.65602167491E+01 -0.57905132652E+02  0.58753173611E+02  0.41800000000E+01 0.  1.
         -5    1    3    3    0  502 -0.16477311086E+03 -0.52283428996E+02 -0.63974933535E+02  0.18437461738E+03  0.41800000000E+01 0.  1.
        -11    1    1    2    0    0  0.39602397171E+01 -0.17846102457E+02 -0.24151624338E+02  0.30289731423E+02  0.00000000000E+00 0.  1.
         11    1    1    2    0    0  0.15461430856E+03  0.76689748202E+02 -0.33632297544E+03  0.37802122387E+03  0.00000000000E+00 0. -1.
</event>
<event>
 7    1  0.2679104E-009  0.8451010E+02  0.7561462E-02  0.1316719E+00
         -2   -1    0    0    0  501 -0.00000000000E+00  0.00000000000E+00  0.97981778968E+02  0.97981778968E+02  0.00000000000E+00 0.  1.
          2   -1    0    0  501    0  0.00000000000E+00 -0.00000000000E+00 -0.15866186323E+03  0.15866186323E+03  0.00000000000E+00 0. -1.
         25    2    1    2    0    0  0.59743473238E+02  0.14512256310E+01 -0.11261947249E+02  0.13909192599E+03  0.12509334022E+03 0.  0.
          5    1    3    3  502    0  0.27686560491E+02 -0.72586173845E+01 -0.67615369559E+02  0.73542802222E+02  0.41800000000E+01 0.  1.
         -5    1    3    3    0  502  0.32056912748E+02  0.87098430154E+01  0.56353422310E+02  0.65549123764E+02  0.41800000000E+01 0.  1.
        -11    1    1    2    0    0 -0.75428948303E+02 -0.23991460534E+02 -0.35165554655E+02  0.86612543288E+02  0.00000000000E+00 0.  1.
         11    1    1    2    0    0  0.15685475065E+02  0.22540234903E+02 -0.14252582362E+02  0.30939172928E+02  0.00000000000E+00 0. -1.
</event>
<event>
 7    1  0.2679104E-009  0.1145849E+03  0.7561462E-02  0.1252307E+00
         -3   -1    0    0    0  501 -0.00000000000E+00  0.00000000000E+00  0.81224894668E+03  0.81224894668E+03  0.00000000000E+00 0.  1.
          3   -1    0    0  501    0  0.00000000000E+00 -0.00000000000E+00 -0.55619737850E+02  0.55619737850E+02  0.00000000000E+00 0. -1.
         25    2    1    2    0    0  0.10214849600E+03  0.46453191364E+02  0.68545709627E+03  0.70575539607E+03  0.12508810506E+03 0.  0.
          5    1    3    3  502    0  0.31438831390E+02  0.11152273178E+02  0.28573255761E+02  0.44121158881E+02  0.41800000000E+01 0. -1.
         -5    1    3    3    0  502  0.70709664611E+02  0.35300918186E+02  0.65688384051E+03  0.66163423719E+03  0.41800000000E+01 0. -1.
        -11    1    1    2    0    0 -0.85458396379E+02 -0.50460282993E+02  0.11365935753E+02  0.99892753325E+02  0.00000000000E+00 0. -1.
         11    1    1    2    0    0 -0.16690099623E+02  0.40070916293E+01  0.59806176807E+02  0.62220535139E+02  0.00000000000E+00 0.  1.
</event>
<event>
 7    1  0.2679104E-009  0.9092091E+02  0.7561462E-02  0.1300637E+00
         -1   -1    0    0    0  501 -0.00000000000E+00  0.00000000000E+00  0.11397529024E+03  0.11397529024E+03  0.00000000000E+00 0.  1.
          1   -1    0    0  501    0  0.00000000000E+00 -0.00000000000E+00 -0.12175560658E+03  0.12175560658E+03  0.00000000000E+00 0. -1.
         25    2    1    2    0    0 -0.37980437412E+02 -0.20966640117E+02 -0.31023310262E+02  0.13598101526E+03  0.12508507947E+03 0.  0.
          5    1    3    3  502    0 -0.73691136486E+01  0.28710119049E+02 -0.62682516216E+02  0.69463263751E+02  0.41800000000E+01 0.  1.
         -5    1    3    3    0  502 -0.30611323764E+02 -0.49676759166E+02  0.31659205955E+02  0.66517751506E+02  0.41800000000E+01 0.  1.
        -11    1    1    2    0    0 -0.94006205427E+01 -0.25418320734E+02 -0.52088570329E+01  0.27597008662E+02  0.00000000000E+00 0.  1.
         11    1    1    2    0    0  0.47381057955E+02  0.46384960851E+02  0.28451850949E+02  0.72152872905E+02  0.00000000000E+00 0. -1.
</event>
<event>
 7    1  0.2679104E-009  0.1581356E+03  0.7561462E-02  0.1190818E+00
          2   -1    0    0  501    0  0.00000000000E+00  0.00000000000E+00  0.15346133258E+03  0.15346133258E+03  0.00000000000E+00 0. -1.
         -2   -1    0    0    0  501 -0.00000000000E+00 -0.00000000000E+00 -0.21666469773E+03  0.21666469773E+03  0.00000000000E+00 0.  1.
         25    2    1    2    0    0  0.13236366793E+03 -0.61496988391E+02 -0.29988301327E+02  0.19454831507E+03  0.12509088100E+03 0.  0.
          5    1    3    3  502    0  0.11249397465E+03 -0.43618935066E+02 -0.74931707904E+02  0.14209060165E+03  0.41800000000E+01 0.  1.
         -5    1    3    3    0  502  0.19869693277E+02 -0.17878053324E+02  0.44943406577E+02  0.52457713412E+02  0.41800000000E+01 0.  1.
        -11    1    1    2    0    0 -0.38617744965E+01  0.37585048125E+02 -0.23531862717E+02  0.44511770441E+02  0.00000000000E+00 0. -1.
         11    1    1    2    0    0 -0.12850189343E+03  0.23911940265E+02 -0.96832011119E+01  0.13106594480E+03  0.00000000000E+00 0.  1.
</event>
<event>
 7    1  0.2679104E-009  0.1079159E+03  0.7561462E-02  0.1264479E+00
         -1   -1    0    0    0  501 -0.00000000000E+00  0.00000000000E+00  0.32177969792E+03  0.32177969792E+03  0.00000000000E+00 0.  1.
          1   -1    0    0  501    0  0.00000000000E+00 -0.00000000000E+00 -0.40702111487E+02  0.40702111487E+02  0.00000000000E+00 0. -1.
         25    2    1    2    0    0 -0.29432278218E+02 -0.85061930606E+01  0.18788509955E+03  0.22779019637E+03  0.12509575775E+03 0.  0.
          5    1    3    3  502    0 -0.65448948646E+02 -0.42942637556E+02  0.10587201325E+03  0.13173454592E+03  0.41800000000E+01 0.  1.
         -5    1    3    3    0  502  0.36016670427E+02  0.34436444496E+02  0.82013086306E+02  0.96055650451E+02  0.41800000000E+01 0.  1.
        -11    1    1    2    0    0  0.52352567793E+02 -0.15146386942E+02  0.84631206118E+02  0.10066104232E+03  0.00000000000E+00 0.  1.
         11    1    1    2    0    0 -0.22920289575E+02  0.23652580003E+02  0.85612807602E+01  0.34030570716E+02  0.00000000000E+00 0. -1.
</event>
<event>
 7    1  0.2679104E-009  0.1061886E+03  0.7561462E-02  0.1267795E+00
         -1   -1    0    0    0  501 -0.00000000000E+00  0.00000000000E+00  0.36288444252E+02  0.36288444252E+02  0.00000000000E+00 0.  1.
          1   -1    0    0  501    0  0.00000000000E+00 -0.00000000000E+00 -0.34963123669E+03  0.34963123669E+03  0.00000000000E+00 0. -1.
         25    2    1    2    0    0 -0.18079991803E+02  0.39581170203E+01 -0.15703628706E+03  0.20161634652E+03  0.12508478301E+03 0.  0.
          5    1    3    3  502    0  0.20061366965E+02  0.53099774885E+02 -0.41875806273E+02  0.70661871532E+02  0.41800000000E+01 0.  1.
         -5    1    3    3    0  502 -0.38141358768E+02 -0.49141657865E+02 -0.11516048078E+03  0.13095447499E+03  0.41800000000E+01 0.  1.
        -11    1    1    2    0    0  0.43260075510E+02  0.28670840280E+02 -0.11390718799E+03  0.12517307495E+03  0.00000000000E+00 0.  1.
         11    1    1    2    0    0 -0.25180083707E+02 -0.32628957301E+02 -0.42399317393E+02  0.59130259474E+02  0.00000000000E+00 0. -1.
</event>
<event>
 7    1  0.2679104E-009  0.9604822E+02  0.7561462E-02  0.1288833E+00
          1   -1    0    0  501    0  0.00000000000E+00  0.00000000000E+00  0.31045736322E+03  0.31045736322E+03  0.00000000000E+00 0. -1.
         -1   -1    0    0    0  501 -0.00000000000E+00 -0.00000000000E+00 -0.47231048133E+02  0.47231048133E+02  0.00000000000E+00 0.  1.
         25    2    1    2    0    0  0.49401959574E+02 -0.27409051570E+02  0.15859728016E+03  0.20974241863E+03  0.12508786985E+03 0.  0.
          5    1    3    3  502    0  0.25100832765E+02 -0.66130547862E+02  0.37356345156E+02  0.80101623513E+02  0.41800000000E+01 0. -1.
         -5    1    3    3    0  502  0.24301126809E+02  0.38721496292E+02  0.12124093500E+03  0.12964079512E+03  0.41800000000E+01 0. -1.
        -11    1    1    2    0    0 -0.55767054098E+02  0.98166908536E+01  0.11380100578E+03  0.12711019101E+03  0.00000000000E+00 0. -1.
         11    1    1    2    0    0  0.63650945244E+01  0.17592360717E+02 -0.91719708458E+01  0.20835801715E+02  0.00000000000E+00 0.  1.
</event>
<event>
 7    1  0.2679104E-009  0.1171399E+03  0.7561462E-02  0.1247891E+00
          1   -1    0    0  501    0  0.00000000000E+00  0.00000000000E+00  0.66014575757E+02  0.66014575757E+02  0.00000000000E+00 0. -1.
         -1   -1    0    0    0  501 -0.00000000000E+00 -0.00000000000E+00 -0.25603168069E+03  0.25603168069E+03  0.00000000000E+00 0.  1.
         25    2    1    2    0    0  0.63089313688E+02  0.32310825771E+02 -0.89007892014E+02  0.16909866475E+03  0.12509077750E+03 0.  0.
          5    1    3    3  502    0  0.36066520954E+02 -0.39058922334E+02 -0.21062332647E+01  0.53369485347E+02  0.41800000000E+01 0. -1.
         -5    1    3    3    0  502  0.27022792733E+02  0.71369748106E+02 -0.86901658749E+02  0.11572917940E+03  0.41800000000E+01 0. -1.
        -11    1    1    2    0    0 -0.30057080308E+01  0.22797213856E+02 -0.54343398485E+02  0.59008068934E+02  0.00000000000E+00 0.  1.
         11    1    1    2    0    0 -0.60083605657E+02 -0.55108039627E+02 -0.46665814434E+02  0.93939522764E+02  0.00000000000E+00 0. -1.
</event>
<event>
 7    1  0.2679104E-009  0.1118611E+03  0.7561462E-02  0.1257162E+00
          1   -1    0    0  501    0  0.00000000000E+00  0.00000000000E+00  0.91104054914E+01  0.91104054914E+01  0.00000000000E+00 0. -1.
         -1   -1    0    0    0  501 -0.00000000000E+00 -0.00000000000E+00 -0.14739202513E+04  0.14739202513E+04  0.00000000000E+00 0.  1.
         25    2    1    2    0    0 -0.31035304939E+02 -0.84881659063E+01 -0.94441643584E+03  0.95320717668E+03  0.12508508416E+03 0.  0.
          5    1    3    3  502    0 -0.81187479753E+01  0.55525432751E+02 -0.30275944401E+03  0.30794437986E+03  0.41800000000E+01 0. -1.
         -5    1    3    3    0  502 -0.22916556964E+02 -0.64013598658E+02 -0.64165699183E+03  0.64526279682E+03  0.41800000000E+01 0. -1.
        -11    1    1    2    0    0  0.27815153784E+02 -0.41105643987E+02 -0.27623385774E+03  0.28065726591E+03  0.00000000000E+00 0.  1.
         11    1    1    2    0    0  0.32201511549E+01  0.49593809894E+02 -0.24415955227E+03  0.24916621423E+03  0.00000000000E+00 0. -1.
</event>
<event>
 7    1  0.2679104E-009  0.1496048E+03  0.7561462E-02  0.1200960E+00
          2   -1    0    0  501    0  0.00000000000E+00  0.00000000000E+00  0.16485351169E+03  0.16485351169E+03  0.00000000000E+00 0.  1.
         -2   -1    0    0    0  501 -0.00000000000E+00 -0.00000000000E+00 -0.18202976379E+03  0.18202976379E+03  0.00000000000E+00 0. -1.
         25    2    1    2    0    0 -0.11140155520E+03 -0.72536590881E+02  0.25658334834E+01  0.18255237114E+03  0.12508765403E+03 0.  0.
          5    1    3    3  502    0 -0.85900023336E+00 -0.27853534220E+02 -0.45834312127E+02  0.53803474034E+02  0.41800000000E+01 0. -1.
         -5    1    3    3    0  502 -0.11054255497E+03 -0.44683056661E+02  0.48400145611E+02  0.12874889711E+03  0.41800000000E+01 0. -1.
        -11    1    1    2    0    0  0.25907864713E+02 -0.14528420752E+02  0.20218697929E+02  0.35931715928E+02  0.00000000000E+00 0.  1.
         11    1    1    2    0    0  0.85493690491E+02  0.87065011633E+02 -0.39960783521E+02  0.12839918841E+03  0.00000000000E+00 0. -1.
</event>
<event>
 7    1  0.2679104E-009  0.9602301E+02  0.7561462E-02  0.1288888E+00
         -1   -1    0    0    0  501 -0.00000000000E+00  0.00000000000E+00  0.18808822503E+03  0.18808822503E+03  0.00000000000E+00 0.  1.
          1   -1    0    0  501    0  0.00000000000E+00 -0.00000000000E+00 -0.92975299146E+02  0.92975299146E+02  0.00000000000E+00 0. -1.
         25    2    1    2    0    0 -0.83771496669E+01  0.27492797747E+02 -0.21930498809E+02  0.13020823499E+03  0.12508879693E+03 0.  0.
          5    1    3    3  502    0 -0.23088071487E+01  0.64098528065E+02  0.26097897319E+02  0.69372361463E+02  0.41800000000E+01 0. -1.
         -5    1    3    3    0  502 -0.60683425182E+01 -0.36605730317E+02 -0.48028396128E+02  0.60835873526E+02  0.41800000000E+01 0. -1.
        -11    1    1    2    0    0  0.36608644789E+02  0.14876986327E+02  0.75211403156E+02  0.84960418785E+02  0.00000000000E+00 0.  1.
         11    1    1    2    0    0 -0.28231495122E+02 -0.42369784074E+02  0.41832021536E+02  0.65894870400E+02  0.00000000000E+00 0. -1.
</event>
<event>
 7    1  0.2679104E-009  0.1763449E+03  0.7561462E-02  0.1171388E+00
         -2   -1    0    0    0  501 -0.00000000000E+00  0.00000000000E+00  0.90415154730E+02  0.90415154730E+02  0.00000000000E+00 0.  1.
          2   -1    0    0  501    0  0.00000000000E+00 -0.00000000000E+00 -0.39841611275E+03  0.39841611275E+03  0.00000000000E+00 0. -1.
         25    2    1    2    0    0  0.83766539330E+02 -0.12185880817E+03 -0.22355227161E+03  0.29578695947E+03  0.12509158649E+03 0.  0.
          5    1    3    3  502    0  0.11596108408E+03 -0.81348603129E+02 -0.16028696776E+03  0.21394848139E+03  0.41800000000E+01 0.  1.
         -5    1    3    3    0  502 -0.32194544753E+02 -0.40510205043E+02 -0.63265303851E+02  0.81838478088E+02  0.41800000000E+01 0.  1.
        -11    1    1    2    0    0 -0.36214148399E+01  0.53797879417E+02 -0.67740107486E+02  0.86579724170E+02  0.00000000000E+00 0. -1.
         11    1    1    2    0    0 -0.80145124491E+02  0.68060928754E+02 -0.16708578926E+02  0.10646458384E+03  0.00000000000E+00 0.  1.
</event>
<event>
 7    1  0.2679104E-009  0.1092721E+03  0.7561462E-02  0.1261924E+00
         -3   -1    0    0    0  501 -0.00000000000E+00  0.00000000000E+00  0.31215495104E+02  0.31215495104E+02  0.00000000000E+00 0.  1.
          3   -1    0    0  501    0  0.00000000000E+00 -0.00000000000E+00 -0.56709704775E+03  0.56709704775E+03  0.00000000000E+00 0. -1.
         25    2    1    2    0    0 -0.53378084177E+02 -0.32393115847E+02 -0.35983880882E+03  0.38604374569E+03  0.12508905400E+03 0.  0.
          5    1    3    3  502    0 -0.27937823481E+02  0.36264289118E+02 -0.24853684751E+03  0.25275216639E+03  0.41800000000E+01 0.  1.
         -5    1    3    3    0  502 -0.25440260696E+02 -0.68657404965E+02 -0.11130196130E+03  0.13329157930E+03  0.41800000000E+01 0.  1.
        -11    1    1    2    0    0  0.69093684022E+02  0.41962008701E+02 -0.77374950552E+02  0.11190009079E+03  0.00000000000E+00 0.  1.
         11    1    1    2    0    0 -0.15715599845E+02 -0.95688928541E+01 -0.98667793281E+02  0.10036870638E+03  0.00000000000E+00 0. -1.
</event>
<event>
 7    1  0.3092110E-009  0.1173289E+03  0.7561462E-02  0.1247570E+00
          2   -1    0    0  501    0  0.00000000000E+00  0.00000000000E+00  0.83551084470E+03  0.83551084470E+03  0.00000000000E+00 0.  1.
         -2   -1    0    0    0  501 -0.00000000000E+00 -0.00000000000E+00 -0.21169324488E+02  0.21169324488E+02  0.00000000000E+00 0. -1.
         25    2    1    2    0    0  0.68161096753E+02 -0.31567120157E+02  0.50558128957E+03  0.52621493885E+03  0.12508918147E+03 0.  0.
          5    1    3    3  502    0 -0.35034214165E+02 -0.13649429636E+02  0.18842294312E+03  0.19218319642E+03  0.41800000000E+01 0.  1.
         -5    1    3    3    0  502  0.10319531092E+03 -0.17917690521E+02  0.31715834645E+03  0.33403174243E+03  0.41800000000E+01 0.  1.
        -11    1    1    2    0    0 -0.53450267744E+02  0.46643156303E+02  0.29890816851E+03  0.30721101600E+03  0.00000000000E+00 0.  1.
         11    1    1    2    0    0 -0.14710829009E+02 -0.15076036146E+02  0.98520621307E+01  0.23254214333E+02  0.00000000000E+00 0. -1.
</event>
<event>
 7    1  0.2679104E-009  0.1471133E+03  0.7561462E-02  0.1204066E+00
          1   -1    0    0  501    0  0.00000000000E+00  0.00000000000E+00  0.52201333503E+03  0.52201333503E+03  0.00000000000E+00 0. -1.
         -1   -1    0    0    0  501 -0.00000000000E+00 -0.00000000000E+00 -0.57848832204E+02  0.57848832204E+02  0.00000000000E+00 0.  1.
         25    2    1    2    0    0 -0.49837469198E+02 -0.10849232439E+03  0.14214305504E+03  0.22384435519E+03  0.12508912609E+03 0.  0.
          5    1    3    3  502    0 -0.28423751699E+02  0.18499010664E+02  0.65616767186E+02  0.73980778531E+02  0.41800000000E+01 0.  1.
         -5    1    3    3    0  502 -0.21413717499E+02 -0.12699133506E+03  0.76526287856E+02  0.14986357666E+03  0.41800000000E+01 0.  1.
        -11    1    1    2    0    0  0.57692676514E+02  0.64586767382E+02  0.28557648923E+03  0.29841887783E+03  0.00000000000E+00 0. -1.
         11    1    1    2    0    0 -0.78552073155E+01  0.43905557011E+02  0.36444958555E+02  0.57598934213E+02  0.00000000000E+00 0.  1.
</event>
<event>
 7    1  0.2679104E-009  0.9467464E+02  0.7561462E-02  0.1291911E+00
          2   -1    0    0  501    0  0.00000000000E+00  0.00000000000E+00  0.65764647191E+02  0.65764647191E+02  0.00000000000E+00 0. -1.
         -2   -1    0    0    0  501 -0.00000000000E+00 -0.00000000000E+00 -0.21789426541E+03  0.21789426541E+03  0.00000000000E+00 0.  1.
         25    2    1    2    0    0 -0.16876285754E+02 -0.28922744927E+02 -0.12895989588E+03  0.18275517814E+03  0.12508983251E+03 0.  0.
          5    1    3    3  502    0  0.15575281243E+02 -0.71481179404E+02 -0.91828832286E+02  0.11748257417E+03  0.41800000000E+01 0.  1.
         -5    1    3    3    0  502 -0.32451566997E+02  0.42558434477E+02 -0.37131063593E+02  0.65272603972E+02  0.41800000000E+01 0.  1.
        -11    1    1    2    0    0  0.29482119076E+02 -0.14362623351E+01  0.27606927189E+02  0.40415351334E+02  0.00000000000E+00 0. -1.
         11    1    1    2    0    0 -0.12605833322E+02  0.30359007262E+02 -0.50776649529E+02  0.60488383125E+02  0.00000000000E+00 0.  1.
</event>
<event>
 7    1  0.2679104E-009  0.1062619E+03  0.7561462E-02  0.1267653E+00
         -2   -1    0    0    0  501 -0.00000000000E+00  0.00000000000E+00  0.91860170240E+02  0.91860170240E+02  0.00000000000E+00 0. -1.
          2   -1    0    0  501    0  0.00000000000E+00 -0.00000000000E+00 -0.32598970600E+03  0.32598970600E+03  0.00000000000E+00 0.  1.
         25    2    1    2    0    0 -0.87550658484E+02  0.26617434720E+02 -0.46393558260E+01  0.15505693270E+03  0.12509006005E+03 0.  0.
          5    1    3    3  502    0 -0.90735797168E+02  0.18687556209E+01  0.43458667503E+02  0.10071050251E+03  0.41800000000E+01 0. -1.
         -5    1    3    3    0  502  0.31851386844E+01  0.24748679099E+02 -0.48098023329E+02  0.54346430183E+02  0.41800000000E+01 0. -1.
        -11    1    1    2    0    0  0.50062163122E+02 -0.30598433322E+02 -0.21423495837E+03  0.22212406823E+03  0.00000000000E+00 0.  1.
         11    1    1    2    0    0  0.37488495361E+02  0.39809986028E+01 -0.15255221562E+02  0.40668875313E+02  0.00000000000E+00 0. -1.
</event>
<event>
 7    1  0.2679104E-009  0.1747812E+03  0.7561462E-02  0.1172952E+00
         -2   -1    0    0    0  501 -0.00000000000E+00  0.00000000000E+00  0.39533563308E+02  0.39533563308E+02  0.00000000000E+00 0.  1.
          2   -1    0    0  501    0  0.00000000000E+00 -0.00000000000E+00 -0.11823487252E+04  0.11823487252E+04  0.00000000000E+00 0. -1.
         25    2    1    2    0    0  0.75918535237E+02 -0.13149798677E+03 -0.89806790100E+03  0.91936440730E+03  0.12509841761E+03 0.  0.
          5    1    3    3  502    0 -0.94408332931E+01  0.16940310640E+02 -0.18284000937E+03  0.18391314495E+03  0.41800000000E+01 0. -1.
         -5    1    3    3    0  502  0.85359368530E+02 -0.14843829741E+03 -0.71522789163E+03  0.73545126235E+03  0.41800000000E+01 0. -1.
        -11    1    1    2    0    0 -0.63919665478E+02  0.13175312830E+03 -0.24974927298E+03  0.28951564692E+03  0.00000000000E+00 0. -1.
         11    1    1    2    0    0 -0.11998869759E+02 -0.25514153809E+00  0.50020120615E+01  0.13002234322E+02  0.00000000000E+00 0.  1.
</event>
<event>
 7    1  0.2679104E-009  0.1039379E+03  0.7561462E-02  0.1272226E+00
         -2   -1    0    0    0  501 -0.00000000000E+00  0.00000000000E+00  0.59465526930E+02  0.59465526930E+02  0.00000000000E+00 0. -1.
          2   -1    0    0  501    0  0.00000000000E+00 -0.00000000000E+00 -0.23304436854E+03  0.23304436854E+03  0.00000000000E+00 0.  1.
         25    2    1    2    0    0  0.44144740982E+02 -0.22974837539E+02 -0.12384289377E+03  0.18292386195E+03  0.12508987016E+03 0.  0.
          5    1    3    3  502    0  0.33567653018E+02  0.44378625690E+02 -0.21330868688E+02  0.59738832481E+02  0.41800000000E+01 0. -1.
         -5    1    3    3    0  502  0.10577087964E+02 -0.67353463229E+02 -0.10251202508E+03  0.12318502947E+03  0.41800000000E+01 0. -1.
        -11    1    1    2    0    0 -0.42993002016E+02 -0.15181273880E+02 -0.54566444691E+02  0.71108130233E+02  0.00000000000E+00 0.  1.
         11    1    1    2    0    0 -0.11517389661E+01  0.38156111419E+02  0.48304968534E+01  0.38477903284E+02  0.00000000000E+00 0. -1.
</event>
<event>
 7    1  0.2679104E-009  0.1832117E+03  0.7561462E-02  0.1164730E+00
          1   -1    0    0  501    0  0.00000000000E+00  0.00000000000E+00  0.60467452567E+03  0.60467452567E+03  0.00000000000E+00 0. -1.
         -1   -1    0    0    0  501 -0.00000000000E+00 -0.00000000000E+00 -0.69198248162E+02  0.69198248162E+02  0.00000000000E+00 0.  1.
         25    2    1    2    0    0  0.14877145914E+03  0.76188674180E+02  0.20976338958E+03  0.29595003695E+03  0.12509230046E+03 0.  0.
          5    1    3    3  502    0  0.82694746130E+02  0.97725732896E+02  0.87069790549E+02  0.15487853542E+03  0.41800000000E+01 0.  1.
         -5    1    3    3    0  502  0.66076713012E+02 -0.21537058716E+02  0.12269359903E+03  0.14107150153E+03  0.41800000000E+01 0.  1.
        -11    1    1    2    0    0 -0.72567478611E+02 -0.50038622212E+02  0.78927138062E+02  0.11831904237E+03  0.00000000000E+00 0.  1.
         11    1    1    2    0    0 -0.76203980531E+02 -0.26150051968E+02  0.24678574986E+03  0.25960369451E+03  0.00000000000E+00 0. -1.
</event>
<event>
 7    1  0.2679104E-009  0.1063263E+03  0.7561462E-02  0.1267528E+00
         -2   -1    0    0    0  501 -0.00000000000E+00  0.00000000000E+00  0.47731032775E+02  0.47731032775E+02  0.00000000000E+00 0.  1.
          2   -1    0    0  501    0  0.00000000000E+00 -0.00000000000E+00 -0.42119271852E+03  0.42119271852E+03  0.00000000000E+00 0. -1.
         25    2    1    2    0    0 -0.76916655060E+02 -0.35384536169E+02 -0.26777383635E+03  0.30743697663E+03  0.12508569039E+03 0.  0.
          5    1    3    3  502    0 -0.15578133372E+01 -0.50763231877E+02 -0.19472021446E+03  0.20127783487E+03  0.41800000000E+01 0. -1.
         -5    1    3    3    0  502 -0.75358841722E+02  0.15378695708E+02 -0.73053621896E+02  0.10615914176E+03  0.41800000000E+01 0. -1.
        -11    1    1    2    0    0  0.61036382085E+02  0.27775921471E+02 -0.14493102238E+02  0.68607519734E+02  0.00000000000E+00 0.  1.
         11    1    1    2    0    0  0.15880272975E+02  0.76086146982E+01 -0.91194747156E+02  0.92879254929E+02  0.00000000000E+00 0. -1.
</event>
<event>
 7    1  0.2679104E-009  0.9299710E+02  0.7561462E-02  0.1295752E+00
          2   -1    0    0  501    0  0.00000000000E+00  0.00000000000E+00  0.71836230956E+02  0.71836230956E+02  0.00000000000E+00 0. -1.
         -2   -1    0    0    0  501 -0.00000000000E+00 -0.00000000000E+00 -0.23677267949E+03  0.23677267949E+03  0.00000000000E+00 0.  1.
         25    2    1    2    0    0  0.34855697734E+02  0.26299243056E+02 -0.22661446513E+02  0.13441242329E+03  0.12508632430E+03 0.  0.
          5    1    3    3  502    0  0.65657640510E+02  0.51986512767E+02 -0.36949880025E+02  0.91631268139E+02  0.41800000000E+01 0.  1.
         -5    1    3    3    0  502 -0.30801942776E+02 -0.25687269710E+02  0.14288433512E+02  0.42781155152E+02  0.41800000000E+01 0.  1.
        -11    1    1    2    0    0 -0.58681651976E+01  0.12252159933E+02  0.84117232623E+01  0.15978356425E+02  0.00000000000E+00 0. -1.
         11    1    1    2    0    0 -0.28987532537E+02 -0.38551402989E+02 -0.15068672528E+03  0.15821813073E+03  0.00000000000E+00 0.  1.
</event>
<event>
 7    1  0.2679104E-009  0.1039291E+03  0.7561462E-02  0.1272244E+00
         -2   -1    0    0    0  501 -0.00000000000E+00  0.00000000000E+00  0.47515578109E+02  0.47515578109E+02  0.00000000000E+00 0.  1.
          2   -1    0    0  501    0  0.00000000000E+00 -0.00000000000E+00 -0.37527584449E+03  0.37527584449E+03  0.00000000000E+00 0. -1.
         25    2    1    2    0    0 -0.49602724364E+02 -0.14719228848E+02 -0.27341213130E+03  0.30508833893E+03  0.12509042749E+03 0.  0.
          5    1    3    3  502    0 -0.71315485628E+02  0.28822049608E+02 -0.21809611832E+03  0.23130066636E+03  0.41800000000E+01 0. -1.
         -5    1    3    3    0  502  0.21712761264E+02 -0.43541278457E+02 -0.55316012977E+02  0.73787672568E+02  0.41800000000E+01 0. -1.
        -11    1    1    2    0    0  0.52638197635E+02 -0.12907993382E+02  0.26786313522E+01  0.54263903374E+02  0.00000000000E+00 0.  1.
         11    1    1    2    0    0 -0.30354732709E+01  0.27627222230E+02 -0.57026766437E+02  0.63439180294E+02  0.00000000000E+00 0. -1.
</event>
<event>
 7    1  0.2679104E-009  0.1050922E+03  0.7561462E-02  0.1269938E+00
          2   -1    0    0  501    0  0.00000000000E+00  0.00000000000E+00  0.28233852856E+02  0.28233852856E+02  0.00000000000E+00 0. -1.
         -2   -1    0    0    0  501 -0.00000000000E+00 -0.00000000000E+00 -0.54374532615E+03  0.54374532615E+03  0.00000000000E+00 0.  1.
         25    2    1    2    0    0  0.41978157497E+02 -0.56278358942E+01 -0.18999690925E+03  0.23139016221E+03  0.12509493756E+03 0.  0.
          5    1    3    3  502    0 -0.29796466765E+02 -0.39901030926E+02 -0.95659593147E+02  0.10792660405E+03  0.41800000000E+01 0. -1.
         -5    1    3    3    0  502  0.71774624261E+02  0.34273195032E+02 -0.94337316099E+02  0.12346355816E+03  0.41800000000E+01 0. -1.
        -11    1    1    2    0    0 -0.60671286454E+02 -0.11412324079E+01 -0.30852977965E+03  0.31444066585E+03  0.00000000000E+00 0.  1.
         11    1    1    2    0    0  0.18693128958E+02  0.67690683021E+01 -0.16984784402E+02  0.26148350944E+02  0.00000000000E+00 0. -1.
</event>
<event>
 7    1  0.2679104E-009  0.1224217E+03  0.7561462E-02  0.1239155E+00
         -1   -1    0    0    0  501 -0.00000000000E+00  0.00000000000E+00  0.11435531259E+03  0.11435531259E+03  0.00000000000E+00 0.  1.
          1   -1    0    0  501    0  0.00000000000E+00 -0.00000000000E+00 -0.22279037052E+03  0.22279037052E+03  0.00000000000E+00 0. -1.
         25    2    1    2    0    0 -0.98951629811E+02 -0.62076619580E+02 -0.78683695927E+02  0.18837217724E+03  0.12509205176E+03 0.  0.
          5    1    3    3  502    0 -0.76028005876E+02 -0.35685688395E+02  0.17548763951E+02  0.85902022967E+02  0.41800000000E+01 0.  1.
         -5    1    3    3    0  502 -0.22923623936E+02 -0.26390931185E+02 -0.96232459878E+02  0.10247015428E+03  0.41800000000E+01 0.  1.
        -11    1    1    2    0    0  0.89708598300E+01  0.27879416041E+02  0.24583503249E+02  0.38237243584E+02  0.00000000000E+00 0.  1.
         11    1    1    2    0    0  0.89980769981E+02  0.34197203539E+02 -0.54334865256E+02  0.11053626228E+03  0.00000000000E+00 0. -1.
</event>
<event>
 7    1  0.2679104E-009  0.8875468E+02  0.7561462E-02  0.1305896E+00
         -1   -1    0    0    0  501 -0.00000000000E+00  0.00000000000E+00  0.56134833987E+02  0.56134833987E+02  0.00000000000E+00 0.  1.
          1   -1    0    0  501    0  0.00000000000E+00 -0.00000000000E+00 -0.24286236837E+03  0.24286236837E+03  0.00000000000E+00 0. -1.
         25    2    1    2    0    0 -0.21748402927E+02  0.20294488376E+02 -0.14882174564E+03  0.19667333150E+03  0.12509047948E+03 0.  0.
          5    1    3    3  502    0 -0.43541539437E+02 -0.19614688117E+02 -0.79594757887E+01  0.48594519251E+02  0.41800000000E+01 0. -1.
         -5    1    3    3    0  502  0.21793136510E+02  0.39909176492E+02 -0.14086226985E+03  0.14807881224E+03  0.41800000000E+01 0. -1.
        -11    1    1    2    0    0  0.49686807270E+02 -0.53821444578E+00  0.20330893592E+01  0.49731297427E+02  0.00000000000E+00 0.  1.
         11    1    1    2    0    0 -0.27938404343E+02 -0.19756273930E+02 -0.39938878102E+02  0.52592573438E+02  0.00000000000E+00 0. -1.
</event>
<event>
 7    1  0.2679104E-009  0.1888728E+03  0.7561462E-02  0.1159482E+00
         -2   -1    0    0    0  501 -0.00000000000E+00  0.00000000000E+00  0.74526025674E+02  0.74526025674E+02  0.00000000000E+00 0.  1.
          2   -1    0    0  501    0  0.00000000000E+00 -0.00000000000E+00 -0.56440943912E+03  0.56440943912E+03  0.00000000000E+00 0. -1.
         25    2    1    2    0    0  0.15895729622E+03 -0.62609567458E+02 -0.20973009761E+03  0.29802899367E+03  0.12508871759E+03 0.  0.
          5    1    3    3  502    0  0.17050120969E+03 -0.68747664897E+02 -0.15166170301E+03  0.23836033331E+03  0.41800000000E+01 0.  1.
         -5    1    3    3    0  502 -0.11543913470E+02  0.61380974393E+01 -0.58068394599E+02  0.59668660364E+02  0.41800000000E+01 0.  1.
        -11    1    1    2    0    0 -0.12473738806E+03  0.21387508582E+02 -0.12977118547E+03  0.18126610847E+03  0.00000000000E+00 0.  1.
         11    1    1    2    0    0 -0.34219908165E+02  0.41222058876E+02 -0.15038213038E+03  0.15964036266E+03  0.00000000000E+00 0. -1.
</event>
<event>
 7    1  0.2679104E-009  0.8394850E+02  0.7561462E-02  0.1318205E+00
         -2   -1    0    0    0  501 -0.00000000000E+00  0.00000000000E+00  0.42120463577E+03  0.42120463577E+03  0.00000000000E+00 0.  1.
          2   -1    0    0  501    0  0.00000000000E+00 -0.00000000000E+00 -0.32125611230E+02  0.32125611230E+02  0.00000000000E+00 0. -1.
         25    2    1    2    0    0 -0.24120469387E-01 -0.42730841724E+02  0.21561522942E+03  0.25290606984E+03  0.12508248315E+03 0.  0.
          5    1    3    3  502    0 -0.14028130912E+02 -0.71152433347E+02  0.60511489407E+02  0.94544010801E+02  0.41800000000E+01 0.  1.
         -5    1    3    3    0  502  0.14004010443E+02  0.28421591623E+02  0.15510374001E+03  0.15836205904E+03  0.41800000000E+01 0.  1.
        -11    1    1    2    0    0 -0.70608625349E+01  0.51522722266E+02  0.18001072513E+03  0.18737211065E+03  0.00000000000E+00 0.  1.
         11    1    1    2    0    0  0.70849830043E+01 -0.87918805420E+01 -0.65469300026E+01  0.13052066507E+02  0.00000000000E+00 0. -1.
</event>
<event>
 7    1  0.2679104E-009  0.9657138E+02  0.7561462E-02  0.1287676E+00
          2   -1    0    0  501    0  0.00000000000E+00  0.00000000000E+00  0.45361701562E+03  0.45361701562E+03  0.00000000000E+00 0. -1.
         -2   -1    0    0    0  501 -0.00000000000E+00 -0.00000000000E+00 -0.31870437639E+02  0.31870437639E+02  0.00000000000E+00 0.  1.
         25    2    1    2    0    0  0.25865656927E+01  0.48051031343E+01  0.34563097589E+03  0.36761051655E+03  0.12508773341E+03 0.  0.
          5    1    3    3  502    0 -0.46679634322E+02  0.24819564089E+02  0.75505305064E+02  0.92268751562E+02  0.41800000000E+01 0. -1.
         -5    1    3    3    0  502  0.49266200015E+02 -0.20014460955E+02  0.27012567082E+03  0.27534176499E+03  0.41800000000E+01 0. -1.
        -11    1    1    2    0    0 -0.26186246114E+02 -0.37933880905E+02  0.24628348328E+02  0.52261403994E+02  0.00000000000E+00 0.  1.
         11    1    1    2    0    0  0.23599680421E+02  0.33128777771E+02  0.51487253768E+02  0.65615532713E+02  0.00000000000E+00 0. -1.
</event>
<event>
 7    1  0.2679104E-009  0.1412034E+03  0.7561462E-02  0.1211719E+00
         -1   -1    0    0    0  501 -0.00000000000E+00  0.00000000000E+00  0.73499522142E+03  0.73499522142E+03  0.00000000000E+00 0.  1.
          1   -1    0    0  501    0  0.00000000000E+00 -0.00000000000E+00 -0.28484553330E+02  0.28484553330E+02  0.00000000000E+00 0. -1.
         25    2    1    2    0    0  0.93471357936E+02 -0.25844373248E+01  0.43171775084E+03  0.45910104983E+03  0.12509989405E+03 0.  0.
          5    1    3    3  502    0  0.16434519025E+02 -0.57190868323E+02  0.20409401334E+03  0.21263284675E+03  0.41800000000E+01 0. -1.
         -5    1    3    3    0  502  0.77036838911E+02  0.54606430998E+02  0.22762373749E+03  0.24646820307E+03  0.41800000000E+01 0. -1.
        -11    1    1    2    0    0 -0.10835639472E+03 -0.98995768091E+01  0.25163007246E+03  0.27414741156E+03  0.00000000000E+00 0.  1.
         11    1    1    2    0    0  0.14885036784E+02  0.12484014134E+02  0.23162844793E+02  0.30231313367E+02  0.00000000000E+00 0. -1.
</event>
<event>
 7    1  0.2679104E-009  0.1340472E+03  0.7561462E-02  0.1221571E+00
         -1   -1    0    0    0  501 -0.00000000000E+00  0.00000000000E+00  0.24524113198E+02  0.24524113198E+02  0.00000000000E+00 0.  1.
          1   -1    0    0  501    0  0.00000000000E+00 -0.00000000000E+00 -0.10463230747E+04  0.10463230747E+04  0.00000000000E+00 0. -1.
         25    2    1    2    0    0  0.79415327753E+02  0.30889058970E+02 -0.79474997852E+03  0.80903523023E+03  0.12509815007E+03 0.  0.
          5    1    3    3  502    0  0.68452417365E+02  0.75075502417E+02 -0.45503864530E+03  0.46626141340E+03  0.41800000000E+01 0. -1.
         -5    1    3    3    0  502  0.10962910388E+02 -0.44186443447E+02 -0.33971133322E+03  0.34277381683E+03  0.41800000000E+01 0. -1.
        -11    1    1    2    0    0  0.10436887113E+02 -0.29000311114E+02 -0.21807310359E+02  0.37755866331E+02  0.00000000000E+00 0.  1.
         11    1    1    2    0    0 -0.89852214866E+02 -0.18887478564E+01 -0.20524167265E+03  0.22405609136E+03  0.00000000000E+00 0. -1.
</event>
<event>
 7    1  0.2915555E-009  0.1707288E+03  0.7561462E-02  0.1177090E+00
         -1   -1    0    0    0  501 -0.00000000000E+00  0.00000000000E+00  0.26201475432E+02  0.26201475432E+02  0.00000000000E+00 0.  1.
          1   -1    0    0  501    0  0.00000000000E+00 -0.00000000000E+00 -0.13434853854E+04  0.13434853854E+04  0.00000000000E+00 0. -1.
         25    2    1    2    0    0 -0.11542622383E+02  0.13796170111E+03 -0.45963573391E+03  0.49606348139E+03  0.12508919449E+03 0.  0.
          5    1    3    3  502    0 -0.18255926443E+02  0.15589270874E+03 -0.44414867936E+03  0.47108527600E+03  0.41800000000E+01 0. -1.
         -5    1    3    3    0  502  0.67133040596E+01 -0.17931007626E+02 -0.15487054554E+02  0.24978205393E+02  0.41800000000E+01 0. -1.
        -11    1    1    2    0    0  0.49054362375E+02 -0.54398126832E+02 -0.43930586872E+03  0.44537078144E+03  0.00000000000E+00 0.  1.
         11    1    1    2    0    0 -0.37511739992E+02 -0.83563574283E+02 -0.41834230737E+03  0.42825259803E+03  0.00000000000E+00 0. -1.
</event>
<event>
 7    1  0.2679104E-009  0.8584278E+02  0.7561462E-02  0.1313243E+00
          3   -1    0    0  501    0  0.00000000000E+00  0.00000000000E+00  0.60486528013E+02  0.60486528013E+02  0.00000000000E+00 0. -1.
         -3   -1    0    0    0  501 -0.00000000000E+00 -0.00000000000E+00 -0.22775640318E+03  0.22775640318E+03  0.00000000000E+00 0.  1.
         25    2    1    2    0    0 -0.72522835869E+01  0.37899117400E+02 -0.12422654089E+03  0.18047025193E+03  0.12509332378E+03 0.  0.
          5    1    3    3  502    0  0.33279328118E+02  0.36904664590E+02 -0.13006296665E+03  0.13929578473E+03  0.41800000000E+01 0. -1.
         -5    1    3    3    0  502 -0.40531611705E+02  0.99445280976E+00  0.58364257652E+01  0.41174467204E+02  0.41800000000E+01 0. -1.
        -11    1    1    2    0    0 -0.26785388410E+02 -0.38635072154E+02 -0.54384834996E+02  0.71887663129E+02  0.00000000000E+00 0.  1.
         11    1    1    2    0    0  0.34037671997E+02  0.73595475357E+00  0.11341500716E+02  0.35885016133E+02  0.00000000000E+00 0. -1.
</event>
<event>
 7    1  0.2679104E-009  0.4469113E+03  0.7561462E-02  0.1028647E+00
          1   -1    0    0  501    0  0.00000000000E+00  0.00000000000E+00  0.54874624514E+03  0.54874624514E+03  0.00000000000E+00 0. -1.
         -1   -1    0    0    0  501 -0.00000000000E+00 -0.00000000000E+00 -0.43248514234E+03  0.43248514234E+03  0.00000000000E+00 0.  1.
         25    2    1    2    0    0 -0.21721693657E+02  0.43321216844E+03 -0.13577024788E+03  0.47140813159E+03  0.12508977364E+03 0.  0.
          5    1    3    3  502    0  0.17075981592E+02  0.39728544526E+03 -0.12820492930E+03  0.41782925994E+03  0.41800000000E+01 0.  1.
         -5    1    3    3    0  502 -0.38797675249E+02  0.35926723174E+02 -0.75653185799E+01  0.53578871656E+02  0.41800000000E+01 0.  1.
        -11    1    1    2    0    0  0.55617751037E+02 -0.32451518726E+03  0.19104133546E+03  0.38065763206E+03  0.00000000000E+00 0.  1.
         11    1    1    2    0    0 -0.33896057380E+02 -0.10869698117E+03  0.60990015219E+02  0.12916562383E+03  0.00000000000E+00 0. -1.
</event>
<event>
 7    1  0.2679104E-009  0.1298277E+03  0.7561462E-02  0.1227712E+00
          3   -1    0    0  501    0  0.00000000000E+00  0.00000000000E+00  0.17541893852E+03  0.17541893852E+03  0.00000000000E+00 0. -1.
         -3   -1    0    0    0  501 -0.00000000000E+00 -0.00000000000E+00 -0.14923900510E+03  0.14923900510E+03  0.00000000000E+00 0.  1.
         25    2    1    2    0    0  0.83482781214E+02  0.65376102149E+02  0.83850547714E+00  0.16398437081E+03  0.12508701487E+03 0.  0.
          5    1    3    3  502    0  0.51854044914E+02  0.78777423656E+02 -0.46589200974E+02  0.10527464319E+03  0.41800000000E+01 0.  1.
         -5    1    3    3    0  502  0.31628736301E+02 -0.13401321507E+02  0.47427706451E+02  0.58709727621E+02  0.41800000000E+01 0.  1.
        -11    1    1    2    0    0 -0.42296821731E+02 -0.76999740827E+02 -0.28074688387E+02  0.92228896470E+02  0.00000000000E+00 0.  1.
         11    1    1    2    0    0 -0.41185959483E+02  0.11623638678E+02  0.53416116332E+02  0.68444676336E+02  0.00000000000E+00 0. -1.
</event>
<event>
 7    1  0.2679104E-009  0.3298570E+03  0.7561462E-02  0.1071200E+00
         -1   -1    0    0    0  501 -0.00000000000E+00  0.00000000000E+00  0.11292381111E+03  0.11292381111E+03  0.00000000000E+00 0.  1.
          1   -1    0    0  501    0  0.00000000000E+00 -0.00000000000E+00 -0.99909478381E+03  0.99909478381E+03  0.00000000000E+00 0. -1.
         25    2    1    2    0    0  0.31166586481E+03  0.62287379838E+02 -0.45621267366E+03  0.56990551373E+03  0.12508781715E+03 0.  0.
          5    1    3    3  502    0  0.16370431231E+03 -0.30836396986E+02 -0.21795621531E+03  0.27435810438E+03  0.41800000000E+01 0. -1.
         -5    1    3    3    0  502  0.14796155249E+03  0.93123776824E+02 -0.23825645835E+03  0.29554740935E+03  0.41800000000E+01 0. -1.
        -11    1    1    2    0    0 -0.14886501685E+03 -0.37585813945E+02 -0.28032175648E+03  0.31961504002E+03  0.00000000000E+00 0. -1.
         11    1    1    2    0    0 -0.16280084796E+03 -0.24701565893E+02 -0.14963654256E+03  0.22249804116E+03  0.00000000000E+00 0.  1.
</event>
<event>
 7    1  0.2679104E-009  0.1431844E+03  0.7561462E-02  0.1209107E+00
          3   -1    0    0  501    0  0.00000000000E+00  0.00000000000E+00  0.22097320055E+03  0.22097320055E+03  0.00000000000E+00 0. -1.
         -3   -1    0    0    0  501 -0.00000000000E+00 -0.00000000000E+00 -0.16630741247E+03  0.16630741247E+03  0.00000000000E+00 0.  1.
         25    2    1    2    0    0 -0.41956875431E+02  0.11504969171E+03  0.12857342947E+03  0.21719598813E+03  0.12508460950E+03 0.  0.
          5    1    3    3  502    0 -0.87195840819E+01  0.12755472296E+03  0.63197080343E+02  0.14267999811E+03  0.41800000000E+01 0. -1.
         -5    1    3    3    0  502 -0.33237291349E+02 -0.12505031256E+02  0.65376349127E+02  0.74515990016E+02  0.41800000000E+01 0. -1.
        -11    1    1    2    0    0  0.34467930487E+02 -0.85010490855E+02 -0.19536008848E+01  0.91753138060E+02  0.00000000000E+00 0. -1.
         11    1    1    2    0    0  0.74889449435E+01 -0.30039200851E+02 -0.71954040510E+02  0.78331486836E+02  0.00000000000E+00 0.  1.
</event>
<event>
 7    1  0.2679104E-009  0.1020810E+03  0.7561462E-02  0.1275980E+00
         -1   -1    0    0    0  501 -0.00000000000E+00  0.00000000000E+00  0.69733507780E+02  0.69733507780E+02  0.00000000000E+00 0. -1.
          1   -1    0    0  501    0  0.00000000000E+00 -0.00000000000E+00 -0.23297454868E+03  0.23297454868E+03  0.00000000000E+00 0.  1.
         25    2    1    2    0    0  0.14208884600E+02  0.50503614302E+02 -0.13665819508E+03  0.19254512275E+03  0.12508259093E+03 0.  0.
          5    1    3    3  502    0 -0.28440906878E+02 -0.28873200675E+01  0.10098412915E+02  0.30605099977E+02  0.41800000000E+01 0.  1.
         -5    1    3    3    0  502  0.42649791478E+02  0.53390934370E+02 -0.14675660799E+03  0.16194002277E+03  0.41800000000E+01 0.  1.
        -11    1    1    2    0    0  0.82561129884E+01 -0.73907786414E+02 -0.16320660325E+02  0.76137298664E+02  0.00000000000E+00 0.  1.
         11    1    1    2    0    0 -0.22464997588E+02  0.23404172112E+02 -0.10262185492E+02  0.34025635042E+02  0.00000000000E+00 0. -1.
</event>
<event>
 7    1  0.2679104E-009  0.1430849E+03  0.7561462E-02  0.1209237E+00
          2   -1    0    0  501    0  0.00000000000E+00  0.00000000000E+00  0.69177972693E+02  0.69177972693E+02  0.00000000000E+00 0. -1.
         -2   -1    0    0    0  501 -0.00000000000E+00 -0.00000000000E+00 -0.37319373959E+03  0.37319373959E+03  0.00000000000E+00 0.  1.
         25    2    1    2    0    0 -0.69922637656E+02  0.94746750551E+02 -0.12923032016E+03  0.21496682148E+03  0.12507652335E+03 0.  0.
          5    1    3    3  502    0 -0.91833631484E+02  0.10394825118E+03 -0.80085820167E+02  0.16021818183E+03  0.41800000000E+01 0.  1.
         -5    1    3    3    0  502  0.21910993828E+02 -0.92015006327E+01 -0.49144499998E+02  0.54748639658E+02  0.41800000000E+01 0.  1.
        -11    1    1    2    0    0  0.43565696153E+02 -0.28719378297E+02 -0.13762547343E+03  0.14718540521E+03  0.00000000000E+00 0.  1.
         11    1    1    2    0    0  0.26356941504E+02 -0.66027372254E+02 -0.37159973308E+02  0.80219485590E+02  0.00000000000E+00 0. -1.
</event>
<event>
 7    1  0.2679104E-009  0.1033510E+03  0.7561462E-02  0.1273403E+00
         -1   -1    0    0    0  501 -0.00000000000E+00  0.00000000000E+00  0.54092440724E+03  0.54092440724E+03  0.00000000000E+00 0.  1.
          1   -1    0    0  501    0  0.00000000000E+00 -0.00000000000E+00 -0.31800180526E+02  0.31800180526E+02  0.00000000000E+00 0. -1.
         25    2    1    2    0    0  0.10452107288E+02  0.66410618964E+02  0.36209860103E+03  0.38895119347E+03  0.12509203483E+03 0.  0.
          5    1    3    3  502    0 -0.15426529074E+02 -0.24218251403E+02  0.23157333443E+02  0.37124600906E+02  0.41800000000E+01 0. -1.
         -5    1    3    3    0  502  0.25878636362E+02  0.90628870367E+02  0.33894126759E+03  0.35182659257E+03  0.41800000000E+01 0. -1.
        -11    1    1    2    0    0  0.18749284387E+02 -0.14201022378E+02  0.11202045928E+03  0.11446304206E+03  0.00000000000E+00 0.  1.
         11    1    1    2    0    0 -0.29201391675E+02 -0.52209596586E+02  0.35005166413E+02  0.69310352236E+02  0.00000000000E+00 0. -1.
</event>
<event>
 7    1  0.2679104E-009  0.1272627E+03  0.7561462E-02  0.1231575E+00
         -1   -1    0    0    0  501 -0.00000000000E+00  0.00000000000E+00  0.92024398810E+02  0.92024398810E+02  0.00000000000E+00 0.  1.
          1   -1    0    0  501    0  0.00000000000E+00 -0.00000000000E+00 -0.22305671228E+03  0.22305671228E+03  0.00000000000E+00 0. -1.
         25    2    1    2    0    0 -0.43788180379E+02 -0.52530709261E+02 -0.16193438158E+01  0.14257131419E+03  0.12508827762E+03 0.  0.
          5    1    3    3  502    0 -0.74929024477E+02  0.68705194848E+01 -0.13588665746E+01  0.75371623742E+02  0.41800000000E+01 0.  1.
         -5    1    3    3    0  502  0.31140844099E+02 -0.59401228746E+02 -0.26047724124E+00  0.67199690446E+02  0.41800000000E+01 0.  1.
        -11    1    1    2    0    0  0.45914099919E+02 -0.11955964410E+02 -0.38898500065E+02  0.61352611710E+02  0.00000000000E+00 0. -1.
         11    1    1    2    0    0 -0.21259195402E+01  0.64486673671E+02 -0.90514469594E+02  0.11115718520E+03  0.00000000000E+00 0.  1.
</event>
<event>
 7    1  0.2679104E-009  0.9515494E+02  0.7561462E-02  0.1290828E+00
         -2   -1    0    0    0  501 -0.00000000000E+00  0.00000000000E+00  0.47011954080E+02  0.47011954080E+02  0.00000000000E+00 0.  1.
          2   -1    0    0  501    0  0.00000000000E+00 -0.00000000000E+00 -0.33237644344E+03  0.33237644344E+03  0.00000000000E+00 0. -1.
         25    2    1    2    0    0  0.49544183152E+02 -0.13547551763E+02 -0.20706515662E+03  0.24730822926E+03  0.12508884415E+03 0.  0.
          5    1    3    3  502    0  0.72952626300E+02 -0.22119948405E+02 -0.57384390213E+02  0.95508211383E+02  0.41800000000E+01 0. -1.
         -5    1    3    3    0  502 -0.23408443148E+02  0.85723966418E+01 -0.14968076640E+03  0.15180001787E+03  0.41800000000E+01 0. -1.
        -11    1    1    2    0    0  0.11112454602E+02 -0.17357678264E+02  0.80470720461E+01  0.22125347693E+02  0.00000000000E+00 0.  1.
         11    1    1    2    0    0 -0.60656637754E+02  0.30905230028E+02 -0.86346404787E+02  0.10995482057E+03  0.00000000000E+00 0. -1.
</event>
<event>
 7    1  0.2679104E-009  0.1438508E+03  0.7561462E-02  0.1208239E+00
          3   -1    0    0  501    0  0.00000000000E+00  0.00000000000E+00  0.27938338590E+02  0.27938338590E+02  0.00000000000E+00 0. -1.
         -3   -1    0    0    0  501 -0.00000000000E+00 -0.00000000000E+00 -0.11144853425E+04  0.11144853425E+04  0.00000000000E+00 0.  1.
         25    2    1    2    0    0 -0.14427934951E+02  0.13156823996E+03 -0.44229346382E+03  0.47831971393E+03  0.12509146060E+03 0.  0.
          5    1    3    3  502    0  0.11083168948E+02  0.99756262632E+02 -0.41961662122E+03  0.43147390393E+03  0.41800000000E+01 0. -1.
         -5    1    3    3    0  502 -0.25511103899E+02  0.31811977326E+02 -0.22676842601E+02  0.46845809993E+02  0.41800000000E+01 0. -1.
        -11    1    1    2    0    0 -0.17669885631E+02 -0.95535495047E+01 -0.24710619327E+02  0.31845091834E+02  0.00000000000E+00 0. -1.
         11    1    1    2    0    0  0.32097820583E+02 -0.12201469045E+03 -0.61954292079E+03  0.63225887536E+03  0.00000000000E+00 0.  1.
</event>
<event>
 7    1  0.2679104E-009  0.1217854E+03  0.7561462E-02  0.1240180E+00
          2   -1    0    0  501    0  0.00000000000E+00  0.00000000000E+00  0.15489452703E+04  0.15489452703E+04  0.00000000000E+00 0. -1.
         -2   -1    0    0    0  501 -0.00000000000E+00 -0.00000000000E+00 -0.14508116764E+02  0.14508116764E+02  0.00000000000E+00 0.  1.
         25    2    1    2    0    0  0.52841417649E+01 -0.57087527886E+02  0.12718376047E+04  0.12792597596E+04  0.12509089387E+03 0.  0.
          5    1    3    3  502    0 -0.52047903870E+02  0.53574371521E+01  0.52308386733E+03  0.52571084361E+03  0.41800000000E+01 0. -1.
         -5    1    3    3    0  502  0.57332045635E+02 -0.62444965038E+02  0.74875373738E+03  0.75354891597E+03  0.41800000000E+01 0. -1.
        -11    1    1    2    0    0 -0.42786046043E+02  0.65662476809E+01  0.78565720275E+02  0.89701358669E+02  0.00000000000E+00 0.  1.
         11    1    1    2    0    0  0.37501904278E+02  0.50521280205E+02  0.18403382853E+03  0.19449226879E+03  0.00000000000E+00 0. -1.
</event>
<event>
 7    1  0.2679104E-009  0.1061724E+03  0.7561462E-02  0.1267827E+00
         -1   -1    0    0    0  501 -0.00000000000E+00  0.00000000000E+00  0.19194685540E+03  0.19194685540E+03  0.00000000000E+00 0.  1.
          1   -1    0    0  501    0  0.00000000000E+00 -0.00000000000E+00 -0.61949517199E+02  0.61949517199E+02  0.00000000000E+00 0. -1.
         25    2    1    2    0    0 -0.63086455877E+01  0.17019088857E+01  0.65161219098E+02  0.14119317991E+03  0.12508730582E+03 0.  0.
          5    1    3    3  502    0  0.53026004756E+02 -0.21250157115E+02  0.49105341752E+02  0.75446228179E+02  0.41800000000E+01 0. -1.
         -5    1    3    3    0  502 -0.59334650343E+02  0.22952066001E+02  0.16055877346E+02  0.65746951735E+02  0.41800000000E+01 0. -1.
        -11    1    1    2    0    0 -0.20982474393E+02 -0.39477746358E+02  0.39505970510E+02  0.59661364342E+02  0.00000000000E+00 0. -1.
         11    1    1    2    0    0  0.27291119981E+02  0.37775837472E+02  0.25330148597E+02  0.53041828348E+02  0.00000000000E+00 0.  1.
</event>
<event>
 7    1  0.2679104E-009  0.1716905E+03  0.7561462E-02  0.1176096E+00
         -1   -1    0    0    0  501 -0.00000000000E+00  0.00000000000E+00  0.22857449701E+03  0.22857449701E+03  0.00000000000E+00 0.  1.
          1   -1    0    0  501    0  0.00000000000E+00 -0.00000000000E+00 -0.18676460255E+03  0.18676460255E+03  0.00000000000E+00 0. -1.
         25    2    1    2    0    0  0.96142151992E+02 -0.10250446064E+03  0.13514445534E+03  0.23165292918E+03  0.12509427624E+03 0.  0.
          5    1    3    3  502    0 -0.26138840086E+02 -0.39756005642E+02  0.53577097725E+02  0.71775739260E+02  0.41800000000E+01 0.  1.
         -5    1    3    3    0  502  0.12228099208E+03 -0.62748454994E+02  0.81567357617E+02  0.15987718992E+03  0.41800000000E+01 0.  1.
        -11    1    1    2    0    0 -0.83435882062E+02  0.11380214051E+03 -0.81309999462E+02  0.16286125878E+03  0.00000000000E+00 0.  1.
         11    1    1    2    0    0 -0.12706269931E+02 -0.11297679870E+02 -0.12024561423E+02  0.20824911606E+02  0.00000000000E+00 0. -1.
</event>
<event>
 7    1  0.2679104E-009  0.9428287E+02  0.7561462E-02  0.1292799E+00
         -2   -1    0    0    0  501 -0.00000000000E+00  0.00000000000E+00  0.85229558328E+01  0.85229558328E+01  0.00000000000E+00 0.  1.
          2   -1    0    0  501    0  0.00000000000E+00 -0.00000000000E+00 -0.27164379179E+04  0.27164379179E+04  0.00000000000E+00 0. -1.
         25    2    1    2    0    0  0.64088460847E+02  0.67844399511E+01 -0.22478655138E+04  0.22522656630E+04  0.12509152355E+03 0.  0.
          5    1    3    3  502    0  0.79971625438E+02  0.15404179943E+02 -0.77413173752E+03  0.77841516498E+03  0.41800000000E+01 0. -1.
         -5    1    3    3    0  502 -0.15883164591E+02 -0.86197399915E+01 -0.14737337763E+04  0.14738504980E+04  0.41800000000E+01 0. -1.
        -11    1    1    2    0    0 -0.71965541135E+02 -0.18542134272E+02 -0.44795861223E+03  0.45408123516E+03  0.00000000000E+00 0. -1.
         11    1    1    2    0    0  0.78770802883E+01  0.11757694321E+02 -0.12090836035E+02  0.18613975546E+02  0.00000000000E+00 0.  1.
</event>
<event>
 7    1  0.2679104E-009  0.1747174E+03  0.7561462E-02  0.1173016E+00
          1   -1    0    0  501    0  0.00000000000E+00  0.00000000000E+00  0.35578590076E+02  0.35578590076E+02  0.00000000000E+00 0. -1.
         -1   -1    0    0    0  501 -0.00000000000E+00 -0.00000000000E+00 -0.10279757910E+04  0.10279757910E+04  0.00000000000E+00 0.  1.
         25    2    1    2    0    0 -0.13461520781E+03  0.62532981123E+02 -0.66242842702E+03  0.69028292483E+03  0.12508983765E+03 0.  0.
          5    1    3    3  502    0 -0.14832616659E+03  0.80439914474E+02 -0.61262943456E+03  0.63545537060E+03  0.41800000000E+01 0. -1.
         -5    1    3    3    0  502  0.13710958776E+02 -0.17906933352E+02 -0.49798992466E+02  0.54827554233E+02  0.41800000000E+01 0. -1.
        -11    1    1    2    0    0  0.53863461638E+02  0.26585631313E+01 -0.19894461959E+03  0.20612448210E+03  0.00000000000E+00 0.  1.
         11    1    1    2    0    0  0.80751746173E+02 -0.65191544254E+02 -0.13102415431E+03  0.16714697414E+03  0.00000000000E+00 0. -1.
</event>
<event>
 7    1  0.2679104E-009  0.1008274E+03  0.7561462E-02  0.1278566E+00
         -3   -1    0    0    0  501 -0.00000000000E+00  0.00000000000E+00  0.10530672525E+03  0.10530672525E+03  0.00000000000E+00 0.  1.
          3   -1    0    0  501    0  0.00000000000E+00 -0.00000000000E+00 -0.14048272785E+03  0.14048272785E+03  0.00000000000E+00 0. -1.
         25    2    1    2    0    0  0.16609223427E+01 -0.46910012229E+02  0.11425924006E+02  0.13409100845E+03  0.12508612592E+03 0.  0.
          5    1    3    3  502    0 -0.28363123289E+02 -0.64276529566E+02  0.46683964851E+02  0.84455929276E+02  0.41800000000E+01 0. -1.
         -5    1    3    3    0  502  0.30024045632E+02  0.17366517337E+02 -0.35258040845E+02  0.49635079175E+02  0.41800000000E+01 0. -1.
        -11    1    1    2    0    0  0.38066166968E+02  0.46695716799E+01 -0.17532602386E+01  0.38391560124E+02  0.00000000000E+00 0.  1.
         11    1    1    2    0    0 -0.39727089311E+02  0.42240440549E+02 -0.44848666370E+02  0.73306884520E+02  0.00000000000E+00 0. -1.
</event>
<event>
 7    1  0.2760636E-009  0.1336825E+03  0.7561462E-02  0.1222092E+00
          1   -1    0    0  501    0  0.00000000000E+00  0.00000000000E+00  0.11355394995E+04  0.11355394995E+04  0.00000000000E+00 0. -1.
         -1   -1    0    0    0  501 -0.00000000000E+00 -0.00000000000E+00 -0.17485353078E+02  0.17485353078E+02  0.00000000000E+00 0.  1.
         25    2    1    2    0    0 -0.16787544019E+01 -0.86312174554E+02  0.52346378357E+03  0.54508255983E+03  0.12509218453E+03 0.  0.
          5    1    3    3  502    0  0.55248804567E+02 -0.30920384835E+02  0.14379698080E+03  0.15717361322E+03  0.41800000000E+01 0. -1.
         -5    1    3    3    0  502 -0.56927558969E+02 -0.55391789718E+02  0.37966680277E+03  0.38790894661E+03  0.41800000000E+01 0. -1.
        -11    1    1    2    0    0 -0.39811284496E+02  0.68488612774E+02  0.43171618086E+03  0.43892424092E+03  0.00000000000E+00 0.  1.
         11    1    1    2    0    0  0.41490038898E+02  0.17823561779E+02  0.16287418195E+03  0.16901805179E+03  0.00000000000E+00 0. -1.
</event>
<event>
 7    1  0.2679104E-009  0.8665188E+02  0.7561462E-02  0.1311168E+00
         -3   -1    0    0    0  501 -0.00000000000E+00  0.00000000000E+00  0.23165185137E+02  0.23165185137E+02  0.00000000000E+00 0.  1.
          3   -1    0    0  501    0  0.00000000000E+00 -0.00000000000E+00 -0.53667409252E+03  0.53667409252E+03  0.00000000000E+00 0. -1.
         25    2    1    2    0    0 -0.22887411732E+02  0.10345790091E+02 -0.27350878323E+03  0.30180359647E+03  0.12508991706E+03 0.  0.
          5    1    3    3  502    0 -0.47692755960E+02 -0.10663354365E+02 -0.33103396428E+02  0.59174431577E+02  0.41800000000E+01 0. -1.
         -5    1    3    3    0  502  0.24805344229E+02  0.21009144457E+02 -0.24040538681E+03  0.24262916490E+03  0.41800000000E+01 0. -1.
        -11    1    1    2    0    0  0.52338450542E+02  0.12965257984E+02 -0.17321041899E+03  0.18140909725E+03  0.00000000000E+00 0. -1.
         11    1    1    2    0    0 -0.29451038811E+02 -0.23311048075E+02 -0.66789705159E+02  0.76626583929E+02  0.00000000000E+00 0.  1.
</event>
<event>
 7    1  0.2679104E-009  0.2776867E+03  0.7561462E-02  0.1096959E+00
         -1   -1    0    0    0  501 -0.00000000000E+00  0.00000000000E+00  0.82535616735E+02  0.82535616735E+02  0.00000000000E+00 0. -1.
          1   -1    0    0  501    0  0.00000000000E+00 -0.00000000000E+00 -0.10462818408E+04  0.10462818408E+04  0.00000000000E+00 0.  1.
         25    2    1    2    0    0  0.26364235296E+03 -0.35866753342E+02 -0.60705130616E+03  0.67450397969E+03  0.12510242215E+03 0.  0.
          5    1    3    3  502    0  0.10743040571E+03  0.41028358107E+02 -0.30283256271E+03  0.32395933646E+03  0.41800000000E+01 0.  1.
         -5    1    3    3    0  502  0.15621194725E+03 -0.76895111450E+02 -0.30421874345E+03  0.35054464323E+03  0.41800000000E+01 0.  1.
        -11    1    1    2    0    0 -0.11262574991E+03  0.18279177321E+02 -0.22865979685E+03  0.25554645480E+03  0.00000000000E+00 0.  1.
         11    1    1    2    0    0 -0.15101660305E+03  0.17587576022E+02 -0.12803512106E+03  0.19876702305E+03  0.00000000000E+00 0. -1.
</event>
<event>
 7    1  0.2679104E-009  0.1078544E+03  0.7561462E-02  0.1264596E+00
          1   -1    0    0  501    0  0.00000000000E+00  0.00000000000E+00  0.64294993474E+03  0.64294993474E+03  0.00000000000E+00 0. -1.
         -1   -1    0    0    0  501 -0.00000000000E+00 -0.00000000000E+00 -0.30666295451E+02  0.30666295451E+02  0.00000000000E+00 0.  1.
         25    2    1    2    0    0  0.82283619997E+02  0.17437702139E+02  0.27072038887E+03  0.30985701627E+03  0.12508866458E+03 0.  0.
          5    1    3    3  502    0  0.45242936785E+02 -0.40859328267E+02  0.51299889465E+02  0.79784453965E+02  0.41800000000E+01 0. -1.
         -5    1    3    3    0  502  0.37040683212E+02  0.58297030406E+02  0.21942049941E+03  0.23007256231E+03  0.41800000000E+01 0.  1.
        -11    1    1    2    0    0 -0.57142225483E+02 -0.18999133489E+02  0.33101865202E+03  0.33645140659E+03  0.00000000000E+00 0. -1.
         11    1    1    2    0    0 -0.25141394515E+02  0.15614313499E+01  0.10544598396E+02  0.27307807333E+02  0.00000000000E+00 0.  1.
</event>
<event>
 7    1  0.2679104E-009  0.1235381E+03  0.7561462E-02  0.1237372E+00
         -1   -1    0    0    0  501 -0.00000000000E+00  0.00000000000E+00  0.61516882080E+03  0.61516882080E+03  0.00000000000E+00 0.  1.
          1   -1    0    0  501    0  0.00000000000E+00 -0.00000000000E+00 -0.31433362418E+02  0.31433362418E+02  0.00000000000E+00 0. -1.
         25    2    1    2    0    0 -0.62209954579E+01  0.66449574931E+02  0.43667190967E+03  0.45911163097E+03  0.12508751417E+03 0.  0.
          5    1    3    3  502    0  0.58352849138E+02  0.33953246348E+02  0.17538357333E+03  0.18797539236E+03  0.41800000000E+01 0.  1.
         -5    1    3    3    0  502 -0.64573844596E+02  0.32496328583E+02  0.26128833634E+03  0.27113623861E+03  0.41800000000E+01 0.  1.
        -11    1    1    2    0    0 -0.35829307742E+02 -0.50783481979E+02  0.47309867490E+02  0.78108417581E+02  0.00000000000E+00 0. -1.
         11    1    1    2    0    0  0.42050303199E+02 -0.15666092952E+02  0.99753681222E+02  0.10938213467E+03  0.00000000000E+00 0.  1.
</event>
<event>
 7    1  0.2679104E-009  0.1044589E+03  0.7561462E-02  0.1271189E+00
          2   -1    0    0  501    0  0.00000000000E+00  0.00000000000E+00  0.46292361737E+02  0.46292361737E+02  0.00000000000E+00 0. -1.
         -2   -1    0    0    0  501 -0.00000000000E+00 -0.00000000000E+00 -0.31007929492E+03  0.31007929492E+03  0.00000000000E+00 0.  1.
         25    2    1    2    0    0 -0.26680133406E+02 -0.25794769246E+02 -0.97168159375E+02  0.16268411338E+03  0.12508904793E+03 0.  0.
          5    1    3    3  502    0 -0.13290154652E+02 -0.71442894650E+02 -0.87749376415E+02  0.11400938939E+03  0.41800000000E+01 0. -1.
         -5    1    3    3    0  502 -0.13389978754E+02  0.45648125404E+02 -0.94187829602E+01  0.48674723999E+02  0.41800000000E+01 0. -1.
        -11    1    1    2    0    0  0.37597056936E+02  0.49568538873E+02 -0.70283701600E+02  0.93863610877E+02  0.00000000000E+00 0. -1.
         11    1    1    2    0    0 -0.10916923530E+02 -0.23773769627E+02 -0.96335072210E+02  0.99823932398E+02  0.00000000000E+00 0.  1.
</event>
<event>
 7    1  0.4341769E-009  0.1163428E+03  0.7561462E-02  0.1249255E+00
         -2   -1    0    0    0  501 -0.00000000000E+00  0.00000000000E+00  0.11612950275E+02  0.11612950275E+02  0.00000000000E+00 0.  1.
          2   -1    0    0  501    0  0.00000000000E+00 -0.00000000000E+00 -0.12541206597E+04  0.12541206597E+04  0.00000000000E+00 0. -1.
         25    2    1    2    0    0 -0.44612856916E+02 -0.23340588386E+01 -0.86051325838E+03  0.87070533748E+03  0.12509581141E+03 0.  0.
          5    1    3    3  502    0  0.37204833191E+02  0.25764466060E+02 -0.25301248085E+03  0.25706185090E+03  0.41800000000E+01 0. -1.
         -5    1    3    3    0  502 -0.81817690107E+02 -0.28098524898E+02 -0.60750077753E+03  0.61364348658E+03  0.41800000000E+01 0. -1.
        -11    1    1    2    0    0  0.15211266269E+02 -0.43551669107E+02 -0.17742780569E+03  0.18332691220E+03  0.00000000000E+00 0. -1.
         11    1    1    2    0    0  0.29401590646E+02  0.45885727946E+02 -0.20456664538E+03  0.21170136033E+03  0.00000000000E+00 0.  1.
</event>
<event>
 7    1  0.2679104E-009  0.9707833E+02  0.7561462E-02  0.1286563E+00
          1   -1    0    0  501    0  0.00000000000E+00  0.00000000000E+00  0.66237716928E+02  0.66237716928E+02  0.00000000000E+00 0. -1.
         -1   -1    0    0    0  501 -0.00000000000E+00 -0.00000000000E+00 -0.26312100524E+03  0.26312100524E+03  0.00000000000E+00 0.  1.
         25    2    1    2    0    0 -0.51312906782E+02 -0.49895761692E+02 -0.13725865837E+03  0.19902541677E+03  0.12509426759E+03 0.  0.
          5    1    3    3  502    0 -0.40104666753E+02 -0.16899065211E+02  0.12289020026E+02  0.45414261126E+02  0.41800000000E+01 0. -1.
         -5    1    3    3    0  502 -0.11208240029E+02 -0.32996696481E+02 -0.14954767840E+03  0.15361115564E+03  0.41800000000E+01 0. -1.
        -11    1    1    2    0    0 -0.15945241732E+02  0.45184691638E+02 -0.31106134194E+02  0.57127039805E+02  0.00000000000E+00 0.  1.
         11    1    1    2    0    0  0.67258148514E+02  0.47110700538E+01 -0.28518495742E+02  0.73206265592E+02  0.00000000000E+00 0. -1.
</event>
<event>
 7    1  0.2679104E-009  0.1257137E+03  0.7561462E-02  0.1233958E+00
         -1   -1    0    0    0  501 -0.00000000000E+00  0.00000000000E+00  0.58564407369E+02  0.58564407369E+02  0.00000000000E+00 0.  1.
          1   -1    0    0  501    0  0.00000000000E+00 -0.00000000000E+00 -0.32572547230E+03  0.32572547230E+03  0.00000000000E+00 0. -1.
         25    2    1    2    0    0  0.79933560911E+00  0.83901196778E+02 -0.12881124220E+03  0.19818906675E+03  0.12508605160E+03 0.  0.
          5    1    3    3  502    0 -0.17734784484E+01 -0.23538590147E+02 -0.73373009548E+02  0.77189904664E+02  0.41800000000E+01 0. -1.
         -5    1    3    3    0  502  0.25728140575E+01  0.10743978693E+03 -0.55438232652E+02  0.12099916209E+03  0.41800000000E+01 0. -1.
        -11    1    1    2    0    0 -0.26672266813E+02 -0.89535371060E+02 -0.12606962374E+03  0.15691253143E+03  0.00000000000E+00 0. -1.
         11    1    1    2    0    0  0.25872931204E+02  0.56341742813E+01 -0.12280198981E+02  0.29188281483E+02  0.00000000000E+00 0.  1.
</event>
<event>
 7    1  0.2679104E-009  0.6610449E+02  0.7561462E-02  0.1373864E+00
         -2   -1    0    0    0  501 -0.00000000000E+00  0.00000000000E+00  0.32534561117E+03  0.32534561117E+03  0.00000000000E+00 0.  1.
          2   -1    0    0  501    0  0.00000000000E+00 -0.00000000000E+00 -0.43048272402E+02  0.43048272402E+02  0.00000000000E+00 0. -1.
         25    2    1    2    0    0  0.26311424544E+02  0.37025840587E+02  0.16213718769E+03  0.20975975312E+03  0.12508989753E+03 0.  0.
          5    1    3    3  502    0  0.96939238448E+01  0.17210733887E+02 -0.18408997275E+02  0.27322977530E+02  0.41800000000E+01 0.  1.
         -5    1    3    3    0  502  0.16617500700E+02  0.19815106700E+02  0.18054618497E+03  0.18243677559E+03  0.41800000000E+01 0.  1.
        -11    1    1    2    0    0  0.28001761796E+01  0.20849957001E+02 -0.11927988214E+01  0.21070938817E+02  0.00000000000E+00 0.  1.
         11    1    1    2    0    0 -0.29111600724E+02 -0.57875797588E+02  0.12135294990E+03  0.13756319164E+03  0.00000000000E+00 0. -1.
</event>
<event>
 7    1  0.2679104E-009  0.2812278E+03  0.7561462E-02  0.1095020E+00
          2   -1    0    0  501    0  0.00000000000E+00  0.00000000000E+00  0.92998413828E+03  0.92998413828E+03  0.00000000000E+00 0.  1.
         -2   -1    0    0    0  501 -0.00000000000E+00 -0.00000000000E+00 -0.96056916826E+02  0.96056916826E+02  0.00000000000E+00 0. -1.
         25    2    1    2    0    0 -0.18801750163E+03  0.20144538635E+03  0.35954060483E+03  0.46994356702E+03  0.12508671015E+03 0.  0.
          5    1    3    3  502    0 -0.17048650352E+03  0.18435372997E+03  0.36637280320E+03  0.44418290035E+03  0.41800000000E+01 0.  1.
         -5    1    3    3    0  502 -0.17530998114E+02  0.17091656382E+02 -0.68321983686E+01  0.25760666670E+02  0.41800000000E+01 0.  1.
        -11    1    1    2    0    0  0.13837278718E+03 -0.91617680127E+02  0.23017251838E+03  0.28376084255E+03  0.00000000000E+00 0.  1.
         11    1    1    2    0    0  0.49644714456E+02 -0.10982770622E+03  0.24421409823E+03  0.27233664554E+03  0.00000000000E+00 0. -1.
</event>
<event>
 7    1  0.2679104E-009  0.1292078E+03  0.7561462E-02  0.1228636E+00
         -2   -1    0    0    0  501 -0.00000000000E+00  0.00000000000E+00  0.80906141795E+02  0.80906141795E+02  0.00000000000E+00 0. -1.
          2   -1    0    0  501    0  0.00000000000E+00 -0.00000000000E+00 -0.37461336121E+03  0.37461336121E+03  0.00000000000E+00 0.  1.
         25    2    1    2    0    0  0.84838969939E+02  0.24482845812E+02 -0.20797536101E+02  0.15451754654E+03  0.12508426808E+03 0.  0.
          5    1    3    3  502    0  0.81606259606E+02 -0.36093776588E+02  0.25924048905E+01  0.89367417319E+02  0.41800000000E+01 0.  1.
         -5    1    3    3    0  502  0.32327103334E+01  0.60576622400E+02 -0.23389940992E+02  0.65150129218E+02  0.41800000000E+01 0.  1.
        -11    1    1    2    0    0 -0.57587759621E+02 -0.45881336563E+02 -0.24698941215E+03  0.25773090000E+03  0.00000000000E+00 0. -1.
         11    1    1    2    0    0 -0.27251210318E+02  0.21398490751E+02 -0.25920271162E+02  0.43271056462E+02  0.00000000000E+00 0.  1.
</event>
<event>
 7    1  0.2679104E-009  0.8525330E+02  0.7561462E-02  0.1314771E+00
         -1   -1    0    0    0  501 -0.00000000000E+00  0.00000000000E+00  0.43090763136E+02  0.43090763136E+02  0.00000000000E+00 0.  1.
          1   -1    0    0  501    0  0.00000000000E+00 -0.00000000000E+00 -0.29471721490E+03  0.29471721490E+03  0.00000000000E+00 0. -1.
         25    2    1    2    0    0 -0.42336375909E+01 -0.18092634233E+02 -0.18117479921E+03  0.22094401827E+03  0.12508670689E+03 0.  0.
          5    1    3    3  502    0 -0.71805930601E+01  0.49756125001E+02 -0.11700702406E+03  0.12741800882E+03  0.41800000000E+01 0.  1.
         -5    1    3    3    0  502  0.29469554692E+01 -0.67848759234E+02 -0.64167775152E+02  0.93526009453E+02  0.41800000000E+01 0.  1.
        -11    1    1    2    0    0 -0.56086504909E+01  0.33374890196E+02  0.92754378076E+01  0.35090939036E+02  0.00000000000E+00 0.  1.
         11    1    1    2    0    0  0.98422880818E+01 -0.15282255963E+02 -0.79727090357E+02  0.81773020727E+02  0.00000000000E+00 0. -1.
</event>
<event>
 7    1  0.2679104E-009  0.2187026E+03  0.7561462E-02  0.1134854E+00
          1   -1    0    0  501    0  0.00000000000E+00  0.00000000000E+00  0.53175250916E+02  0.53175250916E+02  0.00000000000E+00 0. -1.
         -1   -1    0    0    0  501 -0.00000000000E+00 -0.00000000000E+00 -0.10312072845E+04  0.10312072845E+04  0.00000000000E+00 0.  1.
         25    2    1    2    0    0 -0.20592353109E+03  0.14306778618E+02 -0.47618355443E+03  0.53386072629E+03  0.12508922015E+03 0.  0.
          5    1    3    3  502    0 -0.72220138260E+02 -0.16592290398E+02 -0.59447353437E+02  0.95092127443E+02  0.41800000000E+01 0.  1.
         -5    1    3    3    0  502 -0.13370339283E+03  0.30899069016E+02 -0.41673620099E+03  0.43876859885E+03  0.41800000000E+01 0.  1.
        -11    1    1    2    0    0  0.11153444067E+03 -0.53487691071E+02 -0.25785369608E+03  0.28598844930E+03  0.00000000000E+00 0.  1.
         11    1    1    2    0    0  0.94389090422E+02  0.39180912453E+02 -0.24399478311E+03  0.26453335985E+03  0.00000000000E+00 0. -1.
</event>
<event>
 7    1  0.2679104E-009  0.1615637E+03  0.7561462E-02  0.1186943E+00
         -1   -1    0    0    0  501 -0.00000000000E+00  0.00000000000E+00  0.48647469708E+02  0.48647469708E+02  0.00000000000E+00 0.  1.
          1   -1    0    0  501    0  0.00000000000E+00 -0.00000000000E+00 -0.57754132461E+03  0.57754132461E+03  0.00000000000E+00 0. -1.
         25    2    1    2    0    0 -0.95820835424E+02  0.99261225319E+02 -0.26121338559E+03  0.32080628132E+03  0.12509921651E+03 0.  0.
          5    1    3    3  502    0 -0.51098868629E+02  0.12378579636E+03 -0.17290713146E+03  0.21874269419E+03  0.41800000000E+01 0.  1.
         -5    1    3    3    0  502 -0.44721966795E+02 -0.24524571036E+02 -0.88306254130E+02  0.10206358713E+03  0.41800000000E+01 0.  1.
        -11    1    1    2    0    0  0.22863949327E+02 -0.23128874028E+02 -0.25787065003E+02  0.41505152862E+02  0.00000000000E+00 0.  1.
         11    1    1    2    0    0  0.72956886098E+02 -0.76132351291E+02 -0.24189340432E+03  0.26387736014E+03  0.00000000000E+00 0. -1.
</event>
<event>
 7    1  0.2679104E-009  0.1788446E+03  0.7561462E-02  0.1168926E+00
         -2   -1    0    0    0  501 -0.00000000000E+00  0.00000000000E+00  0.60359473187E+02  0.60359473187E+02  0.00000000000E+00 0.  1.
          2   -1    0    0  501    0  0.00000000000E+00 -0.00000000000E+00 -0.60055317999E+03  0.60055317999E+03  0.00000000000E+00 0. -1.
         25    2    1    2    0    0  0.14621688434E+03  0.54425294557E+02 -0.27294350474E+03  0.33835900916E+03  0.12508865795E+03 0.  0.
          5    1    3    3  502    0  0.12189440755E+03 -0.16302448987E+02 -0.14576578586E+03  0.19075941173E+03  0.41800000000E+01 0.  1.
         -5    1    3    3    0  502  0.24322476789E+02  0.70727743544E+02 -0.12717771888E+03  0.14759959743E+03  0.41800000000E+01 0.  1.
        -11    1    1    2    0    0 -0.13033194820E+03 -0.35619067403E+02 -0.14638793714E+03  0.19920984620E+03  0.00000000000E+00 0.  1.
         11    1    1    2    0    0 -0.15884936146E+02 -0.18806227154E+02 -0.12086226493E+03  0.12334379782E+03  0.00000000000E+00 0. -1.
</event>
<event>
 7    1  0.2679104E-009  0.2208844E+03  0.7561462E-02  0.1133225E+00
          2   -1    0    0  501    0  0.00000000000E+00  0.00000000000E+00  0.22861818387E+04  0.22861818387E+04  0.00000000000E+00 0.  1.
         -2   -1    0    0    0  501 -0.00000000000E+00 -0.00000000000E+00 -0.48961710401E+02  0.48961710401E+02  0.00000000000E+00 0. -1.
         25    2    1    2    0    0 -0.20418751578E+03  0.36220024188E+02  0.19721263743E+04  0.19869407695E+04  0.12508698370E+03 0.  0.
          5    1    3    3  502    0 -0.13316773663E+03 -0.10208614005E+02  0.15839945503E+04  0.15896207314E+04  0.41800000000E+01 0. -1.
         -5    1    3    3    0  502 -0.71019779150E+02  0.46428638192E+02  0.38813182406E+03  0.39732003815E+03  0.41800000000E+01 0. -1.
        -11    1    1    2    0    0  0.74187234049E+02 -0.54307062194E+02  0.83916673327E+02  0.12447895711E+03  0.00000000000E+00 0. -1.
         11    1    1    2    0    0  0.13000028173E+03  0.18087038007E+02  0.18117708064E+03  0.22372382247E+03  0.00000000000E+00 0.  1.
</event>
<event>
 7    1  0.2679104E-009  0.1229482E+03  0.7561462E-02  0.1238311E+00
         -1   -1    0    0    0  501 -0.00000000000E+00  0.00000000000E+00  0.18802255469E+02  0.18802255469E+02  0.00000000000E+00 0.  1.
          1   -1    0    0  501    0  0.00000000000E+00 -0.00000000000E+00 -0.93333724441E+03  0.93333724441E+03  0.00000000000E+00 0. -1.
         25    2    1    2    0    0 -0.15876198114E+02 -0.70557733842E+02 -0.60885146936E+03  0.62576241470E+03  0.12509212781E+03 0.  0.
          5    1    3    3  502    0  0.12269172645E+02  0.33866325116E+02 -0.15356664039E+03  0.15778987931E+03  0.41800000000E+01 0. -1.
         -5    1    3    3    0  502 -0.28145370759E+02 -0.10442405896E+03 -0.45528482898E+03  0.46797253539E+03  0.41800000000E+01 0. -1.
        -11    1    1    2    0    0 -0.22231861756E+02  0.11981869397E+01 -0.19977437761E+02  0.29913029745E+02  0.00000000000E+00 0.  1.
         11    1    1    2    0    0  0.38108059869E+02  0.69359546902E+02 -0.28570608182E+03  0.29646405543E+03  0.00000000000E+00 0. -1.
</event>
<event>
 7    1  0.2679104E-009  0.7755399E+02  0.7561462E-02  0.1336140E+00
         -1   -1    0    0    0  501 -0.00000000000E+00  0.00000000000E+00  0.43599606434E+03  0.43599606434E+03  0.00000000000E+00 0.  1.
          1   -1    0    0  501    0  0.00000000000E+00 -0.00000000000E+00 -0.33266282425E+02  0.33266282425E+02  0.00000000000E+00 0. -1.
         25    2    1    2    0    0  0.23208541796E+02 -0.27571944519E+01  0.13626214039E+03  0.18644337308E+03  0.12509005528E+03 0.  0.
          5    1    3    3  502    0  0.46378564385E+02 -0.11900355849E+02  0.15012555553E+03  0.15763167361E+03  0.41800000000E+01 0. -1.
         -5    1    3    3    0  502 -0.23170022589E+02  0.91431613975E+01 -0.13863415140E+02  0.28811699472E+02  0.41800000000E+01 0. -1.
        -11    1    1    2    0    0  0.26946556396E+02  0.14031837309E+02  0.38064905052E+02  0.48702631926E+02  0.00000000000E+00 0. -1.
         11    1    1    2    0    0 -0.50155098192E+02 -0.11274642858E+02  0.22840273648E+03  0.23411634175E+03  0.00000000000E+00 0.  1.
</event>
<event>
 7    1  0.2679104E-009  0.9467831E+02  0.7561462E-02  0.1291902E+00
          2   -1    0    0  501    0  0.00000000000E+00  0.00000000000E+00  0.48286818843E+03  0.48286818843E+03  0.00000000000E+00 0. -1.
         -2   -1    0    0    0  501 -0.00000000000E+00 -0.00000000000E+00 -0.25040753636E+02  0.25040753636E+02  0.00000000000E+00 0.  1.
         25    2    1    2    0    0  0.16576169990E+02  0.41343263053E+01  0.23865322343E+03  0.26999138576E+03  0.12509246685E+03 0.  0.
          5    1    3    3  502    0 -0.39503720152E+02  0.31697804734E+02  0.16827951994E+03  0.17578613131E+03  0.41800000000E+01 0. -1.
         -5    1    3    3    0  502  0.56079890142E+02 -0.27563478429E+02  0.70373703496E+02  0.94205254446E+02  0.41800000000E+01 0. -1.
        -11    1    1    2    0    0  0.22798043324E+02  0.19487594816E+02  0.27068838668E+02  0.40400979666E+02  0.00000000000E+00 0. -1.
         11    1    1    2    0    0 -0.39374213314E+02 -0.23621921121E+02  0.19210537269E+03  0.19751657664E+03  0.00000000000E+00 0.  1.
</event>
<event>
 7    1  0.2679104E-009  0.1140806E+03  0.7561462E-02  0.1253195E+00
          1   -1    0    0  501    0  0.00000000000E+00  0.00000000000E+00  0.75994398329E+03  0.75994398329E+03  0.00000000000E+00 0. -1.
         -1   -1    0    0    0  501 -0.00000000000E+00 -0.00000000000E+00 -0.21827381667E+02  0.21827381667E+02  0.00000000000E+00 0.  1.
         25    2    1    2    0    0  0.26203071332E+02  0.63750312526E+02  0.41799195689E+03  0.44171663466E+03  0.12508239691E+03 0.  0.
          5    1    3    3  502    0 -0.28338130684E+02 -0.40608262558E+01  0.25733863243E+03  0.25895981175E+03  0.41800000000E+01 0. -1.
         -5    1    3    3    0  502  0.54541202016E+02  0.67811138781E+02  0.16065332447E+03  0.18275682292E+03  0.41800000000E+01 0. -1.
        -11    1    1    2    0    0 -0.21790322271E+02 -0.86361672906E+02  0.27954562909E+03  0.29339208482E+03  0.00000000000E+00 0.  1.
         11    1    1    2    0    0 -0.44127490605E+01  0.22611360380E+02  0.40579015648E+02  0.46662645483E+02  0.00000000000E+00 0. -1.
</event>
<event>
 7    1  0.2679104E-009  0.1550642E+03  0.7561462E-02  0.1194385E+00
         -2   -1    0    0    0  501 -0.00000000000E+00  0.00000000000E+00  0.13584299865E+03  0.13584299865E+03  0.00000000000E+00 0.  1.
          2   -1    0    0  501    0  0.00000000000E+00 -0.00000000000E+00 -0.20167925305E+03  0.20167925305E+03  0.00000000000E+00 0. -1.
         25    2    1    2    0    0 -0.11682132144E+03  0.33036646562E+02 -0.67742592499E+01  0.17444771217E+03  0.12508985783E+03 0.  0.
          5    1    3    3  502    0 -0.79524840753E+01  0.60990283540E+02 -0.62918273875E+01  0.61968670965E+02  0.41800000000E+01 0.  1.
         -5    1    3    3    0  502 -0.10886883736E+03 -0.27953636978E+02 -0.48243186240E+00  0.11247904120E+03  0.41800000000E+01 0.  1.
        -11    1    1    2    0    0  0.10811701069E+03 -0.67679344551E+01 -0.12685194004E+02  0.10906881811E+03  0.00000000000E+00 0.  1.
         11    1    1    2    0    0  0.87043107483E+01 -0.26268712107E+02 -0.46376801150E+02  0.54005721421E+02  0.00000000000E+00 0. -1.
</event>
<event>
 7    1  0.2679104E-009  0.1362522E+03  0.7561462E-02  0.1218463E+00
          2   -1    0    0  501    0  0.00000000000E+00  0.00000000000E+00  0.35879532201E+03  0.35879532201E+03  0.00000000000E+00 0. -1.
         -2   -1    0    0    0  501 -0.00000000000E+00 -0.00000000000E+00 -0.64335604251E+02  0.64335604251E+02  0.00000000000E+00 0.  1.
         25    2    1    2    0    0  0.50421533846E+02  0.91673135900E+02  0.13348452094E+03  0.21073171968E+03  0.12507375995E+03 0.  0.
          5    1    3    3  502    0 -0.14578782457E+02 -0.20427418054E+02  0.11451590299E+01  0.25467706914E+02  0.41800000000E+01 0. -1.
         -5    1    3    3    0  502  0.65000316303E+02  0.11210055395E+03  0.13233936191E+03  0.18526401277E+03  0.41800000000E+01 0. -1.
        -11    1    1    2    0    0  0.48925976778E+01 -0.44345809009E+02  0.12183397823E+03  0.12974593072E+03  0.00000000000E+00 0. -1.
         11    1    1    2    0    0 -0.55314131524E+02 -0.47327326891E+02  0.39141218594E+02  0.82653275858E+02  0.00000000000E+00 0.  1.
</event>
<event>
 7    1  0.2679104E-009  0.1476195E+03  0.7561462E-02  0.1203429E+00
         -1   -1    0    0    0  501 -0.00000000000E+00  0.00000000000E+00  0.32507449487E+02  0.32507449487E+02  0.00000000000E+00 0.  1.
          1   -1    0    0  501    0  0.00000000000E+00 -0.00000000000E+00 -0.80499281752E+03  0.80499281752E+03  0.00000000000E+00 0. -1.
         25    2    1    2    0    0  0.11480435711E+03  0.10860008277E+02 -0.46559716030E+03  0.49570788935E+03  0.12509043008E+03 0.  0.
          5    1    3    3  502    0 -0.10045770310E+02  0.20618761223E+02 -0.20747273118E+03  0.20877848883E+03  0.41800000000E+01 0. -1.
         -5    1    3    3    0  502  0.12485012742E+03 -0.97587529463E+01 -0.25812442912E+03  0.28692940052E+03  0.41800000000E+01 0. -1.
        -11    1    1    2    0    0 -0.11162276162E+03 -0.39049604838E+02 -0.21197278884E+03  0.24272819316E+03  0.00000000000E+00 0.  1.
         11    1    1    2    0    0 -0.31815954885E+01  0.28189596562E+02 -0.94915418891E+02  0.99064184484E+02  0.00000000000E+00 0. -1.
</event>
<event>
 7    1  0.2679104E-009  0.1258188E+03  0.7561462E-02  0.1233795E+00
          1   -1    0    0  501    0  0.00000000000E+00  0.00000000000E+00  0.81762007655E+02  0.81762007655E+02  0.00000000000E+00 0. -1.
         -1   -1    0    0    0  501 -0.00000000000E+00 -0.00000000000E+00 -0.31916009196E+03  0.31916009196E+03  0.00000000000E+00 0.  1.
         25    2    1    2    0    0  0.62761423246E+01  0.11661885973E+03 -0.15588530256E+03  0.23148318131E+03  0.12507952378E+03 0.  0.
          5    1    3    3  502    0  0.14513785434E+01  0.10745110515E+03 -0.39506010857E+02  0.11456894776E+03  0.41800000000E+01 0.  1.
         -5    1    3    3    0  502  0.48247637812E+01  0.91677545832E+01 -0.11637929170E+03  0.11691423355E+03  0.41800000000E+01 0.  1.
        -11    1    1    2    0    0 -0.33790477583E+02 -0.45550412077E+02 -0.73459515962E+02  0.92805909839E+02  0.00000000000E+00 0. -1.
         11    1    1    2    0    0  0.27514335258E+02 -0.71068447656E+02 -0.80532657870E+01  0.76633008467E+02  0.00000000000E+00 0.  1.
</event>
<event>
 7    1  0.2679104E-009  0.2338737E+03  0.7561462E-02  0.1123943E+00
          2   -1    0    0  501    0  0.00000000000E+00  0.00000000000E+00  0.16342647906E+03  0.16342647906E+03  0.00000000000E+00 0. -1.
         -2   -1    0    0    0  501 -0.00000000000E+00 -0.00000000000E+00 -0.77437770242E+03  0.77437770242E+03  0.00000000000E+00 0.  1.
         25    2    1    2    0    0  0.67106277265E+02 -0.20398221458E+03  0.35054639443E+02  0.25097178272E+03  0.12508401841E+03 0.  0.
          5    1    3    3  502    0  0.99317529957E+02 -0.17179338849E+03  0.46452247026E+02  0.20384362570E+03  0.41800000000E+01 0. -1.
         -5    1    3    3    0  502 -0.32211252693E+02 -0.32188826091E+02 -0.11397607583E+02  0.47128157016E+02  0.41800000000E+01 0. -1.
        -11    1    1    2    0    0  0.89567615276E+01  0.60326109812E+02 -0.99869142104E+02  0.11701841157E+03  0.00000000000E+00 0. -1.
         11    1    1    2    0    0 -0.76063038792E+02  0.14365610477E+03 -0.54613672069E+03  0.56981398719E+03  0.00000000000E+00 0.  1.
</event>
<event>
 7    1  0.2679104E-009  0.7098000E+02  0.7561462E-02  0.1356792E+00
          2   -1    0    0  501    0  0.00000000000E+00  0.00000000000E+00  0.11188005144E+03  0.11188005144E+03  0.00000000000E+00 0. -1.
         -2   -1    0    0    0  501 -0.00000000000E+00 -0.00000000000E+00 -0.11036305882E+03  0.11036305882E+03  0.00000000000E+00 0.  1.
         25    2    1    2    0    0 -0.31222205532E+02 -0.35174173367E+02  0.85196682295E+00  0.13364167601E+03  0.12508926064E+03 0.  0.
          5    1    3    3  502    0 -0.55801411868E+01 -0.30554858381E+02 -0.59790669484E+02  0.67506547117E+02  0.41800000000E+01 0. -1.
         -5    1    3    3    0  502 -0.25642064345E+02 -0.46193149862E+01  0.60642636307E+02  0.66135128888E+02  0.41800000000E+01 0. -1.
        -11    1    1    2    0    0 -0.60676725071E+01 -0.18164252347E+02 -0.11578370533E+02  0.22378904736E+02  0.00000000000E+00 0.  1.
         11    1    1    2    0    0  0.37289878039E+02  0.53338425714E+02  0.12243396330E+02  0.66222529516E+02  0.00000000000E+00 0. -1.
</event>
<event>
 7    1  0.2679104E-009  0.1158085E+03  0.7561462E-02  0.1250176E+00
         -2   -1    0    0    0  501 -0.00000000000E+00  0.00000000000E+00  0.34641248502E+02  0.34641248502E+02  0.00000000000E+00 0.  1.
          2   -1    0    0  501    0  0.00000000000E+00 -0.00000000000E+00 -0.49014219467E+03  0.49014219467E+03  0.00000000000E+00 0. -1.
         25    2    1    2    0    0  0.53001833759E+02  0.41570371532E+02 -0.29013430658E+03  0.32305220173E+03  0.12509004363E+03 0.  0.
          5    1    3    3  502    0  0.70119528355E+02 -0.18465848336E+02 -0.20435442358E+03  0.21687770436E+03  0.41800000000E+01 0. -1.
         -5    1    3    3    0  502 -0.17117694596E+02  0.60036219868E+02 -0.85779883001E+02  0.10617449737E+03  0.41800000000E+01 0. -1.
        -11    1    1    2    0    0 -0.15736823937E+02  0.19388268629E+02 -0.40453833045E+01  0.25296594912E+02  0.00000000000E+00 0.  1.
         11    1    1    2    0    0 -0.37265009822E+02 -0.60958640161E+02 -0.16132125628E+03  0.17643464653E+03  0.00000000000E+00 0. -1.
</event>
<event>
 7    1  0.2679104E-009  0.1090126E+03  0.7561462E-02  0.1262409E+00
          1   -1    0    0  501    0  0.00000000000E+00  0.00000000000E+00  0.55805179660E+02  0.55805179660E+02  0.00000000000E+00 0. -1.
         -1   -1    0    0    0  501 -0.00000000000E+00 -0.00000000000E+00 -0.29333023043E+03  0.29333023043E+03  0.00000000000E+00 0.  1.
         25    2    1    2    0    0  0.42006887520E+02  0.70834551635E+01 -0.58933684272E+02  0.14469194326E+03  0.12509126815E+03 0.  0.
          5    1    3    3  502    0  0.80132017121E+02  0.14542138401E+02 -0.66094118249E+02  0.10496913272E+03  0.41800000000E+01 0. -1.
         -5    1    3    3    0  502 -0.38125129601E+02 -0.74586832373E+01  0.71604339768E+01  0.39722810543E+02  0.41800000000E+01 0. -1.
        -11    1    1    2    0    0  0.25172983654E+02  0.11539132337E+02 -0.33426693125E+02  0.43407078851E+02  0.00000000000E+00 0. -1.
         11    1    1    2    0    0 -0.67179871174E+02 -0.18622587500E+02 -0.14516467337E+03  0.16103638797E+03  0.00000000000E+00 0.  1.
</event>
<event>
 7    1  0.2679129E-009  0.9092713E+02  0.7561462E-02  0.1300622E+00
         -1   -1    0    0    0  501 -0.00000000000E+00  0.00000000000E+00  0.37297534872E+02  0.37297534872E+02  0.00000000000E+00 0.  1.
          1   -1    0    0  501    0  0.00000000000E+00 -0.00000000000E+00 -0.46029506733E+03  0.46029506733E+03  0.00000000000E+00 0. -1.
         25    2    1    2    0    0  0.62463585456E+02 -0.31675609098E+02 -0.27368149003E+03  0.30895691583E+03  0.12509106337E+03 0.  0.
          5    1    3    3  502    0  0.48276811891E+02  0.13437374064E+02 -0.25163840769E+03  0.25661366724E+03  0.41800000000E+01 0.  1.
         -5    1    3    3    0  502  0.14186773565E+02 -0.45112983163E+02 -0.22043082338E+02  0.52343248590E+02  0.41800000000E+01 0.  1.
        -11    1    1    2    0    0 -0.55306454093E+02  0.39377872336E+01 -0.15006387482E+03  0.15997961295E+03  0.00000000000E+00 0. -1.
         11    1    1    2    0    0 -0.71571313632E+01  0.27737821865E+02  0.74783238762E+00  0.28656073430E+02  0.00000000000E+00 0.  1.
</event>
<event>
 7    1  0.2679104E-009  0.1338878E+03  0.7561462E-02  0.1221798E+00
         -2   -1    0    0    0  501 -0.00000000000E+00  0.00000000000E+00  0.50920528243E+02  0.50920528243E+02  0.00000000000E+00 0. -1.
          2   -1    0    0  501    0  0.00000000000E+00 -0.00000000000E+00 -0.53642984284E+03  0.53642984284E+03  0.00000000000E+00 0.  1.
         25    2    1    2    0    0  0.22404365680E+02  0.80866361508E+02 -0.10812978619E+03  0.18542005049E+03  0.12508885017E+03 0.  0.
          5    1    3    3  502    0 -0.48506243989E+02  0.95358252680E+01 -0.41717052177E+02  0.64819538041E+02  0.41800000000E+01 0. -1.
         -5    1    3    3    0  502  0.70910609669E+02  0.71330536240E+02 -0.66412734016E+02  0.12060051245E+03  0.41800000000E+01 0. -1.
        -11    1    1    2    0    0 -0.83414875155E+01 -0.96275385417E+02 -0.36520966905E+03  0.37777854971E+03  0.00000000000E+00 0.  1.
         11    1    1    2    0    0 -0.14062878164E+02  0.15409023908E+02 -0.12169859352E+02  0.24151770881E+02  0.00000000000E+00 0. -1.
</event>
<event>
 7    1  0.2679104E-009  0.9318549E+02  0.7561462E-02  0.1295316E+00
         -3   -1    0    0    0  501 -0.00000000000E+00  0.00000000000E+00  0.18986126357E+03  0.18986126357E+03  0.00000000000E+00 0.  1.
          3   -1    0    0  501    0  0.00000000000E+00 -0.00000000000E+00 -0.66415316259E+02  0.66415316259E+02  0.00000000000E+00 0. -1.
         25    2    1    2    0    0  0.23767703697E+02 -0.57991615849E+01  0.71609742587E+02  0.14619883634E+03  0.12509040930E+03 0.  0.
          5    1    3    3  502    0  0.65496653165E+02 -0.26997965934E+02  0.14835254657E+02  0.72500061525E+02  0.41800000000E+01 0.  1.
         -5    1    3    3    0  502 -0.41728949468E+02  0.21198804349E+02  0.56774487930E+02  0.73698774815E+02  0.41800000000E+01 0.  1.
        -11    1    1    2    0    0 -0.15114181759E+02 -0.28920626307E+02  0.64366155391E+02  0.72165386966E+02  0.00000000000E+00 0.  1.
         11    1    1    2    0    0 -0.86535219385E+01  0.34719787892E+02 -0.12529950668E+02  0.37912356521E+02  0.00000000000E+00 0. -1.
</event>
<event>
 7    1  0.2679104E-009  0.1363201E+03  0.7561462E-02  0.1218368E+00
          1   -1    0    0  501    0  0.00000000000E+00  0.00000000000E+00  0.64547754523E+03  0.64547754523E+03  0.00000000000E+00 0. -1.
         -1   -1    0    0    0  501 -0.00000000000E+00 -0.00000000000E+00 -0.42514377204E+02  0.42514377204E+02  0.00000000000E+00 0.  1.
         25    2    1    2    0    0 -0.95656310127E+02  0.79438985874E+02  0.33371410752E+03  0.37745634388E+03  0.12508998294E+03 0.  0.
          5    1    3    3  502    0 -0.40086986783E+02  0.56849823046E+02  0.45940768893E+02  0.83467931184E+02  0.41800000000E+01 0. -1.
         -5    1    3    3    0  502 -0.55569323344E+02  0.22589162828E+02  0.28777333863E+03  0.29398841270E+03  0.41800000000E+01 0. -1.
        -11    1    1    2    0    0  0.34503934108E+02 -0.73729546478E+02  0.20987999247E+03  0.22511370179E+03  0.00000000000E+00 0.  1.
         11    1    1    2    0    0  0.61152376019E+02 -0.57094393956E+01  0.59369068029E+02  0.85421876762E+02  0.00000000000E+00 0. -1.
</event>
<event>
 7    1  0.2679104E-009  0.1496874E+03  0.7561462E-02  0.1200858E+00
         -2   -1    0    0    0  501 -0.00000000000E+00  0.00000000000E+00  0.24943190239E+03  0.24943190239E+03  0.00000000000E+00 0.  1.
          2   -1    0    0  501    0  0.00000000000E+00 -0.00000000000E+00 -0.12081905281E+03  0.12081905281E+03  0.00000000000E+00 0. -1.
         25    2    1    2    0    0 -0.12779991424E+03  0.28432491655E+02  0.33850497825E+02  0.18421547932E+03  0.12509301322E+03 0.  0.
          5    1    3    3  502    0  0.18815017581E+02  0.31916705086E+01 -0.18046920889E+02  0.26596153872E+02  0.41800000000E+01 0. -1.
         -5    1    3    3    0  502 -0.14661493182E+03  0.25240821146E+02  0.51897418714E+02  0.15761932545E+03  0.41800000000E+01 0. -1.
        -11    1    1    2    0    0  0.39397408906E+02 -0.10985357737E+02 -0.15410130916E+02  0.43707048036E+02  0.00000000000E+00 0. -1.
         11    1    1    2    0    0  0.88402505337E+02 -0.17447133918E+02  0.11017248267E+03  0.14232842784E+03  0.00000000000E+00 0.  1.
</event>
<event>
 7    1  0.2679104E-009  0.1275872E+03  0.7561462E-02  0.1231080E+00
          4   -1    0    0  501    0  0.00000000000E+00  0.00000000000E+00  0.28336456472E+02  0.28336456472E+02  0.00000000000E+00 0. -1.
         -4   -1    0    0    0  501 -0.00000000000E+00 -0.00000000000E+00 -0.69625034458E+03  0.69625034458E+03  0.00000000000E+00 0.  1.
         25    2    1    2    0    0  0.70744423312E+02 -0.40984922293E+01 -0.50441122508E+03  0.52450112752E+03  0.12509667345E+03 0.  0.
          5    1    3    3  502    0  0.95493427833E+02 -0.36863958506E+02 -0.36585106324E+03  0.37992422807E+03  0.41800000000E+01 0. -1.
         -5    1    3    3    0  502 -0.24749004521E+02  0.32765466277E+02 -0.13856016184E+03  0.14457689945E+03  0.41800000000E+01 0. -1.
        -11    1    1    2    0    0  0.15108543868E+02 -0.17304972966E+02 -0.15706555000E+02  0.27828511587E+02  0.00000000000E+00 0.  1.
         11    1    1    2    0    0 -0.85852967180E+02  0.21403465195E+02 -0.14779610803E+03  0.17225716195E+03  0.00000000000E+00 0. -1.
</event>
<event>
 7    1  0.2679104E-009  0.8874020E+02  0.7561462E-02  0.1305931E+00
         -1   -1    0    0    0  501 -0.00000000000E+00  0.00000000000E+00  0.53408032498E+02  0.53408032498E+02  0.00000000000E+00 0.  1.
          1   -1    0    0  501    0  0.00000000000E+00 -0.00000000000E+00 -0.24218094569E+03  0.24218094569E+03  0.00000000000E+00 0. -1.
         25    2    1    2    0    0  0.18711292714E+01  0.17690053017E+02 -0.68264362564E+02  0.14362208828E+03  0.12510332507E+03 0.  0.
          5    1    3    3  502    0  0.40433265294E+02  0.21428214330E+02 -0.88496426171E+02  0.99715130029E+02  0.41800000000E+01 0. -1.
         -5    1    3    3    0  502 -0.38562136022E+02 -0.37381613131E+01  0.20232063607E+02  0.43906958246E+02  0.41800000000E+01 0. -1.
        -11    1    1    2    0    0  0.42882502883E+02 -0.20877644357E+02 -0.60462989466E+02  0.77010117404E+02  0.00000000000E+00 0. -1.
         11    1    1    2    0    0 -0.44753632154E+02  0.31875913400E+01 -0.60045561165E+02  0.74956772510E+02  0.00000000000E+00 0.  1.
</event>
<event>
 7    1  0.2679104E-009  0.3546203E+03  0.7561462E-02  0.1060734E+00
         -2   -1    0    0    0  501 -0.00000000000E+00  0.00000000000E+00  0.54777813935E+02  0.54777813935E+02  0.00000000000E+00 0.  1.
          2   -1    0    0  501    0  0.00000000000E+00 -0.00000000000E+00 -0.24879313083E+04  0.24879313083E+04  0.00000000000E+00 0. -1.
         25    2    1    2    0    0  0.29766455819E+03  0.18099798569E+03 -0.10422929771E+04  0.11060687409E+04  0.12509576084E+03 0.  0.
          5    1    3    3  502    0  0.14769937852E+03  0.74352105268E+02 -0.31433409659E+03  0.35519957580E+03  0.41800000000E+01 0.  1.
         -5    1    3    3    0  502  0.14996517967E+03  0.10664588042E+03 -0.72795888050E+03  0.75086916505E+03  0.41800000000E+01 0.  1.
        -11    1    1    2    0    0 -0.20636837966E+03 -0.74297200096E+02 -0.84094996464E+03  0.86908274927E+03  0.00000000000E+00 0. -1.
         11    1    1    2    0    0 -0.91296178530E+02 -0.10670078559E+03 -0.54991055264E+03  0.56755763211E+03  0.00000000000E+00 0.  1.
</event>
<event>
 7    1  0.2679104E-009  0.8578924E+02  0.7561462E-02  0.1313381E+00
         -1   -1    0    0    0  501 -0.00000000000E+00  0.00000000000E+00  0.83670482224E+01  0.83670482224E+01  0.00000000000E+00 0.  1.
          1   -1    0    0  501    0  0.00000000000E+00 -0.00000000000E+00 -0.17372957258E+04  0.17372957258E+04  0.00000000000E+00 0. -1.
         25    2    1    2    0    0  0.76700659924E+01  0.20457790985E+02 -0.13033875074E+04  0.13095584122E+04  0.12508752639E+03 0.  0.
          5    1    3    3  502    0 -0.27493687212E+02  0.28599371563E+02 -0.13917612584E+03  0.14478015504E+03  0.41800000000E+01 0. -1.
         -5    1    3    3    0  502  0.35163753204E+02 -0.81415805783E+01 -0.11642113816E+04  0.11647782572E+04  0.41800000000E+01 0. -1.
        -11    1    1    2    0    0  0.38983329523E+02 -0.28129087851E+02 -0.22165048269E+03  0.22680361999E+03  0.00000000000E+00 0.  1.
         11    1    1    2    0    0 -0.46653395515E+02  0.76712968665E+01 -0.20389068748E+03  0.20930074188E+03  0.00000000000E+00 0. -1.
</event>
<event>
 7    1  0.2679104E-009  0.2380648E+03  0.7561462E-02  0.1121089E+00
         -1   -1    0    0    0  501 -0.00000000000E+00  0.00000000000E+00  0.12241519309E+03  0.12241519309E+03  0.00000000000E+00 0.  1.
          1   -1    0    0  501    0  0.00000000000E+00 -0.00000000000E+00 -0.58476436874E+03  0.58476436874E+03  0.00000000000E+00 0. -1.
         25    2    1    2    0    0  0.43656926885E+02  0.21726690335E+03 -0.35124037343E+03  0.43373563259E+03  0.12508382988E+03 0.  0.
          5    1    3    3  502    0 -0.31137122358E+02  0.10314412808E+03 -0.96390607269E+02  0.14462659892E+03  0.41800000000E+01 0.  1.
         -5    1    3    3    0  502  0.74794049243E+02  0.11412277527E+03 -0.25484976616E+03  0.28910903367E+03  0.41800000000E+01 0.  1.
        -11    1    1    2    0    0  0.18493546776E+02 -0.44555028616E+02 -0.70543685402E+02  0.85460946621E+02  0.00000000000E+00 0. -1.
         11    1    1    2    0    0 -0.62150473662E+02 -0.17271187473E+03 -0.40565116814E+02  0.18798298261E+03  0.00000000000E+00 0.  1.
</event>
<event>
 7    1  0.2679104E-009  0.1309222E+03  0.7561462E-02  0.1226094E+00
         -1   -1    0    0    0  501 -0.00000000000E+00  0.00000000000E+00  0.16038071723E+03  0.16038071723E+03  0.00000000000E+00 0.  1.
          1   -1    0    0  501    0  0.00000000000E+00 -0.00000000000E+00 -0.20667078201E+03  0.20667078201E+03  0.00000000000E+00 0. -1.
         25    2    1    2    0    0  0.11670173077E+03 -0.50879444358E+01 -0.11227336947E+03  0.20469212120E+03  0.12509346044E+03 0.  0.
          5    1    3    3  502    0  0.31589360771E+02  0.35565319929E+02  0.11404457937E+02  0.49094946343E+02  0.41800000000E+01 0. -1.
         -5    1    3    3    0  502  0.85112369999E+02 -0.40653264365E+02 -0.12367782741E+03  0.15559717486E+03  0.41800000000E+01 0. -1.
        -11    1    1    2    0    0 -0.99111472234E+02  0.13765193357E+02  0.87728886787E+02  0.13307487386E+03  0.00000000000E+00 0.  1.
         11    1    1    2    0    0 -0.17590258537E+02 -0.86772489215E+01 -0.21745582091E+02  0.29284504174E+02  0.00000000000E+00 0. -1.
</event>
<event>
 7    1  0.2840014E-009  0.1023632E+03  0.7561462E-02  0.1275403E+00
          2   -1    0    0  501    0  0.00000000000E+00  0.00000000000E+00  0.75825507627E+03  0.75825507627E+03  0.00000000000E+00 0. -1.
         -2   -1    0    0    0  501 -0.00000000000E+00 -0.00000000000E+00 -0.27140852217E+02  0.27140852217E+02  0.00000000000E+00 0.  1.
         25    2    1    2    0    0 -0.10053742224E+02  0.52860161812E+01  0.65220158999E+03  0.66418613057E+03  0.12508909768E+03 0.  0.
          5    1    3    3  502    0  0.31107712279E+02 -0.48404157588E+02  0.28475237110E+03  0.29053749755E+03  0.41800000000E+01 0.  1.
         -5    1    3    3    0  502 -0.41161454503E+02  0.53690173770E+02  0.36744921888E+03  0.37364863301E+03  0.41800000000E+01 0.  1.
        -11    1    1    2    0    0  0.42960630992E+02 -0.14051810281E+02  0.13021229564E+02  0.47038511953E+02  0.00000000000E+00 0.  1.
         11    1    1    2    0    0 -0.32906888768E+02  0.87657940998E+01  0.65891404505E+02  0.74171285969E+02  0.00000000000E+00 0. -1.
</event>
<event>
 7    1  0.2679104E-009  0.1395680E+03  0.7561462E-02  0.1213911E+00
          1   -1    0    0  501    0  0.00000000000E+00  0.00000000000E+00  0.64081064392E+03  0.64081064392E+03  0.00000000000E+00 0. -1.
         -1   -1    0    0    0  501 -0.00000000000E+00 -0.00000000000E+00 -0.32193956957E+02  0.32193956957E+02  0.00000000000E+00 0.  1.
         25    2    1    2    0    0 -0.30504150258E+02 -0.83478797354E+02  0.40294985043E+03  0.43117981245E+03  0.12509290912E+03 0.  0.
          5    1    3    3  502    0 -0.46715015992E+02  0.17253481115E+02  0.16059512708E+03  0.16819108946E+03  0.41800000000E+01 0. -1.
         -5    1    3    3    0  502  0.16210865734E+02 -0.10073227847E+03  0.24235472335E+03  0.26298872300E+03  0.41800000000E+01 0. -1.
        -11    1    1    2    0    0 -0.19218970637E+02  0.73966798514E+02  0.11783047725E+03  0.14044385883E+03  0.00000000000E+00 0.  1.
         11    1    1    2    0    0  0.49723120895E+02  0.95119988394E+01  0.87836359278E+02  0.10138092959E+03  0.00000000000E+00 0. -1.
</event>
<event>
 7    1  0.2679104E-009  0.1003247E+03  0.7561462E-02  0.1279615E+00
         -2   -1    0    0    0  501 -0.00000000000E+00  0.00000000000E+00  0.32099631922E+02  0.32099631922E+02  0.00000000000E+00 0.  1.
          2   -1    0    0  501    0  0.00000000000E+00 -0.00000000000E+00 -0.42979626007E+03  0.42979626007E+03  0.00000000000E+00 0. -1.
         25    2    1    2    0    0  0.32976699516E+01  0.11645082942E+01 -0.14558576536E+03  0.19197756793E+03  0.12509172957E+03 0.  0.
          5    1    3    3  502    0 -0.31366156481E+02  0.41268243068E+02 -0.12423165941E+03  0.13467695147E+03  0.41800000000E+01 0. -1.
         -5    1    3    3    0  502  0.34663826433E+02 -0.40103734773E+02 -0.21354105947E+02  0.57300616459E+02  0.41800000000E+01 0. -1.
        -11    1    1    2    0    0 -0.35429014283E+02 -0.34303089887E+02 -0.11132158561E+03  0.12175554382E+03  0.00000000000E+00 0.  1.
         11    1    1    2    0    0  0.32131344331E+02  0.33138581593E+02 -0.14078927718E+03  0.14816278024E+03  0.00000000000E+00 0. -1.
</event>
<event>
 7    1  0.2679104E-009  0.1069425E+03  0.7561462E-02  0.1266339E+00
         -1   -1    0    0    0  501 -0.00000000000E+00  0.00000000000E+00  0.31445620453E+02  0.31445620453E+02  0.00000000000E+00 0.  1.
          1   -1    0    0  501    0  0.00000000000E+00 -0.00000000000E+00 -0.79951842840E+03  0.79951842840E+03  0.00000000000E+00 0. -1.
         25    2    1    2    0    0 -0.60888623879E+01 -0.19345476236E+02 -0.70793635404E+03  0.71918909258E+03  0.12509095815E+03 0.  0.
          5    1    3    3  502    0  0.29972393662E+02 -0.60057674753E+02 -0.28928901492E+03  0.29700315694E+03  0.41800000000E+01 0.  1.
         -5    1    3    3    0  502 -0.36061256050E+02  0.40712198517E+02 -0.41864733912E+03  0.42218593564E+03  0.41800000000E+01 0.  1.
        -11    1    1    2    0    0 -0.32547281842E+01 -0.35904720312E+02 -0.12281232385E+02  0.38086360618E+02  0.00000000000E+00 0.  1.
         11    1    1    2    0    0  0.93435905721E+01  0.55250196548E+02 -0.47855221517E+02  0.73688595656E+02  0.00000000000E+00 0. -1.
</event>
<event>
 7    1  0.2679104E-009  0.1209436E+03  0.7561462E-02  0.1241549E+00
         -3   -1    0    0    0  501 -0.00000000000E+00  0.00000000000E+00  0.21391613294E+03  0.21391613294E+03  0.00000000000E+00 0.  1.
          3   -1    0    0  501    0  0.00000000000E+00 -0.00000000000E+00 -0.12247335990E+03  0.12247335990E+03  0.00000000000E+00 0. -1.
         25    2    1    2    0    0  0.86718409979E+02  0.48556924866E+02  0.12118772600E+03  0.20052759310E+03  0.12508794139E+03 0.  0.
          5    1    3    3  502    0  0.46283739798E+01 -0.24298290690E+02  0.78966468811E+02  0.82855321933E+02  0.41800000000E+01 0. -1.
         -5    1    3    3    0  502  0.82090036000E+02  0.72855215556E+02  0.42221257186E+02  0.11767227117E+03  0.41800000000E+01 0. -1.
        -11    1    1    2    0    0 -0.81444891995E+02 -0.28596864187E+02  0.14040047853E+02  0.87453839351E+02  0.00000000000E+00 0.  1.
         11    1    1    2    0    0 -0.52735179842E+01 -0.19960060679E+02 -0.43785000813E+02  0.48408060387E+02  0.00000000000E+00 0. -1.
</event>
<event>
 7    1  0.2679104E-009  0.9374519E+02  0.7561462E-02  0.1294027E+00
         -2   -1    0    0    0  501 -0.00000000000E+00  0.00000000000E+00  0.15139979618E+03  0.15139979618E+03  0.00000000000E+00 0.  1.
          2   -1    0    0  501    0  0.00000000000E+00 -0.00000000000E+00 -0.83230693067E+02  0.83230693067E+02  0.00000000000E+00 0. -1.
         25    2    1    2    0    0  0.29645774928E+02  0.76946057555E+01  0.33010722027E+02  0.13295108643E+03  0.12509278431E+03 0.  0.
          5    1    3    3  502    0 -0.31946884820E+02  0.24070782747E+02  0.52536949949E+02  0.66163506117E+02  0.41800000000E+01 0. -1.
         -5    1    3    3    0  502  0.61592659749E+02 -0.16376176991E+02 -0.19526227922E+02  0.66787580317E+02  0.41800000000E+01 0. -1.
        -11    1    1    2    0    0 -0.35328635238E+02  0.29347173613E+02  0.43531721124E+02  0.63280169175E+02  0.00000000000E+00 0.  1.
         11    1    1    2    0    0  0.56828603092E+01 -0.37041779369E+02 -0.83733400439E+01  0.38399233633E+02  0.00000000000E+00 0. -1.
</event>
<event>
 7    1  0.2679104E-009  0.1036828E+03  0.7561462E-02  0.1272737E+00
          2   -1    0    0  501    0  0.00000000000E+00  0.00000000000E+00  0.15604079719E+03  0.15604079719E+03  0.00000000000E+00 0. -1.
         -2   -1    0    0    0  501 -0.00000000000E+00 -0.00000000000E+00 -0.12388392578E+03  0.12388392578E+03  0.00000000000E+00 0.  1.
         25    2    1    2    0    0 -0.20854184489E+02  0.85439575738E+02  0.34448076513E+02  0.15674604085E+03  0.12509129960E+03 0.  0.
          5    1    3    3  502    0  0.21649527483E+02  0.56630019256E+02  0.71091438526E+02  0.93526072049E+02  0.41800000000E+01 0. -1.
         -5    1    3    3    0  502 -0.42503711972E+02  0.28809556482E+02 -0.36643362014E+02  0.63219968805E+02  0.41800000000E+01 0. -1.
        -11    1    1    2    0    0 -0.10307364126E+02 -0.25908646110E+02 -0.37963332439E+02  0.47103230339E+02  0.00000000000E+00 0.  1.
         11    1    1    2    0    0  0.31161548615E+02 -0.59530929628E+02  0.35672127337E+02  0.76075451778E+02  0.00000000000E+00 0. -1.
</event>
<event>
 7    1  0.2679104E-009  0.1232216E+03  0.7561462E-02  0.1237875E+00
          1   -1    0    0  501    0  0.00000000000E+00  0.00000000000E+00  0.64462589054E+02  0.64462589054E+02  0.00000000000E+00 0. -1.
         -1   -1    0    0    0  501 -0.00000000000E+00 -0.00000000000E+00 -0.25752970868E+03  0.25752970868E+03  0.00000000000E+00 0.  1.
         25    2    1    2    0    0 -0.39723663062E+02 -0.47547885577E+02 -0.14620368713E+03  0.20214385405E+03  0.12509136169E+03 0.  0.
          5    1    3    3  502    0 -0.81442417252E+01 -0.86157964565E+02 -0.72096742368E+02  0.11271617538E+03  0.41800000000E+01 0.  1.
         -5    1    3    3    0  502 -0.31579421337E+02  0.38610078988E+02 -0.74106944758E+02  0.89427678673E+02  0.41800000000E+01 0.  1.
        -11    1    1    2    0    0  0.27091888156E+02  0.74882946152E+02 -0.28506019231E+02  0.84581435082E+02  0.00000000000E+00 0. -1.
         11    1    1    2    0    0  0.12631774906E+02 -0.27335060575E+02 -0.18357413268E+02  0.35267008603E+02  0.00000000000E+00 0.  1.
</event>
<event>
 7    1  0.2991134E-009  0.2736793E+03  0.7561462E-02  0.1099192E+00
          1   -1    0    0  501    0  0.00000000000E+00  0.00000000000E+00  0.14671955989E+04  0.14671955989E+04  0.00000000000E+00 0. -1.
         -1   -1    0    0    0  501 -0.00000000000E+00 -0.00000000000E+00 -0.56759503243E+02  0.56759503243E+02  0.00000000000E+00 0.  1.
         25    2    1    2    0    0 -0.20264561458E+03  0.16875516635E+03  0.83239656822E+03  0.88208581888E+03  0.12509114196E+03 0.  0.
          5    1    3    3  502    0  0.21861301222E+00  0.25979537284E+02  0.21651360730E+03  0.21810685156E+03  0.41800000000E+01 0. -1.
         -5    1    3    3    0  502 -0.20286422760E+03  0.14277562906E+03  0.61588296092E+03  0.66397896732E+03  0.41800000000E+01 0. -1.
        -11    1    1    2    0    0  0.11013341384E+03 -0.46308644806E+02  0.32086097927E+03  0.34238228261E+03  0.00000000000E+00 0. -1.
         11    1    1    2    0    0  0.92512200748E+02 -0.12244652154E+03  0.25717854815E+03  0.29948700064E+03  0.00000000000E+00 0.  1.
</event>
<event>
 7    1  0.2679104E-009  0.7250138E+02  0.7561462E-02  0.1351788E+00
          2   -1    0    0  501    0  0.00000000000E+00  0.00000000000E+00  0.42243099463E+03  0.42243099463E+03  0.00000000000E+00 0. -1.
         -2   -1    0    0    0  501 -0.00000000000E+00 -0.00000000000E+00 -0.32849109968E+02  0.32849109968E+02  0.00000000000E+00 0.  1.
         25    2    1    2    0    0  0.39564959810E+02 -0.22109477796E+02  0.22638854991E+03  0.26259079675E+03  0.12509171018E+03 0.  0.
          5    1    3    3  502    0 -0.19087614483E+02  0.11314554929E+02 -0.35984455538E+01  0.22864325712E+02  0.41800000000E+01 0. -1.
         -5    1    3    3    0  502  0.58652574293E+02 -0.33424032725E+02  0.22998699546E+03  0.23972647104E+03  0.41800000000E+01 0. -1.
        -11    1    1    2    0    0 -0.19218749333E+02 -0.59571042050E+01 -0.51861365034E+01  0.20778436618E+02  0.00000000000E+00 0.  1.
         11    1    1    2    0    0 -0.20346210477E+02  0.28066582001E+02  0.16837947126E+03  0.17191087123E+03  0.00000000000E+00 0. -1.
</event>
<event>
 7    1  0.2679104E-009  0.1318567E+03  0.7561462E-02  0.1224726E+00
          2   -1    0    0  501    0  0.00000000000E+00  0.00000000000E+00  0.73722545758E+02  0.73722545758E+02  0.00000000000E+00 0. -1.
         -2   -1    0    0    0  501 -0.00000000000E+00 -0.00000000000E+00 -0.35870789350E+03  0.35870789350E+03  0.00000000000E+00 0.  1.
         25    2    1    2    0    0 -0.15788713806E+00  0.10858581056E+03 -0.22397481446E+03  0.27857569133E+03  0.12509514421E+03 0.  0.
          5    1    3    3  502    0  0.37503699188E+02  0.27843668306E+02 -0.16527850884E+03  0.17180295458E+03  0.41800000000E+01 0.  1.
         -5    1    3    3    0  502 -0.37661586326E+02  0.80742142258E+02 -0.58696305622E+02  0.10677273676E+03  0.41800000000E+01 0.  1.
        -11    1    1    2    0    0 -0.29542208651E+02 -0.24275059322E+02 -0.51239009030E+02  0.63933220186E+02  0.00000000000E+00 0.  1.
         11    1    1    2    0    0  0.29700095789E+02 -0.84310751242E+02 -0.97715242537E+01  0.89921527740E+02  0.00000000000E+00 0. -1.
</event>
<event>
 7    1  0.2679104E-009  0.1342797E+03  0.7561462E-02  0.1221240E+00
          1   -1    0    0  501    0  0.00000000000E+00  0.00000000000E+00  0.31323038537E+03  0.31323038537E+03  0.00000000000E+00 0. -1.
         -1   -1    0    0    0  501 -0.00000000000E+00 -0.00000000000E+00 -0.91465712543E+02  0.91465712543E+02  0.00000000000E+00 0.  1.
         25    2    1    2    0    0  0.10625467797E+03 -0.74302991202E+02  0.10493251198E+03  0.20849761548E+03  0.12509769182E+03 0.  0.
          5    1    3    3  502    0  0.19884918989E+02 -0.18556983655E+02  0.10192148337E+03  0.10557098473E+03  0.41800000000E+01 0. -1.
         -5    1    3    3    0  502  0.86369758983E+02 -0.55746007547E+02  0.30110286144E+01  0.10292663075E+03  0.41800000000E+01 0. -1.
        -11    1    1    2    0    0 -0.60208297959E+02  0.69361384456E+02  0.28002701561E+02  0.96021831327E+02  0.00000000000E+00 0.  1.
         11    1    1    2    0    0 -0.46046380013E+02  0.49416067468E+01  0.88829459287E+02  0.10017665111E+03  0.00000000000E+00 0. -1.
</event>
<event>
 7    1  0.2679104E-009  0.1122306E+03  0.7561462E-02  0.1256494E+00
          1   -1    0    0  501    0  0.00000000000E+00  0.00000000000E+00  0.10261268908E+04  0.10261268908E+04  0.00000000000E+00 0. -1.
         -1   -1    0    0    0  501 -0.00000000000E+00 -0.00000000000E+00 -0.13625292759E+02  0.13625292759E+02  0.00000000000E+00 0.  1.
         25    2    1    2    0    0  0.20766787152E+02 -0.26252624493E+02  0.71349801408E+03  0.72515306295E+03  0.12508832431E+03 0.  0.
          5    1    3    3  502    0  0.72093416315E+02 -0.87031803029E+01  0.33830174916E+03  0.34603287692E+03  0.41800000000E+01 0. -1.
         -5    1    3    3    0  502 -0.51326629163E+02 -0.17549444190E+02  0.37519626492E+03  0.37912018604E+03  0.41800000000E+01 0. -1.
        -11    1    1    2    0    0  0.16154385018E+02 -0.27626986612E+02  0.11385043749E+03  0.11826299785E+03  0.00000000000E+00 0.  1.
         11    1    1    2    0    0 -0.36921172171E+02  0.53879611105E+02  0.18515314644E+03  0.19633612272E+03  0.00000000000E+00 0. -1.
</event>
<event>
 7    1  0.2679104E-009  0.1258342E+03  0.7561462E-02  0.1233771E+00
          4   -1    0    0  501    0  0.00000000000E+00  0.00000000000E+00  0.26517029193E+03  0.26517029193E+03  0.00000000000E+00 0. -1.
         -4   -1    0    0    0  501 -0.00000000000E+00 -0.00000000000E+00 -0.67683888279E+02  0.67683888279E+02  0.00000000000E+00 0.  1.
         25    2    1    2    0    0  0.53032925436E+02  0.41322307423E+02  0.59067000961E+02  0.15380681366E+03  0.12509037155E+03 0.  0.
          5    1    3    3  502    0 -0.40867909469E+02  0.18460552298E+02  0.14635974061E+02  0.47356754030E+02  0.41800000000E+01 0.  1.
         -5    1    3    3    0  502  0.93900834905E+02  0.22861755125E+02  0.44431026900E+02  0.10645005963E+03  0.41800000000E+01 0.  1.
        -11    1    1    2    0    0 -0.12051803014E+02 -0.62579702142E+02  0.57253153168E+02  0.85670231842E+02  0.00000000000E+00 0.  1.
         11    1    1    2    0    0 -0.40981122422E+02  0.21257394719E+02  0.81166249518E+02  0.93377134707E+02  0.00000000000E+00 0. -1.
</event>
<event>
 7    1  0.2850639E-009  0.8942736E+02  0.7561462E-02  0.1304244E+00
         -1   -1    0    0    0  501 -0.00000000000E+00  0.00000000000E+00  0.44620860370E+02  0.44620860370E+02  0.00000000000E+00 0.  1.
          1   -1    0    0  501    0  0.00000000000E+00 -0.00000000000E+00 -0.51391142715E+03  0.51391142715E+03  0.00000000000E+00 0. -1.
         25    2    1    2    0    0  0.57252714242E+02 -0.49335240320E+02 -0.38889975309E+03  0.41545496984E+03  0.12509186537E+03 0.  0.
          5    1    3    3  502    0  0.42334843298E+02  0.67064276447E+01 -0.32961543665E+03  0.33241694242E+03  0.41800000000E+01 0. -1.
         -5    1    3    3    0  502  0.14917870944E+02 -0.56041667965E+02 -0.59284316442E+02  0.83038027420E+02  0.41800000000E+01 0. -1.
        -11    1    1    2    0    0 -0.45227466690E+02  0.28113779285E+02 -0.98988818658E+02  0.11240415717E+03  0.00000000000E+00 0. -1.
         11    1    1    2    0    0 -0.12025247552E+02  0.21221461035E+02  0.18598004970E+02  0.30673160515E+02  0.00000000000E+00 0.  1.
</event>
<event>
 7    1  0.2679104E-009  0.7513719E+02  0.7561462E-02  0.1343447E+00
          1   -1    0    0  501    0  0.00000000000E+00  0.00000000000E+00  0.11312651628E+03  0.11312651628E+03  0.00000000000E+00 0. -1.
         -1   -1    0    0    0  501 -0.00000000000E+00 -0.00000000000E+00 -0.11778083522E+03  0.11778083522E+03  0.00000000000E+00 0.  1.
         25    2    1    2    0    0 -0.29307326290E+02 -0.15160346247E+00  0.24507113053E+02  0.13079504691E+03  0.12509118014E+03 0.  0.
          5    1    3    3  502    0  0.67336392610E+01  0.29814987379E+02  0.62902825451E+02  0.70060782324E+02  0.41800000000E+01 0. -1.
         -5    1    3    3    0  502 -0.36040965551E+02 -0.29966590842E+02 -0.38395712397E+02  0.60734264588E+02  0.41800000000E+01 0. -1.
        -11    1    1    2    0    0 -0.54199778717E+01  0.27583818721E+02 -0.45041733372E+02  0.53094264856E+02  0.00000000000E+00 0.  1.
         11    1    1    2    0    0  0.34727304162E+02 -0.27432215259E+02  0.15880301381E+02  0.47018039733E+02  0.00000000000E+00 0. -1.
</event>
<event>
 7    1  0.2679104E-009  0.1251409E+03  0.7561462E-02  0.1234849E+00
         -2   -1    0    0    0  501 -0.00000000000E+00  0.00000000000E+00  0.76863356970E+02  0.76863356970E+02  0.00000000000E+00 0.  1.
          2   -1    0    0  501    0  0.00000000000E+00 -0.00000000000E+00 -0.23205875774E+03  0.23205875774E+03  0.00000000000E+00 0. -1.
         25    2    1    2    0    0  0.37695924354E+02  0.68368677690E+02 -0.75187110897E+02  0.16551670503E+03  0.12508964464E+03 0.  0.
          5    1    3    3  502    0  0.82364365498E+02  0.50713187863E+02 -0.35665776735E+02  0.10317575373E+03  0.41800000000E+01 0.  1.
         -5    1    3    3    0  502 -0.44668441144E+02  0.17655489827E+02 -0.39521334162E+02  0.62340951302E+02  0.41800000000E+01 0.  1.
        -11    1    1    2    0    0  0.19187706440E+02 -0.44649928754E+01  0.74482232349E+01  0.21061345378E+02  0.00000000000E+00 0.  1.
         11    1    1    2    0    0 -0.56883630793E+02 -0.63903684814E+02 -0.87456513110E+02  0.12234406430E+03  0.00000000000E+00 0. -1.
</event>
<event>
 7    1  0.2679104E-009  0.2104686E+03  0.7561462E-02  0.1141195E+00
          1   -1    0    0  501    0  0.00000000000E+00  0.00000000000E+00  0.58501152915E+03  0.58501152915E+03  0.00000000000E+00 0. -1.
         -1   -1    0    0    0  501 -0.00000000000E+00 -0.00000000000E+00 -0.10254267896E+03  0.10254267896E+03  0.00000000000E+00 0.  1.
         25    2    1    2    0    0  0.18068775643E+03  0.97203582112E+02  0.14269908098E+03  0.27947383457E+03  0.12508395099E+03 0.  0.
          5    1    3    3  502    0  0.56826561582E+02  0.45286052021E+01  0.10600286777E+03  0.12043191745E+03  0.41800000000E+01 0. -1.
         -5    1    3    3    0  502  0.12386119485E+03  0.92674976910E+02  0.36696213211E+02  0.15904191711E+03  0.41800000000E+01 0. -1.
        -11    1    1    2    0    0 -0.13867020905E+03 -0.92626989289E+02  0.19163460944E+03  0.25403348117E+03  0.00000000000E+00 0.  1.
         11    1    1    2    0    0 -0.42017547383E+02 -0.45765928234E+01  0.14813515977E+03  0.15404689237E+03  0.00000000000E+00 0. -1.
</event>
<event>
 7    1  0.2679104E-009  0.3980055E+03  0.7561462E-02  0.1044473E+00
         -2   -1    0    0    0  501 -0.00000000000E+00  0.00000000000E+00  0.12031911432E+03  0.12031911432E+03  0.00000000000E+00 0.  1.
          2   -1    0    0  501    0  0.00000000000E+00 -0.00000000000E+00 -0.14062598832E+04  0.14062598832E+04  0.00000000000E+00 0. -1.
         25    2    1    2    0    0 -0.30489461990E+03 -0.25325912828E+03 -0.62550538118E+03  0.75100291254E+03  0.12508987756E+03 0.  0.
          5    1    3    3  502    0 -0.87037708607E+02 -0.10321646610E+03 -0.31708987477E+03  0.34466311476E+03  0.41800000000E+01 0.  1.
         -5    1    3    3    0  502 -0.21785691129E+03 -0.15004266218E+03 -0.30841550641E+03  0.40633979778E+03  0.41800000000E+01 0.  1.
        -11    1    1    2    0    0  0.73720698978E+02  0.59575730753E+02 -0.92001093179E+02  0.13209167384E+03  0.00000000000E+00 0.  1.
         11    1    1    2    0    0  0.23117392092E+03  0.19368339753E+03 -0.56843429456E+03  0.64348441118E+03  0.00000000000E+00 0. -1.
</event>
<event>
 7    1  0.2679104E-009  0.8770820E+02  0.7561462E-02  0.1308498E+00
          2   -1    0    0  501    0  0.00000000000E+00  0.00000000000E+00  0.28811876869E+03  0.28811876869E+03  0.00000000000E+00 0. -1.
         -2   -1    0    0    0  501 -0.00000000000E+00 -0.00000000000E+00 -0.46815018587E+02  0.46815018587E+02  0.00000000000E+00 0.  1.
         25    2    1    2    0    0  0.59653738930E+01 -0.17182675898E+02  0.10819298214E+03  0.16638868140E+03  0.12509453176E+03 0.  0.
          5    1    3    3  502    0 -0.11947923416E+02 -0.44540003656E+02 -0.67667061525E+01  0.46795571497E+02  0.41800000000E+01 0. -1.
         -5    1    3    3    0  502  0.17913297309E+02  0.27357327758E+02  0.11495968829E+03  0.11959310990E+03  0.41800000000E+01 0. -1.
        -11    1    1    2    0    0  0.44035662136E+01 -0.38882121453E+02  0.86364971283E+02  0.94816238212E+02  0.00000000000E+00 0. -1.
         11    1    1    2    0    0 -0.10368940107E+02  0.56064797350E+02  0.46745796683E+02  0.73728867674E+02  0.00000000000E+00 0.  1.
</event>
<event>
 7    1  0.2679104E-009  0.1253046E+03  0.7561462E-02  0.1234594E+00
          2   -1    0    0  501    0  0.00000000000E+00  0.00000000000E+00  0.14902767114E+03  0.14902767114E+03  0.00000000000E+00 0.  1.
         -2   -1    0    0    0  501 -0.00000000000E+00 -0.00000000000E+00 -0.17084020483E+03  0.17084020483E+03  0.00000000000E+00 0. -1.
         25    2    1    2    0    0  0.78360952004E+02 -0.22630242697E+02  0.72175185194E+02  0.16585490042E+03  0.12508406754E+03 0.  0.
          5    1    3    3  502    0 -0.11985420623E+02  0.37999288886E+02  0.24738736979E+02  0.47085812838E+02  0.41800000000E+01 0.  1.
         -5    1    3    3    0  502  0.90346372627E+02 -0.60629531583E+02  0.47436448215E+02  0.11876908759E+03  0.41800000000E+01 0.  1.
        -11    1    1    2    0    0 -0.48775247811E+02 -0.17486235351E+02 -0.50516218517E+01  0.52060657978E+02  0.00000000000E+00 0. -1.
         11    1    1    2    0    0 -0.29585704193E+02  0.40116478049E+02 -0.88936097026E+02  0.10195231757E+03  0.00000000000E+00 0.  1.
</event>
<event>
 7    1  0.2679104E-009  0.8554714E+02  0.7561462E-02  0.1314008E+00
          1   -1    0    0  501    0  0.00000000000E+00  0.00000000000E+00  0.23948039492E+02  0.23948039492E+02  0.00000000000E+00 0. -1.
         -1   -1    0    0    0  501 -0.00000000000E+00 -0.00000000000E+00 -0.65346612981E+03  0.65346612981E+03  0.00000000000E+00 0.  1.
         25    2    1    2    0    0 -0.44939910566E+02 -0.42509248202E+02 -0.32295425314E+03  0.35181370251E+03  0.12508716923E+03 0.  0.
          5    1    3    3  502    0 -0.29076559489E+02 -0.21121235702E+02 -0.32283752428E+03  0.32485857291E+03  0.41800000000E+01 0.  1.
         -5    1    3    3    0  502 -0.15863351077E+02 -0.21388012500E+02 -0.11672886121E+00  0.26955129599E+02  0.41800000000E+01 0.  1.
        -11    1    1    2    0    0  0.59433329998E+02 -0.36819908718E+01 -0.13984694614E+03  0.15199686219E+03  0.00000000000E+00 0.  1.
         11    1    1    2    0    0 -0.14493419432E+02  0.46191239073E+02 -0.16671689104E+03  0.17360360460E+03  0.00000000000E+00 0. -1.
</event>
<event>
 7    1  0.2679104E-009  0.8197959E+02  0.7561462E-02  0.1323526E+00
          2   -1    0    0  501    0  0.00000000000E+00  0.00000000000E+00  0.31360078380E+02  0.31360078380E+02  0.00000000000E+00 0. -1.
         -2   -1    0    0    0  501 -0.00000000000E+00 -0.00000000000E+00 -0.37445401325E+03  0.37445401325E+03  0.00000000000E+00 0.  1.
         25    2    1    2    0    0  0.22073474108E+01 -0.87834926083E+01 -0.22932515639E+03  0.26138003507E+03  0.12508986072E+03 0.  0.
          5    1    3    3  502    0  0.60144956608E+02 -0.22232230885E+01 -0.74363889282E+02  0.95759171651E+02  0.41800000000E+01 0.  1.
         -5    1    3    3    0  502 -0.57937609197E+02 -0.65602695198E+01 -0.15496126711E+03  0.16562086342E+03  0.41800000000E+01 0.  1.
        -11    1    1    2    0    0  0.18872576946E+01  0.26712995231E+02 -0.12154965197E+03  0.12446470886E+03  0.00000000000E+00 0.  1.
         11    1    1    2    0    0 -0.40946051054E+01 -0.17929502622E+02  0.77808734958E+01  0.19969347701E+02  0.00000000000E+00 0. -1.
</event>
<event>
 7    1  0.2679104E-009  0.1530214E+03  0.7561462E-02  0.1196809E+00
         -1   -1    0    0    0  501 -0.00000000000E+00  0.00000000000E+00  0.37980437303E+02  0.37980437303E+02  0.00000000000E+00 0. -1.
          1   -1    0    0  501    0  0.00000000000E+00 -0.00000000000E+00 -0.64928125292E+03  0.64928125292E+03  0.00000000000E+00 0.  1.
         25    2    1    2    0    0  0.53207923617E+02  0.95986010702E+02 -0.26299502434E+03  0.31121890220E+03  0.12508567013E+03 0.  0.
          5    1    3    3  502    0  0.29345199300E+01  0.11167774645E+03 -0.15636623600E+03  0.19221967282E+03  0.41800000000E+01 0.  1.
         -5    1    3    3    0  502  0.50273403687E+02 -0.15691735749E+02 -0.10662878834E+03  0.11899922937E+03  0.41800000000E+01 0.  1.
        -11    1    1    2    0    0 -0.13540253212E+01 -0.89097574296E+02 -0.20694732401E+03  0.22531623565E+03  0.00000000000E+00 0.  1.
         11    1    1    2    0    0 -0.51853898296E+02 -0.68884364061E+01 -0.14135846727E+03  0.15072655238E+03  0.00000000000E+00 0. -1.
</event>
<event>
 7    1  0.2679104E-009  0.1072118E+03  0.7561462E-02  0.1265822E+00
         -1   -1    0    0    0  501 -0.00000000000E+00  0.00000000000E+00  0.33693003828E+02  0.33693003828E+02  0.00000000000E+00 0.  1.
          1   -1    0    0  501    0  0.00000000000E+00 -0.00000000000E+00 -0.37823424689E+03  0.37823424689E+03  0.00000000000E+00 0. -1.
         25    2    1    2    0    0 -0.67169859265E+01  0.24134898852E+02 -0.24901211335E+03  0.27979282836E+03  0.12509749384E+03 0.  0.
          5    1    3    3  502    0  0.57061356863E+02  0.18165006399E+02 -0.88674227055E+02  0.10708200992E+03  0.41800000000E+01 0. -1.
         -5    1    3    3    0  502 -0.63778342789E+02  0.59698924537E+01 -0.16033788629E+03  0.17271081844E+03  0.41800000000E+01 0. -1.
        -11    1    1    2    0    0 -0.68488152567E+00 -0.56751461566E+02 -0.69646078374E+02  0.89843050291E+02  0.00000000000E+00 0.  1.
         11    1    1    2    0    0  0.74018674522E+01  0.32616562714E+02 -0.25883051343E+02  0.42291372074E+02  0.00000000000E+00 0. -1.
</event>
<event>
 7    1  0.2679104E-009  0.8536910E+02  0.7561462E-02  0.1314470E+00
         -1   -1    0    0    0  501 -0.00000000000E+00  0.00000000000E+00  0.78286810024E+02  0.78286810024E+02  0.00000000000E+00 0.  1.
          1   -1    0    0  501    0  0.00000000000E+00 -0.00000000000E+00 -0.17355230992E+03  0.17355230992E+03  0.00000000000E+00 0. -1.
         25    2    1    2    0    0 -0.22187853992E+02  0.35642673690E+02 -0.64440622681E+02  0.14683992671E+03  0.12508664666E+03 0.  0.
          5    1    3    3  502    0  0.63133388905E+01  0.68926840407E+02 -0.66055980404E+00  0.69344619948E+02  0.41800000000E+01 0. -1.
         -5    1    3    3    0  502 -0.28501192883E+02 -0.33284166717E+02 -0.63780062877E+02  0.77495306763E+02  0.41800000000E+01 0. -1.
        -11    1    1    2    0    0  0.77720349236E+01 -0.41201255399E+02  0.23813336301E+02  0.48218491879E+02  0.00000000000E+00 0.  1.
         11    1    1    2    0    0  0.14415819068E+02  0.55585817091E+01 -0.54638213514E+02  0.56780701352E+02  0.00000000000E+00 0. -1.
</event>
<event>
 7    1  0.2679104E-009  0.2544035E+03  0.7561462E-02  0.1110553E+00
         -2   -1    0    0    0  501 -0.00000000000E+00  0.00000000000E+00  0.14319354989E+03  0.14319354989E+03  0.00000000000E+00 0.  1.
          2   -1    0    0  501    0  0.00000000000E+00 -0.00000000000E+00 -0.66214538872E+03  0.66214538872E+03  0.00000000000E+00 0. -1.
         25    2    1    2    0    0 -0.34752924471E+02  0.24106844231E+03 -0.46457808039E+03  0.53926115378E+03  0.12509212429E+03 0.  0.
          5    1    3    3  502    0  0.20387411501E+02  0.42356139374E+02 -0.19039376564E+03  0.19615541666E+03  0.41800000000E+01 0. -1.
         -5    1    3    3    0  502 -0.55140335971E+02  0.19871230294E+03 -0.27418431475E+03  0.34310573712E+03  0.41800000000E+01 0. -1.
        -11    1    1    2    0    0  0.57985332520E+02 -0.13782657371E+03 -0.57515299536E+02  0.16020759310E+03  0.00000000000E+00 0.  1.
         11    1    1    2    0    0 -0.23232408049E+02 -0.10324186861E+03  0.31415410947E+01  0.10587019173E+03  0.00000000000E+00 0. -1.
</event>
<event>
 7    1  0.2679104E-009  0.3178088E+03  0.7561462E-02  0.1076662E+00
         -2   -1    0    0    0  501 -0.00000000000E+00  0.00000000000E+00  0.41534902028E+02  0.41534902028E+02  0.00000000000E+00 0.  1.
          2   -1    0    0  501    0  0.00000000000E+00 -0.00000000000E+00 -0.29745014750E+04  0.29745014750E+04  0.00000000000E+00 0. -1.
         25    2    1    2    0    0  0.22867111380E+03  0.21466903610E+03 -0.19864765658E+04  0.20149714447E+04  0.12508998037E+03 0.  0.
          5    1    3    3  502    0  0.17565047297E+03  0.12496620607E+03 -0.16079993153E+04  0.16223898766E+04  0.41800000000E+01 0.  1.
         -5    1    3    3    0  502  0.53020640834E+02  0.89702830029E+02 -0.37847725047E+03  0.39258156808E+03  0.41800000000E+01 0.  1.
        -11    1    1    2    0    0 -0.16808132313E+03 -0.13471150211E+03 -0.75177273715E+03  0.78202350879E+03  0.00000000000E+00 0. -1.
         11    1    1    2    0    0 -0.60589790668E+02 -0.79957533983E+02 -0.19471727006E+03  0.21904142356E+03  0.00000000000E+00 0.  1.
</event>
<event>
 7    1  0.2679104E-009  0.1152239E+03  0.7561462E-02  0.1251191E+00
         -2   -1    0    0    0  501 -0.00000000000E+00  0.00000000000E+00  0.40993167940E+03  0.40993167940E+03  0.00000000000E+00 0.  1.
          2   -1    0    0  501    0  0.00000000000E+00 -0.00000000000E+00 -0.50285055921E+02  0.50285055921E+02  0.00000000000E+00 0. -1.
         25    2    1    2    0    0 -0.53356170051E+02  0.76250137831E+02  0.21232946209E+03  0.26342189345E+03  0.12508528721E+03 0.  0.
          5    1    3    3  502    0 -0.64496031706E+02  0.72581172315E+02  0.68135957215E+02  0.11869180994E+03  0.41800000000E+01 0.  1.
         -5    1    3    3    0  502  0.11139861655E+02  0.36689655166E+01  0.14419350488E+03  0.14473008352E+03  0.41800000000E+01 0.  1.
        -11    1    1    2    0    0  0.11275766729E+02 -0.77885819870E+02  0.12846856123E+03  0.15065694500E+03  0.00000000000E+00 0.  1.
         11    1    1    2    0    0  0.42080403322E+02  0.16356820381E+01  0.18848600154E+02  0.46137896866E+02  0.00000000000E+00 0. -1.
</event>
<event>
 7    1  0.2679104E-009  0.7158875E+02  0.7561462E-02  0.1354772E+00
         -2   -1    0    0    0  501 -0.00000000000E+00  0.00000000000E+00  0.30715512977E+02  0.30715512977E+02  0.00000000000E+00 0.  1.
          2   -1    0    0  501    0  0.00000000000E+00 -0.00000000000E+00 -0.54185594725E+03  0.54185594725E+03  0.00000000000E+00 0. -1.
         25    2    1    2    0    0  0.38921235669E+02 -0.31737650038E+02 -0.17582652507E+03  0.22155314905E+03  0.12509472379E+03 0.  0.
          5    1    3    3  502    0  0.88418155279E+01 -0.14831733372E+02  0.17612352960E+02  0.25016502422E+02  0.41800000000E+01 0.  1.
         -5    1    3    3    0  502  0.30079420141E+02 -0.16905916666E+02 -0.19343887803E+03  0.19653664663E+03  0.41800000000E+01 0.  1.
        -11    1    1    2    0    0 -0.91117550808E+01 -0.24974712837E+02 -0.35031362686E+02  0.43976774934E+02  0.00000000000E+00 0.  1.
         11    1    1    2    0    0 -0.29809480588E+02  0.56712362876E+02 -0.30028254651E+03  0.30704153624E+03  0.00000000000E+00 0. -1.
</event>
<event>
 7    1  0.2679104E-009  0.1190896E+03  0.7561462E-02  0.1244607E+00
          2   -1    0    0  501    0  0.00000000000E+00  0.00000000000E+00  0.11290893551E+03  0.11290893551E+03  0.00000000000E+00 0. -1.
         -2   -1    0    0    0  501 -0.00000000000E+00 -0.00000000000E+00 -0.17230481109E+03  0.17230481109E+03  0.00000000000E+00 0.  1.
         25    2    1    2    0    0  0.10140440208E+02 -0.63553877661E+02 -0.92359071710E+02  0.16828126942E+03  0.12508582500E+03 0.  0.
          5    1    3    3  502    0 -0.55885229725E+02 -0.13794087598E+02 -0.33832454263E+02  0.66899500114E+02  0.41800000000E+01 0.  1.
         -5    1    3    3    0  502  0.66025669933E+02 -0.49759790063E+02 -0.58526617447E+02  0.10138176930E+03  0.41800000000E+01 0.  1.
        -11    1    1    2    0    0  0.16858029753E+02 -0.98130163687E+01  0.33486935863E+02  0.38753881494E+02  0.00000000000E+00 0. -1.
         11    1    1    2    0    0 -0.26998469961E+02  0.73366894030E+02 -0.52373973279E+00  0.78178595684E+02  0.00000000000E+00 0.  1.
</event>
<event>
 7    1  0.2679104E-009  0.6762597E+02  0.7561462E-02  0.1368357E+00
         -2   -1    0    0    0  501 -0.00000000000E+00  0.00000000000E+00  0.63001900874E+02  0.63001900874E+02  0.00000000000E+00 0. -1.
          2   -1    0    0  501    0  0.00000000000E+00 -0.00000000000E+00 -0.23803570987E+03  0.23803570987E+03  0.00000000000E+00 0.  1.
         25    2    1    2    0    0 -0.55482060197E+02  0.25980886401E+00 -0.72564168230E+02  0.15489495757E+03  0.12509421596E+03 0.  0.
          5    1    3    3  502    0  0.60036823849E+01  0.68521749125E+01 -0.89963186449E+02  0.90519853177E+02  0.41800000000E+01 0. -1.
         -5    1    3    3    0  502 -0.61485742582E+02 -0.65923660485E+01  0.17399018219E+02  0.64375104396E+02  0.41800000000E+01 0. -1.
        -11    1    1    2    0    0  0.15684660621E+02 -0.14123304445E+02 -0.10183050017E+03  0.10399484156E+03  0.00000000000E+00 0.  1.
         11    1    1    2    0    0  0.39797399577E+02  0.13863495581E+02 -0.63914060099E+00  0.42147811610E+02  0.00000000000E+00 0. -1.
</event>
<event>
 7    1  0.2679104E-009  0.1199746E+03  0.7561462E-02  0.1243139E+00
          3   -1    0    0  501    0  0.00000000000E+00  0.00000000000E+00  0.84088512854E+02  0.84088512854E+02  0.00000000000E+00 0. -1.
         -3   -1    0    0    0  501 -0.00000000000E+00 -0.00000000000E+00 -0.27912968545E+03  0.27912968545E+03  0.00000000000E+00 0.  1.
         25    2    1    2    0    0 -0.59938349893E+02 -0.68931794278E+02 -0.17298923514E+03  0.23219957613E+03  0.12508864709E+03 0.  0.
          5    1    3    3  502    0 -0.27810030969E+02  0.15783989288E+02  0.48066878016E+01  0.32605349070E+02  0.41800000000E+01 0.  1.
         -5    1    3    3    0  502 -0.32128318924E+02 -0.84715783566E+02 -0.17779592294E+03  0.19959422706E+03  0.41800000000E+01 0.  1.
        -11    1    1    2    0    0  0.24277474458E+02 -0.13075599793E+02  0.18108518576E+02  0.32989172784E+02  0.00000000000E+00 0. -1.
         11    1    1    2    0    0  0.35660875435E+02  0.82007394070E+02 -0.40160456037E+02  0.98029449392E+02  0.00000000000E+00 0.  1.
</event>
<event>
 7    1  0.2679104E-009  0.7851551E+02  0.7561462E-02  0.1333318E+00
         -2   -1    0    0    0  501 -0.00000000000E+00  0.00000000000E+00  0.43148120295E+03  0.43148120295E+03  0.00000000000E+00 0.  1.
          2   -1    0    0  501    0  0.00000000000E+00 -0.00000000000E+00 -0.39575096505E+02  0.39575096505E+02  0.00000000000E+00 0. -1.
         25    2    1    2    0    0 -0.16872837417E+02 -0.22422130858E+02  0.33440720136E+03  0.35813828419E+03  0.12508960663E+03 0.  0.
          5    1    3    3  502    0  0.33069169709E+02  0.32888215460E+01  0.20613146837E+02  0.39328876858E+02  0.41800000000E+01 0. -1.
         -5    1    3    3    0  502 -0.49942007126E+02 -0.25710952404E+02  0.31379405452E+03  0.31880940733E+03  0.41800000000E+01 0. -1.
        -11    1    1    2    0    0 -0.13006087527E+02  0.33034215441E+02  0.70274691189E+02  0.78733410470E+02  0.00000000000E+00 0.  1.
         11    1    1    2    0    0  0.29878924945E+02 -0.10612084583E+02 -0.12775786097E+02  0.34184604802E+02  0.00000000000E+00 0. -1.
</event>
<event>
 7    1  0.2679104E-009  0.8914786E+02  0.7561462E-02  0.1304928E+00
         -4   -1    0    0    0  501 -0.00000000000E+00  0.00000000000E+00  0.17801926531E+03  0.17801926531E+03  0.00000000000E+00 0.  1.
          4   -1    0    0  501    0  0.00000000000E+00 -0.00000000000E+00 -0.10226782268E+03  0.10226782268E+03  0.00000000000E+00 0. -1.
         25    2    1    2    0    0 -0.59762157814E+02  0.17743465364E+02 -0.11526074314E+02  0.14023739544E+03  0.12508929060E+03 0.  0.
          5    1    3    3  502    0  0.20991986756E+02  0.14275896119E+02  0.37598994121E+02  0.45558988980E+02  0.41800000000E+01 0. -1.
         -5    1    3    3    0  502 -0.80754144569E+02  0.34675692449E+01 -0.49125068435E+02  0.94678406463E+02  0.41800000000E+01 0. -1.
        -11    1    1    2    0    0  0.38905348943E+01 -0.15212484335E+02  0.82428739248E+02  0.83910982567E+02  0.00000000000E+00 0.  1.
         11    1    1    2    0    0  0.55871622919E+02 -0.25309810294E+01  0.48487776942E+01  0.56138709976E+02  0.00000000000E+00 0. -1.
</event>
<event>
 7    1  0.2679104E-009  0.1993792E+03  0.7561462E-02  0.1150264E+00
         -1   -1    0    0    0  501 -0.00000000000E+00  0.00000000000E+00  0.55547053850E+03  0.55547053850E+03  0.00000000000E+00 0.  1.
          1   -1    0    0  501    0  0.00000000000E+00 -0.00000000000E+00 -0.77312628454E+02  0.77312628454E+02  0.00000000000E+00 0. -1.
         25    2    1    2    0    0 -0.17171805289E+03  0.33173657925E+02  0.27494468082E+03  0.34904472025E+03  0.12510019164E+03 0.  0.
          5    1    3    3  502    0  0.24368853767E+01 -0.29113097085E+02  0.29990156914E+02  0.42076035269E+02  0.41800000000E+01 0. -1.
         -5    1    3    3    0  502 -0.17415493827E+03  0.62286755010E+02  0.24495452391E+03  0.30696868498E+03  0.41800000000E+01 0. -1.
        -11    1    1    2    0    0  0.36018377016E+02 -0.32538099565E+02  0.13306086747E+02  0.50329944870E+02  0.00000000000E+00 0. -1.
         11    1    1    2    0    0  0.13569967588E+03 -0.63555835989E+00  0.18990714248E+03  0.23340850184E+03  0.00000000000E+00 0.  1.
</event>
<event>
 7    1  0.2679104E-009  0.2141810E+03  0.7561462E-02  0.1138297E+00
         -2   -1    0    0    0  501 -0.00000000000E+00  0.00000000000E+00  0.51382154248E+02  0.51382154248E+02  0.00000000000E+00 0.  1.
          2   -1    0    0  501    0  0.00000000000E+00 -0.00000000000E+00 -0.13880444791E+04  0.13880444791E+04  0.00000000000E+00 0. -1.
         25    2    1    2    0    0  0.16395524876E+02 -0.20700236416E+03 -0.10265765739E+04  0.10548113126E+04  0.12509456884E+03 0.  0.
          5    1    3    3  502    0 -0.40321851611E+01 -0.17868924032E+03 -0.58187313166E+03  0.60871990017E+03  0.41800000000E+01 0.  1.
         -5    1    3    3    0  502  0.20427710037E+02 -0.28313123844E+02 -0.44470344223E+03  0.44609141244E+03  0.41800000000E+01 0.  1.
        -11    1    1    2    0    0  0.10913202403E+02  0.15752350878E+03 -0.27777011105E+03  0.31951367482E+03  0.00000000000E+00 0.  1.
         11    1    1    2    0    0 -0.27308727278E+02  0.49478855380E+02 -0.32315639873E+02  0.65101645875E+02  0.00000000000E+00 0. -1.
</event>
<event>
 7    1  0.2679104E-009  0.1316525E+03  0.7561462E-02  0.1225024E+00
         -1   -1    0    0    0  501 -0.00000000000E+00  0.00000000000E+00  0.28147905969E+02  0.28147905969E+02  0.00000000000E+00 0.  1.
          1   -1    0    0  501    0  0.00000000000E+00 -0.00000000000E+00 -0.75409401871E+03  0.75409401871E+03  0.00000000000E+00 0. -1.
         25    2    1    2    0    0  0.67027193606E+02 -0.46146701434E+02 -0.54024093901E+03  0.56047384548E+03  0.12509395089E+03 0.  0.
          5    1    3    3  502    0  0.15142245719E+02  0.39641357049E+02 -0.24404437353E+03  0.24774150529E+03  0.41800000000E+01 0. -1.
         -5    1    3    3    0  502  0.51884947887E+02 -0.85788058483E+02 -0.29619656549E+03  0.31273234019E+03  0.41800000000E+01 0. -1.
        -11    1    1    2    0    0 -0.85849211054E+02  0.20077328341E+02 -0.12346368698E+03  0.15171179307E+03  0.00000000000E+00 0. -1.
         11    1    1    2    0    0  0.18822017449E+02  0.26069373093E+02 -0.62241486751E+02  0.70056286136E+02  0.00000000000E+00 0.  1.
</event>
<event>
 7    1  0.2679104E-009  0.1235398E+03  0.7561462E-02  0.1237369E+00
         -2   -1    0    0    0  501 -0.00000000000E+00  0.00000000000E+00  0.16531965003E+03  0.16531965003E+03  0.00000000000E+00 0.  1.
          2   -1    0    0  501    0  0.00000000000E+00 -0.00000000000E+00 -0.10494784527E+03  0.10494784527E+03  0.00000000000E+00 0. -1.
         25    2    1    2    0    0 -0.67923947132E+02 -0.20571974318E+02  0.60577768785E+02  0.15605795616E+03  0.12509017103E+03 0.  0.
          5    1    3    3  502    0 -0.19479835699E+02 -0.69251540809E+02  0.46695817906E+02  0.85867407747E+02  0.41800000000E+01 0.  1.
         -5    1    3    3    0  502 -0.48444111433E+02  0.48679566491E+02  0.13881950879E+02  0.70190548413E+02  0.41800000000E+01 0.  1.
        -11    1    1    2    0    0  0.85967358502E+02  0.14528627914E+02  0.16681587547E+02  0.88767917177E+02  0.00000000000E+00 0.  1.
         11    1    1    2    0    0 -0.18043411370E+02  0.60433464041E+01 -0.16887551576E+02  0.25441621958E+02  0.00000000000E+00 0. -1.
</event>
<event>
 7    1  0.2679104E-009  0.5821999E+02  0.7561462E-02  0.1405457E+00
          1   -1    0    0  501    0  0.00000000000E+00  0.00000000000E+00  0.19052981875E+03  0.19052981875E+03  0.00000000000E+00 0. -1.
         -1   -1    0    0    0  501 -0.00000000000E+00 -0.00000000000E+00 -0.63074402449E+02  0.63074402449E+02  0.00000000000E+00 0.  1.
         25    2    1    2    0    0 -0.14584808841E+02  0.79754023966E+01  0.78763905642E+02  0.14875448427E+03  0.12509124696E+03 0.  0.
          5    1    3    3  502    0  0.50231610272E+01  0.33845026606E+02  0.10261956958E+03  0.10825417513E+03  0.41800000000E+01 0. -1.
         -5    1    3    3    0  502 -0.19607969868E+02 -0.25869624210E+02 -0.23855663934E+02  0.40500309145E+02  0.41800000000E+01 0. -1.
        -11    1    1    2    0    0  0.84090696009E+01 -0.27503104375E+02 -0.18773134391E+02  0.34344778012E+02  0.00000000000E+00 0.  1.
         11    1    1    2    0    0  0.61757392401E+01  0.19527701979E+02  0.67464645053E+02  0.70504958916E+02  0.00000000000E+00 0. -1.
</event>
<event>
 7    1  0.2679104E-009  0.1636071E+03  0.7561462E-02  0.1184684E+00
          2   -1    0    0  501    0  0.00000000000E+00  0.00000000000E+00  0.10431081123E+04  0.10431081123E+04  0.00000000000E+00 0. -1.
         -2   -1    0    0    0  501 -0.00000000000E+00 -0.00000000000E+00 -0.29293746503E+02  0.29293746503E+02  0.00000000000E+00 0.  1.
         25    2    1    2    0    0  0.10855929657E+03  0.77877378825E+02  0.60854449867E+03  0.63547136938E+03  0.12508975751E+03 0.  0.
          5    1    3    3  502    0  0.11029014025E+03  0.27718189028E+02  0.26707681526E+03  0.29030968067E+03  0.41800000000E+01 0. -1.
         -5    1    3    3    0  502 -0.17308436797E+01  0.50159189797E+02  0.34146768341E+03  0.34516168871E+03  0.41800000000E+01 0. -1.
        -11    1    1    2    0    0 -0.61265460062E+02  0.11124737040E+02  0.14343802314E+03  0.15637033879E+03  0.00000000000E+00 0.  1.
         11    1    1    2    0    0 -0.47293836508E+02 -0.89002115865E+02  0.26183184402E+03  0.28056015067E+03  0.00000000000E+00 0. -1.
</event>
<event>
 7    1  0.2679104E-009  0.1137185E+03  0.7561462E-02  0.1253835E+00
          1   -1    0    0  501    0  0.00000000000E+00  0.00000000000E+00  0.36976054626E+02  0.36976054626E+02  0.00000000000E+00 0. -1.
         -1   -1    0    0    0  501 -0.00000000000E+00 -0.00000000000E+00 -0.40289855968E+03  0.40289855968E+03  0.00000000000E+00 0.  1.
         25    2    1    2    0    0  0.26873001987E+02 -0.47790555279E+02 -0.20304690701E+03  0.24470665137E+03  0.12508878195E+03 0.  0.
          5    1    3    3  502    0 -0.47220629115E+02 -0.20490811265E+02 -0.47277990260E+02  0.70016726025E+02  0.41800000000E+01 0. -1.
         -5    1    3    3    0  502  0.74093631102E+02 -0.27299744014E+02 -0.15576891675E+03  0.17468992535E+03  0.41800000000E+01 0. -1.
        -11    1    1    2    0    0 -0.50211379781E+02  0.83643035777E+01 -0.42312331189E+02  0.66192730752E+02  0.00000000000E+00 0. -1.
         11    1    1    2    0    0  0.23338377794E+02  0.39426251701E+02 -0.12056326686E+03  0.12897523218E+03  0.00000000000E+00 0.  1.
</event>
<event>
 7    1  0.2679104E-009  0.4003857E+03  0.7561462E-02  0.1043646E+00
          1   -1    0    0  501    0  0.00000000000E+00  0.00000000000E+00  0.10598203445E+04  0.10598203445E+04  0.00000000000E+00 0. -1.
         -1   -1    0    0    0  501 -0.00000000000E+00 -0.00000000000E+00 -0.19559458625E+03  0.19559458625E+03  0.00000000000E+00 0.  1.
         25    2    1    2    0    0 -0.16677043792E+03 -0.35673126184E+03  0.71266978605E+03  0.82378402081E+03  0.12510921971E+03 0.  0.
          5    1    3    3  502    0 -0.13637990722E+03 -0.24004569570E+03  0.59159547705E+03  0.65285840424E+03  0.41800000000E+01 0. -1.
         -5    1    3    3    0  502 -0.30390530696E+02 -0.11668556613E+03  0.12107430900E+03  0.17092561657E+03  0.41800000000E+01 0. -1.
        -11    1    1    2    0    0  0.11401543252E+03  0.13801732036E+03  0.61484229080E+02  0.18928446846E+03  0.00000000000E+00 0. -1.
         11    1    1    2    0    0  0.52755005392E+02  0.21871394148E+03  0.90071743126E+02  0.24234644148E+03  0.00000000000E+00 0.  1.
</event>
<event>
 7    1  0.2679104E-009  0.1819405E+03  0.7561462E-02  0.1165938E+00
         -1   -1    0    0    0  501 -0.00000000000E+00  0.00000000000E+00  0.98282653726E+02  0.98282653726E+02  0.00000000000E+00 0.  1.
          1   -1    0    0  501    0  0.00000000000E+00 -0.00000000000E+00 -0.42914050645E+03  0.42914050645E+03  0.00000000000E+00 0. -1.
         25    2    1    2    0    0 -0.17562328252E+02 -0.17276227028E+03 -0.12013964922E+03  0.24543209210E+03  0.12509252220E+03 0.  0.
          5    1    3    3  502    0  0.86323252751E+01 -0.74928094752E+02  0.14481459174E+02  0.76915027678E+02  0.41800000000E+01 0. -1.
         -5    1    3    3    0  502 -0.26194653527E+02 -0.97834175523E+02 -0.13462110840E+03  0.16851706442E+03  0.41800000000E+01 0. -1.
        -11    1    1    2    0    0  0.43893971216E+02  0.90155731420E+02 -0.10356588718E+03  0.14415488061E+03  0.00000000000E+00 0.  1.
         11    1    1    2    0    0 -0.26331642964E+02  0.82606538855E+02 -0.10715231632E+03  0.13783618747E+03  0.00000000000E+00 0. -1.
</event>
<event>
 7    1  0.2679104E-009  0.9525071E+02  0.7561462E-02  0.1290612E+00
          4   -1    0    0  501    0  0.00000000000E+00  0.00000000000E+00  0.11469587998E+03  0.11469587998E+03  0.00000000000E+00 0. -1.
         -4   -1    0    0    0  501 -0.00000000000E+00 -0.00000000000E+00 -0.97571583839E+02  0.97571583839E+02  0.00000000000E+00 0.  1.
         25    2    1    2    0    0 -0.64599369281E+01 -0.14639737751E+02  0.17788619472E+02  0.12735745426E+03  0.12508970168E+03 0.  0.
          5    1    3    3  502    0 -0.35644157365E+02  0.39712041894E+02  0.34029323581E+02  0.63427277169E+02  0.41800000000E+01 0. -1.
         -5    1    3    3    0  502  0.29184220437E+02 -0.54351779645E+02 -0.16240704109E+02  0.63930177092E+02  0.41800000000E+01 0. -1.
        -11    1    1    2    0    0 -0.16830751858E+01  0.44326933072E+02 -0.19891978232E+02  0.48614818066E+02  0.00000000000E+00 0.  1.
         11    1    1    2    0    0  0.81430121139E+01 -0.29687195321E+02  0.19227654896E+02  0.36295191488E+02  0.00000000000E+00 0. -1.
</event>
<event>
 7    1  0.2860735E-009  0.7670170E+02  0.7561462E-02  0.1338681E+00
         -1   -1    0    0    0  501 -0.00000000000E+00  0.00000000000E+00  0.10891752637E+03  0.10891752637E+03  0.00000000000E+00 0.  1.
          1   -1    0    0  501    0  0.00000000000E+00 -0.00000000000E+00 -0.14337733572E+03  0.14337733572E+03  0.00000000000E+00 0. -1.
         25    2    1    2    0    0 -0.37688857875E+02  0.15906833432E+02  0.27356866069E+02  0.13442241922E+03  0.12509001283E+03 0.  0.
          5    1    3    3  502    0  0.14735038468E+02 -0.13172087910E+01  0.65455657256E+02  0.67236685406E+02  0.41800000000E+01 0.  1.
         -5    1    3    3    0  502 -0.52423896344E+02  0.17224042223E+02 -0.38098791187E+02  0.67185733815E+02  0.41800000000E+01 0.  1.
        -11    1    1    2    0    0  0.20069242620E+02 -0.44663938647E+02 -0.17638788624E+01  0.48997481399E+02  0.00000000000E+00 0.  1.
         11    1    1    2    0    0  0.17619615255E+02  0.28757105215E+02 -0.60052796559E+02  0.68874961464E+02  0.00000000000E+00 0. -1.
</event>
<event>
 7    1  0.2679104E-009  0.8586898E+02  0.7561462E-02  0.1313176E+00
         -4   -1    0    0    0  501 -0.00000000000E+00  0.00000000000E+00  0.67519029261E+02  0.67519029261E+02  0.00000000000E+00 0.  1.
          4   -1    0    0  501    0  0.00000000000E+00 -0.00000000000E+00 -0.23084782008E+03  0.23084782008E+03  0.00000000000E+00 0. -1.
         25    2    1    2    0    0  0.48791088237E+02 -0.37556853645E+02 -0.86625136523E+02  0.16414503311E+03  0.12509432469E+03 0.  0.
          5    1    3    3  502    0  0.33421085263E+02 -0.26049624911E+02 -0.11893600418E+03  0.12632813380E+03  0.41800000000E+01 0. -1.
         -5    1    3    3    0  502  0.15370002974E+02 -0.11507228733E+02  0.32310867658E+02  0.37816899309E+02  0.41800000000E+01 0. -1.
        -11    1    1    2    0    0  0.14822920253E+02  0.43173058372E+02 -0.24936685552E+02  0.52014134813E+02  0.00000000000E+00 0.  1.
         11    1    1    2    0    0 -0.63614008490E+02 -0.56162047271E+01 -0.51766968744E+02  0.82207681422E+02  0.00000000000E+00 0. -1.
</event>
<event>
 7    1  0.2679104E-009  0.1414100E+03  0.7561462E-02  0.1211444E+00
          2   -1    0    0  501    0  0.00000000000E+00  0.00000000000E+00  0.21543524818E+03  0.21543524818E+03  0.00000000000E+00 0. -1.
         -2   -1    0    0    0  501 -0.00000000000E+00 -0.00000000000E+00 -0.12959564808E+03  0.12959564808E+03  0.00000000000E+00 0.  1.
         25    2    1    2    0    0 -0.22129834662E+02  0.11793333974E+03  0.87745819594E+02  0.19427982548E+03  0.12508924625E+03 0.  0.
          5    1    3    3  502    0  0.30275452466E+02  0.99030713822E+02  0.91549097342E+02  0.13828374787E+03  0.41800000000E+01 0.  1.
         -5    1    3    3    0  502 -0.52405287128E+02  0.18902625921E+02 -0.38032777481E+01  0.55996077606E+02  0.41800000000E+01 0.  1.
        -11    1    1    2    0    0  0.70263950382E+01 -0.98262480922E+02 -0.39148361829E+02  0.10600697910E+03  0.00000000000E+00 0.  1.
         11    1    1    2    0    0  0.15103439624E+02 -0.19670858820E+02  0.37242142328E+02  0.44744091681E+02  0.00000000000E+00 0. -1.
</event>
<event>
 7    1  0.2679104E-009  0.1718670E+03  0.7561462E-02  0.1175915E+00
          1   -1    0    0  501    0  0.00000000000E+00  0.00000000000E+00  0.15905326142E+04  0.15905326142E+04  0.00000000000E+00 0. -1.
         -1   -1    0    0    0  501 -0.00000000000E+00 -0.00000000000E+00 -0.20502918148E+02  0.20502918148E+02  0.00000000000E+00 0.  1.
         25    2    1    2    0    0  0.14415118843E+03  0.10657904965E+02  0.82300501525E+03  0.84491317384E+03  0.12509140708E+03 0.  0.
          5    1    3    3  502    0  0.15345612229E+02 -0.33891031096E+02  0.36844296091E+03  0.37034008377E+03  0.41800000000E+01 0.  1.
         -5    1    3    3    0  502  0.12880557620E+03  0.44548936061E+02  0.45456205434E+03  0.47457309006E+03  0.41800000000E+01 0.  1.
        -11    1    1    2    0    0 -0.86993286508E+02  0.37948349598E+02  0.40774212531E+03  0.41864250846E+03  0.00000000000E+00 0.  1.
         11    1    1    2    0    0 -0.57157901925E+02 -0.48606254563E+02  0.33928255553E+03  0.34747985009E+03  0.00000000000E+00 0. -1.
</event>
<event>
 7    1  0.2679104E-009  0.1065253E+03  0.7561462E-02  0.1267143E+00
         -2   -1    0    0    0  501 -0.00000000000E+00  0.00000000000E+00  0.58691816678E+02  0.58691816678E+02  0.00000000000E+00 0.  1.
          2   -1    0    0  501    0  0.00000000000E+00 -0.00000000000E+00 -0.30445865192E+03  0.30445865192E+03  0.00000000000E+00 0. -1.
         25    2    1    2    0    0  0.10515901698E+01 -0.21667222776E+02 -0.35374089671E+02  0.13178556394E+03  0.12508211007E+03 0.  0.
          5    1    3    3  502    0  0.62118231546E+02 -0.12222888846E+02 -0.28219587566E+02  0.69439838886E+02  0.41800000000E+01 0. -1.
         -5    1    3    3    0  502 -0.61066641376E+02 -0.94443339295E+01 -0.71545021050E+01  0.62345725056E+02  0.41800000000E+01 0. -1.
        -11    1    1    2    0    0 -0.36633042621E+02  0.34031352403E+02 -0.70113920913E+02  0.86116634072E+02  0.00000000000E+00 0.  1.
         11    1    1    2    0    0  0.35581452451E+02 -0.12364129628E+02 -0.14027882466E+03  0.14524827058E+03  0.00000000000E+00 0. -1.
</event>
<event>
 7    1  0.2679104E-009  0.1089465E+03  0.7561462E-02  0.1262533E+00
          2   -1    0    0  501    0  0.00000000000E+00  0.00000000000E+00  0.97677288179E+02  0.97677288179E+02  0.00000000000E+00 0. -1.
         -2   -1    0    0    0  501 -0.00000000000E+00 -0.00000000000E+00 -0.19324646042E+03  0.19324646042E+03  0.00000000000E+00 0.  1.
         25    2    1    2    0    0  0.57807356610E+02 -0.44654653048E+02 -0.16112519369E+02  0.14574952974E+03  0.12509030187E+03 0.  0.
          5    1    3    3  502    0  0.70436411119E+02 -0.29329886070E+02 -0.60159175831E+02  0.97252912887E+02  0.41800000000E+01 0. -1.
         -5    1    3    3    0  502 -0.12629054510E+02 -0.15324766978E+02  0.44046656462E+02  0.48496616854E+02  0.41800000000E+01 0. -1.
        -11    1    1    2    0    0  0.26253055328E+02  0.55157910747E+00 -0.13034485693E+02  0.29315950792E+02  0.00000000000E+00 0.  1.
         11    1    1    2    0    0 -0.84060411938E+02  0.44103073940E+02 -0.66422167174E+02  0.11585826806E+03  0.00000000000E+00 0. -1.
</event>
<event>
 7    1  0.2679104E-009  0.1261678E+03  0.7561462E-02  0.1233255E+00
         -1   -1    0    0    0  501 -0.00000000000E+00  0.00000000000E+00  0.70835949525E+02  0.70835949525E+02  0.00000000000E+00 0.  1.
          1   -1    0    0  501    0  0.00000000000E+00 -0.00000000000E+00 -0.26155936797E+03  0.26155936797E+03  0.00000000000E+00 0. -1.
         25    2    1    2    0    0 -0.61321874098E+02 -0.30010380665E+02 -0.15912292325E+03  0.21361262854E+03  0.12509698309E+03 0.  0.
          5    1    3    3  502    0 -0.73036946973E+02  0.31544158621E+02 -0.86226429829E+02  0.11739633370E+03  0.41800000000E+01 0. -1.
         -5    1    3    3    0  502  0.11715072875E+02 -0.61554539285E+02 -0.72896493421E+02  0.96216294837E+02  0.41800000000E+01 0. -1.
        -11    1    1    2    0    0  0.32565943136E+01 -0.27766232930E+02  0.60937998305E+01  0.28612995195E+02  0.00000000000E+00 0.  1.
         11    1    1    2    0    0  0.58065279784E+02  0.57776613595E+02 -0.37694295025E+02  0.90169693757E+02  0.00000000000E+00 0. -1.
</event>
<event>
 7    1  0.2679104E-009  0.1913593E+03  0.7561462E-02  0.1157241E+00
          2   -1    0    0  501    0  0.00000000000E+00  0.00000000000E+00  0.20178648488E+03  0.20178648488E+03  0.00000000000E+00 0. -1.
         -2   -1    0    0    0  501 -0.00000000000E+00 -0.00000000000E+00 -0.27417599542E+03  0.27417599542E+03  0.00000000000E+00 0.  1.
         25    2    1    2    0    0 -0.41147674479E+02  0.18473919305E+03  0.49479041497E+02  0.23219952348E+03  0.12508694014E+03 0.  0.
          5    1    3    3  502    0 -0.81799640446E+01  0.12221289725E+03  0.88668301223E+02  0.15126944208E+03  0.41800000000E+01 0. -1.
         -5    1    3    3    0  502 -0.32967710434E+02  0.62526295802E+02 -0.39189259726E+02  0.80930081403E+02  0.41800000000E+01 0. -1.
        -11    1    1    2    0    0  0.38160860875E+01 -0.10870115396E+02 -0.51074841638E+02  0.52358011518E+02  0.00000000000E+00 0.  1.
         11    1    1    2    0    0  0.37331588391E+02 -0.17386907765E+03 -0.70793710394E+02  0.19140494530E+03  0.00000000000E+00 0. -1.
</event>
<event>
 7    1  0.2679104E-009  0.1179285E+03  0.7561462E-02  0.1246554E+00
         -1   -1    0    0    0  501 -0.00000000000E+00  0.00000000000E+00  0.20318152543E+02  0.20318152543E+02  0.00000000000E+00 0.  1.
          1   -1    0    0  501    0  0.00000000000E+00 -0.00000000000E+00 -0.82547529108E+03  0.82547529108E+03  0.00000000000E+00 0. -1.
         25    2    1    2    0    0 -0.53802838267E+02  0.40655103409E+02 -0.51391079520E+03  0.53319607562E+03  0.12508463850E+03 0.  0.
          5    1    3    3  502    0  0.18860537426E+02  0.53810709605E+02 -0.33092616787E+03  0.33582869639E+03  0.41800000000E+01 0.  1.
         -5    1    3    3    0  502 -0.72663375693E+02 -0.13155606197E+02 -0.18298462733E+03  0.19736737922E+03  0.41800000000E+01 0.  1.
        -11    1    1    2    0    0 -0.72243313898E+01 -0.43044787450E+02 -0.18470841055E+03  0.18979526237E+03  0.00000000000E+00 0. -1.
         11    1    1    2    0    0  0.61027169657E+02  0.23896840417E+01 -0.10653793278E+03  0.12280210563E+03  0.00000000000E+00 0.  1.
</event>
<event>
 7    1  0.3717294E-009  0.8886719E+02  0.7561462E-02  0.1305618E+00
          2   -1    0    0  501    0  0.00000000000E+00  0.00000000000E+00  0.57477765555E+03  0.57477765555E+03  0.00000000000E+00 0. -1.
         -2   -1    0    0    0  501 -0.00000000000E+00 -0.00000000000E+00 -0.24334919621E+02  0.24334919621E+02  0.00000000000E+00 0.  1.
         25    2    1    2    0    0 -0.19194038305E+02 -0.21831658766E+02  0.40754731436E+03  0.42730310750E+03  0.12509236510E+03 0.  0.
          5    1    3    3  502    0  0.51231200407E+02 -0.67150005587E+01  0.11768467217E+03  0.12859580705E+03  0.41800000000E+01 0. -1.
         -5    1    3    3    0  502 -0.70425238711E+02 -0.15116658208E+02  0.28986264220E+03  0.29870730045E+03  0.41800000000E+01 0. -1.
        -11    1    1    2    0    0 -0.71320931356E+01 -0.10097836082E+02 -0.84066367630E+01  0.14950069823E+02  0.00000000000E+00 0.  1.
         11    1    1    2    0    0  0.26326131440E+02  0.31929494849E+02  0.15130205833E+03  0.15685939785E+03  0.00000000000E+00 0. -1.
</event>
<event>
 7    1  0.2679104E-009  0.9409677E+02  0.7561462E-02  0.1293223E+00
          3   -1    0    0  501    0  0.00000000000E+00  0.00000000000E+00  0.26071921400E+03  0.26071921400E+03  0.00000000000E+00 0. -1.
         -3   -1    0    0    0  501 -0.00000000000E+00 -0.00000000000E+00 -0.70104761770E+02  0.70104761770E+02  0.00000000000E+00 0.  1.
         25    2    1    2    0    0 -0.84548971646E+01  0.29609919143E+02  0.19535427204E+03  0.23400159110E+03  0.12508085560E+03 0.  0.
          5    1    3    3  502    0 -0.43531698968E+02 -0.70985857204E+01  0.17261910123E+03  0.17821398723E+03  0.41800000000E+01 0. -1.
         -5    1    3    3    0  502  0.35076801803E+02  0.36708504863E+02  0.22735170802E+02  0.55787603869E+02  0.41800000000E+01 0. -1.
        -11    1    1    2    0    0  0.47809945261E+02 -0.22938493386E+02 -0.15926369634E+02  0.55367992509E+02  0.00000000000E+00 0.  1.
         11    1    1    2    0    0 -0.39355048096E+02 -0.66714257567E+01  0.11186549828E+02  0.41454392160E+02  0.00000000000E+00 0. -1.
</event>
<event>
 7    1  0.2679104E-009  0.1006939E+03  0.7561462E-02  0.1278844E+00
         -1   -1    0    0    0  501 -0.00000000000E+00  0.00000000000E+00  0.18846289269E+02  0.18846289269E+02  0.00000000000E+00 0.  1.
          1   -1    0    0  501    0  0.00000000000E+00 -0.00000000000E+00 -0.64350081146E+03  0.64350081146E+03  0.00000000000E+00 0. -1.
         25    2    1    2    0    0  0.86960643083E+01 -0.19341122560E+02 -0.33019782778E+03  0.35373564855E+03  0.12509437650E+03 0.  0.
          5    1    3    3  502    0  0.56926501337E+02 -0.20559429541E+02 -0.26867704832E+03  0.27544172776E+03  0.41800000000E+01 0. -1.
         -5    1    3    3    0  502 -0.48230437029E+02  0.12183069812E+01 -0.61520779457E+02  0.78293920791E+02  0.41800000000E+01 0. -1.
        -11    1    1    2    0    0  0.27559094098E+02  0.41488057859E+02 -0.16605264584E+03  0.17336159841E+03  0.00000000000E+00 0. -1.
         11    1    1    2    0    0 -0.36255158406E+02 -0.22146935300E+02 -0.12840404858E+03  0.13524985377E+03  0.00000000000E+00 0.  1.
</event>
<event>
 7    1  0.2679104E-009  0.1006730E+03  0.7561462E-02  0.1278887E+00
         -1   -1    0    0    0  501 -0.00000000000E+00  0.00000000000E+00  0.53350720626E+03  0.53350720626E+03  0.00000000000E+00 0.  1.
          1   -1    0    0  501    0  0.00000000000E+00 -0.00000000000E+00 -0.25640199984E+02  0.25640199984E+02  0.00000000000E+00 0. -1.
         25    2    1    2    0    0  0.22577083907E+02 -0.30630375953E+02  0.26405022759E+03  0.29464933146E+03  0.12509101164E+03 0.  0.
          5    1    3    3  502    0  0.44847815307E+02 -0.52620649369E+02  0.71580573511E+02  0.99606777791E+02  0.41800000000E+01 0. -1.
         -5    1    3    3    0  502 -0.22270731400E+02  0.21990273416E+02  0.19246965408E+03  0.19504255367E+03  0.41800000000E+01 0. -1.
        -11    1    1    2    0    0  0.33985552513E+02  0.27737742215E+02  0.13298649728E+03  0.14003502626E+03  0.00000000000E+00 0.  1.
         11    1    1    2    0    0 -0.56562636420E+02  0.28926337379E+01  0.11083028141E+03  0.12446304852E+03  0.00000000000E+00 0. -1.
</event>
<event>
 7    1  0.2679104E-009  0.1576449E+03  0.7561462E-02  0.1191382E+00
         -1   -1    0    0    0  501 -0.00000000000E+00  0.00000000000E+00  0.64828371958E+02  0.64828371958E+02  0.00000000000E+00 0.  1.
          1   -1    0    0  501    0  0.00000000000E+00 -0.00000000000E+00 -0.45598121154E+03  0.45598121154E+03  0.00000000000E+00 0. -1.
         25    2    1    2    0    0  0.30122100475E+01 -0.12396316159E+03 -0.13498812388E+03  0.22191290851E+03  0.12509039344E+03 0.  0.
          5    1    3    3  502    0  0.24563510774E+02 -0.13463042997E+03 -0.72716045295E+02  0.15502843087E+03  0.41800000000E+01 0. -1.
         -5    1    3    3    0  502 -0.21551300726E+02  0.10667268373E+02 -0.62272078584E+02  0.66884477637E+02  0.41800000000E+01 0. -1.
        -11    1    1    2    0    0 -0.45518620420E+02  0.84421770082E+02 -0.16300192264E+03  0.18912590212E+03  0.00000000000E+00 0. -1.
         11    1    1    2    0    0  0.42506410373E+02  0.39541391512E+02 -0.93162793064E+02  0.10977077287E+03  0.00000000000E+00 0.  1.
</event>
<event>
 7    1  0.2679104E-009  0.1200382E+03  0.7561462E-02  0.1243034E+00
         -1   -1    0    0    0  501 -0.00000000000E+00  0.00000000000E+00  0.78256710233E+02  0.78256710233E+02  0.00000000000E+00 0.  1.
          1   -1    0    0  501    0  0.00000000000E+00 -0.00000000000E+00 -0.26274020552E+03  0.26274020552E+03  0.00000000000E+00 0. -1.
         25    2    1    2    0    0  0.21878664020E+02 -0.89520054642E+02 -0.87148211988E+02  0.17814400903E+03  0.12509181020E+03 0.  0.
          5    1    3    3  502    0  0.26954843546E+02 -0.98977280962E+02 -0.13442207816E+02  0.10354337781E+03  0.41800000000E+01 0.  1.
         -5    1    3    3    0  502 -0.50761795257E+01  0.94572263194E+01 -0.73706004172E+02  0.74600631225E+02  0.41800000000E+01 0.  1.
        -11    1    1    2    0    0  0.26790788187E+02  0.67207122995E+02 -0.34063097025E+02  0.79967732817E+02  0.00000000000E+00 0.  1.
         11    1    1    2    0    0 -0.48669452206E+02  0.22312931647E+02 -0.63272186277E+02  0.82885173903E+02  0.00000000000E+00 0. -1.
</event>
<event>
 7    1  0.2679104E-009  0.1900615E+03  0.7561462E-02  0.1158406E+00
          1   -1    0    0  501    0  0.00000000000E+00  0.00000000000E+00  0.36164571051E+02  0.36164571051E+02  0.00000000000E+00 0. -1.
         -1   -1    0    0    0  501 -0.00000000000E+00 -0.00000000000E+00 -0.11879992059E+04  0.11879992059E+04  0.00000000000E+00 0.  1.
         25    2    1    2    0    0  0.17342081174E+03 -0.13203634787E+02 -0.67253494678E+03  0.70583285409E+03  0.12509056459E+03 0.  0.
          5    1    3    3  502    0  0.75850873013E+02 -0.36073348695E+02 -0.13522816222E+03  0.15924437095E+03  0.41800000000E+01 0.  1.
         -5    1    3    3    0  502  0.97569938731E+02  0.22869713908E+02 -0.53730678456E+03  0.54658848314E+03  0.41800000000E+01 0.  1.
        -11    1    1    2    0    0 -0.12362337844E+03  0.50469017584E+02 -0.29483461002E+03  0.32366233747E+03  0.00000000000E+00 0.  1.
         11    1    1    2    0    0 -0.49797433305E+02 -0.37265382797E+02 -0.18446507801E+03  0.19466858536E+03  0.00000000000E+00 0. -1.
</event>
<event>
 7    1  0.2679104E-009  0.1694402E+03  0.7561462E-02  0.1178433E+00
          2   -1    0    0  501    0  0.00000000000E+00  0.00000000000E+00  0.19925433296E+03  0.19925433296E+03  0.00000000000E+00 0. -1.
         -2   -1    0    0    0  501 -0.00000000000E+00 -0.00000000000E+00 -0.23892201679E+03  0.23892201679E+03  0.00000000000E+00 0.  1.
         25    2    1    2    0    0 -0.31874271478E+02 -0.15454946599E+03  0.84366275563E+02  0.21832475063E+03  0.12508605704E+03 0.  0.
          5    1    3    3  502    0  0.15146507801E+02 -0.11736510880E+03  0.46599335493E+01  0.11850389379E+03  0.41800000000E+01 0.  1.
         -5    1    3    3    0  502 -0.47020779279E+02 -0.37184357186E+02  0.79706342013E+02  0.99820856841E+02  0.41800000000E+01 0.  1.
        -11    1    1    2    0    0  0.34266674207E+01  0.87166905949E+02 -0.14934596328E+02  0.88503410724E+02  0.00000000000E+00 0. -1.
         11    1    1    2    0    0  0.28447604057E+02  0.67382560036E+02 -0.10909936307E+03  0.13134818840E+03  0.00000000000E+00 0.  1.
</event>
<event>
 7    1  0.2679104E-009  0.1123010E+03  0.7561462E-02  0.1256367E+00
          2   -1    0    0  501    0  0.00000000000E+00  0.00000000000E+00  0.50217473619E+03  0.50217473619E+03  0.00000000000E+00 0. -1.
         -2   -1    0    0    0  501 -0.00000000000E+00 -0.00000000000E+00 -0.32437289101E+02  0.32437289101E+02  0.00000000000E+00 0.  1.
         25    2    1    2    0    0 -0.42264822399E+01 -0.66711755337E+02  0.26690200420E+03  0.30223843666E+03  0.12507226430E+03 0.  0.
          5    1    3    3  502    0  0.33277391025E+02  0.23023362578E+02  0.49750879202E+02  0.64265716826E+02  0.41800000000E+01 0.  1.
         -5    1    3    3    0  502 -0.37503873265E+02 -0.89735117915E+02  0.21715112500E+03  0.23797271984E+03  0.41800000000E+01 0.  1.
        -11    1    1    2    0    0 -0.24533381575E+02  0.19702995109E+02  0.15864517873E+03  0.16173554823E+03  0.00000000000E+00 0. -1.
         11    1    1    2    0    0  0.28759863815E+02  0.47008760229E+02  0.44190264160E+02  0.70638040399E+02  0.00000000000E+00 0.  1.
</event>
<event>
 7    1  0.2679104E-009  0.9001233E+02  0.7561462E-02  0.1302822E+00
          2   -1    0    0  501    0  0.00000000000E+00  0.00000000000E+00  0.69017817861E+03  0.69017817861E+03  0.00000000000E+00 0.  1.
         -2   -1    0    0    0  501 -0.00000000000E+00 -0.00000000000E+00 -0.24356930811E+02  0.24356930811E+02  0.00000000000E+00 0. -1.
         25    2    1    2    0    0 -0.22696070485E+02 -0.27001165722E+02  0.54553862059E+03  0.56080518260E+03  0.12508353891E+03 0.  0.
          5    1    3    3  502    0  0.11820013836E+02 -0.46817951863E+02  0.79908041303E+02  0.93458016289E+02  0.41800000000E+01 0. -1.
         -5    1    3    3    0  502 -0.34516084321E+02  0.19816786142E+02  0.46563057929E+03  0.46734716631E+03  0.41800000000E+01 0. -1.
        -11    1    1    2    0    0 -0.97926832576E+01 -0.26886369490E+02  0.60544370286E+02  0.66965620158E+02  0.00000000000E+00 0.  1.
         11    1    1    2    0    0  0.32488753743E+02  0.53887535212E+02  0.59738256925E+02  0.86764306667E+02  0.00000000000E+00 0. -1.
</event>
<event>
 7    1  0.2679104E-009  0.1306604E+03  0.7561462E-02  0.1226479E+00
         -1   -1    0    0    0  501 -0.00000000000E+00  0.00000000000E+00  0.42066907417E+02  0.42066907417E+02  0.00000000000E+00 0.  1.
          1   -1    0    0  501    0  0.00000000000E+00 -0.00000000000E+00 -0.71937181518E+03  0.71937181518E+03  0.00000000000E+00 0. -1.
         25    2    1    2    0    0  0.66859863106E+02 -0.29051027150E+02 -0.60793746172E+03  0.62493940754E+03  0.12508837779E+03 0.  0.
          5    1    3    3  502    0  0.83870463890E+02  0.25101862637E+02 -0.35161377680E+03  0.36237284481E+03  0.41800000000E+01 0. -1.
         -5    1    3    3    0  502 -0.17010600783E+02 -0.54152889787E+02 -0.25632368493E+03  0.26256656273E+03  0.41800000000E+01 0. -1.
        -11    1    1    2    0    0 -0.42361332982E+02  0.62374578967E+02 -0.37049145762E+02  0.84010176972E+02  0.00000000000E+00 0.  1.
         11    1    1    2    0    0 -0.24498530125E+02 -0.33323551816E+02 -0.32318300280E+02  0.52489138085E+02  0.00000000000E+00 0. -1.
</event>
<event>
 7    1  0.2679104E-009  0.1042018E+03  0.7561462E-02  0.1271700E+00
         -2   -1    0    0    0  501 -0.00000000000E+00  0.00000000000E+00  0.55708659576E+02  0.55708659576E+02  0.00000000000E+00 0.  1.
          2   -1    0    0  501    0  0.00000000000E+00 -0.00000000000E+00 -0.31773495517E+03  0.31773495517E+03  0.00000000000E+00 0. -1.
         25    2    1    2    0    0  0.43358255425E+02  0.37979979216E+02 -0.71598061275E+02  0.15523296370E+03  0.12509425849E+03 0.  0.
          5    1    3    3  502    0  0.73071970992E+02  0.34796366840E+01 -0.80280295292E+02  0.10869231357E+03  0.41800000000E+01 0.  1.
         -5    1    3    3    0  502 -0.29713715567E+02  0.34500342532E+02  0.86822340172E+01  0.46540650137E+02  0.41800000000E+01 0.  1.
        -11    1    1    2    0    0 -0.87009770485E+01 -0.51481435383E+02 -0.47715126843E+02  0.70730322496E+02  0.00000000000E+00 0.  1.
         11    1    1    2    0    0 -0.34657278377E+02  0.13501456166E+02 -0.14271310747E+03  0.14748032854E+03  0.00000000000E+00 0. -1.
</event>
<event>
 7    1  0.2679104E-009  0.1360655E+03  0.7561462E-02  0.1218723E+00
          1   -1    0    0  501    0  0.00000000000E+00  0.00000000000E+00  0.24037140115E+04  0.24037140115E+04  0.00000000000E+00 0. -1.
         -1   -1    0    0    0  501 -0.00000000000E+00 -0.00000000000E+00 -0.16790657001E+02  0.16790657001E+02  0.00000000000E+00 0.  1.
         25    2    1    2    0    0  0.11812851145E+03 -0.60623393761E+02  0.18746519982E+04  0.18835065950E+04  0.12508971862E+03 0.  0.
          5    1    3    3  502    0  0.68813930161E+01 -0.18633735381E+02  0.38675164937E+02  0.43678489523E+02  0.41800000000E+01 0.  1.
         -5    1    3    3    0  502  0.11124711844E+03 -0.41989658380E+02  0.18359768333E+04  0.18398281054E+04  0.41800000000E+01 0.  1.
        -11    1    1    2    0    0 -0.57330754685E+02  0.26922231507E+02  0.96323019910E+02  0.11528116128E+03  0.00000000000E+00 0.  1.
         11    1    1    2    0    0 -0.60797756768E+02  0.33701162253E+02  0.41594833642E+03  0.42171691231E+03  0.00000000000E+00 0. -1.
</event>
<event>
 7    1  0.2679104E-009  0.1959514E+03  0.7561462E-02  0.1153200E+00
         -2   -1    0    0    0  501 -0.00000000000E+00  0.00000000000E+00  0.85002744357E+02  0.85002744357E+02  0.00000000000E+00 0. -1.
          2   -1    0    0  501    0  0.00000000000E+00 -0.00000000000E+00 -0.51681580138E+03  0.51681580138E+03  0.00000000000E+00 0.  1.
         25    2    1    2    0    0  0.22399576831E+02 -0.17699445731E+03 -0.21902117466E+03  0.30894431793E+03  0.12509011819E+03 0.  0.
          5    1    3    3  502    0  0.41014379891E+02 -0.30637618992E+02 -0.12185088235E+03  0.13223446216E+03  0.41800000000E+01 0.  1.
         -5    1    3    3    0  502 -0.18614803060E+02 -0.14635683832E+03 -0.97170292318E+02  0.17670985577E+03  0.41800000000E+01 0.  1.
        -11    1    1    2    0    0  0.17409002740E+01  0.16668403288E+03 -0.20738416966E+03  0.26607290613E+03  0.00000000000E+00 0.  1.
         11    1    1    2    0    0 -0.24140477105E+02  0.10310424431E+02 -0.54077127006E+01  0.26801321674E+02  0.00000000000E+00 0. -1.
</event>
<event>
 7    1  0.2679104E-009  0.2551402E+03  0.7561462E-02  0.1110099E+00
         -1   -1    0    0    0  501 -0.00000000000E+00  0.00000000000E+00  0.19636991695E+03  0.19636991695E+03  0.00000000000E+00 0.  1.
          1   -1    0    0  501    0  0.00000000000E+00 -0.00000000000E+00 -0.35430883287E+03  0.35430883287E+03  0.00000000000E+00 0. -1.
         25    2    1    2    0    0 -0.17506943265E+03 -0.16544441643E+03 -0.80824989338E+02  0.28320122908E+03  0.12509634716E+03 0.  0.
          5    1    3    3  502    0 -0.13632996879E+03 -0.74865816811E+02 -0.96897999334E+02  0.18329605995E+03  0.41800000000E+01 0.  1.
         -5    1    3    3    0  502 -0.38739463863E+02 -0.90578599614E+02  0.16073009995E+02  0.99905169129E+02  0.41800000000E+01 0.  1.
        -11    1    1    2    0    0  0.13941958671E+01  0.44328904153E+02 -0.11717865098E+02  0.45872692181E+02  0.00000000000E+00 0. -1.
         11    1    1    2    0    0  0.17367523679E+03  0.12111551227E+03 -0.65396061486E+02  0.22160482857E+03  0.00000000000E+00 0.  1.
</event>
<event>
 7    1  0.2679104E-009  0.1200440E+03  0.7561462E-02  0.1243025E+00
         -2   -1    0    0    0  501 -0.00000000000E+00  0.00000000000E+00  0.22010749425E+02  0.22010749425E+02  0.00000000000E+00 0. -1.
          2   -1    0    0  501    0  0.00000000000E+00 -0.00000000000E+00 -0.90204389453E+03  0.90204389453E+03  0.00000000000E+00 0.  1.
         25    2    1    2    0    0 -0.61408939318E+02  0.32877698388E+02 -0.66098562185E+03  0.67631383791E+03  0.12508562737E+03 0.  0.
          5    1    3    3  502    0  0.19698057230E+02 -0.32717091018E+02 -0.19982657172E+03  0.20348600116E+03  0.41800000000E+01 0. -1.
         -5    1    3    3    0  502 -0.81106996548E+02  0.65594789406E+02 -0.46115905013E+03  0.47282783675E+03  0.41800000000E+01 0. -1.
        -11    1    1    2    0    0  0.74233129916E+02 -0.38086085712E+02 -0.21850110731E+03  0.23388852344E+03  0.00000000000E+00 0.  1.
         11    1    1    2    0    0 -0.12824190597E+02  0.52083873237E+01 -0.54641594493E+00  0.13852282605E+02  0.00000000000E+00 0. -1.
</event>
<event>
 7    1  0.2679104E-009  0.1535086E+03  0.7561462E-02  0.1196227E+00
          2   -1    0    0  501    0  0.00000000000E+00  0.00000000000E+00  0.17630429468E+04  0.17630429468E+04  0.00000000000E+00 0. -1.
         -2   -1    0    0    0  501 -0.00000000000E+00 -0.00000000000E+00 -0.18416441775E+02  0.18416441775E+02  0.00000000000E+00 0.  1.
         25    2    1    2    0    0 -0.90500947478E+02  0.10712135566E+03  0.10618708903E+04  0.10783702999E+04  0.12508920714E+03 0.  0.
          5    1    3    3  502    0 -0.28276461936E+02  0.15743070483E+02  0.45478803847E+02  0.55974963754E+02  0.41800000000E+01 0. -1.
         -5    1    3    3    0  502 -0.62224485541E+02  0.91378285178E+02  0.10163920865E+04  0.10223953362E+04  0.41800000000E+01 0. -1.
        -11    1    1    2    0    0 -0.16484371470E+02 -0.18952345801E+02  0.59205991683E+02  0.64313881591E+02  0.00000000000E+00 0.  1.
         11    1    1    2    0    0  0.10698531895E+03 -0.88169009860E+02  0.62354962306E+03  0.63877520708E+03  0.00000000000E+00 0. -1.
</event>
<event>
 7    1  0.2679104E-009  0.1486389E+03  0.7561462E-02  0.1202156E+00
         -1   -1    0    0    0  501 -0.00000000000E+00  0.00000000000E+00  0.29165780199E+02  0.29165780199E+02  0.00000000000E+00 0.  1.
          1   -1    0    0  501    0  0.00000000000E+00 -0.00000000000E+00 -0.98686763344E+03  0.98686763344E+03  0.00000000000E+00 0. -1.
         25    2    1    2    0    0  0.11977998958E+03 -0.44861423100E+02 -0.59435536057E+03  0.62069789980E+03  0.12509114672E+03 0.  0.
          5    1    3    3  502    0  0.98714678581E+02  0.13936757382E+02 -0.22579745789E+03  0.24686187507E+03  0.41800000000E+01 0. -1.
         -5    1    3    3    0  502  0.21065310999E+02 -0.58798180481E+02 -0.36855790268E+03  0.37383602473E+03  0.41800000000E+01 0. -1.
        -11    1    1    2    0    0 -0.54067333740E+02  0.43131654920E+02 -0.86289779613E+02  0.11058726102E+03  0.00000000000E+00 0. -1.
         11    1    1    2    0    0 -0.65712655839E+02  0.17297681801E+01 -0.27705671305E+03  0.28474825282E+03  0.00000000000E+00 0.  1.
</event>
<event>
 7    1  0.2679104E-009  0.1329703E+03  0.7561462E-02  0.1223114E+00
         -1   -1    0    0    0  501 -0.00000000000E+00  0.00000000000E+00  0.53857253490E+02  0.53857253490E+02  0.00000000000E+00 0. -1.
          1   -1    0    0  501    0  0.00000000000E+00 -0.00000000000E+00 -0.41492398182E+03  0.41492398182E+03  0.00000000000E+00 0.  1.
         25    2    1    2    0    0  0.47447646169E+02  0.83735990741E+02 -0.25377743913E+03  0.29885304907E+03  0.12508861281E+03 0.  0.
          5    1    3    3  502    0  0.66384913698E+01 -0.25608112897E+02 -0.11205574343E+03  0.11521200914E+03  0.41800000000E+01 0. -1.
         -5    1    3    3    0  502  0.40809154799E+02  0.10934410364E+03 -0.14172169569E+03  0.18364103993E+03  0.41800000000E+01 0. -1.
        -11    1    1    2    0    0 -0.62855717043E+02 -0.36497035382E+02 -0.31301813781E+02  0.79137085508E+02  0.00000000000E+00 0. -1.
         11    1    1    2    0    0  0.15408070874E+02 -0.47238955359E+02 -0.75987475425E+02  0.90791100737E+02  0.00000000000E+00 0.  1.
</event>
<event>
 7    1  0.2679104E-009  0.1586248E+03  0.7561462E-02  0.1190258E+00
          2   -1    0    0  501    0  0.00000000000E+00  0.00000000000E+00  0.38754230781E+03  0.38754230781E+03  0.00000000000E+00 0. -1.
         -2   -1    0    0    0  501 -0.00000000000E+00 -0.00000000000E+00 -0.84038180321E+02  0.84038180321E+02  0.00000000000E+00 0.  1.
         25    2    1    2    0    0 -0.12380159774E+03  0.51278431608E+02  0.22755064779E+03  0.29220353198E+03  0.12508914278E+03 0.  0.
          5    1    3    3  502    0  0.17082736606E+02  0.37580777408E+02  0.45847072939E+02  0.61834951424E+02  0.41800000000E+01 0. -1.
         -5    1    3    3    0  502 -0.14088433435E+03  0.13697654200E+02  0.18170357485E+03  0.23036858056E+03  0.41800000000E+01 0. -1.
        -11    1    1    2    0    0  0.39082132536E+02 -0.19358004186E+02 -0.19538727806E+02  0.47790242664E+02  0.00000000000E+00 0.  1.
         11    1    1    2    0    0  0.84719465206E+02 -0.31920427422E+02  0.95492207506E+02  0.13158671349E+03  0.00000000000E+00 0. -1.
</event>
<event>
 7    1  0.2679104E-009  0.1200170E+03  0.7561462E-02  0.1243069E+00
          1   -1    0    0  501    0  0.00000000000E+00  0.00000000000E+00  0.80965099069E+02  0.80965099069E+02  0.00000000000E+00 0. -1.
         -1   -1    0    0    0  501 -0.00000000000E+00 -0.00000000000E+00 -0.20308422788E+03  0.20308422788E+03  0.00000000000E+00 0.  1.
         25    2    1    2    0    0  0.58983599235E+02 -0.39931709154E+02 -0.48677067959E+02  0.15195547951E+03  0.12508958564E+03 0.  0.
          5    1    3    3  502    0  0.65347101654E+02 -0.74735719136E+02 -0.58100194313E+02  0.11510332918E+03  0.41800000000E+01 0.  1.
         -5    1    3    3    0  502 -0.63635024188E+01  0.34804009983E+02  0.94231263543E+01  0.36852150334E+02  0.41800000000E+01 0.  1.
        -11    1    1    2    0    0  0.49651673081E+01  0.40787596769E+02 -0.48204143534E+02  0.63339722059E+02  0.00000000000E+00 0.  1.
         11    1    1    2    0    0 -0.63948766543E+02 -0.85588761514E+00 -0.25237917320E+02  0.68754125379E+02  0.00000000000E+00 0. -1.
</event>
<event>
 7    1  0.2679104E-009  0.1004666E+03  0.7561462E-02  0.1279318E+00
          2   -1    0    0  501    0  0.00000000000E+00  0.00000000000E+00  0.88609739980E+03  0.88609739980E+03  0.00000000000E+00 0. -1.
         -2   -1    0    0    0  501 -0.00000000000E+00 -0.00000000000E+00 -0.20146479588E+02  0.20146479588E+02  0.00000000000E+00 0.  1.
         25    2    1    2    0    0  0.54167761255E+02  0.11215101379E+02  0.65292466575E+03  0.66709786953E+03  0.12509605721E+03 0.  0.
          5    1    3    3  502    0  0.47111772290E+02  0.40369786233E+02  0.61693345153E+03  0.62005934776E+03  0.41800000000E+01 0.  1.
         -5    1    3    3    0  502  0.70559889654E+01 -0.29154684854E+02  0.35991214220E+02  0.47038521770E+02  0.41800000000E+01 0.  1.
        -11    1    1    2    0    0  0.26774808075E+02 -0.20015459771E+00  0.46348154856E+02  0.53526459512E+02  0.00000000000E+00 0. -1.
         11    1    1    2    0    0 -0.80942569331E+02 -0.11014946781E+02  0.16667809961E+03  0.18561955035E+03  0.00000000000E+00 0.  1.
</event>
<event>
 7    1  0.2679104E-009  0.1350983E+03  0.7561462E-02  0.1220081E+00
          1   -1    0    0  501    0  0.00000000000E+00  0.00000000000E+00  0.19506958447E+03  0.19506958447E+03  0.00000000000E+00 0. -1.
         -1   -1    0    0    0  501 -0.00000000000E+00 -0.00000000000E+00 -0.13499130440E+03  0.13499130440E+03  0.00000000000E+00 0.  1.
         25    2    1    2    0    0  0.72717776528E+02  0.95603705005E+02  0.27624509723E+02  0.17560939345E+03  0.12509037571E+03 0.  0.
          5    1    3    3  502    0  0.13879873139E+02  0.87135927571E+02 -0.29432100435E+02  0.93107688663E+02  0.41800000000E+01 0.  1.
         -5    1    3    3    0  502  0.58837903388E+02  0.84677774334E+01  0.57056610158E+02  0.82501704786E+02  0.41800000000E+01 0.  1.
        -11    1    1    2    0    0 -0.98406127887E+01 -0.29043928883E+01  0.40856098861E+02  0.42124742993E+02  0.00000000000E+00 0. -1.
         11    1    1    2    0    0 -0.62877163739E+02 -0.92699312116E+02 -0.84023285176E+01  0.11232675243E+03  0.00000000000E+00 0.  1.
</event>
<event>
 7    1  0.2679104E-009  0.3898140E+03  0.7561462E-02  0.1047365E+00
         -2   -1    0    0    0  501 -0.00000000000E+00  0.00000000000E+00  0.40841634506E+03  0.40841634506E+03  0.00000000000E+00 0.  1.
          2   -1    0    0  501    0  0.00000000000E+00 -0.00000000000E+00 -0.55694415514E+03  0.55694415514E+03  0.00000000000E+00 0. -1.
         25    2    1    2    0    0 -0.33837781257E+03  0.17086972580E+03  0.19717948395E+03  0.44522220238E+03  0.12508818233E+03 0.  0.
          5    1    3    3  502    0 -0.83282047242E+02 -0.11847795993E+02  0.28276452743E+02  0.88844244847E+02  0.41800000000E+01 0. -1.
         -5    1    3    3    0  502 -0.25509576533E+03  0.18271752179E+03  0.16890303121E+03  0.35637795753E+03  0.41800000000E+01 0. -1.
        -11    1    1    2    0    0  0.98654515114E+02 -0.72698809662E+02 -0.15935551165E+03  0.20102738463E+03  0.00000000000E+00 0. -1.
         11    1    1    2    0    0  0.23972329746E+03 -0.98170916139E+02 -0.18635178239E+03  0.31911091319E+03  0.00000000000E+00 0.  1.
</event>
<event>
 7    1  0.2679104E-009  0.1387272E+03  0.7561462E-02  0.1215052E+00
         -1   -1    0    0    0  501 -0.00000000000E+00  0.00000000000E+00  0.45241792376E+02  0.45241792376E+02  0.00000000000E+00 0.  1.
          1   -1    0    0  501    0  0.00000000000E+00 -0.00000000000E+00 -0.46322839582E+03  0.46322839582E+03  0.00000000000E+00 0. -1.
         25    2    1    2    0    0  0.80598824719E+02  0.51524585769E+02 -0.24112543753E+03  0.28799316738E+03  0.12509050464E+03 0.  0.
          5    1    3    3  502    0  0.42573142604E+02 -0.39791483332E+02 -0.86108760782E+02  0.10405779981E+03  0.41800000000E+01 0. -1.
         -5    1    3    3    0  502  0.38025682114E+02  0.91316069101E+02 -0.15501667675E+03  0.18393536758E+03  0.41800000000E+01 0. -1.
        -11    1    1    2    0    0  0.10872592493E+02 -0.20908333270E+02 -0.81494281447E+02  0.84833304640E+02  0.00000000000E+00 0. -1.
         11    1    1    2    0    0 -0.91471417212E+02 -0.30616252498E+02 -0.95366884471E+02  0.13564371617E+03  0.00000000000E+00 0.  1.
</event>
<event>
 7    1  0.2679104E-009  0.8208915E+02  0.7561462E-02  0.1323225E+00
         -1   -1    0    0    0  501 -0.00000000000E+00  0.00000000000E+00  0.16686419473E+03  0.16686419473E+03  0.00000000000E+00 0.  1.
          1   -1    0    0  501    0  0.00000000000E+00 -0.00000000000E+00 -0.10587102388E+03  0.10587102388E+03  0.00000000000E+00 0. -1.
         25    2    1    2    0    0  0.21804946317E+02 -0.18830254327E+02  0.11251779566E+03  0.17069621430E+03  0.12508760560E+03 0.  0.
          5    1    3    3  502    0  0.33758702229E+02  0.22286299845E+02 -0.91175226093E+01  0.41676501239E+02  0.41800000000E+01 0. -1.
         -5    1    3    3    0  502 -0.11953755912E+02 -0.41116554172E+02  0.12163531827E+03  0.12901971306E+03  0.41800000000E+01 0. -1.
        -11    1    1    2    0    0 -0.38115910420E+02 -0.16531525801E+02 -0.47163783235E+02  0.62853292845E+02  0.00000000000E+00 0.  1.
         11    1    1    2    0    0  0.16310964102E+02  0.35361780128E+02 -0.43608415798E+01  0.39185711465E+02  0.00000000000E+00 0. -1.
</event>
<event>
 7    1  0.2679104E-009  0.7651408E+02  0.7561462E-02  0.1339245E+00
          2   -1    0    0  501    0  0.00000000000E+00  0.00000000000E+00  0.84295994271E+03  0.84295994271E+03  0.00000000000E+00 0. -1.
         -2   -1    0    0    0  501 -0.00000000000E+00 -0.00000000000E+00 -0.18674898462E+02  0.18674898462E+02  0.00000000000E+00 0.  1.
         25    2    1    2    0    0  0.46537675372E+02  0.25424238644E+02  0.60555529217E+03  0.62060903405E+03  0.12508482774E+03 0.  0.
          5    1    3    3  502    0 -0.38579433159E+01  0.26827419470E+02  0.52346608750E+03  0.52418394798E+03  0.41800000000E+01 0. -1.
         -5    1    3    3    0  502  0.50395618688E+02 -0.14031808258E+01  0.82089204669E+02  0.96425086065E+02  0.41800000000E+01 0. -1.
        -11    1    1    2    0    0 -0.61730476744E+01  0.16017186367E+02  0.26905920592E+01  0.17375156469E+02  0.00000000000E+00 0.  1.
         11    1    1    2    0    0 -0.40364627697E+02 -0.41441425011E+02  0.21603916003E+03  0.22365065066E+03  0.00000000000E+00 0. -1.
</event>
<event>
 7    1  0.2679104E-009  0.9429623E+02  0.7561462E-02  0.1292769E+00
         -1   -1    0    0    0  501 -0.00000000000E+00  0.00000000000E+00  0.16443187150E+03  0.16443187150E+03  0.00000000000E+00 0.  1.
          1   -1    0    0  501    0  0.00000000000E+00 -0.00000000000E+00 -0.89396699762E+02  0.89396699762E+02  0.00000000000E+00 0. -1.
         25    2    1    2    0    0  0.35523389634E+02 -0.27340810269E+02  0.13541332185E+02  0.13357007047E+03  0.12509262541E+03 0.  0.
          5    1    3    3  502    0  0.12029743992E+01 -0.45880073171E+02  0.58128371909E+02  0.74180915891E+02  0.41800000000E+01 0.  1.
         -5    1    3    3    0  502  0.34320415234E+02  0.18539262902E+02 -0.44587039724E+02  0.59389154583E+02  0.41800000000E+01 0.  1.
        -11    1    1    2    0    0  0.27662656725E+02  0.28986909260E+02  0.26044562391E+02  0.47788939261E+02  0.00000000000E+00 0.  1.
         11    1    1    2    0    0 -0.63186046359E+02 -0.16460989912E+01  0.35449277159E+02  0.72469561524E+02  0.00000000000E+00 0. -1.
</event>
<event>
 7    1  0.2679104E-009  0.9540188E+02  0.7561462E-02  0.1290274E+00
         -2   -1    0    0    0  501 -0.00000000000E+00  0.00000000000E+00  0.15284574317E+03  0.15284574317E+03  0.00000000000E+00 0.  1.
          2   -1    0    0  501    0  0.00000000000E+00 -0.00000000000E+00 -0.35458669229E+03  0.35458669229E+03  0.00000000000E+00 0. -1.
         25    2    1    2    0    0 -0.40516273890E+02 -0.26076031477E+01 -0.32358240983E+03  0.34928981437E+03  0.12509768355E+03 0.  0.
          5    1    3    3  502    0 -0.17318762563E+02  0.47392166812E+02 -0.53699908784E+02  0.73804536549E+02  0.41800000000E+01 0.  1.
         -5    1    3    3    0  502 -0.23197511327E+02 -0.49999769960E+02 -0.26988250104E+03  0.27548527782E+03  0.41800000000E+01 0.  1.
        -11    1    1    2    0    0  0.61484982191E+02 -0.69033587187E+01  0.41335752459E+02  0.74409030554E+02  0.00000000000E+00 0. -1.
         11    1    1    2    0    0 -0.20968708301E+02  0.95109618664E+01  0.80505708252E+02  0.83733590539E+02  0.00000000000E+00 0.  1.
</event>
<event>
 7    1  0.2679104E-009  0.8164971E+02  0.7561462E-02  0.1324434E+00
         -2   -1    0    0    0  501 -0.00000000000E+00  0.00000000000E+00  0.41829051734E+02  0.41829051734E+02  0.00000000000E+00 0.  1.
          2   -1    0    0  501    0  0.00000000000E+00 -0.00000000000E+00 -0.41759145179E+03  0.41759145179E+03  0.00000000000E+00 0. -1.
         25    2    1    2    0    0  0.58012206416E+02 -0.47680431647E+02 -0.20252970312E+03  0.24961741193E+03  0.12510688244E+03 0.  0.
          5    1    3    3  502    0  0.23215409136E+02 -0.11248562661E+02  0.12326147573E+02  0.28894492508E+02  0.41800000000E+01 0. -1.
         -5    1    3    3    0  502  0.34796797280E+02 -0.36431868985E+02 -0.21485585070E+03  0.22072291942E+03  0.41800000000E+01 0. -1.
        -11    1    1    2    0    0 -0.14912106499E+02  0.40189790488E+02 -0.14656540853E+02  0.45303469729E+02  0.00000000000E+00 0.  1.
         11    1    1    2    0    0 -0.43100099917E+02  0.74906411594E+01 -0.15857615608E+03  0.16449962187E+03  0.00000000000E+00 0. -1.
</event>
<event>
 7    1  0.2679104E-009  0.1250138E+03  0.7561462E-02  0.1235048E+00
         -1   -1    0    0    0  501 -0.00000000000E+00  0.00000000000E+00  0.14384312568E+03  0.14384312568E+03  0.00000000000E+00 0.  1.
          1   -1    0    0  501    0  0.00000000000E+00 -0.00000000000E+00 -0.22381053457E+03  0.22381053457E+03  0.00000000000E+00 0. -1.
         25    2    1    2    0    0  0.51002048598E+02  0.37795254773E+02  0.88504036833E+02  0.16586120312E+03  0.12508910392E+03 0.  0.
          5    1    3    3  502    0  0.33829816907E+02  0.83934035488E+02  0.62180414927E+02  0.10987836559E+03  0.41800000000E+01 0.  1.
         -5    1    3    3    0  502  0.17172231691E+02 -0.46138780715E+02  0.26323621906E+02  0.55982837525E+02  0.41800000000E+01 0.  1.
        -11    1    1    2    0    0 -0.76519614940E+02 -0.20555171741E+02 -0.13305815032E+03  0.15486199638E+03  0.00000000000E+00 0.  1.
         11    1    1    2    0    0  0.25517566342E+02 -0.17240083032E+02 -0.35413295408E+02  0.46930460755E+02  0.00000000000E+00 0. -1.
</event>
<event>
 7    1  0.2679104E-009  0.1519532E+03  0.7561462E-02  0.1198093E+00
          2   -1    0    0  501    0  0.00000000000E+00  0.00000000000E+00  0.33935339218E+03  0.33935339218E+03  0.00000000000E+00 0. -1.
         -2   -1    0    0    0  501 -0.00000000000E+00 -0.00000000000E+00 -0.15229269421E+03  0.15229269421E+03  0.00000000000E+00 0.  1.
         25    2    1    2    0    0  0.42580412468E+02  0.11433012228E+03  0.26439582366E+03  0.31691810214E+03  0.12508982177E+03 0.  0.
          5    1    3    3  502    0  0.28953730143E+02  0.13446575330E+03  0.16672874410E+03  0.21618349569E+03  0.41800000000E+01 0.  1.
         -5    1    3    3    0  502  0.13626682325E+02 -0.20135631019E+02  0.97667079556E+02  0.10073460645E+03  0.41800000000E+01 0.  1.
        -11    1    1    2    0    0 -0.50407861649E+02 -0.33743577565E+02 -0.71191064278E+02  0.93529402735E+02  0.00000000000E+00 0.  1.
         11    1    1    2    0    0  0.78274491806E+01 -0.80586544718E+02 -0.61440614076E+01  0.81198581520E+02  0.00000000000E+00 0. -1.
</event>
<event>
 7    1  0.2679104E-009  0.8561035E+02  0.7561462E-02  0.1313844E+00
          2   -1    0    0  501    0  0.00000000000E+00  0.00000000000E+00  0.36688941255E+03  0.36688941255E+03  0.00000000000E+00 0. -1.
         -2   -1    0    0    0  501 -0.00000000000E+00 -0.00000000000E+00 -0.76372127755E+02  0.76372127755E+02  0.00000000000E+00 0.  1.
         25    2    1    2    0    0  0.47377712468E+02  0.57813630170E+02  0.10389283601E+03  0.17896406216E+03  0.12508937085E+03 0.  0.
          5    1    3    3  502    0  0.34233593779E+02  0.42348767209E+02  0.13268763858E+03  0.14348811400E+03  0.41800000000E+01 0.  1.
         -5    1    3    3    0  502  0.13144118689E+02  0.15464862961E+02 -0.28794802574E+02  0.35475948159E+02  0.41800000000E+01 0.  1.
        -11    1    1    2    0    0 -0.56609003367E+02 -0.25157182371E+02 -0.11740997095E+02  0.63050091989E+02  0.00000000000E+00 0.  1.
         11    1    1    2    0    0  0.92312908991E+01 -0.32656447799E+02  0.19836544588E+03  0.20124738615E+03  0.00000000000E+00 0. -1.
</event>
<event>
 7    1  0.2679104E-009  0.1388113E+03  0.7561462E-02  0.1214937E+00
          2   -1    0    0  501    0  0.00000000000E+00  0.00000000000E+00  0.34506982626E+03  0.34506982626E+03  0.00000000000E+00 0. -1.
         -2   -1    0    0    0  501 -0.00000000000E+00 -0.00000000000E+00 -0.59843701996E+02  0.59843701996E+02  0.00000000000E+00 0.  1.
         25    2    1    2    0    0 -0.11941926352E+02 -0.91602206492E+02  0.16086243794E+03  0.22373336431E+03  0.12508525304E+03 0.  0.
          5    1    3    3  502    0  0.39601105525E+02  0.98581016953E+01  0.51543408723E+02  0.65875831005E+02  0.41800000000E+01 0. -1.
         -5    1    3    3    0  502 -0.51543031878E+02 -0.10146030819E+03  0.10931902922E+03  0.15785753331E+03  0.41800000000E+01 0. -1.
        -11    1    1    2    0    0  0.45261468629E+02  0.35717630721E+02  0.26007740567E+02  0.63251500031E+02  0.00000000000E+00 0. -1.
         11    1    1    2    0    0 -0.33319542277E+02  0.55884575771E+02  0.98355945762E+02  0.11792866392E+03  0.00000000000E+00 0.  1.
</event>
<event>
 7    1  0.2679104E-009  0.1501382E+03  0.7561462E-02  0.1200303E+00
          1   -1    0    0  501    0  0.00000000000E+00  0.00000000000E+00  0.86994776347E+02  0.86994776347E+02  0.00000000000E+00 0. -1.
         -1   -1    0    0    0  501 -0.00000000000E+00 -0.00000000000E+00 -0.33222944368E+03  0.33222944368E+03  0.00000000000E+00 0.  1.
         25    2    1    2    0    0 -0.11317133871E+03  0.64849349875E+02 -0.13737196437E+03  0.22700724561E+03  0.12509213757E+03 0.  0.
          5    1    3    3  502    0 -0.95198092235E+01 -0.97239117981E+01  0.19846496321E+02  0.24424107855E+02  0.41800000000E+01 0.  1.
         -5    1    3    3    0  502 -0.10365152948E+03  0.74573261674E+02 -0.15721846069E+03  0.20258313775E+03  0.41800000000E+01 0.  1.
        -11    1    1    2    0    0  0.39715389203E+02 -0.74272436489E+02 -0.67076479486E+02  0.10767061373E+03  0.00000000000E+00 0.  1.
         11    1    1    2    0    0  0.73455949503E+02  0.94230866140E+01 -0.40786223473E+02  0.84546360679E+02  0.00000000000E+00 0. -1.
</event>
<event>
 7    1  0.2679104E-009  0.1628324E+03  0.7561462E-02  0.1185536E+00
          1   -1    0    0  501    0  0.00000000000E+00  0.00000000000E+00  0.15222437820E+03  0.15222437820E+03  0.00000000000E+00 0. -1.
         -1   -1    0    0    0  501 -0.00000000000E+00 -0.00000000000E+00 -0.23497469567E+03  0.23497469567E+03  0.00000000000E+00 0.  1.
         25    2    1    2    0    0  0.85741632117E+02  0.11571975954E+03  0.11487266898E+02  0.19110746445E+03  0.12508962963E+03 0.  0.
          5    1    3    3  502    0 -0.24057156526E+02  0.22701878444E+02 -0.26072651912E+02  0.42324669435E+02  0.41800000000E+01 0.  1.
         -5    1    3    3    0  502  0.10979878864E+03  0.93017881095E+02  0.37559918810E+02  0.14878279501E+03  0.41800000000E+01 0.  1.
        -11    1    1    2    0    0 -0.38851023882E+02 -0.24887310452E+02  0.13003964209E+02  0.47936242691E+02  0.00000000000E+00 0. -1.
         11    1    1    2    0    0 -0.46890608236E+02 -0.90832449087E+02 -0.10724154858E+03  0.14815536673E+03  0.00000000000E+00 0.  1.
</event>
<event>
 7    1  0.2679104E-009  0.1218494E+03  0.7561462E-02  0.1240077E+00
          1   -1    0    0  501    0  0.00000000000E+00  0.00000000000E+00  0.60585329218E+02  0.60585329218E+02  0.00000000000E+00 0. -1.
         -1   -1    0    0    0  501 -0.00000000000E+00 -0.00000000000E+00 -0.32341224389E+03  0.32341224389E+03  0.00000000000E+00 0.  1.
         25    2    1    2    0    0 -0.12301241768E+02  0.76030582644E+02 -0.20248751208E+03  0.25016008770E+03  0.12508759682E+03 0.  0.
          5    1    3    3  502    0 -0.56756030563E+02  0.40245158500E+02 -0.45933058799E+02  0.83475973062E+02  0.41800000000E+01 0. -1.
         -5    1    3    3    0  502  0.44454788795E+02  0.35785424144E+02 -0.15655445328E+03  0.16668411463E+03  0.41800000000E+01 0. -1.
        -11    1    1    2    0    0 -0.38164838802E+02 -0.33135185664E+02 -0.12301040948E+02  0.52017411106E+02  0.00000000000E+00 0. -1.
         11    1    1    2    0    0  0.50466080570E+02 -0.42895396980E+02 -0.48038361636E+02  0.81820074303E+02  0.00000000000E+00 0.  1.
</event>
<event>
 7    1  0.2679104E-009  0.7231612E+02  0.7561462E-02  0.1352389E+00
         -1   -1    0    0    0  501 -0.00000000000E+00  0.00000000000E+00  0.26585961322E+03  0.26585961322E+03  0.00000000000E+00 0.  1.
          1   -1    0    0  501    0  0.00000000000E+00 -0.00000000000E+00 -0.48459286465E+02  0.48459286465E+02  0.00000000000E+00 0. -1.
         25    2    1    2    0    0 -0.83481069872E+01 -0.11577671656E+02  0.17698389309E+03  0.21719528413E+03  0.12508700837E+03 0.  0.
          5    1    3    3  502    0 -0.32537378232E+02 -0.19899322468E+02  0.45511144453E-01  0.38368456943E+02  0.41800000000E+01 0. -1.
         -5    1    3    3    0  502  0.24189271245E+02  0.83216508118E+01  0.17693838194E+03  0.17882682718E+03  0.41800000000E+01 0. -1.
        -11    1    1    2    0    0 -0.33978893373E+02 -0.60135525994E+01 -0.21451220065E+01  0.34573538409E+02  0.00000000000E+00 0. -1.
         11    1    1    2    0    0  0.42327000360E+02  0.17591224256E+02  0.42561555677E+02  0.62550077154E+02  0.00000000000E+00 0.  1.
</event>
<event>
 7    1  0.2679104E-009  0.9864187E+02  0.7561462E-02  0.1283178E+00
          1   -1    0    0  501    0  0.00000000000E+00  0.00000000000E+00  0.41471710423E+03  0.41471710423E+03  0.00000000000E+00 0. -1.
         -1   -1    0    0    0  501 -0.00000000000E+00 -0.00000000000E+00 -0.36564485182E+02  0.36564485182E+02  0.00000000000E+00 0.  1.
         25    2    1    2    0    0  0.57395319398E+02 -0.37534337425E+00  0.19393517123E+03  0.23780821272E+03  0.12509009484E+03 0.  0.
          5    1    3    3  502    0  0.82593668575E+02 -0.17662368063E+02  0.18835159286E+03  0.20646420578E+03  0.41800000000E+01 0. -1.
         -5    1    3    3    0  502 -0.25198349177E+02  0.17287024689E+02  0.55835783628E+01  0.31344006942E+02  0.41800000000E+01 0. -1.
        -11    1    1    2    0    0 -0.65684809703E+02  0.12819684699E+02  0.18668535289E+03  0.19831858089E+03  0.00000000000E+00 0. -1.
         11    1    1    2    0    0  0.82894903052E+01 -0.12444341324E+02 -0.24679050650E+01  0.15154795806E+02  0.00000000000E+00 0.  1.
</event>
<event>
 7    1  0.2679104E-009  0.1689971E+03  0.7561462E-02  0.1178898E+00
         -2   -1    0    0    0  501 -0.00000000000E+00  0.00000000000E+00  0.24232881780E+03  0.24232881780E+03  0.00000000000E+00 0. -1.
          2   -1    0    0  501    0  0.00000000000E+00 -0.00000000000E+00 -0.17674651271E+03  0.17674651271E+03  0.00000000000E+00 0.  1.
         25    2    1    2    0    0 -0.32380789134E+02  0.12944634344E+03 -0.81946687038E+02  0.20041909215E+03  0.12509069369E+03 0.  0.
          5    1    3    3  502    0  0.45122477870E+02  0.47516001371E+02 -0.95866991331E+01  0.66356503793E+02  0.41800000000E+01 0. -1.
         -5    1    3    3    0  502 -0.77503267004E+02  0.81930342066E+02 -0.72359987905E+02  0.13406258836E+03  0.41800000000E+01 0. -1.
        -11    1    1    2    0    0 -0.23581055822E+02 -0.66052341233E+01  0.36081920906E+02  0.43607342590E+02  0.00000000000E+00 0. -1.
         11    1    1    2    0    0  0.55961844956E+02 -0.12284110931E+03  0.11144707122E+03  0.17504889577E+03  0.00000000000E+00 0.  1.
</event>
<event>
 7    1  0.2679104E-009  0.9827275E+02  0.7561462E-02  0.1283971E+00
         -1   -1    0    0    0  501 -0.00000000000E+00  0.00000000000E+00  0.20198365249E+03  0.20198365249E+03  0.00000000000E+00 0.  1.
          1   -1    0    0  501    0  0.00000000000E+00 -0.00000000000E+00 -0.87953196494E+02  0.87953196494E+02  0.00000000000E+00 0. -1.
         25    2    1    2    0    0  0.53354632018E+02  0.27770455176E+02  0.71092400893E+01  0.13898264118E+03  0.12509084026E+03 0.  0.
          5    1    3    3  502    0  0.46496443804E+02  0.72947292012E+02  0.24351229111E+02  0.89964890138E+02  0.41800000000E+01 0. -1.
         -5    1    3    3    0  502  0.68581882143E+01 -0.45176836836E+02 -0.17241989022E+02  0.49017751045E+02  0.41800000000E+01 0. -1.
        -11    1    1    2    0    0 -0.23945593297E+02 -0.24834529730E+02  0.11520546892E+03  0.12025990760E+03  0.00000000000E+00 0.  1.
         11    1    1    2    0    0 -0.29409038721E+02 -0.29359254459E+01 -0.82842530202E+01  0.30694300201E+02  0.00000000000E+00 0. -1.
</event>
<event>
 7    1  0.2679104E-009  0.1009385E+03  0.7561462E-02  0.1278335E+00
          2   -1    0    0  501    0  0.00000000000E+00  0.00000000000E+00  0.57187243683E+02  0.57187243683E+02  0.00000000000E+00 0. -1.
         -2   -1    0    0    0  501 -0.00000000000E+00 -0.00000000000E+00 -0.27039074454E+03  0.27039074454E+03  0.00000000000E+00 0.  1.
         25    2    1    2    0    0  0.44913999586E+02 -0.20638908989E+01 -0.17144613905E+03  0.21694135465E+03  0.12509294847E+03 0.  0.
          5    1    3    3  502    0  0.69422494453E+02  0.23994951950E+02 -0.46797481115E+02  0.87193561080E+02  0.41800000000E+01 0. -1.
         -5    1    3    3    0  502 -0.24508494867E+02 -0.26058842848E+02 -0.12464865794E+03  0.12974779357E+03  0.41800000000E+01 0. -1.
        -11    1    1    2    0    0  0.20215038048E+02  0.15885327862E+02 -0.35404670110E+02  0.43754794825E+02  0.00000000000E+00 0.  1.
         11    1    1    2    0    0 -0.65129037633E+02 -0.13821436963E+02 -0.63526916998E+01  0.66881838750E+02  0.00000000000E+00 0. -1.
</event>
<event>
 7    1  0.2679104E-009  0.1999870E+03  0.7561462E-02  0.1149750E+00
         -2   -1    0    0    0  501 -0.00000000000E+00  0.00000000000E+00  0.40972368082E+03  0.40972368082E+03  0.00000000000E+00 0.  1.
          2   -1    0    0  501    0  0.00000000000E+00 -0.00000000000E+00 -0.21059940744E+03  0.21059940744E+03  0.00000000000E+00 0. -1.
         25    2    1    2    0    0  0.88070706485E+02  0.14261149088E+03  0.32820021544E+03  0.38917321920E+03  0.12508367781E+03 0.  0.
          5    1    3    3  502    0  0.48149545017E+02  0.15849132618E+03  0.25196916200E+03  0.30156891444E+03  0.41800000000E+01 0.  1.
         -5    1    3    3    0  502  0.39921161468E+02 -0.15879835307E+02  0.76231053446E+02  0.87604304756E+02  0.41800000000E+01 0.  1.
        -11    1    1    2    0    0 -0.97854297998E+02 -0.76309569684E+02 -0.92711150887E+02  0.15489987592E+03  0.00000000000E+00 0.  1.
         11    1    1    2    0    0  0.97835915124E+01 -0.66301921193E+02 -0.36364791169E+02  0.76249993138E+02  0.00000000000E+00 0. -1.
</event>
<event>
 7    1  0.2679104E-009  0.1953616E+03  0.7561462E-02  0.1153713E+00
          2   -1    0    0  501    0  0.00000000000E+00  0.00000000000E+00  0.48534435498E+03  0.48534435498E+03  0.00000000000E+00 0.  1.
         -2   -1    0    0    0  501 -0.00000000000E+00 -0.00000000000E+00 -0.16269949833E+03  0.16269949833E+03  0.00000000000E+00 0. -1.
         25    2    1    2    0    0 -0.10062733775E+03 -0.15025362166E+03  0.37979103463E+03  0.43885279570E+03  0.12509410210E+03 0.  0.
          5    1    3    3  502    0 -0.51883319433E+02 -0.12356915378E+03  0.14480963239E+03  0.19735378546E+03  0.41800000000E+01 0. -1.
         -5    1    3    3    0  502 -0.48744018315E+02 -0.26684467884E+02  0.23498140225E+03  0.24149901024E+03  0.41800000000E+01 0. -1.
        -11    1    1    2    0    0  0.11639570839E+03  0.12242255720E+03 -0.52324773373E+02  0.17684209157E+03  0.00000000000E+00 0.  1.
         11    1    1    2    0    0 -0.15768370641E+02  0.27831064467E+02 -0.48214046106E+01  0.32348966049E+02  0.00000000000E+00 0. -1.
</event>
<event>
 7    1  0.2679104E-009  0.9302714E+02  0.7561462E-02  0.1295682E+00
          2   -1    0    0  501    0  0.00000000000E+00  0.00000000000E+00  0.50454803495E+03  0.50454803495E+03  0.00000000000E+00 0. -1.
         -2   -1    0    0    0  501 -0.00000000000E+00 -0.00000000000E+00 -0.32070854060E+02  0.32070854060E+02  0.00000000000E+00 0.  1.
         25    2    1    2    0    0  0.41938626245E+02  0.44253909191E+02  0.32991133183E+03  0.35805842604E+03  0.12508833974E+03 0.  0.
          5    1    3    3  502    0 -0.43473351180E+01 -0.12063749865E+02  0.24784279615E+03  0.24820950302E+03  0.41800000000E+01 0. -1.
         -5    1    3    3    0  502  0.46285961363E+02  0.56317659056E+02  0.82068535677E+02  0.10984892302E+03  0.41800000000E+01 0. -1.
        -11    1    1    2    0    0  0.39723120803E+01 -0.52715913532E+02  0.41414907491E+02  0.67156097008E+02  0.00000000000E+00 0.  1.
         11    1    1    2    0    0 -0.45910938326E+02  0.84620043407E+01  0.10115094157E+03  0.11140436596E+03  0.00000000000E+00 0. -1.
</event>
<event>
 7    1  0.2679104E-009  0.1007279E+03  0.7561462E-02  0.1278773E+00
         -2   -1    0    0    0  501 -0.00000000000E+00  0.00000000000E+00  0.58719852579E+03  0.58719852579E+03  0.00000000000E+00 0.  1.
          2   -1    0    0  501    0  0.00000000000E+00 -0.00000000000E+00 -0.31038691758E+02  0.31038691758E+02  0.00000000000E+00 0. -1.
         25    2    1    2    0    0  0.44566033112E+02  0.32149697712E+02  0.38676697630E+03  0.41019150871E+03  0.12509454619E+03 0.  0.
          5    1    3    3  502    0 -0.95197378276E+01  0.23664713416E+02  0.74204682039E+01  0.26892002858E+02  0.41800000000E+01 0.  1.
         -5    1    3    3    0  502  0.54085770939E+02  0.84849842962E+01  0.37934650810E+03  0.38329950585E+03  0.41800000000E+01 0.  1.
        -11    1    1    2    0    0 -0.32750564245E+02  0.37654298878E+02  0.73876116493E+02  0.89152264527E+02  0.00000000000E+00 0.  1.
         11    1    1    2    0    0 -0.11815468867E+02 -0.69803996590E+02  0.95516741241E+02  0.11889344432E+03  0.00000000000E+00 0. -1.
</event>
<event>
 7    1  0.2679104E-009  0.2076366E+03  0.7561462E-02  0.1143451E+00
          1   -1    0    0  501    0  0.00000000000E+00  0.00000000000E+00  0.60268681152E+03  0.60268681152E+03  0.00000000000E+00 0. -1.
         -1   -1    0    0    0  501 -0.00000000000E+00 -0.00000000000E+00 -0.95834454392E+02  0.95834454392E+02  0.00000000000E+00 0.  1.
         25    2    1    2    0    0  0.58695014990E+02  0.19898874944E+03  0.33135888903E+03  0.41047314832E+03  0.12509142642E+03 0.  0.
          5    1    3    3  502    0  0.18882670087E+02  0.75447215200E+02  0.32083276067E+02  0.84235660586E+02  0.41800000000E+01 0.  1.
         -5    1    3    3    0  502  0.39812344903E+02  0.12354153424E+03  0.29927561296E+03  0.32623748774E+03  0.41800000000E+01 0.  1.
        -11    1    1    2    0    0 -0.31780538999E+02 -0.11619957665E+03  0.15893864953E+03  0.19943379500E+03  0.00000000000E+00 0. -1.
         11    1    1    2    0    0 -0.26914475992E+02 -0.82789172797E+02  0.16554818563E+02  0.88614322589E+02  0.00000000000E+00 0.  1.
</event>
<event>
 7    1  0.2679104E-009  0.1054929E+03  0.7561462E-02  0.1269152E+00
         -1   -1    0    0    0  501 -0.00000000000E+00  0.00000000000E+00  0.15113138548E+02  0.15113138548E+02  0.00000000000E+00 0.  1.
          1   -1    0    0  501    0  0.00000000000E+00 -0.00000000000E+00 -0.13494502714E+04  0.13494502714E+04  0.00000000000E+00 0. -1.
         25    2    1    2    0    0 -0.77172652135E+01 -0.39904899744E+02 -0.11330703904E+04  0.11406787306E+04  0.12508996551E+03 0.  0.
          5    1    3    3  502    0 -0.41489796860E+02  0.21171947083E+02 -0.73716603944E+03  0.73864801948E+03  0.41800000000E+01 0.  1.
         -5    1    3    3    0  502  0.33772531646E+02 -0.61076846828E+02 -0.39590435099E+03  0.40203071107E+03  0.41800000000E+01 0.  1.
        -11    1    1    2    0    0 -0.18822912665E+02 -0.20797637475E+02 -0.34659383272E+02  0.44588301319E+02  0.00000000000E+00 0.  1.
         11    1    1    2    0    0  0.26540177878E+02  0.60702537219E+02 -0.16660735917E+03  0.17929637809E+03  0.00000000000E+00 0. -1.
</event>
<event>
 7    1  0.2679104E-009  0.9149949E+02  0.7561462E-02  0.1299261E+00
          2   -1    0    0  501    0  0.00000000000E+00  0.00000000000E+00  0.24043509240E+03  0.24043509240E+03  0.00000000000E+00 0.  1.
         -2   -1    0    0    0  501 -0.00000000000E+00 -0.00000000000E+00 -0.62208814273E+02  0.62208814273E+02  0.00000000000E+00 0. -1.
         25    2    1    2    0    0  0.37341197910E+02 -0.24201740434E+02  0.58834749069E+02  0.14521757914E+03  0.12508608353E+03 0.  0.
          5    1    3    3  502    0  0.51693156306E+02 -0.34504487090E+02 -0.19133406977E+02  0.65163653218E+02  0.41800000000E+01 0.  1.
         -5    1    3    3    0  502 -0.14351958396E+02  0.10302746656E+02  0.77968156045E+02  0.80053925922E+02  0.41800000000E+01 0.  1.
        -11    1    1    2    0    0 -0.59403693862E+02 -0.11574440701E+02  0.67872220933E+02  0.90936268322E+02  0.00000000000E+00 0.  1.
         11    1    1    2    0    0  0.22062495952E+02  0.35776181135E+02  0.51519308130E+02  0.66490059215E+02  0.00000000000E+00 0. -1.
</event>
<event>
 7    1  0.3533870E-009  0.1207724E+03  0.7561462E-02  0.1241828E+00
         -2   -1    0    0    0  501 -0.00000000000E+00  0.00000000000E+00  0.54507951499E+02  0.54507951499E+02  0.00000000000E+00 0. -1.
          2   -1    0    0  501    0  0.00000000000E+00 -0.00000000000E+00 -0.37358283566E+03  0.37358283566E+03  0.00000000000E+00 0.  1.
         25    2    1    2    0    0 -0.81781370132E+02 -0.39051055325E+02 -0.14452313836E+03  0.21154215012E+03  0.12509982547E+03 0.  0.
          5    1    3    3  502    0  0.20951070971E+02 -0.26867860207E+02 -0.70734469891E+00  0.34333686424E+02  0.41800000000E+01 0. -1.
         -5    1    3    3    0  502 -0.10273244110E+03 -0.12183195117E+02 -0.14381579366E+03  0.17720846369E+03  0.41800000000E+01 0. -1.
        -11    1    1    2    0    0  0.75895741303E+02  0.13033535183E+02 -0.17353570883E+03  0.18985436215E+03  0.00000000000E+00 0.  1.
         11    1    1    2    0    0  0.58856288291E+01  0.26017520142E+02 -0.10160369708E+01  0.26694274895E+02  0.00000000000E+00 0. -1.
</event>
<event>
 7    1  0.2679104E-009  0.1608097E+03  0.7561462E-02  0.1187786E+00
         -1   -1    0    0    0  501 -0.00000000000E+00  0.00000000000E+00  0.18007070065E+03  0.18007070065E+03  0.00000000000E+00 0.  1.
          1   -1    0    0  501    0  0.00000000000E+00 -0.00000000000E+00 -0.18331351047E+03  0.18331351047E+03  0.00000000000E+00 0. -1.
         25    2    1    2    0    0  0.11813298966E+03 -0.44608022855E+02 -0.74821770348E+02  0.19284799160E+03  0.12508705608E+03 0.  0.
          5    1    3    3  502    0  0.65602168844E+02 -0.87746413795E+02 -0.46508241852E+02  0.11909478012E+03  0.41800000000E+01 0.  1.
         -5    1    3    3    0  502  0.52530820812E+02  0.43138390940E+02 -0.28313528496E+02  0.73753211483E+02  0.41800000000E+01 0.  1.
        -11    1    1    2    0    0 -0.64714366858E+02  0.60039598931E+02  0.73545718396E+02  0.11489854399E+03  0.00000000000E+00 0. -1.
         11    1    1    2    0    0 -0.53418622798E+02 -0.15431576076E+02 -0.19667578632E+01  0.55637675529E+02  0.00000000000E+00 0.  1.
</event>
<event>
 7    1  0.2679104E-009  0.8728701E+02  0.7561462E-02  0.1309558E+00
         -2   -1    0    0    0  501 -0.00000000000E+00  0.00000000000E+00  0.50933716941E+02  0.50933716941E+02  0.00000000000E+00 0.  1.
          2   -1    0    0  501    0  0.00000000000E+00 -0.00000000000E+00 -0.30414381710E+03  0.30414381710E+03  0.00000000000E+00 0. -1.
         25    2    1    2    0    0  0.11032291129E+02 -0.60347638167E+02 -0.13199315386E+03  0.19192035948E+03  0.12509069845E+03 0.  0.
          5    1    3    3  502    0 -0.13010103672E+00  0.59846437152E+01  0.22345906278E+02  0.23508398798E+02  0.41800000000E+01 0. -1.
         -5    1    3    3    0  502  0.11162392166E+02 -0.66332281882E+02 -0.15433906013E+03  0.16841196068E+03  0.41800000000E+01 0. -1.
        -11    1    1    2    0    0 -0.43110028960E+02  0.50338010038E+02 -0.10867521194E+03  0.12728979355E+03  0.00000000000E+00 0. -1.
         11    1    1    2    0    0  0.32077737831E+02  0.10009628128E+02 -0.12541734364E+02  0.35867381009E+02  0.00000000000E+00 0.  1.
</event>
<event>
 7    1  0.2679104E-009  0.1436186E+03  0.7561462E-02  0.1208541E+00
          2   -1    0    0  501    0  0.00000000000E+00  0.00000000000E+00  0.65679714925E+03  0.65679714925E+03  0.00000000000E+00 0. -1.
         -2   -1    0    0    0  501 -0.00000000000E+00 -0.00000000000E+00 -0.36369504076E+02  0.36369504076E+02  0.00000000000E+00 0.  1.
         25    2    1    2    0    0 -0.16154889052E+02  0.78580641317E+02  0.36321555916E+03  0.39243664462E+03  0.12508029419E+03 0.  0.
          5    1    3    3  502    0  0.52550332797E+02  0.42233449932E+02  0.12883691400E+03  0.14547035636E+03  0.41800000000E+01 0.  1.
         -5    1    3    3    0  502 -0.68705221849E+02  0.36347191385E+02  0.23437864516E+03  0.24696628826E+03  0.41800000000E+01 0.  1.
        -11    1    1    2    0    0 -0.10731570672E+01  0.30952111059E+02  0.15141832752E+02  0.34474047401E+02  0.00000000000E+00 0.  1.
         11    1    1    2    0    0  0.17228046119E+02 -0.10953275238E+03  0.24207025327E+03  0.26625596131E+03  0.00000000000E+00 0. -1.
</event>
<event>
 7    1  0.2679104E-009  0.1793391E+03  0.7561462E-02  0.1168444E+00
          2   -1    0    0  501    0  0.00000000000E+00  0.00000000000E+00  0.17251858130E+03  0.17251858130E+03  0.00000000000E+00 0. -1.
         -2   -1    0    0    0  501 -0.00000000000E+00 -0.00000000000E+00 -0.20912683937E+03  0.20912683937E+03  0.00000000000E+00 0.  1.
         25    2    1    2    0    0 -0.76966189670E+02 -0.13339291201E+03 -0.42788977161E+02  0.20297317967E+03  0.12509896791E+03 0.  0.
          5    1    3    3  502    0  0.23736637532E+02 -0.69900296991E+02 -0.39450909139E+02  0.83805286901E+02  0.41800000000E+01 0.  1.
         -5    1    3    3    0  502 -0.10070282720E+03 -0.63492615021E+02 -0.33380680217E+01  0.11916789277E+03  0.41800000000E+01 0.  1.
        -11    1    1    2    0    0  0.25853060456E+01  0.63497611302E+02 -0.30139008890E+02  0.70334844176E+02  0.00000000000E+00 0.  1.
         11    1    1    2    0    0  0.74380883625E+02  0.69895300710E+02  0.36319727978E+02  0.10833739682E+03  0.00000000000E+00 0. -1.
</event>
<event>
 7    1  0.2679104E-009  0.1382309E+03  0.7561462E-02  0.1215729E+00
         -2   -1    0    0    0  501 -0.00000000000E+00  0.00000000000E+00  0.11708472332E+03  0.11708472332E+03  0.00000000000E+00 0.  1.
          2   -1    0    0  501    0  0.00000000000E+00 -0.00000000000E+00 -0.23384979853E+03  0.23384979853E+03  0.00000000000E+00 0. -1.
         25    2    1    2    0    0  0.11364658708E+03  0.28268482845E+02 -0.16635231286E+02  0.17215867921E+03  0.12508887252E+03 0.  0.
          5    1    3    3  502    0  0.38313187799E+02 -0.18063800179E+02  0.46784275623E+02  0.63249048070E+02  0.41800000000E+01 0.  1.
         -5    1    3    3    0  502  0.75333399284E+02  0.46332283024E+02 -0.63419506909E+02  0.10890963114E+03  0.41800000000E+01 0.  1.
        -11    1    1    2    0    0 -0.10967129879E+03 -0.51944636818E+02 -0.95272443800E+02  0.15428181234E+03  0.00000000000E+00 0.  1.
         11    1    1    2    0    0 -0.39752882950E+01  0.23676153973E+02 -0.48574001276E+01  0.24494030293E+02  0.00000000000E+00 0. -1.
</event>
<event>
 7    1  0.2679104E-009  0.1132127E+03  0.7561462E-02  0.1254734E+00
          2   -1    0    0  501    0  0.00000000000E+00  0.00000000000E+00  0.38387429530E+03  0.38387429530E+03  0.00000000000E+00 0. -1.
         -2   -1    0    0    0  501 -0.00000000000E+00 -0.00000000000E+00 -0.36919318276E+02  0.36919318276E+02  0.00000000000E+00 0.  1.
         25    2    1    2    0    0  0.33115902077E+02 -0.32909664142E+01  0.23918470484E+03  0.27196335698E+03  0.12508897266E+03 0.  0.
          5    1    3    3  502    0 -0.26842709643E+02  0.40974452960E+02  0.13597299109E+03  0.14458756365E+03  0.41800000000E+01 0. -1.
         -5    1    3    3    0  502  0.59958611720E+02 -0.44265419375E+02  0.10321171374E+03  0.12737579333E+03  0.41800000000E+01 0. -1.
        -11    1    1    2    0    0  0.21115109246E+02 -0.31692464090E+02  0.38346264371E+02  0.54043465005E+02  0.00000000000E+00 0.  1.
         11    1    1    2    0    0 -0.54231011323E+02  0.34983430504E+02  0.69424007815E+02  0.94786791590E+02  0.00000000000E+00 0. -1.
</event>
<event>
 7    1  0.2679104E-009  0.1464551E+03  0.7561462E-02  0.1204898E+00
          2   -1    0    0  501    0  0.00000000000E+00  0.00000000000E+00  0.30882346617E+04  0.30882346617E+04  0.00000000000E+00 0.  1.
         -2   -1    0    0    0  501 -0.00000000000E+00 -0.00000000000E+00 -0.13137256495E+02  0.13137256495E+02  0.00000000000E+00 0. -1.
         25    2    1    2    0    0  0.89404444642E+02  0.67785179151E+02  0.25495805246E+04  0.25551119648E+04  0.12509322965E+03 0.  0.
          5    1    3    3  502    0  0.17104722421E+02 -0.23424601755E+02  0.12445485909E+04  0.12448935501E+04  0.41800000000E+01 0. -1.
         -5    1    3    3    0  502  0.72299722221E+02  0.91209780905E+02  0.13050319336E+04  0.13102184147E+04  0.41800000000E+01 0. -1.
        -11    1    1    2    0    0 -0.10418341393E+03 -0.32899871955E+02  0.34809214841E+03  0.36483520814E+03  0.00000000000E+00 0.  1.
         11    1    1    2    0    0  0.14778969286E+02 -0.34885307196E+02  0.17742473228E+03  0.18142474532E+03  0.00000000000E+00 0. -1.
</event>
<event>
 7    1  0.2679104E-009  0.9345968E+02  0.7561462E-02  0.1294683E+00
         -1   -1    0    0    0  501 -0.00000000000E+00  0.00000000000E+00  0.29531331480E+02  0.29531331480E+02  0.00000000000E+00 0.  1.
          1   -1    0    0  501    0  0.00000000000E+00 -0.00000000000E+00 -0.58301820513E+03  0.58301820513E+03  0.00000000000E+00 0. -1.
         25    2    1    2    0    0 -0.65592726939E+02 -0.32754575603E+02 -0.29694170245E+03  0.33045576158E+03  0.12510542619E+03 0.  0.
          5    1    3    3  502    0  0.11764326845E+02 -0.17715834746E+02  0.15305114669E+01  0.21727058066E+02  0.41800000000E+01 0.  1.
         -5    1    3    3    0  502 -0.77357053784E+02 -0.15038740857E+02 -0.29847221391E+03  0.30872870352E+03  0.41800000000E+01 0.  1.
        -11    1    1    2    0    0  0.39934641335E+02  0.43016758965E+02 -0.24535776484E+03  0.25228089483E+03  0.00000000000E+00 0. -1.
         11    1    1    2    0    0  0.25658085604E+02 -0.10262183362E+02 -0.11187406358E+02  0.29812880190E+02  0.00000000000E+00 0.  1.
</event>
<event>
 7    1  0.2679104E-009  0.9914760E+02  0.7561462E-02  0.1282099E+00
         -2   -1    0    0    0  501 -0.00000000000E+00  0.00000000000E+00  0.10880638194E+03  0.10880638194E+03  0.00000000000E+00 0.  1.
          2   -1    0    0  501    0  0.00000000000E+00 -0.00000000000E+00 -0.11552750060E+03  0.11552750060E+03  0.00000000000E+00 0. -1.
         25    2    1    2    0    0  0.24880254364E+02  0.12783407124E+02  0.45129514182E+01  0.12825609289E+03  0.12508723387E+03 0.  0.
          5    1    3    3  502    0 -0.47223777662E+02 -0.15425450136E+02 -0.51403004466E+01  0.50119105910E+02  0.41800000000E+01 0.  1.
         -5    1    3    3    0  502  0.72104032026E+02  0.28208857260E+02  0.96532518648E+01  0.78136986977E+02  0.41800000000E+01 0.  1.
        -11    1    1    2    0    0 -0.39168491749E+02  0.13129869285E+02 -0.38035003859E+02  0.56153590552E+02  0.00000000000E+00 0. -1.
         11    1    1    2    0    0  0.14288237384E+02 -0.25913276409E+02  0.26800933789E+02  0.39924199099E+02  0.00000000000E+00 0.  1.
</event>
<event>
 7    1  0.2679104E-009  0.1377069E+03  0.7561462E-02  0.1216448E+00
         -1   -1    0    0    0  501 -0.00000000000E+00  0.00000000000E+00  0.22041638955E+02  0.22041638955E+02  0.00000000000E+00 0.  1.
          1   -1    0    0  501    0  0.00000000000E+00 -0.00000000000E+00 -0.98903618370E+03  0.98903618370E+03  0.00000000000E+00 0. -1.
         25    2    1    2    0    0 -0.59101377643E+02 -0.36554022755E+02 -0.50264537386E+03  0.52261698899E+03  0.12508787272E+03 0.  0.
          5    1    3    3  502    0 -0.89637024225E+02 -0.17283230806E+02 -0.44633279001E+03  0.45559185464E+03  0.41800000000E+01 0. -1.
         -5    1    3    3    0  502  0.30535646582E+02 -0.19270791949E+02 -0.56312583844E+02  0.67025134344E+02  0.41800000000E+01 0. -1.
        -11    1    1    2    0    0  0.63321098185E+02 -0.37443325264E+02 -0.28632569629E+03  0.29562470877E+03  0.00000000000E+00 0. -1.
         11    1    1    2    0    0 -0.42197205424E+01  0.73997348019E+02 -0.17802347460E+03  0.19283612489E+03  0.00000000000E+00 0.  1.
</event>
<event>
 7    1  0.2679104E-009  0.1690065E+03  0.7561462E-02  0.1178888E+00
          1   -1    0    0  501    0  0.00000000000E+00  0.00000000000E+00  0.84000498116E+03  0.84000498116E+03  0.00000000000E+00 0. -1.
         -1   -1    0    0    0  501 -0.00000000000E+00 -0.00000000000E+00 -0.46843336807E+02  0.46843336807E+02  0.00000000000E+00 0.  1.
         25    2    1    2    0    0  0.12831872863E+03 -0.83440514439E+02  0.27034954690E+03  0.33490975522E+03  0.12509057146E+03 0.  0.
          5    1    3    3  502    0  0.65133005019E+02 -0.82537188538E+02  0.24509848652E+03  0.26673101868E+03  0.41800000000E+01 0. -1.
         -5    1    3    3    0  502  0.63185723609E+02 -0.90332590040E+00  0.25251060380E+02  0.68178736539E+02  0.41800000000E+01 0. -1.
        -11    1    1    2    0    0 -0.31951647556E+02  0.63448190332E+02  0.30104849567E+03  0.30931662966E+03  0.00000000000E+00 0. -1.
         11    1    1    2    0    0 -0.96367081072E+02  0.19992324107E+02  0.22176360179E+03  0.24262193309E+03  0.00000000000E+00 0.  1.
</event>
<event>
 7    1  0.2679104E-009  0.1571213E+03  0.7561462E-02  0.1191986E+00
          1   -1    0    0  501    0  0.00000000000E+00  0.00000000000E+00  0.43247090671E+03  0.43247090671E+03  0.00000000000E+00 0. -1.
         -1   -1    0    0    0  501 -0.00000000000E+00 -0.00000000000E+00 -0.89720942138E+02  0.89720942138E+02  0.00000000000E+00 0.  1.
         25    2    1    2    0    0  0.12215354464E+03 -0.19988379143E+02  0.41587349093E+02  0.18082409043E+03  0.12508725078E+03 0.  0.
          5    1    3    3  502    0  0.27815000408E+02  0.49968485301E+02  0.41799748230E+01  0.57493202733E+02  0.41800000000E+01 0.  1.
         -5    1    3    3    0  502  0.94338544237E+02 -0.69956864443E+02  0.37407374270E+02  0.12333088770E+03  0.41800000000E+01 0.  1.
        -11    1    1    2    0    0 -0.80587091361E+02 -0.18553104207E+02  0.25558957261E+03  0.26863455957E+03  0.00000000000E+00 0. -1.
         11    1    1    2    0    0 -0.41566453284E+02  0.38541483350E+02  0.45573042866E+02  0.72733198840E+02  0.00000000000E+00 0.  1.
</event>
<event>
 7    1  0.2679104E-009  0.1498010E+03  0.7561462E-02  0.1200718E+00
          1   -1    0    0  501    0  0.00000000000E+00  0.00000000000E+00  0.61565873817E+03  0.61565873817E+03  0.00000000000E+00 0. -1.
         -1   -1    0    0    0  501 -0.00000000000E+00 -0.00000000000E+00 -0.51387327574E+02  0.51387327574E+02  0.00000000000E+00 0.  1.
         25    2    1    2    0    0 -0.10847857779E+03  0.61951261484E+02  0.17881079456E+03  0.25144714749E+03  0.12508719794E+03 0.  0.
          5    1    3    3  502    0 -0.44032783756E+02  0.71519861875E+02  0.16429724188E+03  0.18456714978E+03  0.41800000000E+01 0. -1.
         -5    1    3    3    0  502 -0.64445794036E+02 -0.95686003903E+01  0.14513552682E+02  0.66879997711E+02  0.41800000000E+01 0. -1.
        -11    1    1    2    0    0  0.50969766796E+02  0.15938876724E+02  0.19163068362E+03  0.19893286261E+03  0.00000000000E+00 0. -1.
         11    1    1    2    0    0  0.57508810996E+02 -0.77890138208E+02  0.19382993242E+03  0.21666605565E+03  0.00000000000E+00 0.  1.
</event>
<event>
 7    1  0.2679104E-009  0.1314671E+03  0.7561462E-02  0.1225295E+00
          1   -1    0    0  501    0  0.00000000000E+00  0.00000000000E+00  0.68454426890E+03  0.68454426890E+03  0.00000000000E+00 0. -1.
         -1   -1    0    0    0  501 -0.00000000000E+00 -0.00000000000E+00 -0.33873387633E+02  0.33873387633E+02  0.00000000000E+00 0.  1.
         25    2    1    2    0    0  0.85644399618E+02  0.60937357517E+02  0.37209521549E+03  0.40638777070E+03  0.12509135084E+03 0.  0.
          5    1    3    3  502    0  0.47754582085E+01  0.68233117971E+02  0.91914503138E+02  0.11464864446E+03  0.41800000000E+01 0.  1.
         -5    1    3    3    0  502  0.80868941409E+02 -0.72957604531E+01  0.28018071235E+03  0.29173912624E+03  0.41800000000E+01 0.  1.
        -11    1    1    2    0    0 -0.75744555710E+02 -0.31480925988E+02  0.93573223545E+02  0.12443566444E+03  0.00000000000E+00 0.  1.
         11    1    1    2    0    0 -0.98998439078E+01 -0.29456431529E+02  0.18500244224E+03  0.18759422140E+03  0.00000000000E+00 0. -1.
</event>
<event>
 7    1  0.2679104E-009  0.8666789E+02  0.7561462E-02  0.1311128E+00
         -2   -1    0    0    0  501 -0.00000000000E+00  0.00000000000E+00  0.49297400089E+03  0.49297400089E+03  0.00000000000E+00 0. -1.
          2   -1    0    0  501    0  0.00000000000E+00 -0.00000000000E+00 -0.94026624857E+02  0.94026624857E+02  0.00000000000E+00 0.  1.
         25    2    1    2    0    0  0.16488384925E+02  0.48462789113E+02  0.45060321839E+03  0.47043613264E+03  0.12508551359E+03 0.  0.
          5    1    3    3  502    0  0.29807982129E+02  0.10725637982E+02  0.19446071520E+02  0.37405577208E+02  0.41800000000E+01 0.  1.
         -5    1    3    3    0  502 -0.13319597204E+02  0.37737151131E+02  0.43115714687E+03  0.43303055543E+03  0.41800000000E+01 0.  1.
        -11    1    1    2    0    0 -0.81308651890E+01 -0.73912757316E+02 -0.50240029433E+02  0.89739997884E+02  0.00000000000E+00 0.  1.
         11    1    1    2    0    0 -0.83575197359E+01  0.25449968203E+02 -0.14158129203E+01  0.26824495222E+02  0.00000000000E+00 0. -1.
</event>
<event>
 7    1  0.2679104E-009  0.1814432E+03  0.7561462E-02  0.1166414E+00
         -1   -1    0    0    0  501 -0.00000000000E+00  0.00000000000E+00  0.75862775678E+02  0.75862775678E+02  0.00000000000E+00 0.  1.
          1   -1    0    0  501    0  0.00000000000E+00 -0.00000000000E+00 -0.58837836867E+03  0.58837836867E+03  0.00000000000E+00 0. -1.
         25    2    1    2    0    0 -0.77773863521E+02 -0.14716778415E+03 -0.15666634358E+03  0.26057421904E+03  0.12508976729E+03 0.  0.
          5    1    3    3  502    0 -0.88899596563E+02 -0.61263461634E+02 -0.13166093542E+03  0.17031859650E+03  0.41800000000E+01 0.  1.
         -5    1    3    3    0  502  0.11125733042E+02 -0.85904322514E+02 -0.25005408160E+02  0.90255622537E+02  0.41800000000E+01 0.  1.
        -11    1    1    2    0    0  0.36125458781E+02  0.93144685488E+02 -0.29775223674E+03  0.31406587795E+03  0.00000000000E+00 0. -1.
         11    1    1    2    0    0  0.41648404740E+02  0.54023098661E+02 -0.58097012675E+02  0.89601047360E+02  0.00000000000E+00 0.  1.
</event>
<event>
 7    1  0.2679104E-009  0.1350148E+03  0.7561462E-02  0.1220199E+00
          1   -1    0    0  501    0  0.00000000000E+00  0.00000000000E+00  0.17818729998E+03  0.17818729998E+03  0.00000000000E+00 0. -1.
         -1   -1    0    0    0  501 -0.00000000000E+00 -0.00000000000E+00 -0.12767621438E+03  0.12767621438E+03  0.00000000000E+00 0.  1.
         25    2    1    2    0    0 -0.25509684769E+02 -0.92889161767E+02 -0.14039784515E+02  0.15850427800E+03  0.12508936887E+03 0.  0.
          5    1    3    3  502    0 -0.55242042148E+02 -0.93770884821E+02  0.22489410406E+02  0.11121109675E+03  0.41800000000E+01 0.  1.
         -5    1    3    3    0  502  0.29732357380E+02  0.88172305427E+00 -0.36529194921E+02  0.47293181247E+02  0.41800000000E+01 0.  1.
        -11    1    1    2    0    0  0.43177256686E+02  0.74295732783E+01  0.31855645061E+02  0.54168774919E+02  0.00000000000E+00 0. -1.
         11    1    1    2    0    0 -0.17667571917E+02  0.85459588489E+02  0.32695225060E+02  0.93190461442E+02  0.00000000000E+00 0.  1.
</event>
<event>
 7    1  0.2679104E-009  0.1196542E+03  0.7561462E-02  0.1243669E+00
         -2   -1    0    0    0  501 -0.00000000000E+00  0.00000000000E+00  0.63464067762E+02  0.63464067762E+02  0.00000000000E+00 0.  1.
          2   -1    0    0  501    0  0.00000000000E+00 -0.00000000000E+00 -0.25651169813E+03  0.25651169813E+03  0.00000000000E+00 0. -1.
         25    2    1    2    0    0  0.58582706467E+02 -0.28267077562E+02 -0.12931193432E+03  0.19131087518E+03  0.12508922189E+03 0.  0.
          5    1    3    3  502    0  0.14362292083E+02 -0.73133208266E+02 -0.90040677889E+02  0.11695955566E+03  0.41800000000E+01 0.  1.
         -5    1    3    3    0  502  0.44220414383E+02  0.44866130704E+02 -0.39271256433E+02  0.74351319520E+02  0.41800000000E+01 0.  1.
        -11    1    1    2    0    0 -0.30811123237E+02 -0.26163619974E+02 -0.72485514217E-01  0.40421103144E+02  0.00000000000E+00 0.  1.
         11    1    1    2    0    0 -0.27771583230E+02  0.54430697536E+02 -0.63663210537E+02  0.88243787573E+02  0.00000000000E+00 0. -1.
</event>
<event>
 7    1  0.4725390E-009  0.1340532E+03  0.7561462E-02  0.1221562E+00
          2   -1    0    0  501    0  0.00000000000E+00  0.00000000000E+00  0.11362020056E+04  0.11362020056E+04  0.00000000000E+00 0. -1.
         -2   -1    0    0    0  501 -0.00000000000E+00 -0.00000000000E+00 -0.25759018360E+02  0.25759018360E+02  0.00000000000E+00 0.  1.
         25    2    1    2    0    0  0.99718322660E+02 -0.61639002177E+02  0.79400839445E+03  0.81230541125E+03  0.12509052814E+03 0.  0.
          5    1    3    3  502    0  0.36352084699E+02  0.24309649344E+02  0.44854451213E+03  0.45069067538E+03  0.41800000000E+01 0. -1.
         -5    1    3    3    0  502  0.63366237961E+02 -0.85948651522E+02  0.34546388231E+03  0.36161473587E+03  0.41800000000E+01 0. -1.
        -11    1    1    2    0    0 -0.36783666267E+02  0.25219468740E+02  0.24019658424E+03  0.24430198278E+03  0.00000000000E+00 0. -1.
         11    1    1    2    0    0 -0.62934656393E+02  0.36419533437E+02  0.76238008527E+02  0.10535362991E+03  0.00000000000E+00 0.  1.
</event>
<event>
 7    1  0.2679104E-009  0.9994700E+02  0.7561462E-02  0.1280407E+00
          2   -1    0    0  501    0  0.00000000000E+00  0.00000000000E+00  0.46510197232E+03  0.46510197232E+03  0.00000000000E+00 0. -1.
         -2   -1    0    0    0  501 -0.00000000000E+00 -0.00000000000E+00 -0.30113463607E+02  0.30113463607E+02  0.00000000000E+00 0.  1.
         25    2    1    2    0    0 -0.35399518346E+02  0.31375059108E+00  0.18534381199E+03  0.22639701583E+03  0.12510018304E+03 0.  0.
          5    1    3    3  502    0  0.35934942457E+02 -0.25869669235E+02  0.30700501296E+02  0.54042141479E+02  0.41800000000E+01 0.  1.
         -5    1    3    3    0  502 -0.71334460803E+02  0.26183419826E+02  0.15464331069E+03  0.17235487435E+03  0.41800000000E+01 0.  1.
        -11    1    1    2    0    0  0.41864061623E+02 -0.28339621771E+02  0.22599986464E+03  0.23158513042E+03  0.00000000000E+00 0.  1.
         11    1    1    2    0    0 -0.64645432767E+01  0.28025871180E+02  0.23644832088E+02  0.37233289669E+02  0.00000000000E+00 0. -1.
</event>
<event>
 7    1  0.2679104E-009  0.1812835E+03  0.7561462E-02  0.1166567E+00
          3   -1    0    0  501    0  0.00000000000E+00  0.00000000000E+00  0.55335334219E+02  0.55335334219E+02  0.00000000000E+00 0. -1.
         -3   -1    0    0    0  501 -0.00000000000E+00 -0.00000000000E+00 -0.61051245304E+03  0.61051245304E+03  0.00000000000E+00 0.  1.
         25    2    1    2    0    0  0.14723699025E+03  0.13244037031E+01 -0.26465543945E+03  0.32767386669E+03  0.12508867229E+03 0.  0.
          5    1    3    3  502    0  0.15177967557E+03 -0.35227447181E+02 -0.22033685472E+03  0.26989598904E+03  0.41800000000E+01 0.  1.
         -5    1    3    3    0  502 -0.45426853192E+01  0.36551850884E+02 -0.44318584731E+02  0.57777877648E+02  0.41800000000E+01 0.  1.
        -11    1    1    2    0    0 -0.32322210765E+02 -0.37164093817E+02 -0.11742885158E+03  0.12733982237E+03  0.00000000000E+00 0.  1.
         11    1    1    2    0    0 -0.11491477949E+03  0.35839690114E+02 -0.17309282779E+03  0.21083409820E+03  0.00000000000E+00 0. -1.
</event>
<event>
 7    1  0.2679104E-009  0.1130082E+03  0.7561462E-02  0.1255098E+00
         -1   -1    0    0    0  501 -0.00000000000E+00  0.00000000000E+00  0.14281833324E+02  0.14281833324E+02  0.00000000000E+00 0.  1.
          1   -1    0    0  501    0  0.00000000000E+00 -0.00000000000E+00 -0.99620581826E+03  0.99620581826E+03  0.00000000000E+00 0. -1.
         25    2    1    2    0    0  0.44229981302E+02  0.17749595617E+02 -0.62116632370E+03  0.63542521966E+03  0.12508504583E+03 0.  0.
          5    1    3    3  502    0 -0.36473429953E+02 -0.21643523055E+02 -0.16005103035E+03  0.16562776910E+03  0.41800000000E+01 0.  1.
         -5    1    3    3    0  502  0.80703411255E+02  0.39393118672E+02 -0.46111529336E+03  0.46979745056E+03  0.41800000000E+01 0.  1.
        -11    1    1    2    0    0 -0.37841095865E+02  0.28144972625E+02 -0.10449569591E+03  0.11464483627E+03  0.00000000000E+00 0.  1.
         11    1    1    2    0    0 -0.63888854373E+01 -0.45894568242E+02 -0.25626196532E+03  0.26041759565E+03  0.00000000000E+00 0. -1.
</event>
<event>
 7    1  0.2679104E-009  0.1037903E+03  0.7561462E-02  0.1272522E+00
          2   -1    0    0  501    0  0.00000000000E+00  0.00000000000E+00  0.71584625653E+02  0.71584625653E+02  0.00000000000E+00 0. -1.
         -2   -1    0    0    0  501 -0.00000000000E+00 -0.00000000000E+00 -0.29907923629E+03  0.29907923629E+03  0.00000000000E+00 0.  1.
         25    2    1    2    0    0  0.50520162616E+02 -0.82347450853E+02 -0.13245059701E+03  0.20621326739E+03  0.12508941403E+03 0.  0.
          5    1    3    3  502    0  0.31953641519E+02 -0.14075790211E+02 -0.13066693529E+03  0.13531623500E+03  0.41800000000E+01 0.  1.
         -5    1    3    3    0  502  0.18566521096E+02 -0.68271660642E+02 -0.17836617288E+01  0.70897032390E+02  0.41800000000E+01 0.  1.
        -11    1    1    2    0    0 -0.32408897701E+01  0.33147194696E+02 -0.90074918389E+02  0.96035049880E+02  0.00000000000E+00 0.  1.
         11    1    1    2    0    0 -0.47279272846E+02  0.49200256157E+02 -0.49690952379E+01  0.68415544682E+02  0.00000000000E+00 0. -1.
</event>
<event>
 7    1  0.2679104E-009  0.1531024E+03  0.7561462E-02  0.1196712E+00
          1   -1    0    0  501    0  0.00000000000E+00  0.00000000000E+00  0.12254963654E+03  0.12254963654E+03  0.00000000000E+00 0. -1.
         -1   -1    0    0    0  501 -0.00000000000E+00 -0.00000000000E+00 -0.23890779842E+03  0.23890779842E+03  0.00000000000E+00 0.  1.
         25    2    1    2    0    0  0.70013295016E+02  0.82427873602E+02  0.16806842598E+02  0.16621225496E+03  0.12509127833E+03 0.  0.
          5    1    3    3  502    0  0.24413506938E+02 -0.31878980718E+02  0.14983369458E+02  0.43061148300E+02  0.41800000000E+01 0.  1.
         -5    1    3    3    0  502  0.45599788078E+02  0.11430685432E+03  0.18234731398E+01  0.12315110666E+03  0.41800000000E+01 0.  1.
        -11    1    1    2    0    0 -0.58299685180E+02  0.11412036019E+01 -0.51045418402E+02  0.77497034638E+02  0.00000000000E+00 0.  1.
         11    1    1    2    0    0 -0.11713609836E+02 -0.83569077204E+02 -0.82119586070E+02  0.11774814536E+03  0.00000000000E+00 0. -1.
</event>
<event>
 7    1  0.2679104E-009  0.1795120E+03  0.7561462E-02  0.1168276E+00
          1   -1    0    0  501    0  0.00000000000E+00  0.00000000000E+00  0.12450152590E+04  0.12450152590E+04  0.00000000000E+00 0. -1.
         -1   -1    0    0    0  501 -0.00000000000E+00 -0.00000000000E+00 -0.45541206162E+02  0.45541206162E+02  0.00000000000E+00 0.  1.
         25    2    1    2    0    0  0.15786812702E+03 -0.22857829636E+02  0.99722578197E+03  0.10176197903E+04  0.12508377765E+03 0.  0.
          5    1    3    3  502    0  0.85590376621E+02 -0.64746964310E+02  0.38477115435E+03  0.39947990635E+03  0.41800000000E+01 0.  1.
         -5    1    3    3    0  502  0.72277750396E+02  0.41889134674E+02  0.61245462762E+03  0.61813988393E+03  0.41800000000E+01 0.  1.
        -11    1    1    2    0    0 -0.10571204047E+03  0.40075111622E+02  0.78755256034E+02  0.13778040653E+03  0.00000000000E+00 0.  1.
         11    1    1    2    0    0 -0.52156086548E+02 -0.17217281985E+02  0.12349301486E+03  0.13515626838E+03  0.00000000000E+00 0. -1.
</event>
<event>
 7    1  0.2679104E-009  0.1081073E+03  0.7561462E-02  0.1264116E+00
          1   -1    0    0  501    0  0.00000000000E+00  0.00000000000E+00  0.39788647470E+03  0.39788647470E+03  0.00000000000E+00 0. -1.
         -1   -1    0    0    0  501 -0.00000000000E+00 -0.00000000000E+00 -0.65148251690E+02  0.65148251690E+02  0.00000000000E+00 0.  1.
         25    2    1    2    0    0  0.62153370788E+02 -0.12453332187E+02  0.32804567017E+02  0.14402227063E+03  0.12509255708E+03 0.  0.
          5    1    3    3  502    0  0.68501864343E+02  0.43042730901E+02  0.41800988638E+01  0.81117986467E+02  0.41800000000E+01 0.  1.
         -5    1    3    3    0  502 -0.63484935558E+01 -0.55496063088E+02  0.28624468153E+02  0.62904284161E+02  0.41800000000E+01 0.  1.
        -11    1    1    2    0    0 -0.13243191276E+02  0.25356534011E+02  0.20892653514E+02  0.35423705383E+02  0.00000000000E+00 0.  1.
         11    1    1    2    0    0 -0.48910179512E+02 -0.12903201825E+02  0.27904100248E+03  0.28358875038E+03  0.00000000000E+00 0. -1.
</event>
<event>
 7    1  0.4538723E-009  0.1240629E+03  0.7561462E-02  0.1236541E+00
         -2   -1    0    0    0  501 -0.00000000000E+00  0.00000000000E+00  0.14925982951E+02  0.14925982951E+02  0.00000000000E+00 0.  1.
          2   -1    0    0  501    0  0.00000000000E+00 -0.00000000000E+00 -0.13481674092E+04  0.13481674092E+04  0.00000000000E+00 0. -1.
         25    2    1    2    0    0  0.18366290253E+02 -0.82047342123E+02 -0.89976964262E+03  0.91230555951E+03  0.12508771792E+03 0.  0.
          5    1    3    3  502    0  0.56680993336E+02 -0.64490152749E+02 -0.33163419013E+03  0.34259367079E+03  0.41800000000E+01 0.  1.
         -5    1    3    3    0  502 -0.38314703083E+02 -0.17557189375E+02 -0.56813545249E+03  0.56971188872E+03  0.41800000000E+01 0.  1.
        -11    1    1    2    0    0 -0.52669145025E+02  0.44457464363E+02 -0.30306186172E+03  0.31080057433E+03  0.00000000000E+00 0.  1.
         11    1    1    2    0    0  0.34302854772E+02  0.37589877760E+02 -0.13040992192E+03  0.13998725832E+03  0.00000000000E+00 0. -1.
</event>
<event>
 7    1  0.2679104E-009  0.2185350E+03  0.7561462E-02  0.1134980E+00
          1   -1    0    0  501    0  0.00000000000E+00  0.00000000000E+00  0.31308512661E+03  0.31308512661E+03  0.00000000000E+00 0. -1.
         -1   -1    0    0    0  501 -0.00000000000E+00 -0.00000000000E+00 -0.15344928235E+03  0.15344928235E+03  0.00000000000E+00 0.  1.
         25    2    1    2    0    0  0.13851738449E+03  0.12798783648E+03  0.10003374913E+03  0.24743204800E+03  0.12509162770E+03 0.  0.
          5    1    3    3  502    0  0.11776720885E+02  0.94178810972E+02  0.44955324837E+02  0.10510372601E+03  0.41800000000E+01 0. -1.
         -5    1    3    3    0  502  0.12674066360E+03  0.33809025506E+02  0.55078424296E+02  0.14232832199E+03  0.41800000000E+01 0. -1.
        -11    1    1    2    0    0 -0.14023858093E+03 -0.77342791638E+02  0.44225622418E+02  0.16614653977E+03  0.00000000000E+00 0. -1.
         11    1    1    2    0    0  0.17211964446E+01 -0.50645044840E+02  0.15376472713E+02  0.52955821182E+02  0.00000000000E+00 0.  1.
</event>
<event>
 7    1  0.2679104E-009  0.1176812E+03  0.7561462E-02  0.1246972E+00
         -1   -1    0    0    0  501 -0.00000000000E+00  0.00000000000E+00  0.53299126239E+02  0.53299126239E+02  0.00000000000E+00 0.  1.
          1   -1    0    0  501    0  0.00000000000E+00 -0.00000000000E+00 -0.31400816739E+03  0.31400816739E+03  0.00000000000E+00 0. -1.
         25    2    1    2    0    0  0.53451403944E+02 -0.21009749722E+02 -0.20338325231E+03  0.24558458298E+03  0.12509427609E+03 0.  0.
          5    1    3    3  502    0 -0.40083359561E+02  0.10923607786E+01 -0.75100657770E+02  0.85237610028E+02  0.41800000000E+01 0.  1.
         -5    1    3    3    0  502  0.93534763506E+02 -0.22102110501E+02 -0.12828259454E+03  0.16034697295E+03  0.41800000000E+01 0.  1.
        -11    1    1    2    0    0 -0.64729998499E+02 -0.10319922797E+02 -0.13908378682E+02  0.67006839276E+02  0.00000000000E+00 0.  1.
         11    1    1    2    0    0  0.11278594554E+02  0.31329672520E+02 -0.43417410153E+02  0.54715871369E+02  0.00000000000E+00 0. -1.
</event>
<event>
 7    1  0.2679104E-009  0.1836379E+03  0.7561462E-02  0.1164328E+00
          1   -1    0    0  501    0  0.00000000000E+00  0.00000000000E+00  0.91428285502E+03  0.91428285502E+03  0.00000000000E+00 0. -1.
         -1   -1    0    0    0  501 -0.00000000000E+00 -0.00000000000E+00 -0.11502099274E+03  0.11502099274E+03  0.00000000000E+00 0.  1.
         25    2    1    2    0    0  0.91283038803E+02  0.14586006273E+03  0.56698402358E+01  0.21280707148E+03  0.12508777523E+03 0.  0.
          5    1    3    3  502    0  0.58850021024E+02  0.12607239112E+03  0.55633202410E+02  0.14990029482E+03  0.41800000000E+01 0. -1.
         -5    1    3    3    0  502  0.32433017780E+02  0.19787671609E+02 -0.49963362174E+02  0.62906776660E+02  0.41800000000E+01 0. -1.
        -11    1    1    2    0    0 -0.72783746449E+02 -0.41319004203E+02  0.28999245969E+03  0.30182836270E+03  0.00000000000E+00 0.  1.
         11    1    1    2    0    0 -0.18499292355E+02 -0.10454105853E+03  0.50359956235E+03  0.51466841358E+03  0.00000000000E+00 0. -1.
</event>
<event>
 7    1  0.2679104E-009  0.1149008E+03  0.7561462E-02  0.1251754E+00
          3   -1    0    0  501    0  0.00000000000E+00  0.00000000000E+00  0.32622287140E+03  0.32622287140E+03  0.00000000000E+00 0. -1.
         -3   -1    0    0    0  501 -0.00000000000E+00 -0.00000000000E+00 -0.48132791757E+02  0.48132791757E+02  0.00000000000E+00 0.  1.
         25    2    1    2    0    0  0.57753818532E+01  0.63035075489E+02  0.15639054908E+03  0.21003259942E+03  0.12509561624E+03 0.  0.
          5    1    3    3  502    0  0.33023103360E+02 -0.15482848128E+02  0.46941708087E+01  0.37010155110E+02  0.41800000000E+01 0. -1.
         -5    1    3    3    0  502 -0.27247721507E+02  0.78517923617E+02  0.15169637827E+03  0.17302244431E+03  0.41800000000E+01 0. -1.
        -11    1    1    2    0    0 -0.47559220404E+02 -0.40105564849E+02  0.76876698230E+02  0.98895715317E+02  0.00000000000E+00 0.  1.
         11    1    1    2    0    0  0.41783838551E+02 -0.22929510640E+02  0.44822832338E+02  0.65427348418E+02  0.00000000000E+00 0. -1.
</event>
<event>
 7    1  0.2679104E-009  0.1195592E+03  0.7561462E-02  0.1243826E+00
          1   -1    0    0  501    0  0.00000000000E+00  0.00000000000E+00  0.92544443738E+02  0.92544443738E+02  0.00000000000E+00 0. -1.
         -1   -1    0    0    0  501 -0.00000000000E+00 -0.00000000000E+00 -0.18054712088E+03  0.18054712088E+03  0.00000000000E+00 0.  1.
         25    2    1    2    0    0 -0.46112085004E+02  0.45127416707E+02 -0.22614838616E+02  0.14255003620E+03  0.12508506615E+03 0.  0.
          5    1    3    3  502    0 -0.60951321682E+02  0.76988800681E+02  0.38424347727E+01  0.98359421257E+02  0.41800000000E+01 0. -1.
         -5    1    3    3    0  502  0.14839236678E+02 -0.31861383974E+02 -0.26457273389E+02  0.44190614944E+02  0.41800000000E+01 0. -1.
        -11    1    1    2    0    0  0.45022514287E+02  0.13343156586E+02 -0.52913162875E+02  0.70745101780E+02  0.00000000000E+00 0.  1.
         11    1    1    2    0    0  0.10895707168E+01 -0.58470573293E+02 -0.12474675647E+02  0.59796426633E+02  0.00000000000E+00 0. -1.
</event>
<event>
 7    1  0.2679104E-009  0.8040375E+02  0.7561462E-02  0.1327910E+00
          1   -1    0    0  501    0  0.00000000000E+00  0.00000000000E+00  0.92437492515E+02  0.92437492515E+02  0.00000000000E+00 0. -1.
         -1   -1    0    0    0  501 -0.00000000000E+00 -0.00000000000E+00 -0.26291031573E+03  0.26291031573E+03  0.00000000000E+00 0.  1.
         25    2    1    2    0    0  0.33227286874E+01  0.22361883938E+02 -0.19823141618E+03  0.23548730412E+03  0.12508989432E+03 0.  0.
          5    1    3    3  502    0  0.36555585089E+01 -0.12197152620E+02 -0.20017259822E+03  0.20062072455E+03  0.41800000000E+01 0. -1.
         -5    1    3    3    0  502 -0.33282982149E+00  0.34559036558E+02  0.19411820354E+01  0.34866579574E+02  0.41800000000E+01 0. -1.
        -11    1    1    2    0    0  0.49682478836E+02  0.97353068124E+01 -0.29291394533E+01  0.50711978467E+02  0.00000000000E+00 0.  1.
         11    1    1    2    0    0 -0.53005207524E+02 -0.32097190750E+02  0.30687732425E+02  0.69148525654E+02  0.00000000000E+00 0. -1.
</event>
<event>
 7    1  0.2679104E-009  0.1057404E+03  0.7561462E-02  0.1268668E+00
          4   -1    0    0  501    0  0.00000000000E+00  0.00000000000E+00  0.45490302712E+02  0.45490302712E+02  0.00000000000E+00 0. -1.
         -4   -1    0    0    0  501 -0.00000000000E+00 -0.00000000000E+00 -0.31670091421E+03  0.31670091421E+03  0.00000000000E+00 0.  1.
         25    2    1    2    0    0 -0.32223316680E+01  0.40999746217E+02 -0.20430805100E+03  0.24306606959E+03  0.12509185374E+03 0.  0.
          5    1    3    3  502    0 -0.19951735495E+02 -0.38577858492E+02 -0.37855842938E+02  0.57765562056E+02  0.41800000000E+01 0. -1.
         -5    1    3    3    0  502  0.16729403827E+02  0.79577604709E+02 -0.16645220806E+03  0.18530050753E+03  0.41800000000E+01 0. -1.
        -11    1    1    2    0    0  0.38757353596E+02 -0.12044746170E+02 -0.60485217913E+02  0.72840029888E+02  0.00000000000E+00 0. -1.
         11    1    1    2    0    0 -0.35535021928E+02 -0.28955000047E+02 -0.64173425890E+01  0.46285117447E+02  0.00000000000E+00 0.  1.
</event>
<event>
 7    1  0.2679104E-009  0.9412535E+02  0.7561462E-02  0.1293158E+00
         -1   -1    0    0    0  501 -0.00000000000E+00  0.00000000000E+00  0.54116396219E+02  0.54116396219E+02  0.00000000000E+00 0.  1.
          1   -1    0    0  501    0  0.00000000000E+00 -0.00000000000E+00 -0.40350270844E+03  0.40350270844E+03  0.00000000000E+00 0. -1.
         25    2    1    2    0    0  0.73922303101E+02 -0.92649962258E+01 -0.85490110225E+02  0.16883645010E+03  0.12508733303E+03 0.  0.
          5    1    3    3  502    0  0.23313747053E+02 -0.10534559264E+02  0.31795282168E+02  0.41023409277E+02  0.41800000000E+01 0. -1.
         -5    1    3    3    0  502  0.50608556048E+02  0.12695630379E+01 -0.11728539239E+03  0.12781304082E+03  0.41800000000E+01 0. -1.
        -11    1    1    2    0    0 -0.92315198216E+02  0.40089410580E+01 -0.17548717149E+03  0.19832779631E+03  0.00000000000E+00 0. -1.
         11    1    1    2    0    0  0.18392895115E+02  0.52560551679E+01 -0.88409030501E+02  0.90454858248E+02  0.00000000000E+00 0.  1.
</event>
<event>
 7    1  0.2679104E-009  0.1037118E+03  0.7561462E-02  0.1272679E+00
          2   -1    0    0  501    0  0.00000000000E+00  0.00000000000E+00  0.51392507939E+02  0.51392507939E+02  0.00000000000E+00 0. -1.
         -2   -1    0    0    0  501 -0.00000000000E+00 -0.00000000000E+00 -0.29318429081E+03  0.29318429081E+03  0.00000000000E+00 0.  1.
         25    2    1    2    0    0 -0.29099063151E+02 -0.26315286267E+02 -0.80466844407E+02  0.15381971506E+03  0.12508533857E+03 0.  0.
          5    1    3    3  502    0  0.39411334042E+02  0.21724940205E+02 -0.41742819808E+02  0.61523667669E+02  0.41800000000E+01 0. -1.
         -5    1    3    3    0  502 -0.68510397193E+02 -0.48040226472E+02 -0.38724024599E+02  0.92296047392E+02  0.41800000000E+01 0. -1.
        -11    1    1    2    0    0  0.33498782268E+02  0.46767841491E+02 -0.46299691144E+02  0.73844842821E+02  0.00000000000E+00 0. -1.
         11    1    1    2    0    0 -0.43997191174E+01 -0.20452555224E+02 -0.11502524732E+03  0.11691224087E+03  0.00000000000E+00 0.  1.
</event>
<event>
 7    1  0.2679104E-009  0.1446167E+03  0.7561462E-02  0.1207248E+00
          1   -1    0    0  501    0  0.00000000000E+00  0.00000000000E+00  0.28574661810E+03  0.28574661810E+03  0.00000000000E+00 0. -1.
         -1   -1    0    0    0  501 -0.00000000000E+00 -0.00000000000E+00 -0.92088232105E+02  0.92088232105E+02  0.00000000000E+00 0.  1.
         25    2    1    2    0    0 -0.10087583254E+03  0.34748982226E+02  0.34339830018E+02  0.16795955149E+03  0.12509101349E+03 0.  0.
          5    1    3    3  502    0 -0.82164033274E+02  0.74915513603E+02 -0.76845859322E+00  0.11127140455E+03  0.41800000000E+01 0.  1.
         -5    1    3    3    0  502 -0.18711799265E+02 -0.40166531377E+02  0.35108288612E+02  0.56688146943E+02  0.41800000000E+01 0.  1.
        -11    1    1    2    0    0  0.99224102657E+02 -0.55779392637E+00  0.13642768129E+03  0.16869571988E+03  0.00000000000E+00 0. -1.
         11    1    1    2    0    0  0.16517298825E+01 -0.34191188300E+02  0.22890874681E+02  0.41179578830E+02  0.00000000000E+00 0.  1.
</event>
<event>
 7    1  0.2679104E-009  0.1300067E+03  0.7561462E-02  0.1227446E+00
          1   -1    0    0  501    0  0.00000000000E+00  0.00000000000E+00  0.59245061610E+02  0.59245061610E+02  0.00000000000E+00 0. -1.
         -1   -1    0    0    0  501 -0.00000000000E+00 -0.00000000000E+00 -0.33149550676E+03  0.33149550676E+03  0.00000000000E+00 0.  1.
         25    2    1    2    0    0  0.72092883230E+02 -0.41355774800E+02 -0.10805945001E+03  0.18501645414E+03  0.12508620885E+03 0.  0.
          5    1    3    3  502    0  0.10615588496E+03 -0.33622688370E+02 -0.63536931269E+02  0.12827303348E+03  0.41800000000E+01 0. -1.
         -5    1    3    3    0  502 -0.34063001727E+02 -0.77330864301E+01 -0.44522518745E+02  0.56743420656E+02  0.41800000000E+01 0. -1.
        -11    1    1    2    0    0 -0.17178414741E+02 -0.23060757255E+02 -0.11165728971E+02  0.30847527642E+02  0.00000000000E+00 0. -1.
         11    1    1    2    0    0 -0.54914468489E+02  0.64416532055E+02 -0.15302526616E+03  0.17487658659E+03  0.00000000000E+00 0.  1.
</event>
<event>
 7    1  0.2679104E-009  0.9740404E+02  0.7561462E-02  0.1285852E+00
         -2   -1    0    0    0  501 -0.00000000000E+00  0.00000000000E+00  0.55194153700E+02  0.55194153700E+02  0.00000000000E+00 0.  1.
          2   -1    0    0  501    0  0.00000000000E+00 -0.00000000000E+00 -0.22421492200E+03  0.22421492200E+03  0.00000000000E+00 0. -1.
         25    2    1    2    0    0 -0.16020825057E+02 -0.54333356128E+00 -0.73343231335E+02  0.14588940172E+03  0.12509007117E+03 0.  0.
          5    1    3    3  502    0 -0.66303991844E+02  0.18478955123E+02 -0.57222784954E+02  0.89608094695E+02  0.41800000000E+01 0. -1.
         -5    1    3    3    0  502  0.50283166787E+02 -0.19022288685E+02 -0.16120446380E+02  0.56281307025E+02  0.41800000000E+01 0. -1.
        -11    1    1    2    0    0 -0.21994110208E+02  0.19548737433E+02 -0.66397513674E+00  0.29433567266E+02  0.00000000000E+00 0.  1.
         11    1    1    2    0    0  0.38014935264E+02 -0.19005403871E+02 -0.95013561834E+02  0.10408610672E+03  0.00000000000E+00 0. -1.
</event>
<event>
 7    1  0.2679104E-009  0.1325429E+03  0.7561462E-02  0.1223731E+00
         -2   -1    0    0    0  501 -0.00000000000E+00  0.00000000000E+00  0.40027132100E+02  0.40027132100E+02  0.00000000000E+00 0.  1.
          2   -1    0    0  501    0  0.00000000000E+00 -0.00000000000E+00 -0.16194483072E+04  0.16194483072E+04  0.00000000000E+00 0. -1.
         25    2    1    2    0    0  0.12572058550E+03  0.29558390162E+02 -0.14295750913E+04  0.14408373692E+04  0.12509204087E+03 0.  0.
          5    1    3    3  502    0  0.42330404515E+02  0.23049061587E+02 -0.10905082373E+04  0.10915808767E+04  0.41800000000E+01 0. -1.
         -5    1    3    3    0  502  0.83390180987E+02  0.65093285748E+01 -0.33906685403E+03  0.34925649248E+03  0.41800000000E+01 0. -1.
        -11    1    1    2    0    0 -0.57455511534E+02  0.25638980833E+01 -0.12763044763E+03  0.13999014444E+03  0.00000000000E+00 0. -1.
         11    1    1    2    0    0 -0.68265073968E+02 -0.32122288245E+02 -0.22215636186E+02  0.78647925701E+02  0.00000000000E+00 0.  1.
</event>
<event>
 7    1  0.2679104E-009  0.1257444E+03  0.7561462E-02  0.1233910E+00
          1   -1    0    0  501    0  0.00000000000E+00  0.00000000000E+00  0.17638583402E+03  0.17638583402E+03  0.00000000000E+00 0. -1.
         -1   -1    0    0    0  501 -0.00000000000E+00 -0.00000000000E+00 -0.10169319263E+03  0.10169319263E+03  0.00000000000E+00 0.  1.
         25    2    1    2    0    0 -0.45837177237E+02  0.55354613435E+02  0.12711638320E+02  0.14482724581E+03  0.12509262702E+03 0.  0.
          5    1    3    3  502    0  0.37007547909E+02 -0.50566059241E+01  0.18810989289E+02  0.42029199181E+02  0.41800000000E+01 0. -1.
         -5    1    3    3    0  502 -0.82844725147E+02  0.60411219359E+02 -0.60993509695E+01  0.10279804663E+03  0.41800000000E+01 0. -1.
        -11    1    1    2    0    0 -0.62829541549E+01 -0.58723281365E+02  0.10630679311E+02  0.60007588102E+02  0.00000000000E+00 0. -1.
         11    1    1    2    0    0  0.52120131392E+02  0.33686679304E+01  0.51350323762E+02  0.73244192742E+02  0.00000000000E+00 0.  1.
</event>
<event>
 7    1  0.2679104E-009  0.1096426E+03  0.7561462E-02  0.1261233E+00
         -1   -1    0    0    0  501 -0.00000000000E+00  0.00000000000E+00  0.13030206279E+03  0.13030206279E+03  0.00000000000E+00 0.  1.
          1   -1    0    0  501    0  0.00000000000E+00 -0.00000000000E+00 -0.13245104966E+03  0.13245104966E+03  0.00000000000E+00 0. -1.
         25    2    1    2    0    0  0.10804516286E+02 -0.27102557838E+02 -0.67056553152E+02  0.14489886032E+03  0.12509121547E+03 0.  0.
          5    1    3    3  502    0  0.27514306641E+02 -0.70606319492E+02 -0.61689130505E+02  0.97802406129E+02  0.41800000000E+01 0. -1.
         -5    1    3    3    0  502 -0.16709790356E+02  0.43503761654E+02 -0.53674226464E+01  0.47096454194E+02  0.41800000000E+01 0. -1.
        -11    1    1    2    0    0  0.31720307389E+02  0.41023889580E+02  0.23666705119E+02  0.57002195996E+02  0.00000000000E+00 0. -1.
         11    1    1    2    0    0 -0.42524823675E+02 -0.13921331742E+02  0.41240861167E+02  0.60852056135E+02  0.00000000000E+00 0.  1.
</event>
<event>
 7    1  0.2679104E-009  0.1415349E+03  0.7561462E-02  0.1211278E+00
          2   -1    0    0  501    0  0.00000000000E+00  0.00000000000E+00  0.13884645696E+04  0.13884645696E+04  0.00000000000E+00 0.  1.
         -2   -1    0    0    0  501 -0.00000000000E+00 -0.00000000000E+00 -0.21398174150E+02  0.21398174150E+02  0.00000000000E+00 0. -1.
         25    2    1    2    0    0 -0.34055287512E+01  0.11771825248E+03  0.99879538455E+03  0.10134639088E+04  0.12509072554E+03 0.  0.
          5    1    3    3  502    0  0.36507746473E+02 -0.41102027694E+01  0.36166376407E+03  0.36354897876E+03  0.41800000000E+01 0. -1.
         -5    1    3    3    0  502 -0.39913275224E+02  0.12182845525E+03  0.63713162049E+03  0.64991493002E+03  0.41800000000E+01 0. -1.
        -11    1    1    2    0    0 -0.47663713619E+00 -0.46349308153E+02  0.27506273110E+03  0.27894083887E+03  0.00000000000E+00 0.  1.
         11    1    1    2    0    0  0.38821658874E+01 -0.71368944324E+02  0.93208279840E+02  0.11745799614E+03  0.00000000000E+00 0. -1.
</event>
<event>
 7    1  0.2679104E-009  0.9384001E+02  0.7561462E-02  0.1293810E+00
          1   -1    0    0  501    0  0.00000000000E+00  0.00000000000E+00  0.43684318224E+03  0.43684318224E+03  0.00000000000E+00 0. -1.
         -1   -1    0    0    0  501 -0.00000000000E+00 -0.00000000000E+00 -0.27719484314E+02  0.27719484314E+02  0.00000000000E+00 0.  1.
         25    2    1    2    0    0  0.12138758952E+02 -0.11723883067E+02  0.20095253566E+03  0.23731031993E+03  0.12509783152E+03 0.  0.
          5    1    3    3  502    0 -0.29734858869E+02  0.42597040054E+02  0.12186660224E+03  0.13254286399E+03  0.41800000000E+01 0. -1.
         -5    1    3    3    0  502  0.41873617821E+02 -0.54320923121E+02  0.79085933423E+02  0.10476745594E+03  0.41800000000E+01 0. -1.
        -11    1    1    2    0    0  0.20590749588E+02 -0.14270923708E+02  0.14134138418E+02  0.28764771873E+02  0.00000000000E+00 0.  1.
         11    1    1    2    0    0 -0.32729508540E+02  0.25994806775E+02  0.19403702384E+03  0.19848757475E+03  0.00000000000E+00 0. -1.
</event>
<event>
 7    1  0.2679104E-009  0.1343956E+03  0.7561462E-02  0.1221075E+00
          2   -1    0    0  501    0  0.00000000000E+00  0.00000000000E+00  0.14861324673E+04  0.14861324673E+04  0.00000000000E+00 0. -1.
         -2   -1    0    0    0  501 -0.00000000000E+00 -0.00000000000E+00 -0.16796449261E+02  0.16796449261E+02  0.00000000000E+00 0.  1.
         25    2    1    2    0    0  0.10944657943E+03  0.19557988193E+02  0.90350038542E+03  0.91887012480E+03  0.12509312991E+03 0.  0.
          5    1    3    3  502    0  0.11499334709E+03  0.47984334781E+02  0.54051108754E+03  0.55470323093E+03  0.41800000000E+01 0. -1.
         -5    1    3    3    0  502 -0.55467676626E+01 -0.28426346588E+02  0.36298929788E+03  0.36416689387E+03  0.41800000000E+01 0. -1.
        -11    1    1    2    0    0 -0.19535024058E+02 -0.15351942308E+02  0.23149478332E+02  0.33958763885E+02  0.00000000000E+00 0.  1.
         11    1    1    2    0    0 -0.89911555368E+02 -0.42060458848E+01  0.54268615430E+03  0.55010002788E+03  0.00000000000E+00 0. -1.
</event>
<event>
 7    1  0.2679104E-009  0.9439686E+02  0.7561462E-02  0.1292540E+00
         -2   -1    0    0    0  501 -0.00000000000E+00  0.00000000000E+00  0.58002762185E+03  0.58002762185E+03  0.00000000000E+00 0. -1.
          2   -1    0    0  501    0  0.00000000000E+00 -0.00000000000E+00 -0.28923216437E+02  0.28923216437E+02  0.00000000000E+00 0.  1.
         25    2    1    2    0    0  0.21639494519E+02  0.31025253519E+02  0.43461047919E+03  0.45383284043E+03  0.12508854606E+03 0.  0.
          5    1    3    3  502    0  0.18294357322E+02 -0.46712031116E+02  0.21478673034E+03  0.22060713790E+03  0.41800000000E+01 0. -1.
         -5    1    3    3    0  502  0.33451371970E+01  0.77737284635E+02  0.21982374885E+03  0.23322570253E+03  0.41800000000E+01 0. -1.
        -11    1    1    2    0    0  0.15165229585E+02 -0.86274995994E+01 -0.10942833394E+02  0.20595231011E+02  0.00000000000E+00 0.  1.
         11    1    1    2    0    0 -0.36804724104E+02 -0.22397753920E+02  0.12743675962E+03  0.13452276684E+03  0.00000000000E+00 0. -1.
</event>
<event>
 7    1  0.2679104E-009  0.8388474E+02  0.7561462E-02  0.1318375E+00
         -1   -1    0    0    0  501 -0.00000000000E+00  0.00000000000E+00  0.31881453506E+03  0.31881453506E+03  0.00000000000E+00 0.  1.
          1   -1    0    0  501    0  0.00000000000E+00 -0.00000000000E+00 -0.50743032670E+02  0.50743032670E+02  0.00000000000E+00 0. -1.
         25    2    1    2    0    0 -0.31967920760E+02 -0.57294990855E+02  0.17575033080E+03  0.22547802781E+03  0.12508996088E+03 0.  0.
          5    1    3    3  502    0 -0.12268552626E+02  0.92638076999E+01 -0.15347425444E+02  0.22121288037E+02  0.41800000000E+01 0.  1.
         -5    1    3    3    0  502 -0.19699368134E+02 -0.66558798555E+02  0.19109775624E+03  0.20335673977E+03  0.41800000000E+01 0.  1.
        -11    1    1    2    0    0  0.41166767799E+01 -0.92699376627E+01 -0.12952097406E+02  0.16451006024E+02  0.00000000000E+00 0. -1.
         11    1    1    2    0    0  0.27851243980E+02  0.66564928518E+02  0.10527326900E+03  0.12762853390E+03  0.00000000000E+00 0.  1.
</event>
<event>
 7    1  0.2679104E-009  0.1739332E+03  0.7561462E-02  0.1173807E+00
         -2   -1    0    0    0  501 -0.00000000000E+00  0.00000000000E+00  0.16412136578E+03  0.16412136578E+03  0.00000000000E+00 0.  1.
          2   -1    0    0  501    0  0.00000000000E+00 -0.00000000000E+00 -0.21144654023E+03  0.21144654023E+03  0.00000000000E+00 0. -1.
         25    2    1    2    0    0  0.14207725537E+03 -0.45779033940E+02 -0.26465133222E+01  0.19476307482E+03  0.12507591631E+03 0.  0.
          5    1    3    3  502    0  0.15048398762E+03 -0.30951970468E+01 -0.76824957074E+01  0.15076970489E+03  0.41800000000E+01 0.  1.
         -5    1    3    3    0  502 -0.84067322475E+01 -0.42683836893E+02  0.50359823852E+01  0.43993369927E+02  0.41800000000E+01 0.  1.
        -11    1    1    2    0    0 -0.12692537904E+03  0.27543615790E+02  0.39031597196E+00  0.12988015615E+03  0.00000000000E+00 0.  1.
         11    1    1    2    0    0 -0.15151876332E+02  0.18235418150E+02 -0.45068977102E+02  0.50924675046E+02  0.00000000000E+00 0. -1.
</event>
<event>
 7    1  0.2679104E-009  0.1036152E+03  0.7561462E-02  0.1272872E+00
         -1   -1    0    0    0  501 -0.00000000000E+00  0.00000000000E+00  0.26705668797E+03  0.26705668797E+03  0.00000000000E+00 0.  1.
          1   -1    0    0  501    0  0.00000000000E+00 -0.00000000000E+00 -0.59340017994E+02  0.59340017994E+02  0.00000000000E+00 0. -1.
         25    2    1    2    0    0  0.27065158896E+02 -0.22967788421E+02  0.18532018519E+03  0.22638767111E+03  0.12509102470E+03 0.  0.
          5    1    3    3  502    0 -0.13365404258E+02 -0.55798105171E+02  0.15645338023E+03  0.16669491641E+03  0.41800000000E+01 0. -1.
         -5    1    3    3    0  502  0.40430563154E+02  0.32830316751E+02  0.28866804957E+02  0.59692754697E+02  0.41800000000E+01 0. -1.
        -11    1    1    2    0    0  0.28464564097E+02  0.30146301430E+02  0.10424961190E+02  0.42751733473E+02  0.00000000000E+00 0.  1.
         11    1    1    2    0    0 -0.55529722993E+02 -0.71785130096E+01  0.11971523601E+02  0.57257301386E+02  0.00000000000E+00 0. -1.
</event>
<event>
 7    1  0.2679104E-009  0.1556844E+03  0.7561462E-02  0.1193657E+00
          2   -1    0    0  501    0  0.00000000000E+00  0.00000000000E+00  0.13120087418E+03  0.13120087418E+03  0.00000000000E+00 0. -1.
         -2   -1    0    0    0  501 -0.00000000000E+00 -0.00000000000E+00 -0.22262333043E+03  0.22262333043E+03  0.00000000000E+00 0.  1.
         25    2    1    2    0    0  0.78160453734E+01 -0.12644581529E+03 -0.10244649885E+02  0.17833393861E+03  0.12509358912E+03 0.  0.
          5    1    3    3  502    0  0.54972005184E+02 -0.66796193685E+02  0.30678536774E+02  0.91881977903E+02  0.41800000000E+01 0. -1.
         -5    1    3    3    0  502 -0.47155959811E+02 -0.59649621604E+02 -0.40923186659E+02  0.86451960704E+02  0.41800000000E+01 0. -1.
        -11    1    1    2    0    0  0.28705805401E+02  0.98563473486E+02 -0.30522478887E+02  0.10709996866E+03  0.00000000000E+00 0. -1.
         11    1    1    2    0    0 -0.36521850774E+02  0.27882341803E+02 -0.50655327476E+02  0.68390297339E+02  0.00000000000E+00 0.  1.
</event>
<event>
 7    1  0.2679104E-009  0.1496560E+03  0.7561462E-02  0.1200896E+00
          1   -1    0    0  501    0  0.00000000000E+00  0.00000000000E+00  0.48569830699E+03  0.48569830699E+03  0.00000000000E+00 0. -1.
         -1   -1    0    0    0  501 -0.00000000000E+00 -0.00000000000E+00 -0.47384424251E+02  0.47384424251E+02  0.00000000000E+00 0.  1.
         25    2    1    2    0    0 -0.10629054522E+03  0.26404002742E+02  0.22836180234E+03  0.28247178701E+03  0.12508535617E+03 0.  0.
          5    1    3    3  502    0  0.19747877080E+02 -0.21495891986E+02  0.58938741386E+02  0.65903715051E+02  0.41800000000E+01 0. -1.
         -5    1    3    3    0  502 -0.12603842230E+03  0.47899894728E+02  0.16942306095E+03  0.21656807196E+03  0.41800000000E+01 0. -1.
        -11    1    1    2    0    0  0.94888072350E+02 -0.51065234612E+02  0.14903853008E+03  0.18391271818E+03  0.00000000000E+00 0.  1.
         11    1    1    2    0    0  0.11402472871E+02  0.24661231870E+02  0.60913550329E+02  0.66698226053E+02  0.00000000000E+00 0. -1.
</event>
<event>
 7    1  0.2679104E-009  0.1144189E+03  0.7561462E-02  0.1252599E+00
         -2   -1    0    0    0  501 -0.00000000000E+00  0.00000000000E+00  0.42398169276E+02  0.42398169276E+02  0.00000000000E+00 0.  1.
          2   -1    0    0  501    0  0.00000000000E+00 -0.00000000000E+00 -0.62306561141E+03  0.62306561141E+03  0.00000000000E+00 0. -1.
         25    2    1    2    0    0  0.10180354327E+03 -0.28272968666E+02 -0.41321927958E+03  0.44447763978E+03  0.12508747767E+03 0.  0.
          5    1    3    3  502    0  0.11520834307E+02 -0.13630767514E+02 -0.29195939018E+03  0.29253424647E+03  0.41800000000E+01 0. -1.
         -5    1    3    3    0  502  0.90282708967E+02 -0.14642201152E+02 -0.12125988941E+03  0.15194339331E+03  0.41800000000E+01 0. -1.
        -11    1    1    2    0    0 -0.69018683501E+02 -0.86653089891E+01 -0.31530110225E+02  0.76372862346E+02  0.00000000000E+00 0.  1.
         11    1    1    2    0    0 -0.32784859773E+02  0.36938277655E+02 -0.13591805232E+03  0.14461327855E+03  0.00000000000E+00 0. -1.
</event>
<event>
 7    1  0.2679104E-009  0.1357464E+03  0.7561462E-02  0.1219170E+00
          1   -1    0    0  501    0  0.00000000000E+00  0.00000000000E+00  0.51150651886E+03  0.51150651886E+03  0.00000000000E+00 0. -1.
         -1   -1    0    0    0  501 -0.00000000000E+00 -0.00000000000E+00 -0.43356169393E+02  0.43356169393E+02  0.00000000000E+00 0.  1.
         25    2    1    2    0    0 -0.53642478466E+02 -0.69366336505E+02  0.34926083250E+03  0.38120720461E+03  0.12508636852E+03 0.  0.
          5    1    3    3  502    0 -0.51112834385E+02 -0.10462269906E+03  0.28165959196E+03  0.30480818418E+03  0.41800000000E+01 0.  1.
         -5    1    3    3    0  502 -0.25296440811E+01  0.35256362557E+02  0.67601240544E+02  0.76399020432E+02  0.41800000000E+01 0.  1.
        -11    1    1    2    0    0 -0.13755009940E+02  0.46060632005E+02  0.20788254382E+02  0.52373023967E+02  0.00000000000E+00 0.  1.
         11    1    1    2    0    0  0.67397488406E+02  0.23305704499E+02  0.98101262583E+02  0.12128245968E+03  0.00000000000E+00 0. -1.
</event>
<event>
 7    1  0.3137852E-009  0.1579354E+03  0.7561462E-02  0.1191048E+00
         -1   -1    0    0    0  501 -0.00000000000E+00  0.00000000000E+00  0.70080253374E+02  0.70080253374E+02  0.00000000000E+00 0.  1.
          1   -1    0    0  501    0  0.00000000000E+00 -0.00000000000E+00 -0.41869759696E+03  0.41869759696E+03  0.00000000000E+00 0. -1.
         25    2    1    2    0    0  0.11879063623E+03 -0.45239912694E+02 -0.13430018509E+03  0.22325347998E+03  0.12509081362E+03 0.  0.
          5    1    3    3  502    0 -0.16649968022E+02  0.11369591125E+02  0.46200761590E+01  0.21102287582E+02  0.41800000000E+01 0.  1.
         -5    1    3    3    0  502  0.13544060425E+03 -0.56609503819E+02 -0.13892026125E+03  0.20215119240E+03  0.41800000000E+01 0.  1.
        -11    1    1    2    0    0 -0.10551238486E+03  0.65509196624E+02 -0.13897905355E+03  0.18638534150E+03  0.00000000000E+00 0.  1.
         11    1    1    2    0    0 -0.13278251378E+02 -0.20269283930E+02 -0.75338104953E+02  0.79139028858E+02  0.00000000000E+00 0. -1.
</event>
<event>
 7    1  0.2679104E-009  0.2226272E+03  0.7561462E-02  0.1131939E+00
          1   -1    0    0  501    0  0.00000000000E+00  0.00000000000E+00  0.11267702705E+03  0.11267702705E+03  0.00000000000E+00 0. -1.
         -1   -1    0    0    0  501 -0.00000000000E+00 -0.00000000000E+00 -0.53570715629E+03  0.53570715629E+03  0.00000000000E+00 0.  1.
         25    2    1    2    0    0 -0.20856920947E+03 -0.58066627248E+02 -0.27035929364E+03  0.36826271727E+03  0.12510169038E+03 0.  0.
          5    1    3    3  502    0 -0.11780547349E+03  0.32600409712E+01 -0.62968458017E+02  0.13368341916E+03  0.41800000000E+01 0.  1.
         -5    1    3    3    0  502 -0.90763735974E+02 -0.61326668219E+02 -0.20739083562E+03  0.23457929811E+03  0.41800000000E+01 0.  1.
        -11    1    1    2    0    0  0.52780223093E+02  0.25219003454E+02 -0.93453919703E+02  0.11025146345E+03  0.00000000000E+00 0.  1.
         11    1    1    2    0    0  0.15578898637E+03  0.32847623794E+02 -0.59216915899E+02  0.16987000263E+03  0.00000000000E+00 0. -1.
</event>
<event>
 7    1  0.2679104E-009  0.9502356E+02  0.7561462E-02  0.1291123E+00
          1   -1    0    0  501    0  0.00000000000E+00  0.00000000000E+00  0.24181616503E+03  0.24181616503E+03  0.00000000000E+00 0. -1.
         -1   -1    0    0    0  501 -0.00000000000E+00 -0.00000000000E+00 -0.50163342171E+02  0.50163342171E+02  0.00000000000E+00 0.  1.
         25    2    1    2    0    0  0.17445119784E+00 -0.15024079899E+02  0.10761617339E+03  0.16569471400E+03  0.12509094317E+03 0.  0.
          5    1    3    3  502    0 -0.57067231672E+02  0.11316822829E+02  0.73778341536E+02  0.94050281709E+02  0.41800000000E+01 0. -1.
         -5    1    3    3    0  502  0.57241682870E+02 -0.26340902728E+02  0.33837831855E+02  0.71644432296E+02  0.41800000000E+01 0. -1.
        -11    1    1    2    0    0 -0.33416203535E+02  0.46034757419E+01 -0.16654419378E+01  0.33772893634E+02  0.00000000000E+00 0.  1.
         11    1    1    2    0    0  0.33241752337E+02  0.10420604157E+02  0.85702091408E+02  0.92511899565E+02  0.00000000000E+00 0. -1.
</event>
<event>
 7    1  0.2679104E-009  0.9806072E+02  0.7561462E-02  0.1284428E+00
          1   -1    0    0  501    0  0.00000000000E+00  0.00000000000E+00  0.20335126287E+02  0.20335126287E+02  0.00000000000E+00 0. -1.
         -1   -1    0    0    0  501 -0.00000000000E+00 -0.00000000000E+00 -0.91520189828E+03  0.91520189828E+03  0.00000000000E+00 0.  1.
         25    2    1    2    0    0 -0.24677245259E+02  0.13512733088E+02 -0.75494025484E+03  0.76575004418E+03  0.12508709527E+03 0.  0.
          5    1    3    3  502    0 -0.25783565957E+02  0.63359747229E+02 -0.57200315487E+03  0.57609403002E+03  0.41800000000E+01 0. -1.
         -5    1    3    3    0  502  0.11063206981E+01 -0.49847014141E+02 -0.18293709996E+03  0.18965601416E+03  0.41800000000E+01 0. -1.
        -11    1    1    2    0    0 -0.17683744264E+02  0.17635503672E+02 -0.56821774709E+01  0.25612749594E+02  0.00000000000E+00 0. -1.
         11    1    1    2    0    0  0.42360989523E+02 -0.31148236760E+02 -0.13424433969E+03  0.14417423080E+03  0.00000000000E+00 0.  1.
</event>
<event>
 7    1  0.2679104E-009  0.1305888E+03  0.7561462E-02  0.1226585E+00
         -1   -1    0    0    0  501 -0.00000000000E+00  0.00000000000E+00  0.11825332852E+03  0.11825332852E+03  0.00000000000E+00 0.  1.
          1   -1    0    0  501    0  0.00000000000E+00 -0.00000000000E+00 -0.23907211597E+03  0.23907211597E+03  0.00000000000E+00 0. -1.
         25    2    1    2    0    0  0.74775579747E+02 -0.58008695911E+02  0.11584706919E+02  0.15728299225E+03  0.12508932045E+03 0.  0.
          5    1    3    3  502    0 -0.10873487035E+02 -0.68481961492E+02 -0.36508579840E+01  0.69561576564E+02  0.41800000000E+01 0.  1.
         -5    1    3    3    0  502  0.85649066782E+02  0.10473265581E+02  0.15235564903E+02  0.87721415689E+02  0.41800000000E+01 0.  1.
        -11    1    1    2    0    0 -0.13768479607E+02 -0.76057292928E+01  0.18662008457E+02  0.24406734899E+02  0.00000000000E+00 0.  1.
         11    1    1    2    0    0 -0.61007100141E+02  0.65614425203E+02 -0.15106550283E+03  0.17563571735E+03  0.00000000000E+00 0. -1.
</event>
<event>
 7    1  0.2679104E-009  0.1128777E+03  0.7561462E-02  0.1255332E+00
          2   -1    0    0  501    0  0.00000000000E+00  0.00000000000E+00  0.10971677376E+03  0.10971677376E+03  0.00000000000E+00 0. -1.
         -2   -1    0    0    0  501 -0.00000000000E+00 -0.00000000000E+00 -0.12378682566E+03  0.12378682566E+03  0.00000000000E+00 0.  1.
         25    2    1    2    0    0 -0.15254149801E+02 -0.36691637727E+02 -0.20136663589E+02  0.13278008418E+03  0.12508437221E+03 0.  0.
          5    1    3    3  502    0  0.26131428298E+02  0.36000432012E+02 -0.20184388762E+02  0.49028202085E+02  0.41800000000E+01 0.  1.
         -5    1    3    3    0  502 -0.41385578099E+02 -0.72692069739E+02  0.47725173042E-01  0.83751882100E+02  0.41800000000E+01 0.  1.
        -11    1    1    2    0    0 -0.29709454289E+02  0.42637961053E+02  0.15838325587E+02  0.54327708900E+02  0.00000000000E+00 0.  1.
         11    1    1    2    0    0  0.44963604090E+02 -0.59463233267E+01 -0.97717138967E+01  0.46395806344E+02  0.00000000000E+00 0. -1.
</event>
<event>
 7    1  0.2679104E-009  0.1170031E+03  0.7561462E-02  0.1248124E+00
          1   -1    0    0  501    0  0.00000000000E+00  0.00000000000E+00  0.13082219041E+03  0.13082219041E+03  0.00000000000E+00 0. -1.
         -1   -1    0    0    0  501 -0.00000000000E+00 -0.00000000000E+00 -0.14239055730E+03  0.14239055730E+03  0.00000000000E+00 0.  1.
         25    2    1    2    0    0 -0.21060599452E+02 -0.85826113150E+02 -0.23903640882E+02  0.15501036937E+03  0.12508860867E+03 0.  0.
          5    1    3    3  502    0 -0.17991856145E+01 -0.11140227661E+03 -0.40602886445E+02  0.11865821122E+03  0.41800000000E+01 0.  1.
         -5    1    3    3    0  502 -0.19261413838E+02  0.25576163457E+02  0.16699245563E+02  0.36352158156E+02  0.41800000000E+01 0.  1.
        -11    1    1    2    0    0  0.13711101926E+01  0.43695813573E+02  0.43933629430E+02  0.61978769445E+02  0.00000000000E+00 0. -1.
         11    1    1    2    0    0  0.19689489260E+02  0.42130299577E+02 -0.31598355437E+02  0.56223608886E+02  0.00000000000E+00 0.  1.
</event>
<event>
 7    1  0.2679104E-009  0.1033619E+03  0.7561462E-02  0.1273381E+00
         -2   -1    0    0    0  501 -0.00000000000E+00  0.00000000000E+00  0.21606183242E+02  0.21606183242E+02  0.00000000000E+00 0.  1.
          2   -1    0    0  501    0  0.00000000000E+00 -0.00000000000E+00 -0.95929502988E+03  0.95929502988E+03  0.00000000000E+00 0. -1.
         25    2    1    2    0    0 -0.10528990960E+02 -0.38699392733E+02 -0.79867458474E+03  0.80940535489E+03  0.12508970207E+03 0.  0.
          5    1    3    3  502    0 -0.55858883399E+02 -0.11693427317E+02 -0.18990140347E+03  0.19833548986E+03  0.41800000000E+01 0. -1.
         -5    1    3    3    0  502  0.45329892439E+02 -0.27005965416E+02 -0.60877318127E+03  0.61106986503E+03  0.41800000000E+01 0. -1.
        -11    1    1    2    0    0 -0.54339442438E+00  0.66574941164E+02 -0.71935047480E+02  0.98016167668E+02  0.00000000000E+00 0.  1.
         11    1    1    2    0    0  0.11072385385E+02 -0.27875548431E+02 -0.67079214415E+02  0.73479690561E+02  0.00000000000E+00 0. -1.
</event>
<event>
 7    1  0.2679104E-009  0.9003309E+02  0.7561462E-02  0.1302772E+00
          1   -1    0    0  501    0  0.00000000000E+00  0.00000000000E+00  0.53493692884E+03  0.53493692884E+03  0.00000000000E+00 0. -1.
         -1   -1    0    0    0  501 -0.00000000000E+00 -0.00000000000E+00 -0.26885191477E+02  0.26885191477E+02  0.00000000000E+00 0.  1.
         25    2    1    2    0    0 -0.31499786734E+02 -0.33954184123E+02  0.33608530995E+03  0.36159039772E+03  0.12509659060E+03 0.  0.
          5    1    3    3  502    0 -0.17044516091E+02 -0.63269041333E+02  0.80458632826E+02  0.10384869338E+03  0.41800000000E+01 0.  1.
         -5    1    3    3    0  502 -0.14455270643E+02  0.29314857210E+02  0.25562667712E+03  0.25774170434E+03  0.41800000000E+01 0.  1.
        -11    1    1    2    0    0  0.42961266208E+02 -0.27064877117E+01  0.28292011092E+02  0.51511487666E+02  0.00000000000E+00 0.  1.
         11    1    1    2    0    0 -0.11461479474E+02  0.36660671835E+02  0.14367441633E+03  0.14872023493E+03  0.00000000000E+00 0. -1.
</event>
<event>
 7    1  0.2679104E-009  0.8086613E+03  0.7561462E-02  0.9547564E-01
          2   -1    0    0  501    0  0.00000000000E+00  0.00000000000E+00  0.20653710170E+04  0.20653710170E+04  0.00000000000E+00 0. -1.
         -2   -1    0    0    0  501 -0.00000000000E+00 -0.00000000000E+00 -0.32877545432E+03  0.32877545432E+03  0.00000000000E+00 0.  1.
         25    2    1    2    0    0 -0.49484296604E+03 -0.63568280157E+03  0.10542135647E+04  0.13326577027E+04  0.12509247517E+03 0.  0.
          5    1    3    3  502    0 -0.45474241820E+03 -0.61425919812E+03  0.10245478789E+04  0.12782100211E+04  0.41800000000E+01 0.  1.
         -5    1    3    3    0  502 -0.40100547840E+02 -0.21423603451E+02  0.29665685765E+02  0.54447681620E+02  0.41800000000E+01 0.  1.
        -11    1    1    2    0    0  0.34743662499E+02  0.25111212215E+02  0.69400320123E+02  0.81572663900E+02  0.00000000000E+00 0. -1.
         11    1    1    2    0    0  0.46009930354E+03  0.61057158936E+03  0.61298167783E+03  0.97991610467E+03  0.00000000000E+00 0.  1.
</event>
<event>
 7    1  0.2679104E-009  0.8867539E+02  0.7561462E-02  0.1306091E+00
          2   -1    0    0  501    0  0.00000000000E+00  0.00000000000E+00  0.50437903715E+02  0.50437903715E+02  0.00000000000E+00 0. -1.
         -2   -1    0    0    0  501 -0.00000000000E+00 -0.00000000000E+00 -0.42831332482E+03  0.42831332482E+03  0.00000000000E+00 0.  1.
         25    2    1    2    0    0 -0.54211018601E+02 -0.64084683825E+01 -0.33867725098E+03  0.36514399222E+03  0.12509177317E+03 0.  0.
          5    1    3    3  502    0  0.19993044047E+02  0.13990022204E+02 -0.23319705326E+03  0.23450752777E+03  0.41800000000E+01 0.  1.
         -5    1    3    3    0  502 -0.74204062648E+02 -0.20398490587E+02 -0.10548019772E+03  0.13063646445E+03  0.41800000000E+01 0.  1.
        -11    1    1    2    0    0 -0.10501754967E+02  0.80703161597E-01  0.21960598527E+02  0.24342581171E+02  0.00000000000E+00 0. -1.
         11    1    1    2    0    0  0.64712773568E+02  0.63277652209E+01 -0.61158768648E+02  0.89264655145E+02  0.00000000000E+00 0.  1.
</event>
<event>
 7    1  0.2679104E-009  0.1285189E+03  0.7561462E-02  0.1229670E+00
         -1   -1    0    0    0  501 -0.00000000000E+00  0.00000000000E+00  0.76667511262E+02  0.76667511262E+02  0.00000000000E+00 0.  1.
          1   -1    0    0  501    0  0.00000000000E+00 -0.00000000000E+00 -0.27019195085E+03  0.27019195085E+03  0.00000000000E+00 0. -1.
         25    2    1    2    0    0  0.89167208613E+02 -0.17117574201E+02 -0.74606907940E+02  0.17161846509E+03  0.12507159713E+03 0.  0.
          5    1    3    3  502    0  0.28513121523E+02  0.38845026623E+02 -0.74692760699E+02  0.88985476867E+02  0.41800000000E+01 0. -1.
         -5    1    3    3    0  502  0.60654087090E+02 -0.55962600825E+02  0.85852758804E-01  0.82632988222E+02  0.41800000000E+01 0. -1.
        -11    1    1    2    0    0 -0.10679944107E+03  0.18340589121E+02 -0.11309983000E+03  0.15663355122E+03  0.00000000000E+00 0.  1.
         11    1    1    2    0    0  0.17632232456E+02 -0.12230149194E+01 -0.58177016477E+01  0.18607445803E+02  0.00000000000E+00 0. -1.
</event>
<event>
 7    1  0.2679104E-009  0.1267489E+03  0.7561462E-02  0.1232361E+00
          1   -1    0    0  501    0  0.00000000000E+00  0.00000000000E+00  0.71648293210E+03  0.71648293210E+03  0.00000000000E+00 0. -1.
         -1   -1    0    0    0  501 -0.00000000000E+00 -0.00000000000E+00 -0.37678092840E+02  0.37678092840E+02  0.00000000000E+00 0.  1.
         25    2    1    2    0    0  0.57239631960E+01 -0.10398939380E+03  0.21115234670E+03  0.26661002808E+03  0.12509610615E+03 0.  0.
          5    1    3    3  502    0  0.27945830913E+02 -0.43883110673E+02  0.19291647762E+03  0.19985228697E+03  0.41800000000E+01 0.  1.
         -5    1    3    3    0  502 -0.22221867717E+02 -0.60106283131E+02  0.18235869078E+02  0.66757741107E+02  0.41800000000E+01 0.  1.
        -11    1    1    2    0    0  0.40193290683E+02  0.66962214442E+02  0.24039840965E+03  0.25276636276E+03  0.00000000000E+00 0.  1.
         11    1    1    2    0    0 -0.45917253879E+02  0.37027179362E+02  0.22725408291E+03  0.23478463411E+03  0.00000000000E+00 0. -1.
</event>
<event>
 7    1  0.2679104E-009  0.7080251E+02  0.7561462E-02  0.1357385E+00
         -2   -1    0    0    0  501 -0.00000000000E+00  0.00000000000E+00  0.60161571597E+02  0.60161571597E+02  0.00000000000E+00 0.  1.
          2   -1    0    0  501    0  0.00000000000E+00 -0.00000000000E+00 -0.24069079219E+03  0.24069079219E+03  0.00000000000E+00 0. -1.
         25    2    1    2    0    0  0.37877682439E+02  0.32744652330E-01 -0.97886353564E+02  0.16328597099E+03  0.12508337303E+03 0.  0.
          5    1    3    3  502    0 -0.12624294787E+02 -0.18645465473E+02  0.22024568563E+02  0.31773892144E+02  0.41800000000E+01 0.  1.
         -5    1    3    3    0  502  0.50501977226E+02  0.18678210126E+02 -0.11991092213E+03  0.13151207885E+03  0.41800000000E+01 0.  1.
        -11    1    1    2    0    0 -0.22833719614E+02 -0.26050839485E+02 -0.97909339779E+02  0.10385693913E+03  0.00000000000E+00 0. -1.
         11    1    1    2    0    0 -0.15043962825E+02  0.26018094833E+02  0.15266472751E+02  0.33709453666E+02  0.00000000000E+00 0.  1.
</event>
<event>
 7    1  0.2679104E-009  0.9780572E+02  0.7561462E-02  0.1284979E+00
         -3   -1    0    0    0  501 -0.00000000000E+00  0.00000000000E+00  0.10756874881E+03  0.10756874881E+03  0.00000000000E+00 0.  1.
          3   -1    0    0  501    0  0.00000000000E+00 -0.00000000000E+00 -0.11920643126E+03  0.11920643126E+03  0.00000000000E+00 0. -1.
         25    2    1    2    0    0  0.54542898232E+01  0.29984003886E+02  0.21067898324E+02  0.13046117744E+03  0.12508985855E+03 0.  0.
          5    1    3    3  502    0 -0.35443280802E+02 -0.20754246756E+02 -0.27039511181E+02  0.49351519503E+02  0.41800000000E+01 0.  1.
         -5    1    3    3    0  502  0.40897570626E+02  0.50738250642E+02  0.48107409505E+02  0.81109657936E+02  0.41800000000E+01 0.  1.
        -11    1    1    2    0    0  0.38170127822E+02 -0.43289445030E+01 -0.23027282846E+02  0.44787879764E+02  0.00000000000E+00 0.  1.
         11    1    1    2    0    0 -0.43624417645E+02 -0.25655059383E+02 -0.96782979248E+01  0.51526122866E+02  0.00000000000E+00 0. -1.
</event>
<event>
 7    1  0.2679104E-009  0.1721630E+03  0.7561462E-02  0.1175611E+00
         -1   -1    0    0    0  501 -0.00000000000E+00  0.00000000000E+00  0.42290219838E+03  0.42290219838E+03  0.00000000000E+00 0.  1.
          1   -1    0    0  501    0  0.00000000000E+00 -0.00000000000E+00 -0.73783835637E+02  0.73783835637E+02  0.00000000000E+00 0. -1.
         25    2    1    2    0    0 -0.15732587365E+02  0.13627482568E+03  0.22314556493E+03  0.29028224347E+03  0.12510593634E+03 0.  0.
          5    1    3    3  502    0  0.52493316551E+02  0.67889601186E+02  0.79038925789E+02  0.11674403806E+03  0.41800000000E+01 0.  1.
         -5    1    3    3    0  502 -0.68225903915E+02  0.68385224496E+02  0.14410663914E+03  0.17353820541E+03  0.41800000000E+01 0.  1.
        -11    1    1    2    0    0  0.51252730070E+02 -0.87016663115E+02  0.93067290806E+02  0.13733267134E+03  0.00000000000E+00 0.  1.
         11    1    1    2    0    0 -0.35520142705E+02 -0.49258162567E+02  0.32905507013E+02  0.69071119211E+02  0.00000000000E+00 0. -1.
</event>
<event>
 7    1  0.2679104E-009  0.9630327E+02  0.7561462E-02  0.1288267E+00
          2   -1    0    0  501    0  0.00000000000E+00  0.00000000000E+00  0.15701698128E+03  0.15701698128E+03  0.00000000000E+00 0. -1.
         -2   -1    0    0    0  501 -0.00000000000E+00 -0.00000000000E+00 -0.99271477450E+02  0.99271477450E+02  0.00000000000E+00 0.  1.
         25    2    1    2    0    0 -0.37431499317E+02 -0.40631717579E+02  0.61645725342E+02  0.14999919830E+03  0.12509000929E+03 0.  0.
          5    1    3    3  502    0 -0.28552636016E+02  0.28151201894E+02  0.69224383228E+02  0.80107620267E+02  0.41800000000E+01 0.  1.
         -5    1    3    3    0  502 -0.88788633007E+01 -0.68782919472E+02 -0.75786578857E+01  0.69891578033E+02  0.41800000000E+01 0.  1.
        -11    1    1    2    0    0 -0.17192614789E+02  0.63784327236E+01  0.28686473099E+02  0.34046793478E+02  0.00000000000E+00 0. -1.
         11    1    1    2    0    0  0.54624114105E+02  0.34253284855E+02 -0.32586694613E+02  0.72242466949E+02  0.00000000000E+00 0.  1.
</event>
<event>
 7    1  0.2679104E-009  0.1365755E+03  0.7561462E-02  0.1218013E+00
          1   -1    0    0  501    0  0.00000000000E+00  0.00000000000E+00  0.64212184040E+03  0.64212184040E+03  0.00000000000E+00 0. -1.
         -1   -1    0    0    0  501 -0.00000000000E+00 -0.00000000000E+00 -0.33417362122E+02  0.33417362122E+02  0.00000000000E+00 0.  1.
         25    2    1    2    0    0  0.22930024263E+02 -0.93390566185E+02  0.29911869454E+03  0.33818047854E+03  0.12508580567E+03 0.  0.
          5    1    3    3  502    0 -0.16224676710E+01  0.21451980904E+02  0.65179687513E+01  0.22864299742E+02  0.41800000000E+01 0.  1.
         -5    1    3    3    0  502  0.24552491934E+02 -0.11484254709E+03  0.29260072579E+03  0.31531617880E+03  0.41800000000E+01 0.  1.
        -11    1    1    2    0    0 -0.58719263661E+02  0.67989571633E+02  0.21866776781E+03  0.23640246711E+03  0.00000000000E+00 0. -1.
         11    1    1    2    0    0  0.35789239398E+02  0.25400994551E+02  0.90918015924E+02  0.10095625687E+03  0.00000000000E+00 0.  1.
</event>
<event>
 7    1  0.2679104E-009  0.7693394E+02  0.7561462E-02  0.1337985E+00
         -2   -1    0    0    0  501 -0.00000000000E+00  0.00000000000E+00  0.14675417651E+03  0.14675417651E+03  0.00000000000E+00 0.  1.
          2   -1    0    0  501    0  0.00000000000E+00 -0.00000000000E+00 -0.94197782159E+02  0.94197782159E+02  0.00000000000E+00 0. -1.
         25    2    1    2    0    0 -0.14331293442E+02 -0.37018571781E+02  0.54040804723E+02  0.14192188752E+03  0.12508258453E+03 0.  0.
          5    1    3    3  502    0 -0.31697356635E+02 -0.35424789266E+02  0.89927449764E+02  0.10180401138E+03  0.41800000000E+01 0.  1.
         -5    1    3    3    0  502  0.17366063193E+02 -0.15937825147E+01 -0.35886645042E+02  0.40117876138E+02  0.41800000000E+01 0.  1.
        -11    1    1    2    0    0 -0.19810023499E+02  0.48343740504E+02  0.21333150096E+02  0.56432770355E+02  0.00000000000E+00 0.  1.
         11    1    1    2    0    0  0.34141316942E+02 -0.11325168723E+02 -0.22817560469E+02  0.42597300793E+02  0.00000000000E+00 0. -1.
</event>
<event>
 7    1  0.2679104E-009  0.1931360E+03  0.7561462E-02  0.1155663E+00
         -2   -1    0    0    0  501 -0.00000000000E+00  0.00000000000E+00  0.14777829535E+03  0.14777829535E+03  0.00000000000E+00 0.  1.
          2   -1    0    0  501    0  0.00000000000E+00 -0.00000000000E+00 -0.28797032471E+03  0.28797032471E+03  0.00000000000E+00 0. -1.
         25    2    1    2    0    0 -0.13446625904E+03  0.10792915858E+03 -0.41126666663E+02  0.21695157630E+03  0.12508679249E+03 0.  0.
          5    1    3    3  502    0 -0.10478454160E+03  0.91567521356E+01  0.14952944389E+01  0.10527751220E+03  0.41800000000E+01 0. -1.
         -5    1    3    3    0  502 -0.29681717431E+02  0.98772406443E+02 -0.42621961102E+02  0.11167406410E+03  0.41800000000E+01 0. -1.
        -11    1    1    2    0    0  0.93396389456E+02 -0.98313700185E+02 -0.11068897677E+03  0.17504433377E+03  0.00000000000E+00 0.  1.
         11    1    1    2    0    0  0.41069869580E+02 -0.96154583939E+01  0.11623614079E+02  0.43752709992E+02  0.00000000000E+00 0. -1.
</event>
<event>
 7    1  0.2679104E-009  0.1290115E+03  0.7561462E-02  0.1228930E+00
         -2   -1    0    0    0  501 -0.00000000000E+00  0.00000000000E+00  0.51270819691E+03  0.51270819691E+03  0.00000000000E+00 0.  1.
          2   -1    0    0  501    0  0.00000000000E+00 -0.00000000000E+00 -0.36321996060E+02  0.36321996060E+02  0.00000000000E+00 0. -1.
         25    2    1    2    0    0  0.33999406126E+02  0.69186035860E+02  0.28516000868E+03  0.32078979113E+03  0.12508873796E+03 0.  0.
          5    1    3    3  502    0  0.79910991487E+02  0.27513169201E+02  0.15669316128E+03  0.17808133039E+03  0.41800000000E+01 0. -1.
         -5    1    3    3    0  502 -0.45911585360E+02  0.41672866659E+02  0.12846684740E+03  0.14270846074E+03  0.41800000000E+01 0. -1.
        -11    1    1    2    0    0  0.21467292752E+02 -0.46720828782E+02  0.38575779697E+02  0.64278855617E+02  0.00000000000E+00 0. -1.
         11    1    1    2    0    0 -0.55466698879E+02 -0.22465207079E+02  0.15265041247E+03  0.16396154623E+03  0.00000000000E+00 0.  1.
</event>
<event>
 7    1  0.2679104E-009  0.1034031E+03  0.7561462E-02  0.1273298E+00
          2   -1    0    0  501    0  0.00000000000E+00  0.00000000000E+00  0.11184247560E+04  0.11184247560E+04  0.00000000000E+00 0. -1.
         -2   -1    0    0    0  501 -0.00000000000E+00 -0.00000000000E+00 -0.14460319614E+02  0.14460319614E+02  0.00000000000E+00 0.  1.
         25    2    1    2    0    0 -0.40668478856E+02 -0.21372970486E+02  0.83100725052E+03  0.84162430610E+03  0.12509073971E+03 0.  0.
          5    1    3    3  502    0 -0.72162159405E+02 -0.35215128686E+01  0.27302629535E+03  0.28245461344E+03  0.41800000000E+01 0.  1.
         -5    1    3    3    0  502  0.31493680549E+02 -0.17851457617E+02  0.55798095517E+03  0.55916969265E+03  0.41800000000E+01 0.  1.
        -11    1    1    2    0    0 -0.70687037395E+01  0.44425041861E+02  0.16452319323E+03  0.17056210607E+03  0.00000000000E+00 0.  1.
         11    1    1    2    0    0  0.47737182595E+02 -0.23052071376E+02  0.10843399259E+03  0.12069866340E+03  0.00000000000E+00 0. -1.
</event>
<event>
 7    1  0.2679104E-009  0.5120597E+02  0.7561462E-02  0.1438943E+00
          2   -1    0    0  501    0  0.00000000000E+00  0.00000000000E+00  0.14007869550E+04  0.14007869550E+04  0.00000000000E+00 0. -1.
         -2   -1    0    0    0  501 -0.00000000000E+00 -0.00000000000E+00 -0.11017832752E+02  0.11017832752E+02  0.00000000000E+00 0.  1.
         25    2    1    2    0    0 -0.74894126093E+01 -0.59278980711E-01  0.11387239408E+04  0.11455986272E+04  0.12509159263E+03 0.  0.
          5    1    3    3  502    0 -0.11711022241E+02 -0.32591076695E+01  0.11387780243E+04  0.11388505744E+04  0.41800000000E+01 0. -1.
         -5    1    3    3    0  502  0.42216096322E+01  0.31998286888E+01 -0.54083516041E-01  0.67480527970E+01  0.41800000000E+01 0. -1.
        -11    1    1    2    0    0 -0.29243673974E+02 -0.24892286384E+02  0.70510586990E+02  0.80290480547E+02  0.00000000000E+00 0.  1.
         11    1    1    2    0    0  0.36733086583E+02  0.24951565364E+02  0.18053459447E+03  0.18591567998E+03  0.00000000000E+00 0. -1.
</event>
<event>
 7    1  0.2679104E-009  0.1291994E+03  0.7561462E-02  0.1228649E+00
          1   -1    0    0  501    0  0.00000000000E+00  0.00000000000E+00  0.20258785125E+03  0.20258785125E+03  0.00000000000E+00 0. -1.
         -1   -1    0    0    0  501 -0.00000000000E+00 -0.00000000000E+00 -0.12721839009E+03  0.12721839009E+03  0.00000000000E+00 0.  1.
         25    2    1    2    0    0  0.91056182944E+02 -0.36971611904E+02 -0.25850033294E+02  0.16116464923E+03  0.12509073267E+03 0.  0.
          5    1    3    3  502    0 -0.34423294461E+01 -0.31449801051E+02  0.35926131052E+02  0.48053084298E+02  0.41800000000E+01 0. -1.
         -5    1    3    3    0  502  0.94498512390E+02 -0.55218108527E+01 -0.61776164347E+02  0.11311156493E+03  0.41800000000E+01 0. -1.
        -11    1    1    2    0    0 -0.21851477345E+02 -0.28873555414E+02  0.12596700279E+02  0.38338572252E+02  0.00000000000E+00 0. -1.
         11    1    1    2    0    0 -0.69204705598E+02  0.65845167318E+02  0.88622794180E+02  0.13030301986E+03  0.00000000000E+00 0.  1.
</event>
<event>
 7    1  0.2679104E-009  0.2129677E+03  0.7561462E-02  0.1139237E+00
         -1   -1    0    0    0  501 -0.00000000000E+00  0.00000000000E+00  0.46445099287E+03  0.46445099287E+03  0.00000000000E+00 0.  1.
          1   -1    0    0  501    0  0.00000000000E+00 -0.00000000000E+00 -0.12062604530E+03  0.12062604530E+03  0.00000000000E+00 0. -1.
         25    2    1    2    0    0  0.19504873323E+03  0.45968746217E+02  0.97913354469E+02  0.25571906568E+03  0.12509229236E+03 0.  0.
          5    1    3    3  502    0  0.11626013891E+03 -0.25310757672E+02  0.13232486586E+02  0.11978992217E+03  0.41800000000E+01 0. -1.
         -5    1    3    3    0  502  0.78788594322E+02  0.71279503889E+02  0.84680867883E+02  0.13592914351E+03  0.41800000000E+01 0. -1.
        -11    1    1    2    0    0 -0.15078423181E+03 -0.32100780437E+02  0.23605428427E+03  0.28193610941E+03  0.00000000000E+00 0.  1.
         11    1    1    2    0    0 -0.44264501418E+02 -0.13867965781E+02  0.98573088272E+01  0.47421863080E+02  0.00000000000E+00 0. -1.
</event>
<event>
 7    1  0.2679104E-009  0.1232466E+03  0.7561462E-02  0.1237835E+00
         -2   -1    0    0    0  501 -0.00000000000E+00  0.00000000000E+00  0.15746083959E+03  0.15746083959E+03  0.00000000000E+00 0.  1.
          2   -1    0    0  501    0  0.00000000000E+00 -0.00000000000E+00 -0.17336671247E+03  0.17336671247E+03  0.00000000000E+00 0. -1.
         25    2    1    2    0    0 -0.82570720647E+02 -0.64343023206E+02  0.58901477702E+02  0.17342162269E+03  0.12509087336E+03 0.  0.
          5    1    3    3  502    0 -0.35483514934E+02 -0.12522698380E+02  0.89285455236E+02  0.96980733775E+02  0.41800000000E+01 0. -1.
         -5    1    3    3    0  502 -0.47087205713E+02 -0.51820324827E+02 -0.30383977534E+02  0.76440888913E+02  0.41800000000E+01 0. -1.
        -11    1    1    2    0    0  0.31797270362E+02  0.79400958124E+02 -0.46720803524E+02  0.97459797021E+02  0.00000000000E+00 0.  1.
         11    1    1    2    0    0  0.50773450285E+02 -0.15057934918E+02 -0.28086547063E+02  0.59946132351E+02  0.00000000000E+00 0. -1.
</event>
<event>
 7    1  0.2679104E-009  0.1950767E+03  0.7561462E-02  0.1153961E+00
          2   -1    0    0  501    0  0.00000000000E+00  0.00000000000E+00  0.18701992834E+04  0.18701992834E+04  0.00000000000E+00 0. -1.
         -2   -1    0    0    0  501 -0.00000000000E+00 -0.00000000000E+00 -0.23424174106E+02  0.23424174106E+02  0.00000000000E+00 0.  1.
         25    2    1    2    0    0 -0.10914688473E+03 -0.13771032897E+03  0.11011882631E+04  0.11221122624E+04  0.12507262451E+03 0.  0.
          5    1    3    3  502    0  0.89736800157E+00 -0.80434939094E+02  0.61833844532E+03  0.62356273947E+03  0.41800000000E+01 0.  1.
         -5    1    3    3    0  502 -0.11004425273E+03 -0.57275389880E+02  0.48284981781E+03  0.49854952292E+03  0.41800000000E+01 0.  1.
        -11    1    1    2    0    0 -0.74448524186E+01  0.11058007863E+02  0.11803148651E+02  0.17805046574E+02  0.00000000000E+00 0.  1.
         11    1    1    2    0    0  0.11659173715E+03  0.12665232111E+03  0.73378369756E+03  0.75370614858E+03  0.00000000000E+00 0. -1.
</event>
<event>
 7    1  0.2679104E-009  0.2312353E+03  0.7561462E-02  0.1125773E+00
          1   -1    0    0  501    0  0.00000000000E+00  0.00000000000E+00  0.26695157558E+03  0.26695157558E+03  0.00000000000E+00 0. -1.
         -1   -1    0    0    0  501 -0.00000000000E+00 -0.00000000000E+00 -0.28186675184E+03  0.28186675184E+03  0.00000000000E+00 0.  1.
         25    2    1    2    0    0  0.22401116703E+03 -0.51505654274E+01  0.10714612661E+03  0.27809222230E+03  0.12508980925E+03 0.  0.
          5    1    3    3  502    0  0.34771893481E+02 -0.26530914200E+02  0.72060637065E+02  0.84398944299E+02  0.41800000000E+01 0. -1.
         -5    1    3    3    0  502  0.18923927354E+03  0.21380348773E+02  0.35085489543E+02  0.19369327800E+03  0.41800000000E+01 0. -1.
        -11    1    1    2    0    0 -0.14294319464E+03 -0.17142346775E+02 -0.11868384808E+03  0.18658100853E+03  0.00000000000E+00 0. -1.
         11    1    1    2    0    0 -0.81067972381E+02  0.22292912203E+02 -0.33774547982E+01  0.84145096597E+02  0.00000000000E+00 0.  1.
</event>
<event>
 7    1  0.2679104E-009  0.1483762E+03  0.7561462E-02  0.1202483E+00
         -2   -1    0    0    0  501 -0.00000000000E+00  0.00000000000E+00  0.64817483283E+02  0.64817483283E+02  0.00000000000E+00 0.  1.
          2   -1    0    0  501    0  0.00000000000E+00 -0.00000000000E+00 -0.54033731243E+03  0.54033731243E+03  0.00000000000E+00 0. -1.
         25    2    1    2    0    0 -0.99568460479E+02  0.69139225074E+02 -0.10120535121E+03  0.20145363557E+03  0.12508770286E+03 0.  0.
          5    1    3    3  502    0 -0.59054264931E+02  0.83904117330E+02 -0.11669681786E+03  0.15544428845E+03  0.41800000000E+01 0. -1.
         -5    1    3    3    0  502 -0.40514195548E+02 -0.14764892256E+02  0.15491466648E+02  0.46009347128E+02  0.41800000000E+01 0. -1.
        -11    1    1    2    0    0  0.95139772730E+02 -0.14873163210E+02 -0.25398669470E+03  0.27162847499E+03  0.00000000000E+00 0. -1.
         11    1    1    2    0    0  0.44286877490E+01 -0.54266061863E+02 -0.12032778322E+03  0.13207268514E+03  0.00000000000E+00 0.  1.
</event>
<event>
 7    1  0.2679104E-009  0.1408875E+03  0.7561462E-02  0.1212140E+00
          1   -1    0    0  501    0  0.00000000000E+00  0.00000000000E+00  0.11850570313E+03  0.11850570313E+03  0.00000000000E+00 0. -1.
         -1   -1    0    0    0  501 -0.00000000000E+00 -0.00000000000E+00 -0.22128388153E+03  0.22128388153E+03  0.00000000000E+00 0.  1.
         25    2    1    2    0    0 -0.98678810641E+02 -0.17485412556E+02 -0.12000520895E+03  0.20022858602E+03  0.12508792572E+03 0.  0.
          5    1    3    3  502    0 -0.12459602677E+03 -0.10538780197E+02 -0.11958427274E+03  0.17306965783E+03  0.41800000000E+01 0.  1.
         -5    1    3    3    0  502  0.25917216130E+02 -0.69466323591E+01 -0.42093621904E+00  0.27158928188E+02  0.41800000000E+01 0.  1.
        -11    1    1    2    0    0  0.82696659560E+02  0.47598762809E+02 -0.99887385299E+01  0.95938285480E+02  0.00000000000E+00 0. -1.
         11    1    1    2    0    0  0.15982151081E+02 -0.30113350253E+02  0.27215769081E+02  0.43622713159E+02  0.00000000000E+00 0.  1.
</event>
<event>
 7    1  0.2679104E-009  0.1353269E+03  0.7561462E-02  0.1219759E+00
          2   -1    0    0  501    0  0.00000000000E+00  0.00000000000E+00  0.54165066738E+02  0.54165066738E+02  0.00000000000E+00 0. -1.
         -2   -1    0    0    0  501 -0.00000000000E+00 -0.00000000000E+00 -0.38037625495E+03  0.38037625495E+03  0.00000000000E+00 0.  1.
         25    2    1    2    0    0 -0.69936377592E+02 -0.48422729779E+02 -0.11810578401E+03  0.19191517895E+03  0.12508637826E+03 0.  0.
          5    1    3    3  502    0  0.16339143417E+02 -0.61620549168E+02 -0.49242065372E+02  0.80661720100E+02  0.41800000000E+01 0.  1.
         -5    1    3    3    0  502 -0.86275521009E+02  0.13197819388E+02 -0.68863718638E+02  0.11125345885E+03  0.41800000000E+01 0.  1.
        -11    1    1    2    0    0  0.32229458022E+02  0.69198672753E+02 -0.96752733961E+02  0.12324076357E+03  0.00000000000E+00 0.  1.
         11    1    1    2    0    0  0.37706919570E+02 -0.20775942974E+02 -0.11135267024E+03  0.11938537917E+03  0.00000000000E+00 0. -1.
</event>
<event>
 7    1  0.2724208E-009  0.7688268E+02  0.7561462E-02  0.1338138E+00
          3   -1    0    0  501    0  0.00000000000E+00  0.00000000000E+00  0.59998660089E+02  0.59998660089E+02  0.00000000000E+00 0. -1.
         -3   -1    0    0    0  501 -0.00000000000E+00 -0.00000000000E+00 -0.29358579021E+03  0.29358579021E+03  0.00000000000E+00 0.  1.
         25    2    1    2    0    0 -0.46055913113E+02  0.29640703257E+02 -0.19808673796E+03  0.24058612092E+03  0.12507440745E+03 0.  0.
          5    1    3    3  502    0 -0.45921386312E+01  0.73984692841E+01  0.17443903716E+02  0.19939590312E+02  0.41800000000E+01 0.  1.
         -5    1    3    3    0  502 -0.41463774482E+02  0.22242233972E+02 -0.21553064168E+03  0.22064653061E+03  0.41800000000E+01 0.  1.
        -11    1    1    2    0    0 -0.11626343690E+02  0.18423694935E+02 -0.30856480507E+02  0.37772037169E+02  0.00000000000E+00 0.  1.
         11    1    1    2    0    0  0.57682256803E+02 -0.48064398192E+02 -0.46439116454E+01  0.75226292204E+02  0.00000000000E+00 0. -1.
</event>
<event>
 7    1  0.2679104E-009  0.1045865E+03  0.7561462E-02  0.1270937E+00
          2   -1    0    0  501    0  0.00000000000E+00  0.00000000000E+00  0.73798458509E+03  0.73798458509E+03  0.00000000000E+00 0. -1.
         -2   -1    0    0    0  501 -0.00000000000E+00 -0.00000000000E+00 -0.17374250653E+02  0.17374250653E+02  0.00000000000E+00 0.  1.
         25    2    1    2    0    0  0.30204494811E+02  0.29085037211E+02  0.41497250052E+03  0.43543668132E+03  0.12507868064E+03 0.  0.
          5    1    3    3  502    0  0.65773351166E+02 -0.10641653444E+02  0.31560394301E+03  0.32258750713E+03  0.41800000000E+01 0.  1.
         -5    1    3    3    0  502 -0.35568856355E+02  0.39726690655E+02  0.99368557510E+02  0.11284917419E+03  0.41800000000E+01 0.  1.
        -11    1    1    2    0    0 -0.53499239078E+02 -0.24688630069E+01  0.12724015925E+03  0.13805188152E+03  0.00000000000E+00 0. -1.
         11    1    1    2    0    0  0.23294744267E+02 -0.26616174204E+02  0.17839767467E+03  0.18187027291E+03  0.00000000000E+00 0.  1.
</event>
<event>
 7    1  0.2679104E-009  0.7731961E+02  0.7561462E-02  0.1336835E+00
         -1   -1    0    0    0  501 -0.00000000000E+00  0.00000000000E+00  0.23540084744E+03  0.23540084744E+03  0.00000000000E+00 0.  1.
          1   -1    0    0  501    0  0.00000000000E+00 -0.00000000000E+00 -0.10070120085E+03  0.10070120085E+03  0.00000000000E+00 0. -1.
         25    2    1    2    0    0  0.73034568779E+02 -0.12070764060E+01  0.15797834260E+03  0.21434070968E+03  0.12509707362E+03 0.  0.
          5    1    3    3  502    0  0.71963693216E+02 -0.18048484446E+01  0.17894464469E+03  0.19292664119E+03  0.41800000000E+01 0.  1.
         -5    1    3    3    0  502  0.10708755632E+01  0.59777203861E+00 -0.20966302092E+02  0.21414068490E+02  0.41800000000E+01 0.  1.
        -11    1    1    2    0    0 -0.25572085602E+02 -0.12926113234E+02  0.35033017546E+02  0.45258460908E+02  0.00000000000E+00 0.  1.
         11    1    1    2    0    0 -0.47462483177E+02  0.14133189640E+02 -0.58311713551E+02  0.76502877698E+02  0.00000000000E+00 0. -1.
</event>
<event>
 7    1  0.2679104E-009  0.1063653E+03  0.7561462E-02  0.1267453E+00
          1   -1    0    0  501    0  0.00000000000E+00  0.00000000000E+00  0.88443732849E+03  0.88443732849E+03  0.00000000000E+00 0. -1.
         -1   -1    0    0    0  501 -0.00000000000E+00 -0.00000000000E+00 -0.13736209119E+02  0.13736209119E+02  0.00000000000E+00 0.  1.
         25    2    1    2    0    0 -0.20898460401E+02 -0.98720628448E+01  0.54247365193E+03  0.55718991715E+03  0.12509491383E+03 0.  0.
          5    1    3    3  502    0  0.49701765667E+02 -0.70070680112E+01  0.14590050077E+03  0.15434958062E+03  0.41800000000E+01 0. -1.
         -5    1    3    3    0  502 -0.70600226068E+02 -0.28649948336E+01  0.39657315116E+03  0.40284033653E+03  0.41800000000E+01 0. -1.
        -11    1    1    2    0    0  0.31319696705E+02 -0.34153300314E+02  0.14349702945E+03  0.15079379558E+03  0.00000000000E+00 0.  1.
         11    1    1    2    0    0 -0.10421236304E+02  0.44025363158E+02  0.18473043800E+03  0.19018982489E+03  0.00000000000E+00 0. -1.
</event>
<event>
 7    1  0.2679104E-009  0.1227292E+03  0.7561462E-02  0.1238661E+00
         -1   -1    0    0    0  501 -0.00000000000E+00  0.00000000000E+00  0.61616494737E+02  0.61616494737E+02  0.00000000000E+00 0.  1.
          1   -1    0    0  501    0  0.00000000000E+00 -0.00000000000E+00 -0.39534363818E+03  0.39534363818E+03  0.00000000000E+00 0. -1.
         25    2    1    2    0    0 -0.67595176344E+02  0.59201600436E+02 -0.27785390162E+03  0.31768524043E+03  0.12508870446E+03 0.  0.
          5    1    3    3  502    0 -0.61145843184E+02  0.94644208319E+02 -0.24051099220E+03  0.26563010009E+03  0.41800000000E+01 0. -1.
         -5    1    3    3    0  502 -0.64493331604E+01 -0.35442607883E+02 -0.37342909419E+02  0.52055140338E+02  0.41800000000E+01 0. -1.
        -11    1    1    2    0    0  0.69629722481E+02 -0.46862367062E+02 -0.77534507673E+02  0.11426276550E+03  0.00000000000E+00 0. -1.
         11    1    1    2    0    0 -0.20345461370E+01 -0.12339233375E+02  0.21661265848E+02  0.25012126986E+02  0.00000000000E+00 0.  1.
</event>
<event>
 7    1  0.2679104E-009  0.1496929E+03  0.7561462E-02  0.1200851E+00
          1   -1    0    0  501    0  0.00000000000E+00  0.00000000000E+00  0.93648312768E+03  0.93648312768E+03  0.00000000000E+00 0. -1.
         -1   -1    0    0    0  501 -0.00000000000E+00 -0.00000000000E+00 -0.28151598246E+02  0.28151598246E+02  0.00000000000E+00 0.  1.
         25    2    1    2    0    0 -0.10429161307E+03 -0.57339773473E+02  0.52726244298E+03  0.55481279103E+03  0.12508780568E+03 0.  0.
          5    1    3    3  502    0  0.14450969419E+02 -0.24431119287E+02  0.26364611924E+02  0.38965051888E+02  0.41800000000E+01 0. -1.
         -5    1    3    3    0  502 -0.11874258249E+03 -0.32908654186E+02  0.50089783106E+03  0.51584773914E+03  0.41800000000E+01 0. -1.
        -11    1    1    2    0    0 -0.72562646834E+01  0.32268956098E+02  0.53762550759E+02  0.63121713926E+02  0.00000000000E+00 0.  1.
         11    1    1    2    0    0  0.11154787776E+03  0.25070817375E+02  0.32730653569E+03  0.34670022097E+03  0.00000000000E+00 0. -1.
</event>
<event>
 7    1  0.2679104E-009  0.1332633E+03  0.7561462E-02  0.1222692E+00
         -1   -1    0    0    0  501 -0.00000000000E+00  0.00000000000E+00  0.22877014916E+03  0.22877014916E+03  0.00000000000E+00 0.  1.
          1   -1    0    0  501    0  0.00000000000E+00 -0.00000000000E+00 -0.10956728391E+03  0.10956728391E+03  0.00000000000E+00 0. -1.
         25    2    1    2    0    0 -0.11427940860E+02  0.10474320496E+03  0.10754769883E+03  0.19574113038E+03  0.12508535398E+03 0.  0.
          5    1    3    3  502    0  0.21552847951E+02  0.80545922482E+01 -0.21041088967E+02  0.31457932799E+02  0.41800000000E+01 0.  1.
         -5    1    3    3    0  502 -0.32980788811E+02  0.96688612715E+02  0.12858878780E+03  0.16428319758E+03  0.41800000000E+01 0.  1.
        -11    1    1    2    0    0  0.24601289691E+02  0.91475191867E+01  0.95394886174E+01  0.27926732799E+02  0.00000000000E+00 0. -1.
         11    1    1    2    0    0 -0.13173348831E+02 -0.11389072415E+03  0.21156777973E+01  0.11466956989E+03  0.00000000000E+00 0.  1.
</event>
<event>
 7    1  0.2679104E-009  0.1738195E+03  0.7561462E-02  0.1173922E+00
         -2   -1    0    0    0  501 -0.00000000000E+00  0.00000000000E+00  0.26147220445E+03  0.26147220445E+03  0.00000000000E+00 0.  1.
          2   -1    0    0  501    0  0.00000000000E+00 -0.00000000000E+00 -0.13593096303E+03  0.13593096303E+03  0.00000000000E+00 0. -1.
         25    2    1    2    0    0  0.60378714139E+02 -0.13427886605E+03  0.49968055342E+02  0.19955275889E+03  0.12509234204E+03 0.  0.
          5    1    3    3  502    0  0.49626691462E+02  0.36877476200E+01  0.33487361511E+02  0.60127229845E+02  0.41800000000E+01 0.  1.
         -5    1    3    3    0  502  0.10752022677E+02 -0.13796661367E+03  0.16480693831E+02  0.13942552905E+03  0.41800000000E+01 0.  1.
        -11    1    1    2    0    0 -0.35389486863E+02  0.12892746985E+03  0.18054366263E+02  0.13490985288E+03  0.00000000000E+00 0. -1.
         11    1    1    2    0    0 -0.24989227276E+02  0.53513962031E+01  0.57518819811E+02  0.62940555714E+02  0.00000000000E+00 0.  1.
</event>
<event>
 7    1  0.2679104E-009  0.8832902E+02  0.7561462E-02  0.1306949E+00
          2   -1    0    0  501    0  0.00000000000E+00  0.00000000000E+00  0.45628536589E+03  0.45628536589E+03  0.00000000000E+00 0. -1.
         -2   -1    0    0    0  501 -0.00000000000E+00 -0.00000000000E+00 -0.34467729833E+02  0.34467729833E+02  0.00000000000E+00 0.  1.
         25    2    1    2    0    0 -0.56474742573E+01  0.20050299781E+02  0.35614509515E+03  0.37805007044E+03  0.12509443823E+03 0.  0.
          5    1    3    3  502    0 -0.24655634450E+02 -0.38387306275E+02  0.59589067893E+02  0.75165251317E+02  0.41800000000E+01 0. -1.
         -5    1    3    3    0  502  0.19008160193E+02  0.58437606056E+02  0.29655602725E+03  0.30288481912E+03  0.41800000000E+01 0. -1.
        -11    1    1    2    0    0 -0.28567545754E+02 -0.20280904911E+02 -0.38215823800E+01  0.35242364653E+02  0.00000000000E+00 0.  1.
         11    1    1    2    0    0  0.34215020011E+02  0.23060513028E+00  0.69494123286E+02  0.77460660625E+02  0.00000000000E+00 0. -1.
</event>
<event>
 7    1  0.2679104E-009  0.1998123E+03  0.7561462E-02  0.1149897E+00
         -2   -1    0    0    0  501 -0.00000000000E+00  0.00000000000E+00  0.80849378514E+02  0.80849378514E+02  0.00000000000E+00 0.  1.
          2   -1    0    0  501    0  0.00000000000E+00 -0.00000000000E+00 -0.50998390294E+03  0.50998390294E+03  0.00000000000E+00 0. -1.
         25    2    1    2    0    0 -0.12739258672E+03 -0.11094703465E+03 -0.18516286325E+03  0.28012601669E+03  0.12508870314E+03 0.  0.
          5    1    3    3  502    0 -0.14835186518E+03 -0.71872762810E+02 -0.13559570567E+03  0.21348919816E+03  0.41800000000E+01 0.  1.
         -5    1    3    3    0  502  0.20959278462E+02 -0.39074271835E+02 -0.49567157583E+02  0.66636818531E+02  0.41800000000E+01 0.  1.
        -11    1    1    2    0    0  0.90162366700E+02  0.12167878825E+03 -0.17359559801E+03  0.23037016198E+03  0.00000000000E+00 0.  1.
         11    1    1    2    0    0  0.37230220015E+02 -0.10731753606E+02 -0.70376063165E+02  0.80337102789E+02  0.00000000000E+00 0. -1.
</event>
<event>
 7    1  0.2679104E-009  0.9796749E+02  0.7561462E-02  0.1284629E+00
          2   -1    0    0  501    0  0.00000000000E+00  0.00000000000E+00  0.18840884682E+03  0.18840884682E+03  0.00000000000E+00 0. -1.
         -2   -1    0    0    0  501 -0.00000000000E+00 -0.00000000000E+00 -0.71887913468E+02  0.71887913468E+02  0.00000000000E+00 0.  1.
         25    2    1    2    0    0  0.28293080719E+02 -0.33187054669E+02  0.60392014811E+02  0.14558417831E+03  0.12508268669E+03 0.  0.
          5    1    3    3  502    0  0.63973305768E+02 -0.17401297981E+02 -0.78229556464E+01  0.66888414971E+02  0.41800000000E+01 0.  1.
         -5    1    3    3    0  502 -0.35680225048E+02 -0.15785756687E+02  0.68214970458E+02  0.78695763344E+02  0.41800000000E+01 0.  1.
        -11    1    1    2    0    0 -0.34578855745E+02 -0.17801145210E+02  0.36865506667E+00  0.38893623411E+02  0.00000000000E+00 0.  1.
         11    1    1    2    0    0  0.62857750262E+01  0.50988199879E+02  0.55760263471E+02  0.75818958558E+02  0.00000000000E+00 0. -1.
</event>
<event>
 7    1  0.2679104E-009  0.1215621E+03  0.7561462E-02  0.1240542E+00
         -2   -1    0    0    0  501 -0.00000000000E+00  0.00000000000E+00  0.19389785621E+02  0.19389785621E+02  0.00000000000E+00 0. -1.
          2   -1    0    0  501    0  0.00000000000E+00 -0.00000000000E+00 -0.12570635442E+04  0.12570635442E+04  0.00000000000E+00 0.  1.
         25    2    1    2    0    0 -0.71327491335E+02 -0.56894339399E+02 -0.93598109177E+03  0.94870028496E+03  0.12508816750E+03 0.  0.
          5    1    3    3  502    0 -0.91641174906E+02 -0.21213752564E+02 -0.39174515978E+03  0.40290181291E+03  0.41800000000E+01 0.  1.
         -5    1    3    3    0  502  0.20313683570E+02 -0.35680586835E+02 -0.54423593199E+03  0.54579847205E+03  0.41800000000E+01 0.  1.
        -11    1    1    2    0    0  0.61924263562E+01  0.39904702506E+02 -0.21088457926E+03  0.21471617823E+03  0.00000000000E+00 0.  1.
         11    1    1    2    0    0  0.65135064979E+02  0.16989636893E+02 -0.90808087506E+02  0.11303686659E+03  0.00000000000E+00 0. -1.
</event>
<event>
 7    1  0.2679104E-009  0.8701615E+02  0.7561462E-02  0.1310243E+00
         -2   -1    0    0    0  501 -0.00000000000E+00  0.00000000000E+00  0.56331976018E+02  0.56331976018E+02  0.00000000000E+00 0.  1.
          2   -1    0    0  501    0  0.00000000000E+00 -0.00000000000E+00 -0.22938866289E+03  0.22938866289E+03  0.00000000000E+00 0. -1.
         25    2    1    2    0    0 -0.64473558420E+00 -0.19221125070E+02 -0.78794365770E+02  0.14907909300E+03  0.12508459761E+03 0.  0.
          5    1    3    3  502    0  0.10738716251E+02  0.28264439244E+02  0.21578278006E+02  0.37380383013E+02  0.41800000000E+01 0. -1.
         -5    1    3    3    0  502 -0.11383451836E+02 -0.47485564314E+02 -0.10037264378E+03  0.11169870999E+03  0.41800000000E+01 0. -1.
        -11    1    1    2    0    0  0.24310456456E+02  0.50045739939E+02 -0.34860038737E+02  0.65656657544E+02  0.00000000000E+00 0. -1.
         11    1    1    2    0    0 -0.23665720872E+02 -0.30824614869E+02 -0.59402282369E+02  0.70984888369E+02  0.00000000000E+00 0.  1.
</event>
<event>
 7    1  0.2679104E-009  0.9845434E+02  0.7561462E-02  0.1283580E+00
          1   -1    0    0  501    0  0.00000000000E+00  0.00000000000E+00  0.36299986835E+03  0.36299986835E+03  0.00000000000E+00 0. -1.
         -1   -1    0    0    0  501 -0.00000000000E+00 -0.00000000000E+00 -0.48934900157E+02  0.48934900157E+02  0.00000000000E+00 0.  1.
         25    2    1    2    0    0 -0.32004532936E+02  0.70992397823E+02  0.20401552277E+03  0.25166488893E+03  0.12509465261E+03 0.  0.
          5    1    3    3  502    0 -0.29389291973E+02  0.41609868589E+02  0.21417286760E+03  0.22018765012E+03  0.41800000000E+01 0. -1.
         -5    1    3    3    0  502 -0.26152409625E+01  0.29382529234E+02 -0.10157344829E+02  0.31477238815E+02  0.41800000000E+01 0. -1.
        -11    1    1    2    0    0 -0.14941573690E+01  0.19474667814E+02  0.24487127980E+02  0.31322749391E+02  0.00000000000E+00 0.  1.
         11    1    1    2    0    0  0.33498690305E+02 -0.90467065637E+02  0.85562317443E+02  0.12894713019E+03  0.00000000000E+00 0. -1.
</event>
<event>
 7    1  0.2679104E-009  0.8508238E+02  0.7561462E-02  0.1315217E+00
          2   -1    0    0  501    0  0.00000000000E+00  0.00000000000E+00  0.59449335516E+02  0.59449335516E+02  0.00000000000E+00 0. -1.
         -2   -1    0    0    0  501 -0.00000000000E+00 -0.00000000000E+00 -0.29060624643E+03  0.29060624643E+03  0.00000000000E+00 0.  1.
         25    2    1    2    0    0 -0.45595677783E+02  0.72312297748E+01 -0.20348967499E+03  0.24328408508E+03  0.12509133346E+03 0.  0.
          5    1    3    3  502    0  0.12406140366E+02  0.23976954830E+02 -0.17369787381E+03  0.17583296178E+03  0.41800000000E+01 0. -1.
         -5    1    3    3    0  502 -0.58001818149E+02 -0.16745725055E+02 -0.29791801174E+02  0.67451123292E+02  0.41800000000E+01 0. -1.
        -11    1    1    2    0    0  0.30309943435E+02 -0.37622191178E+02 -0.47201459158E+02  0.67543317114E+02  0.00000000000E+00 0.  1.
         11    1    1    2    0    0  0.15285734348E+02  0.30390961403E+02  0.19534223234E+02  0.39228179755E+02  0.00000000000E+00 0. -1.
</event>
<event>
 7    1  0.2679104E-009  0.9118056E+02  0.7561462E-02  0.1300018E+00
         -2   -1    0    0    0  501 -0.00000000000E+00  0.00000000000E+00  0.21429565249E+03  0.21429565249E+03  0.00000000000E+00 0. -1.
          2   -1    0    0  501    0  0.00000000000E+00 -0.00000000000E+00 -0.70895216094E+02  0.70895216094E+02  0.00000000000E+00 0.  1.
         25    2    1    2    0    0 -0.41479268171E+02  0.28675960740E+02  0.51626763420E+02  0.14441179246E+03  0.12508638090E+03 0.  0.
          5    1    3    3  502    0 -0.81913851190E+02  0.40688381598E+00  0.16397508672E+02  0.83644457449E+02  0.41800000000E+01 0.  1.
         -5    1    3    3    0  502  0.40434583019E+02  0.28269076924E+02  0.35229254748E+02  0.60767335010E+02  0.41800000000E+01 0.  1.
        -11    1    1    2    0    0  0.23257026806E+02 -0.12213211173E+02 -0.15654586205E+02  0.30579697387E+02  0.00000000000E+00 0.  1.
         11    1    1    2    0    0  0.18222241365E+02 -0.16462749567E+02  0.10742825918E+03  0.11019937874E+03  0.00000000000E+00 0. -1.
</event>
<event>
 7    1  0.2679104E-009  0.1158495E+03  0.7561462E-02  0.1250106E+00
         -1   -1    0    0    0  501 -0.00000000000E+00  0.00000000000E+00  0.15056873696E+03  0.15056873696E+03  0.00000000000E+00 0.  1.
          1   -1    0    0  501    0  0.00000000000E+00 -0.00000000000E+00 -0.10316888504E+03  0.10316888504E+03  0.00000000000E+00 0. -1.
         25    2    1    2    0    0 -0.40970184989E+02 -0.47922819403E+02  0.30948125771E+02  0.14345967713E+03  0.12509092611E+03 0.  0.
          5    1    3    3  502    0  0.16483872358E+02  0.34645287047E+02  0.15562648567E+02  0.41613488112E+02  0.41800000000E+01 0.  1.
         -5    1    3    3    0  502 -0.57454057347E+02 -0.82568106450E+02  0.15385477205E+02  0.10184618902E+03  0.41800000000E+01 0.  1.
        -11    1    1    2    0    0  0.18404301007E+02 -0.16157322231E+02 -0.21386596548E+02  0.32514056485E+02  0.00000000000E+00 0.  1.
         11    1    1    2    0    0  0.22565883982E+02  0.64080141634E+02  0.37838322700E+02  0.77763888383E+02  0.00000000000E+00 0. -1.
</event>
<event>
 7    1  0.2679104E-009  0.1268463E+03  0.7561462E-02  0.1232212E+00
         -2   -1    0    0    0  501 -0.00000000000E+00  0.00000000000E+00  0.40432000770E+03  0.40432000770E+03  0.00000000000E+00 0.  1.
          2   -1    0    0  501    0  0.00000000000E+00 -0.00000000000E+00 -0.46142010719E+02  0.46142010719E+02  0.00000000000E+00 0. -1.
         25    2    1    2    0    0  0.55350777459E+02 -0.58063592243E+02  0.21982109049E+03  0.26533956719E+03  0.12509470325E+03 0.  0.
          5    1    3    3  502    0 -0.25728507957E+01 -0.80932442807E+02  0.15746066326E+03  0.17711017118E+03  0.41800000000E+01 0.  1.
         -5    1    3    3    0  502  0.57923628255E+02  0.22868850564E+02  0.62360427226E+02  0.88229396009E+02  0.41800000000E+01 0.  1.
        -11    1    1    2    0    0 -0.72858192781E+02  0.33903787834E+02  0.57155471221E+02  0.98613036539E+02  0.00000000000E+00 0.  1.
         11    1    1    2    0    0  0.17507415323E+02  0.24159804409E+02  0.81201435269E+02  0.86509414691E+02  0.00000000000E+00 0. -1.
</event>
<event>
 7    1  0.2679104E-009  0.1091657E+03  0.7561462E-02  0.1262123E+00
          4   -1    0    0  501    0  0.00000000000E+00  0.00000000000E+00  0.33337267206E+03  0.33337267206E+03  0.00000000000E+00 0. -1.
         -4   -1    0    0    0  501 -0.00000000000E+00 -0.00000000000E+00 -0.39957960307E+02  0.39957960307E+02  0.00000000000E+00 0.  1.
         25    2    1    2    0    0 -0.13459105359E+02 -0.12879106978E+02  0.22275174077E+03  0.25614913364E+03  0.12508805592E+03 0.  0.
          5    1    3    3  502    0 -0.61813953589E+02 -0.37108312503E+02  0.12639705388E+03  0.14557362174E+03  0.41800000000E+01 0.  1.
         -5    1    3    3    0  502  0.48354848230E+02  0.24229205526E+02  0.96354686888E+02  0.11057551190E+03  0.41800000000E+01 0.  1.
        -11    1    1    2    0    0 -0.51083887749E+01  0.50053173279E+02  0.27798054502E+02  0.57481715574E+02  0.00000000000E+00 0.  1.
         11    1    1    2    0    0  0.18567494134E+02 -0.37174066301E+02  0.42864916484E+02  0.59699783157E+02  0.00000000000E+00 0. -1.
</event>
<event>
 7    1  0.2679104E-009  0.6139380E+02  0.7561462E-02  0.1392074E+00
         -3   -1    0    0    0  501 -0.00000000000E+00  0.00000000000E+00  0.35542414626E+03  0.35542414626E+03  0.00000000000E+00 0.  1.
          3   -1    0    0  501    0  0.00000000000E+00 -0.00000000000E+00 -0.45344763655E+02  0.45344763655E+02  0.00000000000E+00 0. -1.
         25    2    1    2    0    0  0.87271933890E+01  0.10515551263E+02  0.27241051284E+03  0.30006944798E+03  0.12508974931E+03 0.  0.
          5    1    3    3  502    0 -0.19135761581E+02  0.12866204956E+01 -0.56552534704E+01  0.20427605230E+02  0.41800000000E+01 0.  1.
         -5    1    3    3    0  502  0.27862954970E+02  0.92289307677E+01  0.27806576631E+03  0.27964184275E+03  0.41800000000E+01 0.  1.
        -11    1    1    2    0    0 -0.20968253261E+02  0.26921105647E+02  0.49003399882E+02  0.59713874217E+02  0.00000000000E+00 0.  1.
         11    1    1    2    0    0  0.12241059872E+02 -0.37436656910E+02 -0.11334530118E+02  0.40985587716E+02  0.00000000000E+00 0. -1.
</event>
<event>
 7    1  0.2679104E-009  0.1504641E+03  0.7561462E-02  0.1199904E+00
         -2   -1    0    0    0  501 -0.00000000000E+00  0.00000000000E+00  0.14715590829E+03  0.14715590829E+03  0.00000000000E+00 0.  1.
          2   -1    0    0  501    0  0.00000000000E+00 -0.00000000000E+00 -0.15503935037E+03  0.15503935037E+03  0.00000000000E+00 0. -1.
         25    2    1    2    0    0 -0.92302741237E+02 -0.46801441552E+02  0.23999146088E+01  0.16236482656E+03  0.12508559607E+03 0.  0.
          5    1    3    3  502    0 -0.11956561988E+03 -0.15636734707E+02  0.39229529190E+01  0.12071995232E+03  0.41800000000E+01 0.  1.
         -5    1    3    3    0  502  0.27262878643E+02 -0.31164706846E+02 -0.15230383102E+01  0.41644874239E+02  0.41800000000E+01 0.  1.
        -11    1    1    2    0    0 -0.14555292166E+02  0.25991600553E+02  0.39043684614E+01  0.30044365901E+02  0.00000000000E+00 0.  1.
         11    1    1    2    0    0  0.10685803340E+03  0.20809840999E+02 -0.14187725154E+02  0.10978606619E+03  0.00000000000E+00 0. -1.
</event>
<event>
 7    1  0.2679104E-009  0.1415087E+03  0.7561462E-02  0.1211313E+00
          2   -1    0    0  501    0  0.00000000000E+00  0.00000000000E+00  0.37694150747E+02  0.37694150747E+02  0.00000000000E+00 0. -1.
         -2   -1    0    0    0  501 -0.00000000000E+00 -0.00000000000E+00 -0.60856511726E+03  0.60856511726E+03  0.00000000000E+00 0.  1.
         25    2    1    2    0    0 -0.68924794351E+02 -0.75015305615E+02 -0.36072064843E+03  0.39515213675E+03  0.12509157293E+03 0.  0.
          5    1    3    3  502    0 -0.50606320705E+00  0.27348633374E+02 -0.24092856794E+02  0.36689807793E+02  0.41800000000E+01 0.  1.
         -5    1    3    3    0  502 -0.68418731144E+02 -0.10236393899E+03 -0.33662779164E+03  0.35846232895E+03  0.41800000000E+01 0.  1.
        -11    1    1    2    0    0  0.44269548781E+02 -0.84956081964E+01 -0.10706908420E+03  0.11617124042E+03  0.00000000000E+00 0.  1.
         11    1    1    2    0    0  0.24655245571E+02  0.83510913812E+02 -0.10308123388E+03  0.13493589084E+03  0.00000000000E+00 0. -1.
</event>
<event>
 7    1  0.2679104E-009  0.9047948E+02  0.7561462E-02  0.1301695E+00
          1   -1    0    0  501    0  0.00000000000E+00  0.00000000000E+00  0.68022701358E+02  0.68022701358E+02  0.00000000000E+00 0. -1.
         -1   -1    0    0    0  501 -0.00000000000E+00 -0.00000000000E+00 -0.33944000326E+03  0.33944000326E+03  0.00000000000E+00 0.  1.
         25    2    1    2    0    0  0.48744132602E+02  0.68561475633E+01 -0.17394648366E+03  0.21983328811E+03  0.12508516364E+03 0.  0.
          5    1    3    3  502    0  0.49364591101E+02 -0.34803123848E+02 -0.25676093362E+02  0.65763625618E+02  0.41800000000E+01 0.  1.
         -5    1    3    3    0  502 -0.62045849852E+00  0.41659271411E+02 -0.14827039030E+03  0.15406966250E+03  0.41800000000E+01 0.  1.
        -11    1    1    2    0    0 -0.51553669758E+02  0.17180833668E+02  0.27104120714E+02  0.60725573449E+02  0.00000000000E+00 0. -1.
         11    1    1    2    0    0  0.28095371557E+01 -0.24036981231E+02 -0.12457493896E+03  0.12690384305E+03  0.00000000000E+00 0.  1.
</event>
<event>
 7    1  0.2679104E-009  0.1565985E+03  0.7561462E-02  0.1192591E+00
          2   -1    0    0  501    0  0.00000000000E+00  0.00000000000E+00  0.46521268983E+02  0.46521268983E+02  0.00000000000E+00 0. -1.
         -2   -1    0    0    0  501 -0.00000000000E+00 -0.00000000000E+00 -0.70865326015E+03  0.70865326015E+03  0.00000000000E+00 0.  1.
         25    2    1    2    0    0 -0.11966399006E+03  0.26592472448E+02 -0.18686968269E+03  0.25611495836E+03  0.12509182018E+03 0.  0.
          5    1    3    3  502    0 -0.12339322747E+03  0.61241827968E+02 -0.13106129283E+03  0.19018671078E+03  0.41800000000E+01 0.  1.
         -5    1    3    3    0  502  0.37292374124E+01 -0.34649355520E+02 -0.55808389868E+02  0.65928247582E+02  0.41800000000E+01 0.  1.
        -11    1    1    2    0    0  0.43078882194E+02 -0.44173998272E+02 -0.11690908203E+03  0.13219253260E+03  0.00000000000E+00 0. -1.
         11    1    1    2    0    0  0.76585107862E+02  0.17581525824E+02 -0.35835322645E+03  0.36686703818E+03  0.00000000000E+00 0.  1.
</event>
<event>
 7    1  0.3321600E-009  0.1055385E+03  0.7561462E-02  0.1269062E+00
          1   -1    0    0  501    0  0.00000000000E+00  0.00000000000E+00  0.15352299460E+03  0.15352299460E+03  0.00000000000E+00 0. -1.
         -1   -1    0    0    0  501 -0.00000000000E+00 -0.00000000000E+00 -0.12178273874E+03  0.12178273874E+03  0.00000000000E+00 0.  1.
         25    2    1    2    0    0 -0.28944056291E+02  0.72103410456E+02 -0.10955417323E+02  0.14766231020E+03  0.12508987366E+03 0.  0.
          5    1    3    3  502    0 -0.14125865126E+02  0.98468831604E+02 -0.38298465757E+02  0.10667659416E+03  0.41800000000E+01 0. -1.
         -5    1    3    3    0  502 -0.14818191165E+02 -0.26365421147E+02  0.27343048434E+02  0.40985716041E+02  0.41800000000E+01 0. -1.
        -11    1    1    2    0    0  0.31196607682E+02 -0.51195928774E+02  0.70652515664E+02  0.92660830039E+02  0.00000000000E+00 0. -1.
         11    1    1    2    0    0 -0.22525513913E+01 -0.20907481682E+02 -0.27956842478E+02  0.34982593091E+02  0.00000000000E+00 0.  1.
</event>
<event>
 7    1  0.2679104E-009  0.1069872E+03  0.7561462E-02  0.1266253E+00
          2   -1    0    0  501    0  0.00000000000E+00  0.00000000000E+00  0.33669113125E+03  0.33669113125E+03  0.00000000000E+00 0. -1.
         -2   -1    0    0    0  501 -0.00000000000E+00 -0.00000000000E+00 -0.74039133081E+02  0.74039133081E+02  0.00000000000E+00 0.  1.
         25    2    1    2    0    0  0.76738486567E+02  0.11667406992E+02  0.24018804350E+03  0.28171440880E+03  0.12509111949E+03 0.  0.
          5    1    3    3  502    0 -0.28599061919E+02  0.10192462294E+02  0.10999979953E+03  0.11418940812E+03  0.41800000000E+01 0.  1.
         -5    1    3    3    0  502  0.10533754849E+03  0.14749446983E+01  0.13018824397E+03  0.16752500067E+03  0.41800000000E+01 0.  1.
        -11    1    1    2    0    0 -0.25575164778E+02 -0.77910757931E+00 -0.40036276081E+02  0.47514202766E+02  0.00000000000E+00 0.  1.
         11    1    1    2    0    0 -0.51163321789E+02 -0.10888299413E+02  0.62500230752E+02  0.81501652773E+02  0.00000000000E+00 0. -1.
</event>
<event>
 7    1  0.2679104E-009  0.1870115E+03  0.7561462E-02  0.1161185E+00
         -2   -1    0    0    0  501 -0.00000000000E+00  0.00000000000E+00  0.27514801829E+03  0.27514801829E+03  0.00000000000E+00 0.  1.
          2   -1    0    0  501    0  0.00000000000E+00 -0.00000000000E+00 -0.16508350353E+03  0.16508350353E+03  0.00000000000E+00 0. -1.
         25    2    1    2    0    0 -0.20047856766E+01 -0.18096362370E+03  0.88401937181E+02  0.23709605328E+03  0.12509110166E+03 0.  0.
          5    1    3    3  502    0 -0.12676277148E+02 -0.44152238835E+02  0.88507289759E+02  0.99805415369E+02  0.41800000000E+01 0.  1.
         -5    1    3    3    0  502  0.10671491471E+02 -0.13681138487E+03 -0.10535257799E+00  0.13729063791E+03  0.41800000000E+01 0.  1.
        -11    1    1    2    0    0  0.28559070752E+02  0.56104483768E+02  0.39384589328E+02  0.74259541459E+02  0.00000000000E+00 0.  1.
         11    1    1    2    0    0 -0.26554285076E+02  0.12485913993E+03 -0.17722011755E+02  0.12887592708E+03  0.00000000000E+00 0. -1.
</event>
<event>
 7    1  0.2679104E-009  0.1424488E+03  0.7561462E-02  0.1210071E+00
          2   -1    0    0  501    0  0.00000000000E+00  0.00000000000E+00  0.10603969058E+03  0.10603969058E+03  0.00000000000E+00 0. -1.
         -2   -1    0    0    0  501 -0.00000000000E+00 -0.00000000000E+00 -0.33142178259E+03  0.33142178259E+03  0.00000000000E+00 0.  1.
         25    2    1    2    0    0  0.56147819524E+02  0.12785659661E+03 -0.18922070024E+03  0.26636793290E+03  0.12509002897E+03 0.  0.
          5    1    3    3  502    0  0.58198199728E+02  0.94726483876E+02 -0.47877449152E+02  0.12111919640E+03  0.41800000000E+01 0.  1.
         -5    1    3    3    0  502 -0.20503802035E+01  0.33130112732E+02 -0.14134325109E+03  0.14524873650E+03  0.41800000000E+01 0.  1.
        -11    1    1    2    0    0 -0.13068789435E+02 -0.44180899657E+02 -0.58401685710E+02  0.74387512699E+02  0.00000000000E+00 0.  1.
         11    1    1    2    0    0 -0.43079030090E+02 -0.83675696951E+02  0.22240293942E+02  0.96706027570E+02  0.00000000000E+00 0. -1.
</event>
<event>
 7    1  0.2679104E-009  0.1511673E+03  0.7561462E-02  0.1199046E+00
          1   -1    0    0  501    0  0.00000000000E+00  0.00000000000E+00  0.12817094175E+03  0.12817094175E+03  0.00000000000E+00 0. -1.
         -1   -1    0    0    0  501 -0.00000000000E+00 -0.00000000000E+00 -0.19948722790E+03  0.19948722790E+03  0.00000000000E+00 0.  1.
         25    2    1    2    0    0  0.63138546007E+02 -0.99468282329E+02 -0.48824474055E+02  0.17863809528E+03  0.12508926668E+03 0.  0.
          5    1    3    3  502    0  0.31378462152E+01 -0.11001605042E+03 -0.24022547511E+02  0.11272946650E+03  0.41800000000E+01 0.  1.
         -5    1    3    3    0  502  0.60000699791E+02  0.10547768092E+02 -0.24801926544E+02  0.65908628779E+02  0.41800000000E+01 0.  1.
        -11    1    1    2    0    0 -0.94285728486E+01  0.68472146997E+02 -0.45641160943E+02  0.82827824265E+02  0.00000000000E+00 0.  1.
         11    1    1    2    0    0 -0.53709973158E+02  0.30996135332E+02  0.23149348841E+02  0.66192250105E+02  0.00000000000E+00 0. -1.
</event>
<event>
 7    1  0.2679104E-009  0.6493097E+02  0.7561462E-02  0.1378231E+00
          1   -1    0    0  501    0  0.00000000000E+00  0.00000000000E+00  0.10895848404E+03  0.10895848404E+03  0.00000000000E+00 0. -1.
         -1   -1    0    0    0  501 -0.00000000000E+00 -0.00000000000E+00 -0.12129752791E+03  0.12129752791E+03  0.00000000000E+00 0.  1.
         25    2    1    2    0    0 -0.22622073872E+02  0.13506152651E+02  0.23438639919E+02  0.12996955438E+03  0.12509412792E+03 0.  0.
          5    1    3    3  502    0 -0.23854838194E+02 -0.19267943994E+02  0.67866219195E+02  0.74589564141E+02  0.41800000000E+01 0.  1.
         -5    1    3    3    0  502  0.12327643222E+01  0.32774096644E+02 -0.44427579276E+02  0.55379990240E+02  0.41800000000E+01 0.  1.
        -11    1    1    2    0    0  0.36726627216E+02  0.10332695434E+02  0.16152585252E+02  0.41430855071E+02  0.00000000000E+00 0. -1.
         11    1    1    2    0    0 -0.14104553344E+02 -0.23838848085E+02 -0.51930269041E+02  0.58855602501E+02  0.00000000000E+00 0.  1.
</event>
<event>
 7    1  0.2679104E-009  0.1428193E+03  0.7561462E-02  0.1209585E+00
         -1   -1    0    0    0  501 -0.00000000000E+00  0.00000000000E+00  0.19797154621E+03  0.19797154621E+03  0.00000000000E+00 0.  1.
          1   -1    0    0  501    0  0.00000000000E+00 -0.00000000000E+00 -0.11895880081E+03  0.11895880081E+03  0.00000000000E+00 0. -1.
         25    2    1    2    0    0 -0.32483561835E+02 -0.93314346448E+02  0.83170013608E+02  0.17979960674E+03  0.12509155998E+03 0.  0.
          5    1    3    3  502    0  0.45630705463E+02 -0.46258610008E+02  0.52029610498E+02  0.83346103985E+02  0.41800000000E+01 0.  1.
         -5    1    3    3    0  502 -0.78114267298E+02 -0.47055736440E+02  0.31140403109E+02  0.96453502753E+02  0.41800000000E+01 0.  1.
        -11    1    1    2    0    0  0.41449531230E+02  0.64918893633E+01  0.20124855267E+02  0.46531903746E+02  0.00000000000E+00 0.  1.
         11    1    1    2    0    0 -0.89659693949E+01  0.86822457085E+02 -0.24282123473E+02  0.90598836537E+02  0.00000000000E+00 0. -1.
</event>
<event>
 7    1  0.2679104E-009  0.1539643E+03  0.7561462E-02  0.1195685E+00
         -1   -1    0    0    0  501 -0.00000000000E+00  0.00000000000E+00  0.35853516196E+02  0.35853516196E+02  0.00000000000E+00 0.  1.
          1   -1    0    0  501    0  0.00000000000E+00 -0.00000000000E+00 -0.69356072174E+03  0.69356072174E+03  0.00000000000E+00 0. -1.
         25    2    1    2    0    0  0.12864558346E+02  0.11144476787E+03 -0.40426538115E+03  0.43779467974E+03  0.12509296568E+03 0.  0.
          5    1    3    3  502    0  0.32429582803E+02  0.13147974872E+03 -0.36540286762E+03  0.38971185539E+03  0.41800000000E+01 0. -1.
         -5    1    3    3    0  502 -0.19565024457E+02 -0.20034980851E+02 -0.38862513533E+02  0.48082824353E+02  0.41800000000E+01 0. -1.
        -11    1    1    2    0    0  0.21037408895E+00 -0.12517230538E+03 -0.21586150025E+03  0.24952823003E+03  0.00000000000E+00 0.  1.
         11    1    1    2    0    0 -0.13074932435E+02  0.13727537511E+02 -0.37580324141E+02  0.42091328166E+02  0.00000000000E+00 0. -1.
</event>
<event>
 7    1  0.2679104E-009  0.1069644E+03  0.7561462E-02  0.1266297E+00
         -2   -1    0    0    0  501 -0.00000000000E+00  0.00000000000E+00  0.47074787894E+02  0.47074787894E+02  0.00000000000E+00 0.  1.
          2   -1    0    0  501    0  0.00000000000E+00 -0.00000000000E+00 -0.26420842967E+03  0.26420842967E+03  0.00000000000E+00 0. -1.
         25    2    1    2    0    0  0.98589222773E+01 -0.89747346878E+01 -0.11005313364E+03  0.16714388460E+03  0.12509053411E+03 0.  0.
          5    1    3    3  502    0  0.30446454587E+02  0.49528598285E+02 -0.77505678029E+02  0.96977683885E+02  0.41800000000E+01 0. -1.
         -5    1    3    3    0  502 -0.20587532309E+02 -0.58503332973E+02 -0.32547455611E+02  0.70166200712E+02  0.41800000000E+01 0. -1.
        -11    1    1    2    0    0  0.30877222528E+01 -0.41376000658E+02 -0.30147176105E+02  0.51287032340E+02  0.00000000000E+00 0.  1.
         11    1    1    2    0    0 -0.12946644530E+02  0.50350735345E+02 -0.76933332031E+02  0.92852300627E+02  0.00000000000E+00 0. -1.
</event>
<event>
 7    1  0.2679104E-009  0.1238556E+03  0.7561462E-02  0.1236869E+00
          1   -1    0    0  501    0  0.00000000000E+00  0.00000000000E+00  0.19306275717E+02  0.19306275717E+02  0.00000000000E+00 0. -1.
         -1   -1    0    0    0  501 -0.00000000000E+00 -0.00000000000E+00 -0.14766601298E+04  0.14766601298E+04  0.00000000000E+00 0.  1.
         25    2    1    2    0    0  0.90509860816E+01  0.10491796732E+03 -0.10995186683E+04  0.11116107069E+04  0.12508941468E+03 0.  0.
          5    1    3    3  502    0 -0.15386566253E+02  0.49134893880E+02 -0.93003909062E+03  0.93147257969E+03  0.41800000000E+01 0. -1.
         -5    1    3    3    0  502  0.24437552335E+02  0.55783073444E+02 -0.16947957765E+03  0.18013812725E+03  0.41800000000E+01 0. -1.
        -11    1    1    2    0    0 -0.42968150725E+02 -0.86089732486E+02 -0.29707307062E+03  0.31226609374E+03  0.00000000000E+00 0.  1.
         11    1    1    2    0    0  0.33917164643E+02 -0.18828234838E+02 -0.60762115227E+02  0.72089604878E+02  0.00000000000E+00 0. -1.
</event>
<event>
 7    1  0.2679104E-009  0.8851620E+02  0.7561462E-02  0.1306485E+00
         -1   -1    0    0    0  501 -0.00000000000E+00  0.00000000000E+00  0.94875050671E+02  0.94875050671E+02  0.00000000000E+00 0.  1.
          1   -1    0    0  501    0  0.00000000000E+00 -0.00000000000E+00 -0.17757191212E+03  0.17757191212E+03  0.00000000000E+00 0. -1.
         25    2    1    2    0    0  0.51534517757E+02 -0.13737459579E+02 -0.96347974824E+02  0.16665838536E+03  0.12509021081E+03 0.  0.
          5    1    3    3  502    0  0.68698458592E+01  0.43746683832E+02  0.16486965866E+01  0.44510198032E+02  0.41800000000E+01 0. -1.
         -5    1    3    3    0  502  0.44664671898E+02 -0.57484143410E+02 -0.97996671411E+02  0.12214818733E+03  0.41800000000E+01 0. -1.
        -11    1    1    2    0    0 -0.28385378804E+02 -0.62348342543E+01  0.50280994216E+02  0.58075651244E+02  0.00000000000E+00 0.  1.
         11    1    1    2    0    0 -0.23149138953E+02  0.19972293833E+02 -0.36629880838E+02  0.47712926188E+02  0.00000000000E+00 0. -1.
</event>
<event>
 7    1  0.2679104E-009  0.1136258E+03  0.7561462E-02  0.1253999E+00
          2   -1    0    0  501    0  0.00000000000E+00  0.00000000000E+00  0.17087125194E+03  0.17087125194E+03  0.00000000000E+00 0. -1.
         -2   -1    0    0    0  501 -0.00000000000E+00 -0.00000000000E+00 -0.85230457907E+02  0.85230457907E+02  0.00000000000E+00 0.  1.
         25    2    1    2    0    0 -0.19008166342E+02 -0.42323788314E+02  0.20008587442E+02  0.13490733757E+03  0.12508809981E+03 0.  0.
          5    1    3    3  502    0 -0.11967162583E+02  0.43002766438E+02 -0.62297483533E+01  0.45262932585E+02  0.41800000000E+01 0. -1.
         -5    1    3    3    0  502 -0.70410037586E+01 -0.85326554753E+02  0.26238335796E+02  0.89644404985E+02  0.41800000000E+01 0. -1.
        -11    1    1    2    0    0  0.46099036349E+02  0.50525693591E+02  0.27528532520E+02  0.73727789658E+02  0.00000000000E+00 0.  1.
         11    1    1    2    0    0 -0.27090870007E+02 -0.82019052773E+01  0.38103674075E+02  0.47466582623E+02  0.00000000000E+00 0. -1.
</event>
<event>
 7    1  0.2679104E-009  0.1063930E+03  0.7561462E-02  0.1267399E+00
          2   -1    0    0  501    0  0.00000000000E+00  0.00000000000E+00  0.42587669608E+03  0.42587669608E+03  0.00000000000E+00 0. -1.
         -2   -1    0    0    0  501 -0.00000000000E+00 -0.00000000000E+00 -0.42036006060E+02  0.42036006060E+02  0.00000000000E+00 0.  1.
         25    2    1    2    0    0 -0.38364966583E+02  0.66857243161E+02  0.20320330376E+03  0.25076201018E+03  0.12509293131E+03 0.  0.
          5    1    3    3  502    0  0.23247468446E+02 -0.45901948182E+00 -0.43251940731E+01  0.24017393526E+02  0.41800000000E+01 0. -1.
         -5    1    3    3    0  502 -0.61612435028E+02  0.67316262643E+02  0.20752849784E+03  0.22674461665E+03  0.41800000000E+01 0. -1.
        -11    1    1    2    0    0  0.54015037015E+02 -0.41939630442E+02  0.53987325455E+02  0.87127424701E+02  0.00000000000E+00 0.  1.
         11    1    1    2    0    0 -0.15650070432E+02 -0.24917612719E+02  0.12665006080E+03  0.13002326726E+03  0.00000000000E+00 0. -1.
</event>
<event>
 7    1  0.2679104E-009  0.1127115E+03  0.7561462E-02  0.1255629E+00
         -1   -1    0    0    0  501 -0.00000000000E+00  0.00000000000E+00  0.54393870435E+02  0.54393870435E+02  0.00000000000E+00 0.  1.
          1   -1    0    0  501    0  0.00000000000E+00 -0.00000000000E+00 -0.25361931461E+03  0.25361931461E+03  0.00000000000E+00 0. -1.
         25    2    1    2    0    0  0.23199736815E+02  0.13467005764E+02 -0.70109152397E+02  0.14588853794E+03  0.12509430131E+03 0.  0.
          5    1    3    3  502    0 -0.50773745137E+02 -0.60213318826E+01 -0.29573196155E+02  0.59213815649E+02  0.41800000000E+01 0.  1.
         -5    1    3    3    0  502  0.73973481952E+02  0.19488337647E+02 -0.40535956242E+02  0.86674722294E+02  0.41800000000E+01 0.  1.
        -11    1    1    2    0    0  0.29053827609E+02 -0.30911995437E+02 -0.64662247471E+02  0.77336166239E+02  0.00000000000E+00 0.  1.
         11    1    1    2    0    0 -0.52253564424E+02  0.17444989673E+02 -0.64454044308E+02  0.84788480865E+02  0.00000000000E+00 0. -1.
</event>
<event>
 7    1  0.2679104E-009  0.1145717E+03  0.7561462E-02  0.1252331E+00
         -2   -1    0    0    0  501 -0.00000000000E+00  0.00000000000E+00  0.67724114680E+02  0.67724114680E+02  0.00000000000E+00 0.  1.
          2   -1    0    0  501    0  0.00000000000E+00 -0.00000000000E+00 -0.22775235583E+03  0.22775235583E+03  0.00000000000E+00 0. -1.
         25    2    1    2    0    0 -0.56518989819E+02 -0.19200321665E+02 -0.75423356976E+02  0.15779333488E+03  0.12508798980E+03 0.  0.
          5    1    3    3  502    0 -0.90704487199E+02  0.21950118889E+01 -0.74112457587E+02  0.11722734683E+03  0.41800000000E+01 0. -1.
         -5    1    3    3    0  502  0.34185497380E+02 -0.21395333554E+02 -0.13108993891E+01  0.40565988047E+02  0.41800000000E+01 0. -1.
        -11    1    1    2    0    0  0.59462295498E+02  0.43259202187E+02 -0.86307958903E+02  0.11338512658E+03  0.00000000000E+00 0. -1.
         11    1    1    2    0    0 -0.29433056790E+01 -0.24058880522E+02  0.17030747319E+01  0.24298009051E+02  0.00000000000E+00 0.  1.
</event>
<event>
 7    1  0.2679104E-009  0.1050849E+03  0.7561462E-02  0.1269952E+00
          2   -1    0    0  501    0  0.00000000000E+00  0.00000000000E+00  0.20744477110E+03  0.20744477110E+03  0.00000000000E+00 0. -1.
         -2   -1    0    0    0  501 -0.00000000000E+00 -0.00000000000E+00 -0.59193369104E+02  0.59193369104E+02  0.00000000000E+00 0.  1.
         25    2    1    2    0    0 -0.62137314299E+00  0.24309639923E+02  0.48525025881E+02  0.13636000745E+03  0.12509208127E+03 0.  0.
          5    1    3    3  502    0  0.24177640787E+02  0.70587808658E+02  0.29992514109E+02  0.80524656769E+02  0.41800000000E+01 0. -1.
         -5    1    3    3    0  502 -0.24799013930E+02 -0.46278168735E+02  0.18532511772E+02  0.55835350683E+02  0.41800000000E+01 0. -1.
        -11    1    1    2    0    0 -0.85576730686E+01 -0.52463448245E+02  0.53788871447E+02  0.75623342042E+02  0.00000000000E+00 0.  1.
         11    1    1    2    0    0  0.91790462116E+01  0.28153808322E+02  0.45937504667E+02  0.54654790708E+02  0.00000000000E+00 0. -1.
</event>
<event>
 7    1  0.2679104E-009  0.2206113E+03  0.7561462E-02  0.1133428E+00
         -1   -1    0    0    0  501 -0.00000000000E+00  0.00000000000E+00  0.87556446260E+02  0.87556446260E+02  0.00000000000E+00 0.  1.
          1   -1    0    0  501    0  0.00000000000E+00 -0.00000000000E+00 -0.68755847604E+03  0.68755847604E+03  0.00000000000E+00 0. -1.
         25    2    1    2    0    0 -0.21310449627E+02 -0.19608208316E+03 -0.46321362487E+03  0.51876424984E+03  0.12508863276E+03 0.  0.
          5    1    3    3  502    0  0.23308431137E+02 -0.17333821998E+03 -0.40897096952E+03  0.44481923045E+03  0.41800000000E+01 0. -1.
         -5    1    3    3    0  502 -0.44618880765E+02 -0.22743863180E+02 -0.54242655350E+02  0.73945019389E+02  0.41800000000E+01 0. -1.
        -11    1    1    2    0    0 -0.34485990367E+02  0.84428631959E+02 -0.47051823257E+02  0.10262237328E+03  0.00000000000E+00 0.  1.
         11    1    1    2    0    0  0.55796439994E+02  0.11165345121E+03 -0.89736581660E+02  0.15372829918E+03  0.00000000000E+00 0. -1.
</event>
<event>
 7    1  0.2679104E-009  0.8903120E+02  0.7561462E-02  0.1305215E+00
         -1   -1    0    0    0  501 -0.00000000000E+00  0.00000000000E+00  0.51317780460E+02  0.51317780460E+02  0.00000000000E+00 0.  1.
          1   -1    0    0  501    0  0.00000000000E+00 -0.00000000000E+00 -0.37227088037E+03  0.37227088037E+03  0.00000000000E+00 0. -1.
         25    2    1    2    0    0 -0.15707792501E+02 -0.11943495531E+02 -0.48784280795E+02  0.13570893551E+03  0.12509047643E+03 0.  0.
          5    1    3    3  502    0 -0.47552326714E+02 -0.21581980978E+02  0.22435541127E+02  0.56989749820E+02  0.41800000000E+01 0.  1.
         -5    1    3    3    0  502  0.31844534214E+02  0.96384854476E+01 -0.71219821922E+02  0.78719185690E+02  0.41800000000E+01 0.  1.
        -11    1    1    2    0    0  0.18439445748E+02 -0.37940004638E+02 -0.15187536170E+03  0.15762481595E+03  0.00000000000E+00 0. -1.
         11    1    1    2    0    0 -0.27316532474E+01  0.49883500169E+02 -0.12029345742E+03  0.13025490937E+03  0.00000000000E+00 0.  1.
</event>
<event>
 7    1  0.2679104E-009  0.8277145E+02  0.7561462E-02  0.1321365E+00
         -2   -1    0    0    0  501 -0.00000000000E+00  0.00000000000E+00  0.22823776445E+02  0.22823776445E+02  0.00000000000E+00 0.  1.
          2   -1    0    0  501    0  0.00000000000E+00 -0.00000000000E+00 -0.65379162977E+03  0.65379162977E+03  0.00000000000E+00 0. -1.
         25    2    1    2    0    0  0.49501781643E+02 -0.12684746374E+02 -0.29647896412E+03  0.32582521611E+03  0.12510382132E+03 0.  0.
          5    1    3    3  502    0  0.35338917903E+02  0.69693237524E+01 -0.90854414232E+01  0.37382191455E+02  0.41800000000E+01 0.  1.
         -5    1    3    3    0  502  0.14162863741E+02 -0.19654070126E+02 -0.28739352270E+03  0.28844302465E+03  0.41800000000E+01 0.  1.
        -11    1    1    2    0    0 -0.70422792224E+02  0.30951872195E+02 -0.22303719783E+03  0.23593003131E+03  0.00000000000E+00 0.  1.
         11    1    1    2    0    0  0.20921010581E+02 -0.18267125821E+02 -0.11145169137E+03  0.11486015879E+03  0.00000000000E+00 0. -1.
</event>
<event>
 7    1  0.2679104E-009  0.1159734E+03  0.7561462E-02  0.1249891E+00
          1   -1    0    0  501    0  0.00000000000E+00  0.00000000000E+00  0.76011743700E+03  0.76011743700E+03  0.00000000000E+00 0. -1.
         -1   -1    0    0    0  501 -0.00000000000E+00 -0.00000000000E+00 -0.25610691692E+02  0.25610691692E+02  0.00000000000E+00 0.  1.
         25    2    1    2    0    0 -0.79866623455E+02 -0.12649868127E+02  0.30221405031E+03  0.33692403627E+03  0.12508308162E+03 0.  0.
          5    1    3    3  502    0 -0.41099888292E+02  0.36223955638E+02  0.41601678474E+02  0.68916963307E+02  0.41800000000E+01 0. -1.
         -5    1    3    3    0  502 -0.38766735164E+02 -0.48873823764E+02  0.26061237184E+03  0.26800707296E+03  0.41800000000E+01 0. -1.
        -11    1    1    2    0    0  0.22641658340E+02 -0.33864416601E+02  0.92045089491E+02  0.10065655420E+03  0.00000000000E+00 0.  1.
         11    1    1    2    0    0  0.57224965116E+02  0.46514284728E+02  0.34024760551E+03  0.34814753822E+03  0.00000000000E+00 0. -1.
</event>
<event>
 7    1  0.2679104E-009  0.1062268E+03  0.7561462E-02  0.1267721E+00
         -2   -1    0    0    0  501 -0.00000000000E+00  0.00000000000E+00  0.15263703263E+03  0.15263703263E+03  0.00000000000E+00 0.  1.
          2   -1    0    0  501    0  0.00000000000E+00 -0.00000000000E+00 -0.90024325832E+02  0.90024325832E+02  0.00000000000E+00 0. -1.
         25    2    1    2    0    0 -0.24708465710E+02 -0.48647034165E+01  0.79841542613E+02  0.15052364972E+03  0.12509405893E+03 0.  0.
          5    1    3    3  502    0 -0.61262764678E+02 -0.38755644812E+02  0.67180712466E+02  0.98923439428E+02  0.41800000000E+01 0. -1.
         -5    1    3    3    0  502  0.36554298968E+02  0.33890941396E+02  0.12660830146E+02  0.51600210288E+02  0.41800000000E+01 0. -1.
        -11    1    1    2    0    0 -0.31424054511E+02 -0.75740590014E+01 -0.76623503785E+00  0.32333027817E+02  0.00000000000E+00 0.  1.
         11    1    1    2    0    0  0.56132520221E+02  0.12438762418E+02 -0.16462600776E+02  0.59804680930E+02  0.00000000000E+00 0. -1.
</event>
<event>
 7    1  0.2679104E-009  0.1063334E+03  0.7561462E-02  0.1267514E+00
         -1   -1    0    0    0  501 -0.00000000000E+00  0.00000000000E+00  0.62572734161E+02  0.62572734161E+02  0.00000000000E+00 0.  1.
          1   -1    0    0  501    0  0.00000000000E+00 -0.00000000000E+00 -0.39659853292E+03  0.39659853292E+03  0.00000000000E+00 0. -1.
         25    2    1    2    0    0 -0.86358485618E+01 -0.90356779819E+02 -0.27466281325E+03  0.31516018859E+03  0.12508939984E+03 0.  0.
          5    1    3    3  502    0  0.14838840744E+02  0.10145800746E+02 -0.15908538655E+03  0.16015230589E+03  0.41800000000E+01 0. -1.
         -5    1    3    3    0  502 -0.23474689306E+02 -0.10050258056E+03 -0.11557742670E+03  0.15500788271E+03  0.41800000000E+01 0. -1.
        -11    1    1    2    0    0  0.12742666628E+01  0.40676040896E+02  0.23590186813E+02  0.47038930392E+02  0.00000000000E+00 0.  1.
         11    1    1    2    0    0  0.73615818989E+01  0.49680738922E+02 -0.82953172318E+02  0.96972148092E+02  0.00000000000E+00 0. -1.
</event>
<event>
 7    1  0.2781916E-009  0.1116111E+03  0.7561462E-02  0.1257615E+00
          2   -1    0    0  501    0  0.00000000000E+00  0.00000000000E+00  0.45428262407E+03  0.45428262407E+03  0.00000000000E+00 0. -1.
         -2   -1    0    0    0  501 -0.00000000000E+00 -0.00000000000E+00 -0.58520368035E+02  0.58520368035E+02  0.00000000000E+00 0.  1.
         25    2    1    2    0    0  0.10350373658E+03 -0.30382270719E+02  0.29836341272E+03  0.34103358225E+03  0.12508825809E+03 0.  0.
          5    1    3    3  502    0  0.10142883425E+03 -0.35849896859E+02  0.11500010329E+03  0.15752942480E+03  0.41800000000E+01 0.  1.
         -5    1    3    3    0  502  0.20749023335E+01  0.54676261402E+01  0.18336330943E+03  0.18350415744E+03  0.41800000000E+01 0.  1.
        -11    1    1    2    0    0 -0.49175008664E+02  0.19872463493E+02  0.10329912680E+03  0.11611979108E+03  0.00000000000E+00 0. -1.
         11    1    1    2    0    0 -0.54328727916E+02  0.10509807226E+02 -0.59002834860E+01  0.55649618778E+02  0.00000000000E+00 0.  1.
</event>
<event>
 7    1  0.2679104E-009  0.2183275E+03  0.7561462E-02  0.1135136E+00
          2   -1    0    0  501    0  0.00000000000E+00  0.00000000000E+00  0.69722228117E+02  0.69722228117E+02  0.00000000000E+00 0. -1.
         -2   -1    0    0    0  501 -0.00000000000E+00 -0.00000000000E+00 -0.83112619395E+03  0.83112619395E+03  0.00000000000E+00 0.  1.
         25    2    1    2    0    0 -0.14499078409E+03 -0.15460695844E+03 -0.32347329099E+03  0.40645684654E+03  0.12508620647E+03 0.  0.
          5    1    3    3  502    0 -0.12380099546E+03 -0.15513383659E+03 -0.32891098685E+03  0.38417847858E+03  0.41800000000E+01 0. -1.
         -5    1    3    3    0  502 -0.21189788628E+02  0.52687815647E+00  0.54376958614E+01  0.22278367960E+02  0.41800000000E+01 0. -1.
        -11    1    1    2    0    0  0.11545545394E+03  0.93163391154E+02 -0.36776474325E+03  0.39656056999E+03  0.00000000000E+00 0.  1.
         11    1    1    2    0    0  0.29535330146E+02  0.61443567283E+02 -0.70165931595E+02  0.97831005535E+02  0.00000000000E+00 0. -1.
</event>
<event>
 7    1  0.2679104E-009  0.1462822E+03  0.7561462E-02  0.1205117E+00
         -2   -1    0    0    0  501 -0.00000000000E+00  0.00000000000E+00  0.20936900210E+03  0.20936900210E+03  0.00000000000E+00 0.  1.
          2   -1    0    0  501    0  0.00000000000E+00 -0.00000000000E+00 -0.15668714842E+03  0.15668714842E+03  0.00000000000E+00 0. -1.
         25    2    1    2    0    0 -0.96877374777E+02  0.21852976527E+02  0.13476446577E+03  0.20898022183E+03  0.12509393893E+03 0.  0.
          5    1    3    3  502    0  0.29994840760E+02 -0.21227863578E+01  0.21861601079E+02  0.37411210831E+02  0.41800000000E+01 0. -1.
         -5    1    3    3    0  502 -0.12687221554E+03  0.23975762885E+02  0.11290286469E+03  0.17156901100E+03  0.41800000000E+01 0. -1.
        -11    1    1    2    0    0 -0.15784243480E+02  0.61340315592E+01 -0.47413276758E+01  0.17585473367E+02  0.00000000000E+00 0.  1.
         11    1    1    2    0    0  0.11266161826E+03 -0.27987008086E+02 -0.77341284415E+02  0.13949045532E+03  0.00000000000E+00 0. -1.
</event>
<event>
 7    1  0.2679104E-009  0.1046441E+03  0.7561462E-02  0.1270823E+00
          2   -1    0    0  501    0  0.00000000000E+00  0.00000000000E+00  0.11926532274E+04  0.11926532274E+04  0.00000000000E+00 0. -1.
         -2   -1    0    0    0  501 -0.00000000000E+00 -0.00000000000E+00 -0.13338638467E+02  0.13338638467E+02  0.00000000000E+00 0.  1.
         25    2    1    2    0    0  0.17748096335E+02 -0.34594770091E+02  0.90863133730E+03  0.91802518915E+03  0.12509015851E+03 0.  0.
          5    1    3    3  502    0 -0.20033461182E+02  0.32103698436E+02  0.12570036207E+03  0.13133940933E+03  0.41800000000E+01 0.  1.
         -5    1    3    3    0  502  0.37781557516E+02 -0.66698468526E+02  0.78293097523E+03  0.78668577982E+03  0.41800000000E+01 0.  1.
        -11    1    1    2    0    0  0.20165231408E+02 -0.19722195744E+02  0.12162471498E+03  0.12485260453E+03  0.00000000000E+00 0. -1.
         11    1    1    2    0    0 -0.37913327743E+02  0.54316965834E+02  0.14905853669E+03  0.16311407222E+03  0.00000000000E+00 0.  1.
</event>
<event>
 7    1  0.2679104E-009  0.1398893E+03  0.7561462E-02  0.1213478E+00
          1   -1    0    0  501    0  0.00000000000E+00  0.00000000000E+00  0.43629073998E+03  0.43629073998E+03  0.00000000000E+00 0. -1.
         -1   -1    0    0    0  501 -0.00000000000E+00 -0.00000000000E+00 -0.97768690391E+02  0.97768690391E+02  0.00000000000E+00 0.  1.
         25    2    1    2    0    0 -0.25949443234E+02 -0.10952780493E+03  0.27305814361E+01  0.16830155482E+03  0.12509293994E+03 0.  0.
          5    1    3    3  502    0 -0.45523805661E+02 -0.10557726412E+03 -0.39303417564E+02  0.12157798572E+03  0.41800000000E+01 0.  1.
         -5    1    3    3    0  502  0.19574362427E+02 -0.39505408155E+01  0.42033999000E+02  0.46723569096E+02  0.41800000000E+01 0.  1.
        -11    1    1    2    0    0 -0.15164769885E+02 -0.98397223592E+01  0.54868219868E+02  0.57769472330E+02  0.00000000000E+00 0.  1.
         11    1    1    2    0    0  0.41114213120E+02  0.11936752729E+03  0.28092324828E+03  0.30798840322E+03  0.00000000000E+00 0. -1.
</event>
<event>
 7    1  0.2679104E-009  0.2789340E+03  0.7561462E-02  0.1096273E+00
          1   -1    0    0  501    0  0.00000000000E+00  0.00000000000E+00  0.13111978626E+03  0.13111978626E+03  0.00000000000E+00 0. -1.
         -1   -1    0    0    0  501 -0.00000000000E+00 -0.00000000000E+00 -0.67504154280E+03  0.67504154280E+03  0.00000000000E+00 0.  1.
         25    2    1    2    0    0  0.11033606536E+03  0.25128894939E+03 -0.31826882914E+03  0.43847708075E+03  0.12508764662E+03 0.  0.
          5    1    3    3  502    0  0.96756447419E+02  0.13756849803E+03 -0.11076380551E+03  0.20142739331E+03  0.41800000000E+01 0. -1.
         -5    1    3    3    0  502  0.13579617943E+02  0.11372045137E+03 -0.20750502363E+03  0.23704968744E+03  0.41800000000E+01 0. -1.
        -11    1    1    2    0    0 -0.89554140798E+02 -0.18466166710E+03 -0.11064821243E+03  0.23315853479E+03  0.00000000000E+00 0. -1.
         11    1    1    2    0    0 -0.20781924564E+02 -0.66627282290E+02 -0.11500471497E+03  0.13452571352E+03  0.00000000000E+00 0.  1.
</event>
<event>
 7    1  0.2679104E-009  0.1643849E+03  0.7561462E-02  0.1183833E+00
         -2   -1    0    0    0  501 -0.00000000000E+00  0.00000000000E+00  0.58546650608E+02  0.58546650608E+02  0.00000000000E+00 0.  1.
          2   -1    0    0  501    0  0.00000000000E+00 -0.00000000000E+00 -0.64836686116E+03  0.64836686116E+03  0.00000000000E+00 0. -1.
         25    2    1    2    0    0  0.44563243071E+02  0.14388853212E+03 -0.35916481880E+03  0.40906750318E+03  0.12508822000E+03 0.  0.
          5    1    3    3  502    0  0.72157496824E+02  0.90488649923E+02 -0.31120965890E+03  0.33205997095E+03  0.41800000000E+01 0.  1.
         -5    1    3    3    0  502 -0.27594253753E+02  0.53399882200E+02 -0.47955159900E+02  0.77007532230E+02  0.41800000000E+01 0.  1.
        -11    1    1    2    0    0 -0.44790685794E+02 -0.10938162257E+03 -0.78650463836E+02  0.14197337902E+03  0.00000000000E+00 0.  1.
         11    1    1    2    0    0  0.22744272275E+00 -0.34506909552E+02 -0.15200492792E+03  0.15587262957E+03  0.00000000000E+00 0. -1.
</event>
<event>
 7    1  0.2679104E-009  0.9695836E+02  0.7561462E-02  0.1286825E+00
          2   -1    0    0  501    0  0.00000000000E+00  0.00000000000E+00  0.56386049363E+02  0.56386049363E+02  0.00000000000E+00 0. -1.
         -2   -1    0    0    0  501 -0.00000000000E+00 -0.00000000000E+00 -0.29167466540E+03  0.29167466540E+03  0.00000000000E+00 0.  1.
         25    2    1    2    0    0 -0.36146360901E+02 -0.30318083144E+02 -0.59097712495E+02  0.14616803143E+03  0.12508720246E+03 0.  0.
          5    1    3    3  502    0  0.23877323859E+02 -0.25808060352E+02 -0.75714134580E+02  0.83584000556E+02  0.41800000000E+01 0. -1.
         -5    1    3    3    0  502 -0.60023684760E+02 -0.45100227921E+01  0.16616422085E+02  0.62584030875E+02  0.41800000000E+01 0. -1.
        -11    1    1    2    0    0  0.46770306862E+02 -0.16932971097E+02 -0.98403282216E+02  0.11026056895E+03  0.00000000000E+00 0.  1.
         11    1    1    2    0    0 -0.10623945961E+02  0.47251054240E+02 -0.77787621324E+02  0.91632114381E+02  0.00000000000E+00 0. -1.
</event>
<event>
 7    1  0.2679104E-009  0.1055428E+03  0.7561462E-02  0.1269054E+00
         -2   -1    0    0    0  501 -0.00000000000E+00  0.00000000000E+00  0.22585581501E+02  0.22585581501E+02  0.00000000000E+00 0.  1.
          2   -1    0    0  501    0  0.00000000000E+00 -0.00000000000E+00 -0.84335969824E+03  0.84335969824E+03  0.00000000000E+00 0. -1.
         25    2    1    2    0    0  0.37748227734E+02 -0.53616898281E+02 -0.62618433838E+03  0.64191501495E+03  0.12509340631E+03 0.  0.
          5    1    3    3  502    0  0.15278587818E+02 -0.75863216638E+02 -0.19925403500E+03  0.21379500871E+03  0.41800000000E+01 0. -1.
         -5    1    3    3    0  502  0.22469639916E+02  0.22246318357E+02 -0.42693030338E+03  0.42812000624E+03  0.41800000000E+01 0. -1.
        -11    1    1    2    0    0 -0.55534637413E+02  0.12544634661E+02 -0.62407358345E+02  0.84475689917E+02  0.00000000000E+00 0.  1.
         11    1    1    2    0    0  0.17786409679E+02  0.41072263620E+02 -0.13218242001E+03  0.13955457487E+03  0.00000000000E+00 0. -1.
</event>
<event>
 7    1  0.2679104E-009  0.1051646E+03  0.7561462E-02  0.1269796E+00
          2   -1    0    0  501    0  0.00000000000E+00  0.00000000000E+00  0.16506118033E+03  0.16506118033E+03  0.00000000000E+00 0. -1.
         -2   -1    0    0    0  501 -0.00000000000E+00 -0.00000000000E+00 -0.93333390232E+02  0.93333390232E+02  0.00000000000E+00 0.  1.
         25    2    1    2    0    0 -0.58128045590E+02  0.55538445874E+01  0.52358254238E+02  0.14764570138E+03  0.12509257162E+03 0.  0.
          5    1    3    3  502    0  0.19598626000E+02  0.11969974922E+02 -0.27413629122E+02  0.36005081619E+02  0.41800000000E+01 0. -1.
         -5    1    3    3    0  502 -0.77726671590E+02 -0.64161303349E+01  0.79771883360E+02  0.11164061976E+03  0.41800000000E+01 0. -1.
        -11    1    1    2    0    0 -0.22180090893E+02 -0.16756631648E+02  0.75578902785E+01  0.28807340065E+02  0.00000000000E+00 0. -1.
         11    1    1    2    0    0  0.80308136483E+02  0.11202787060E+02  0.11811645582E+02  0.81941529120E+02  0.00000000000E+00 0.  1.
</event>
<event>
 7    1  0.2679104E-009  0.1446909E+03  0.7561462E-02  0.1207153E+00
          1   -1    0    0  501    0  0.00000000000E+00  0.00000000000E+00  0.21457134690E+03  0.21457134690E+03  0.00000000000E+00 0. -1.
         -1   -1    0    0    0  501 -0.00000000000E+00 -0.00000000000E+00 -0.12328499893E+03  0.12328499893E+03  0.00000000000E+00 0.  1.
         25    2    1    2    0    0  0.10687396219E+03 -0.14128921436E+02 -0.61655505401E+01  0.16524965095E+03  0.12509101850E+03 0.  0.
          5    1    3    3  502    0  0.54117577856E+02  0.50419692285E+02 -0.27623448516E+02  0.79065699965E+02  0.41800000000E+01 0.  1.
         -5    1    3    3    0  502  0.52756384332E+02 -0.64548613721E+02  0.21457897976E+02  0.86183950980E+02  0.41800000000E+01 0.  1.
        -11    1    1    2    0    0  0.22374290457E+01  0.22299744953E+02  0.47099720446E+02  0.52160026647E+02  0.00000000000E+00 0.  1.
         11    1    1    2    0    0 -0.10911139123E+03 -0.81708235177E+01  0.50352178065E+02  0.12044666824E+03  0.00000000000E+00 0. -1.
</event>
<event>
 7    1  0.2679104E-009  0.1185582E+03  0.7561462E-02  0.1245495E+00
         -2   -1    0    0    0  501 -0.00000000000E+00  0.00000000000E+00  0.41417053023E+02  0.41417053023E+02  0.00000000000E+00 0.  1.
          2   -1    0    0  501    0  0.00000000000E+00 -0.00000000000E+00 -0.68720913222E+03  0.68720913222E+03  0.00000000000E+00 0. -1.
         25    2    1    2    0    0 -0.23807758364E+02 -0.93368903266E+02 -0.52374165294E+03  0.54702587291E+03  0.12508966847E+03 0.  0.
          5    1    3    3  502    0  0.22071676951E+02 -0.56686465392E+02 -0.44252254542E+03  0.44670369361E+03  0.41800000000E+01 0.  1.
         -5    1    3    3    0  502 -0.45879435316E+02 -0.36682437874E+02 -0.81219107519E+02  0.10032217930E+03  0.41800000000E+01 0.  1.
        -11    1    1    2    0    0 -0.17196456264E+02  0.65384255131E+02 -0.11219093237E+03  0.13098711476E+03  0.00000000000E+00 0.  1.
         11    1    1    2    0    0  0.41004214628E+02  0.27984648136E+02 -0.98594938870E+01  0.50613197570E+02  0.00000000000E+00 0. -1.
</event>
<event>
 7    1  0.2679104E-009  0.4073393E+03  0.7561462E-02  0.1041268E+00
          2   -1    0    0  501    0  0.00000000000E+00  0.00000000000E+00  0.34707844746E+03  0.34707844746E+03  0.00000000000E+00 0. -1.
         -2   -1    0    0    0  501 -0.00000000000E+00 -0.00000000000E+00 -0.52093414231E+03  0.52093414231E+03  0.00000000000E+00 0.  1.
         25    2    1    2    0    0  0.86759742809E+02 -0.38577821189E+03 -0.18941253461E+03  0.45593527950E+03  0.12509112313E+03 0.  0.
          5    1    3    3  502    0  0.96452982931E+02 -0.37723716912E+03 -0.20088494116E+03  0.43815897990E+03  0.41800000000E+01 0.  1.
         -5    1    3    3    0  502 -0.96932401220E+01 -0.85410427725E+01  0.11472406546E+02  0.17776299605E+02  0.41800000000E+01 0.  1.
        -11    1    1    2    0    0 -0.68120744002E+02  0.78806168388E+02  0.43378648932E+00  0.10416830665E+03  0.00000000000E+00 0.  1.
         11    1    1    2    0    0 -0.18638998807E+02  0.30697204350E+03  0.15123053276E+02  0.30790900362E+03  0.00000000000E+00 0. -1.
</event>
<event>
 7    1  0.2679104E-009  0.9796590E+02  0.7561462E-02  0.1284632E+00
         -2   -1    0    0    0  501 -0.00000000000E+00  0.00000000000E+00  0.68515116445E+02  0.68515116445E+02  0.00000000000E+00 0.  1.
          2   -1    0    0  501    0  0.00000000000E+00 -0.00000000000E+00 -0.35283937035E+03  0.35283937035E+03  0.00000000000E+00 0. -1.
         25    2    1    2    0    0 -0.24479718962E+02  0.92752851356E+02 -0.79631825440E+02  0.17660929079E+03  0.12508903188E+03 0.  0.
          5    1    3    3  502    0 -0.10234705901E+02  0.15011580546E+02 -0.94291622252E+02  0.96117007768E+02  0.41800000000E+01 0. -1.
         -5    1    3    3    0  502 -0.14245013062E+02  0.77741270809E+02  0.14659796812E+02  0.80492283026E+02  0.41800000000E+01 0. -1.
        -11    1    1    2    0    0  0.31020606934E+01 -0.52269540937E+02 -0.22678001046E+02  0.57061540654E+02  0.00000000000E+00 0.  1.
         11    1    1    2    0    0  0.21377658269E+02 -0.40483310418E+02 -0.18201442742E+03  0.18768365535E+03  0.00000000000E+00 0. -1.
</event>
<event>
 7    1  0.2679104E-009  0.1373242E+03  0.7561462E-02  0.1216975E+00
         -2   -1    0    0    0  501 -0.00000000000E+00  0.00000000000E+00  0.43539394748E+03  0.43539394748E+03  0.00000000000E+00 0.  1.
          2   -1    0    0  501    0  0.00000000000E+00 -0.00000000000E+00 -0.54438101953E+02  0.54438101953E+02  0.00000000000E+00 0. -1.
         25    2    1    2    0    0  0.72721852193E+02  0.61078043575E+02  0.28848110506E+03  0.32846224144E+03  0.12508837228E+03 0.  0.
          5    1    3    3  502    0  0.95873050160E+02  0.23978691834E+02  0.25411413756E+03  0.27268679234E+03  0.41800000000E+01 0. -1.
         -5    1    3    3    0  502 -0.23151197967E+02  0.37099351741E+02  0.34366967507E+02  0.55775449102E+02  0.41800000000E+01 0. -1.
        -11    1    1    2    0    0 -0.14210282598E+02 -0.71042900201E+02  0.44253945195E+02  0.84896628118E+02  0.00000000000E+00 0.  1.
         11    1    1    2    0    0 -0.58511569595E+02  0.99648566259E+01  0.48220795271E+02  0.76473179878E+02  0.00000000000E+00 0. -1.
</event>
<event>
 7    1  0.2679104E-009  0.1083159E+03  0.7561462E-02  0.1263721E+00
         -2   -1    0    0    0  501 -0.00000000000E+00  0.00000000000E+00  0.16806018965E+02  0.16806018965E+02  0.00000000000E+00 0.  1.
          2   -1    0    0  501    0  0.00000000000E+00 -0.00000000000E+00 -0.87483872161E+03  0.87483872161E+03  0.00000000000E+00 0. -1.
         25    2    1    2    0    0  0.47362999404E+02 -0.16752716099E+02 -0.56064360055E+03  0.57662157982E+03  0.12508913727E+03 0.  0.
          5    1    3    3  502    0 -0.31175876629E+02  0.12591694620E+02 -0.31935531323E+03  0.32114758997E+03  0.41800000000E+01 0. -1.
         -5    1    3    3    0  502  0.78538876033E+02 -0.29344410719E+02 -0.24128828732E+03  0.25547398984E+03  0.41800000000E+01 0. -1.
        -11    1    1    2    0    0 -0.72206892764E+02  0.89250935125E+01 -0.25584003645E+03  0.26598424184E+03  0.00000000000E+00 0. -1.
         11    1    1    2    0    0  0.24843893360E+02  0.78276225867E+01 -0.41549065648E+02  0.49038918920E+02  0.00000000000E+00 0.  1.
</event>
<event>
 7    1  0.2679104E-009  0.1262296E+03  0.7561462E-02  0.1233160E+00
          2   -1    0    0  501    0  0.00000000000E+00  0.00000000000E+00  0.74903241221E+03  0.74903241221E+03  0.00000000000E+00 0. -1.
         -2   -1    0    0    0  501 -0.00000000000E+00 -0.00000000000E+00 -0.52103655081E+02  0.52103655081E+02  0.00000000000E+00 0.  1.
         25    2    1    2    0    0 -0.85332537879E+02 -0.54496644829E+02  0.62311736981E+03  0.64356346916E+03  0.12508859248E+03 0.  0.
          5    1    3    3  502    0 -0.11191993269E+03 -0.50197410653E+02  0.38994652472E+03  0.40880510749E+03  0.41800000000E+01 0.  1.
         -5    1    3    3    0  502  0.26587394809E+02 -0.42992341760E+01  0.23317084509E+03  0.23475836167E+03  0.41800000000E+01 0.  1.
        -11    1    1    2    0    0  0.58063132866E+02  0.45463863824E+02 -0.47762300356E+01  0.73899273916E+02  0.00000000000E+00 0.  1.
         11    1    1    2    0    0  0.27269405013E+02  0.90327810053E+01  0.78587617359E+02  0.83673324212E+02  0.00000000000E+00 0. -1.
</event>
<event>
 7    1  0.2679104E-009  0.1107036E+03  0.7561462E-02  0.1259273E+00
          2   -1    0    0  501    0  0.00000000000E+00  0.00000000000E+00  0.30868153904E+03  0.30868153904E+03  0.00000000000E+00 0.  1.
         -2   -1    0    0    0  501 -0.00000000000E+00 -0.00000000000E+00 -0.54636450195E+02  0.54636450195E+02  0.00000000000E+00 0. -1.
         25    2    1    2    0    0 -0.19340739123E+02 -0.67230097927E+02  0.11674347923E+03  0.18485420554E+03  0.12509231434E+03 0.  0.
          5    1    3    3  502    0 -0.55677242462E+02 -0.28672610838E+02  0.11578090570E+03  0.13169952341E+03  0.41800000000E+01 0.  1.
         -5    1    3    3    0  502  0.36336503339E+02 -0.38557487089E+02  0.96257353186E+00  0.53154682139E+02  0.41800000000E+01 0.  1.
        -11    1    1    2    0    0 -0.16881419137E+02 -0.10401822958E+02  0.43459986683E+01  0.20299456578E+02  0.00000000000E+00 0. -1.
         11    1    1    2    0    0  0.36222158260E+02  0.77631920885E+02  0.13295561094E+03  0.15816432711E+03  0.00000000000E+00 0.  1.
</event>
<event>
 7    1  0.2679104E-009  0.1086690E+03  0.7561462E-02  0.1263055E+00
          2   -1    0    0  501    0  0.00000000000E+00  0.00000000000E+00  0.53834126831E+03  0.53834126831E+03  0.00000000000E+00 0. -1.
         -2   -1    0    0    0  501 -0.00000000000E+00 -0.00000000000E+00 -0.38631043342E+02  0.38631043342E+02  0.00000000000E+00 0.  1.
         25    2    1    2    0    0  0.27512467110E+02  0.75211846184E+02  0.16941638064E+03  0.22530642316E+03  0.12508923469E+03 0.  0.
          5    1    3    3  502    0  0.47300234573E+02  0.95342257820E+02  0.85229016436E+02  0.13641450055E+03  0.41800000000E+01 0.  1.
         -5    1    3    3    0  502 -0.19787767464E+02 -0.20130411636E+02  0.84187364207E+02  0.88891922614E+02  0.41800000000E+01 0.  1.
        -11    1    1    2    0    0 -0.26365583297E+02 -0.45731403114E+02  0.31309973812E+03  0.31751842659E+03  0.00000000000E+00 0. -1.
         11    1    1    2    0    0 -0.11468838131E+01 -0.29480443071E+02  0.17194106205E+02  0.34147461901E+02  0.00000000000E+00 0.  1.
</event>
<event>
 7    1  0.2679104E-009  0.1729106E+03  0.7561462E-02  0.1174846E+00
          1   -1    0    0  501    0  0.00000000000E+00  0.00000000000E+00  0.76091285175E+03  0.76091285175E+03  0.00000000000E+00 0. -1.
         -1   -1    0    0    0  501 -0.00000000000E+00 -0.00000000000E+00 -0.50207506251E+02  0.50207506251E+02  0.00000000000E+00 0.  1.
         25    2    1    2    0    0 -0.71353717046E+02  0.13270284355E+03  0.49673797959E+03  0.53394431259E+03  0.12508601425E+03 0.  0.
          5    1    3    3  502    0  0.28459855072E+02 -0.10494792636E+00  0.56905453403E+02  0.63762664560E+02  0.41800000000E+01 0. -1.
         -5    1    3    3    0  502 -0.99813572118E+02  0.13280779148E+03  0.43983252618E+03  0.47018164803E+03  0.41800000000E+01 0. -1.
        -11    1    1    2    0    0  0.10166559602E+02 -0.25184500097E+02 -0.30959426680E+01  0.27335011254E+02  0.00000000000E+00 0.  1.
         11    1    1    2    0    0  0.61187157443E+02 -0.10751834346E+03  0.21706330858E+03  0.24984103416E+03  0.00000000000E+00 0. -1.
</event>
<event>
 7    1  0.2679104E-009  0.8246862E+02  0.7561462E-02  0.1322188E+00
         -1   -1    0    0    0  501 -0.00000000000E+00  0.00000000000E+00  0.44132243915E+03  0.44132243915E+03  0.00000000000E+00 0.  1.
          1   -1    0    0  501    0  0.00000000000E+00 -0.00000000000E+00 -0.31314604557E+02  0.31314604557E+02  0.00000000000E+00 0. -1.
         25    2    1    2    0    0  0.31535473156E+02  0.26030477916E+02  0.26219222222E+03  0.29336600569E+03  0.12508708989E+03 0.  0.
          5    1    3    3  502    0  0.72225270846E+00  0.37083890983E+02  0.94836351396E+01  0.38511665179E+02  0.41800000000E+01 0.  1.
         -5    1    3    3    0  502  0.30813220447E+02 -0.11053413067E+02  0.25270858708E+03  0.25485434051E+03  0.41800000000E+01 0.  1.
        -11    1    1    2    0    0  0.26475214966E+02  0.76146720659E+01  0.17287343397E+02  0.32523414333E+02  0.00000000000E+00 0. -1.
         11    1    1    2    0    0 -0.58010688122E+02 -0.33645149982E+02  0.13052826897E+03  0.14674762368E+03  0.00000000000E+00 0.  1.
</event>
<event>
 7    1  0.2679104E-009  0.7081457E+02  0.7561462E-02  0.1357345E+00
         -2   -1    0    0    0  501 -0.00000000000E+00  0.00000000000E+00  0.32096988333E+02  0.32096988333E+02  0.00000000000E+00 0.  1.
          2   -1    0    0  501    0  0.00000000000E+00 -0.00000000000E+00 -0.44642076435E+03  0.44642076435E+03  0.00000000000E+00 0. -1.
         25    2    1    2    0    0 -0.43654603158E+01 -0.44553961707E+02 -0.28518766266E+03  0.31461378679E+03  0.12508284919E+03 0.  0.
          5    1    3    3  502    0  0.11912478493E+02 -0.46150263407E+02 -0.25196000960E+02  0.54074622706E+02  0.41800000000E+01 0.  1.
         -5    1    3    3    0  502 -0.16277938809E+02  0.15963017003E+01 -0.25999166170E+03  0.26053916409E+03  0.41800000000E+01 0.  1.
        -11    1    1    2    0    0 -0.51864549186E+01  0.59194137350E+02 -0.36724738233E+02  0.69853787367E+02  0.00000000000E+00 0.  1.
         11    1    1    2    0    0  0.95519152343E+01 -0.14640175643E+02 -0.92411375130E+02  0.94050178527E+02  0.00000000000E+00 0. -1.
</event>
<event>
 7    1  0.2679104E-009  0.1659746E+03  0.7561462E-02  0.1182112E+00
         -1   -1    0    0    0  501 -0.00000000000E+00  0.00000000000E+00  0.94525896723E+02  0.94525896723E+02  0.00000000000E+00 0. -1.
          1   -1    0    0  501    0  0.00000000000E+00 -0.00000000000E+00 -0.42173689039E+03  0.42173689039E+03  0.00000000000E+00 0.  1.
         25    2    1    2    0    0  0.14793298320E+03  0.43713267369E+02 -0.88273526071E+02  0.21733583610E+03  0.12509049919E+03 0.  0.
          5    1    3    3  502    0  0.33603109915E+02  0.53010535858E+02  0.13034786955E+02  0.64239115645E+02  0.41800000000E+01 0.  1.
         -5    1    3    3    0  502  0.11432987328E+03 -0.92972684889E+01 -0.10130831303E+03  0.15309672046E+03  0.41800000000E+01 0.  1.
        -11    1    1    2    0    0 -0.13213437790E+03 -0.39503726894E+02 -0.24527715851E+03  0.28139104951E+03  0.00000000000E+00 0.  1.
         11    1    1    2    0    0 -0.15798605298E+02 -0.42095404746E+01  0.63396909135E+01  0.17535901495E+02  0.00000000000E+00 0. -1.
</event>
<event>
 7    1  0.2679104E-009  0.1039660E+03  0.7561462E-02  0.1272170E+00
         -2   -1    0    0    0  501 -0.00000000000E+00  0.00000000000E+00  0.56011933827E+03  0.56011933827E+03  0.00000000000E+00 0.  1.
          2   -1    0    0  501    0  0.00000000000E+00 -0.00000000000E+00 -0.26003703805E+02  0.26003703805E+02  0.00000000000E+00 0. -1.
         25    2    1    2    0    0  0.78875405640E+01 -0.46676938678E+02  0.29909131467E+03  0.32763401400E+03  0.12508989854E+03 0.  0.
          5    1    3    3  502    0 -0.23065643140E+02 -0.69368313073E+02  0.95106393313E+02  0.12002785177E+03  0.41800000000E+01 0.  1.
         -5    1    3    3    0  502  0.30953183704E+02  0.22691374395E+02  0.20398492136E+03  0.20760616223E+03  0.41800000000E+01 0.  1.
        -11    1    1    2    0    0  0.35829296608E+02  0.36644841017E+02  0.18179944157E+03  0.18888520277E+03  0.00000000000E+00 0.  1.
         11    1    1    2    0    0 -0.43716837172E+02  0.10032097661E+02  0.53224878223E+02  0.69603825309E+02  0.00000000000E+00 0. -1.
</event>
<event>
 7    1  0.2679104E-009  0.1102997E+03  0.7561462E-02  0.1260016E+00
         -1   -1    0    0    0  501 -0.00000000000E+00  0.00000000000E+00  0.41251207152E+02  0.41251207152E+02  0.00000000000E+00 0.  1.
          1   -1    0    0  501    0  0.00000000000E+00 -0.00000000000E+00 -0.41379315509E+03  0.41379315509E+03  0.00000000000E+00 0. -1.
         25    2    1    2    0    0 -0.42211494076E+02  0.44912618195E+02 -0.27421362076E+03  0.30764142296E+03  0.12510468340E+03 0.  0.
          5    1    3    3  502    0  0.28517763521E+01  0.70845610768E+02 -0.82035462881E+02  0.10851047306E+03  0.41800000000E+01 0. -1.
         -5    1    3    3    0  502 -0.45063270428E+02 -0.25932992573E+02 -0.19217815787E+03  0.19913094990E+03  0.41800000000E+01 0. -1.
        -11    1    1    2    0    0 -0.14064465875E+02 -0.38238079921E+02 -0.76501822375E+02  0.86674614410E+02  0.00000000000E+00 0. -1.
         11    1    1    2    0    0  0.56275959951E+02 -0.66745382747E+01 -0.21826504811E+02  0.60728324873E+02  0.00000000000E+00 0.  1.
</event>
<event>
 7    1  0.2679104E-009  0.1321410E+03  0.7561462E-02  0.1224313E+00
          1   -1    0    0  501    0  0.00000000000E+00  0.00000000000E+00  0.11106054654E+03  0.11106054654E+03  0.00000000000E+00 0. -1.
         -1   -1    0    0    0  501 -0.00000000000E+00 -0.00000000000E+00 -0.25573027565E+03  0.25573027565E+03  0.00000000000E+00 0.  1.
         25    2    1    2    0    0  0.91652550064E+02 -0.85563350261E+02 -0.91872140817E+02  0.19952364930E+03  0.12509164453E+03 0.  0.
          5    1    3    3  502    0  0.58548194092E+02 -0.19749928202E+02  0.20373787792E+02  0.65195968621E+02  0.41800000000E+01 0.  1.
         -5    1    3    3    0  502  0.33104355972E+02 -0.65813422059E+02 -0.11224592861E+03  0.13432768068E+03  0.41800000000E+01 0.  1.
        -11    1    1    2    0    0 -0.15014944149E+02  0.31126467852E+02  0.27083679416E+02  0.43907075050E+02  0.00000000000E+00 0. -1.
         11    1    1    2    0    0 -0.76637605916E+02  0.54436882409E+02 -0.79881267718E+02  0.12336009784E+03  0.00000000000E+00 0.  1.
</event>
<event>
 7    1  0.2679104E-009  0.1463891E+03  0.7561462E-02  0.1204982E+00
          2   -1    0    0  501    0  0.00000000000E+00  0.00000000000E+00  0.21462605100E+04  0.21462605100E+04  0.00000000000E+00 0. -1.
         -2   -1    0    0    0  501 -0.00000000000E+00 -0.00000000000E+00 -0.14239852612E+02  0.14239852612E+02  0.00000000000E+00 0.  1.
         25    2    1    2    0    0 -0.97722007564E+02 -0.27661626544E+01  0.17018670577E+04  0.17092559498E+04  0.12508867927E+03 0.  0.
          5    1    3    3  502    0 -0.31592170334E+02 -0.60943320073E+02  0.62040754872E+03  0.62420761962E+03  0.41800000000E+01 0.  1.
         -5    1    3    3    0  502 -0.66129837230E+02  0.58177157419E+02  0.10814595089E+04  0.10850483302E+04  0.41800000000E+01 0.  1.
        -11    1    1    2    0    0  0.23231076701E+02 -0.42663048178E+02  0.13553023725E+03  0.14397313574E+03  0.00000000000E+00 0. -1.
         11    1    1    2    0    0  0.74490930863E+02  0.45429210832E+02  0.29462336249E+03  0.30727127706E+03  0.00000000000E+00 0.  1.
</event>
<event>
 7    1  0.2679104E-009  0.1815638E+03  0.7561462E-02  0.1166298E+00
          2   -1    0    0  501    0  0.00000000000E+00  0.00000000000E+00  0.36102998217E+03  0.36102998217E+03  0.00000000000E+00 0. -1.
         -2   -1    0    0    0  501 -0.00000000000E+00 -0.00000000000E+00 -0.93452620353E+02  0.93452620353E+02  0.00000000000E+00 0.  1.
         25    2    1    2    0    0 -0.14739437167E+03  0.19697441492E+01  0.14861989888E+03  0.24385138070E+03  0.12508653338E+03 0.  0.
          5    1    3    3  502    0 -0.11563475575E+02  0.46673213398E+02  0.22994690139E+02  0.53463361200E+02  0.41800000000E+01 0.  1.
         -5    1    3    3    0  502 -0.13583089609E+03 -0.44703469248E+02  0.12562520875E+03  0.19038801950E+03  0.41800000000E+01 0.  1.
        -11    1    1    2    0    0  0.59129150384E+02 -0.44327884357E+02  0.35502618865E+02  0.81985692063E+02  0.00000000000E+00 0.  1.
         11    1    1    2    0    0  0.88265221282E+02  0.42358140208E+02  0.83454844069E+02  0.12864552976E+03  0.00000000000E+00 0. -1.
</event>
<event>
 7    1  0.2679104E-009  0.6690764E+02  0.7561462E-02  0.1370936E+00
         -2   -1    0    0    0  501 -0.00000000000E+00  0.00000000000E+00  0.24463105208E+03  0.24463105208E+03  0.00000000000E+00 0.  1.
          2   -1    0    0  501    0  0.00000000000E+00 -0.00000000000E+00 -0.55835202857E+02  0.55835202857E+02  0.00000000000E+00 0. -1.
         25    2    1    2    0    0 -0.18282381673E+02 -0.14321892412E+02  0.59401324607E+02  0.14041235626E+03  0.12509096827E+03 0.  0.
          5    1    3    3  502    0  0.11329144185E+02  0.17211948446E+02 -0.32525910731E+02  0.38729936046E+02  0.41800000000E+01 0. -1.
         -5    1    3    3    0  502 -0.29611525858E+02 -0.31533840859E+02  0.91927235338E+02  0.10168242021E+03  0.41800000000E+01 0. -1.
        -11    1    1    2    0    0  0.40688380228E+02 -0.33045270816E+01  0.12463626295E+03  0.13115129518E+03  0.00000000000E+00 0.  1.
         11    1    1    2    0    0 -0.22405998555E+02  0.17626419494E+02  0.47582616729E+01  0.28902603509E+02  0.00000000000E+00 0. -1.
</event>
<event>
 7    1  0.2679104E-009  0.3819372E+03  0.7561462E-02  0.1050220E+00
         -2   -1    0    0    0  501 -0.00000000000E+00  0.00000000000E+00  0.17864830957E+03  0.17864830957E+03  0.00000000000E+00 0.  1.
          2   -1    0    0  501    0  0.00000000000E+00 -0.00000000000E+00 -0.91413208329E+03  0.91413208329E+03  0.00000000000E+00 0. -1.
         25    2    1    2    0    0 -0.20435447279E+03  0.31177206194E+03 -0.52279885040E+03  0.65416326988E+03  0.12509347115E+03 0.  0.
          5    1    3    3  502    0 -0.18737010282E+03  0.31859475969E+03 -0.46879831368E+03  0.59699204990E+03  0.41800000000E+01 0.  1.
         -5    1    3    3    0  502 -0.16984369970E+02 -0.68226977553E+01 -0.54000536716E+02  0.57171219976E+02  0.41800000000E+01 0.  1.
        -11    1    1    2    0    0  0.75115973544E+02 -0.15539246106E+03 -0.14290886219E+03  0.22408072056E+03  0.00000000000E+00 0. -1.
         11    1    1    2    0    0  0.12923849925E+03 -0.15637960087E+03 -0.69776061134E+02  0.21453640242E+03  0.00000000000E+00 0.  1.
</event>
<event>
 7    1  0.2679104E-009  0.1072780E+03  0.7561462E-02  0.1265695E+00
          1   -1    0    0  501    0  0.00000000000E+00  0.00000000000E+00  0.26987882673E+03  0.26987882673E+03  0.00000000000E+00 0. -1.
         -1   -1    0    0    0  501 -0.00000000000E+00 -0.00000000000E+00 -0.63922576003E+02  0.63922576003E+02  0.00000000000E+00 0.  1.
         25    2    1    2    0    0 -0.41180362000E+02  0.36640943773E+02  0.15986172169E+03  0.21033436787E+03  0.12508555180E+03 0.  0.
          5    1    3    3  502    0 -0.73071202737E+02 -0.15100615324E+02  0.10080435245E+03  0.12548473663E+03  0.41800000000E+01 0.  1.
         -5    1    3    3    0  502  0.31890840737E+02  0.51741559097E+02  0.59057369236E+02  0.84849631241E+02  0.41800000000E+01 0.  1.
        -11    1    1    2    0    0  0.48669666446E+02 -0.45962737154E+02 -0.85890396329E+01  0.67491341967E+02  0.00000000000E+00 0.  1.
         11    1    1    2    0    0 -0.74893044464E+01  0.93217933804E+01  0.54683568667E+02  0.55975692895E+02  0.00000000000E+00 0. -1.
</event>
<event>
 7    1  0.2679104E-009  0.9327109E+02  0.7561462E-02  0.1295118E+00
          1   -1    0    0  501    0  0.00000000000E+00  0.00000000000E+00  0.39858166740E+03  0.39858166740E+03  0.00000000000E+00 0. -1.
         -1   -1    0    0    0  501 -0.00000000000E+00 -0.00000000000E+00 -0.37337119170E+02  0.37337119170E+02  0.00000000000E+00 0.  1.
         25    2    1    2    0    0 -0.45805308869E+02 -0.16988974103E+01  0.14409324325E+03  0.19624048117E+03  0.12508577508E+03 0.  0.
          5    1    3    3  502    0 -0.50120113885E+02  0.27327694789E+02  0.90106032885E+01  0.57943870167E+02  0.41800000000E+01 0. -1.
         -5    1    3    3    0  502  0.43148050161E+01 -0.29026592199E+02  0.13508263996E+03  0.13829661100E+03  0.41800000000E+01 0. -1.
        -11    1    1    2    0    0  0.73538478258E+01 -0.41316220417E+02  0.69935771576E+02  0.81560537598E+02  0.00000000000E+00 0.  1.
         11    1    1    2    0    0  0.38451461043E+02  0.43015117827E+02  0.14721553341E+03  0.15811776780E+03  0.00000000000E+00 0. -1.
</event>
<event>
 7    1  0.2679104E-009  0.2108805E+03  0.7561462E-02  0.1140871E+00
         -1   -1    0    0    0  501 -0.00000000000E+00  0.00000000000E+00  0.25087638883E+03  0.25087638883E+03  0.00000000000E+00 0.  1.
          1   -1    0    0  501    0  0.00000000000E+00 -0.00000000000E+00 -0.21283139543E+03  0.21283139543E+03  0.00000000000E+00 0. -1.
         25    2    1    2    0    0  0.20000784104E+03 -0.67486406969E+01 -0.16474215811E+02  0.23657450504E+03  0.12508963195E+03 0.  0.
          5    1    3    3  502    0  0.17645102217E+03  0.14628896415E+02  0.30475988165E+02  0.17970872569E+03  0.41800000000E+01 0. -1.
         -5    1    3    3    0  502  0.23556818873E+02 -0.21377537111E+02 -0.46950203976E+02  0.56865779356E+02  0.41800000000E+01 0. -1.
        -11    1    1    2    0    0 -0.17048429690E+03  0.32310724852E+02  0.67195286160E+02  0.18607548176E+03  0.00000000000E+00 0.  1.
         11    1    1    2    0    0 -0.29523544134E+02 -0.25562084155E+02 -0.12676076957E+02  0.41057797452E+02  0.00000000000E+00 0. -1.
</event>
<event>
 7    1  0.2679104E-009  0.9616931E+02  0.7561462E-02  0.1288564E+00
          2   -1    0    0  501    0  0.00000000000E+00  0.00000000000E+00  0.80832917062E+03  0.80832917062E+03  0.00000000000E+00 0. -1.
         -2   -1    0    0    0  501 -0.00000000000E+00 -0.00000000000E+00 -0.15575479635E+02  0.15575479635E+02  0.00000000000E+00 0.  1.
         25    2    1    2    0    0 -0.21819506674E+02 -0.14631205681E+02  0.49575266436E+03  0.51196515076E+03  0.12508976107E+03 0.  0.
          5    1    3    3  502    0  0.36689240199E+02 -0.98219230135E+01  0.53111485257E+02  0.65428379044E+02  0.41800000000E+01 0.  1.
         -5    1    3    3    0  502 -0.58508746873E+02 -0.48092826677E+01  0.44264117910E+03  0.44653677172E+03  0.41800000000E+01 0.  1.
        -11    1    1    2    0    0  0.10161307721E+02 -0.39045101713E+02  0.11866310595E+03  0.12533437221E+03  0.00000000000E+00 0.  1.
         11    1    1    2    0    0  0.11658198953E+02  0.53676307394E+02  0.17833792067E+03  0.18660512728E+03  0.00000000000E+00 0. -1.
</event>
<event>
 7    1  0.2679104E-009  0.1230514E+03  0.7561462E-02  0.1238146E+00
         -1   -1    0    0    0  501 -0.00000000000E+00  0.00000000000E+00  0.72455186258E+02  0.72455186258E+02  0.00000000000E+00 0.  1.
          1   -1    0    0  501    0  0.00000000000E+00 -0.00000000000E+00 -0.20965254629E+03  0.20965254629E+03  0.00000000000E+00 0. -1.
         25    2    1    2    0    0  0.28078503452E+02 -0.51822822272E+02 -0.75631351236E+02  0.15760501169E+03  0.12508089844E+03 0.  0.
          5    1    3    3  502    0 -0.33723573472E+02 -0.66287821258E+02 -0.44705903672E+02  0.86876031665E+02  0.41800000000E+01 0. -1.
         -5    1    3    3    0  502  0.61802076923E+02  0.14464998985E+02 -0.30925447564E+02  0.70728980020E+02  0.41800000000E+01 0. -1.
        -11    1    1    2    0    0  0.12670629059E+02  0.64181792500E+02 -0.41079798524E+02  0.77248929935E+02  0.00000000000E+00 0.  1.
         11    1    1    2    0    0 -0.40749132511E+02 -0.12358970228E+02 -0.20486210268E+02  0.47253790923E+02  0.00000000000E+00 0. -1.
</event>
<event>
 7    1  0.2679104E-009  0.1054483E+03  0.7561462E-02  0.1269239E+00
          1   -1    0    0  501    0  0.00000000000E+00  0.00000000000E+00  0.12646443482E+03  0.12646443482E+03  0.00000000000E+00 0.  1.
         -1   -1    0    0    0  501 -0.00000000000E+00 -0.00000000000E+00 -0.16660602938E+03  0.16660602938E+03  0.00000000000E+00 0. -1.
         25    2    1    2    0    0  0.11847880631E+02  0.59442036964E+02 -0.98616325860E+02  0.17043108887E+03  0.12509135979E+03 0.  0.
          5    1    3    3  502    0  0.35351335441E+02  0.72560534471E+02 -0.14626996713E+02  0.82135068716E+02  0.41800000000E+01 0. -1.
         -5    1    3    3    0  502 -0.23503454811E+02 -0.13118497507E+02 -0.83989329147E+02  0.88296020156E+02  0.41800000000E+01 0. -1.
        -11    1    1    2    0    0  0.19363679507E+02  0.13426756606E+02 -0.92593945656E+00  0.23581502091E+02  0.00000000000E+00 0.  1.
         11    1    1    2    0    0 -0.31211560137E+02 -0.72868793570E+02  0.59400670755E+02  0.99057873229E+02  0.00000000000E+00 0. -1.
</event>
<event>
 7    1  0.2833549E-009  0.1124508E+03  0.7561462E-02  0.1256098E+00
          2   -1    0    0  501    0  0.00000000000E+00  0.00000000000E+00  0.10331732001E+03  0.10331732001E+03  0.00000000000E+00 0. -1.
         -2   -1    0    0    0  501 -0.00000000000E+00 -0.00000000000E+00 -0.16527711745E+03  0.16527711745E+03  0.00000000000E+00 0.  1.
         25    2    1    2    0    0  0.49377390021E+02  0.52686638697E+02 -0.43303670945E+02  0.15078851426E+03  0.12509180457E+03 0.  0.
          5    1    3    3  502    0  0.31586213165E+02  0.83199962821E+02 -0.63945425060E+02  0.10966500108E+03  0.41800000000E+01 0. -1.
         -5    1    3    3    0  502  0.17791176856E+02 -0.30513324124E+02  0.20641754114E+02  0.41123513176E+02  0.41800000000E+01 0. -1.
        -11    1    1    2    0    0 -0.17641347468E+01 -0.52598943794E+02  0.20177814462E+02  0.56364042226E+02  0.00000000000E+00 0. -1.
         11    1    1    2    0    0 -0.47613255274E+02 -0.87694903650E-01 -0.38833940962E+02  0.61441880984E+02  0.00000000000E+00 0.  1.
</event>
<event>
 7    1  0.2679104E-009  0.1158597E+03  0.7561462E-02  0.1250088E+00
         -2   -1    0    0    0  501 -0.00000000000E+00  0.00000000000E+00  0.64270056620E+02  0.64270056620E+02  0.00000000000E+00 0. -1.
          2   -1    0    0  501    0  0.00000000000E+00 -0.00000000000E+00 -0.29251834721E+03  0.29251834721E+03  0.00000000000E+00 0.  1.
         25    2    1    2    0    0  0.40185739371E+02 -0.38764865762E+02 -0.20558127928E+03  0.24703833100E+03  0.12508663449E+03 0.  0.
          5    1    3    3  502    0  0.10624948607E+02  0.45032660164E+02 -0.53547040977E+02  0.70891381787E+02  0.41800000000E+01 0. -1.
         -5    1    3    3    0  502  0.29560790765E+02 -0.83797525926E+02 -0.15203423830E+03  0.17614694921E+03  0.41800000000E+01 0. -1.
        -11    1    1    2    0    0 -0.30592527331E+02  0.63112065284E+02  0.66524488382E+01  0.70450625181E+02  0.00000000000E+00 0. -1.
         11    1    1    2    0    0 -0.95932120406E+01 -0.24347199522E+02 -0.29319460150E+02  0.39299447647E+02  0.00000000000E+00 0.  1.
</event>
<event>
 7    1  0.2679104E-009  0.1413861E+03  0.7561462E-02  0.1211476E+00
         -1   -1    0    0    0  501 -0.00000000000E+00  0.00000000000E+00  0.16176070237E+03  0.16176070237E+03  0.00000000000E+00 0.  1.
          1   -1    0    0  501    0  0.00000000000E+00 -0.00000000000E+00 -0.16154124490E+03  0.16154124490E+03  0.00000000000E+00 0. -1.
         25    2    1    2    0    0  0.11398467073E+03 -0.16510350570E+02  0.33666209828E+02  0.17333973167E+03  0.12509257394E+03 0.  0.
          5    1    3    3  502    0 -0.17031635700E+02  0.13470698056E+02  0.31955707164E+02  0.38860982245E+02  0.41800000000E+01 0. -1.
         -5    1    3    3    0  502  0.13101630644E+03 -0.29981048626E+02  0.17105026645E+01  0.13447874943E+03  0.41800000000E+01 0. -1.
        -11    1    1    2    0    0 -0.68095118925E+02  0.35183643949E+02  0.17795224991E+02  0.78686110944E+02  0.00000000000E+00 0.  1.
         11    1    1    2    0    0 -0.45889551810E+02 -0.18673293378E+02 -0.51241977351E+02  0.71276104647E+02  0.00000000000E+00 0. -1.
</event>
<event>
 7    1  0.2679104E-009  0.1078927E+03  0.7561462E-02  0.1264523E+00
          2   -1    0    0  501    0  0.00000000000E+00  0.00000000000E+00  0.23740424807E+03  0.23740424807E+03  0.00000000000E+00 0.  1.
         -2   -1    0    0    0  501 -0.00000000000E+00 -0.00000000000E+00 -0.95868028926E+02  0.95868028926E+02  0.00000000000E+00 0. -1.
         25    2    1    2    0    0  0.91289050555E+02 -0.19302996681E+02  0.25011478393E+02  0.15805198209E+03  0.12509419874E+03 0.  0.
          5    1    3    3  502    0  0.80512345191E+01 -0.26397419783E+02 -0.42305366129E+02  0.50683947674E+02  0.41800000000E+01 0. -1.
         -5    1    3    3    0  502  0.83237816036E+02  0.70944231027E+01  0.67316844522E+02  0.10736803441E+03  0.41800000000E+01 0. -1.
        -11    1    1    2    0    0 -0.11229857621E+02  0.21371990482E+02 -0.94646864602E+01  0.25931678872E+02  0.00000000000E+00 0. -1.
         11    1    1    2    0    0 -0.80059192934E+02 -0.20689938009E+01  0.12598942721E+03  0.14928861603E+03  0.00000000000E+00 0.  1.
</event>
<event>
 7    1  0.2679104E-009  0.1531610E+03  0.7561462E-02  0.1196642E+00
          2   -1    0    0  501    0  0.00000000000E+00  0.00000000000E+00  0.19295986145E+04  0.19295986145E+04  0.00000000000E+00 0. -1.
         -2   -1    0    0    0  501 -0.00000000000E+00 -0.00000000000E+00 -0.25809342425E+02  0.25809342425E+02  0.00000000000E+00 0.  1.
         25    2    1    2    0    0 -0.47170083507E+02 -0.14329546668E+03  0.15285107741E+04  0.15410230571E+04  0.12509303940E+03 0.  0.
          5    1    3    3  502    0 -0.46924599438E+01 -0.15487516323E+01  0.12339864254E+01  0.65888492501E+01  0.41800000000E+01 0. -1.
         -5    1    3    3    0  502 -0.42477623563E+02 -0.14174671505E+03  0.15272767877E+04  0.15344342079E+04  0.41800000000E+01 0. -1.
        -11    1    1    2    0    0  0.62177235123E+01  0.43539241283E+02  0.31519732562E+02  0.54109325980E+02  0.00000000000E+00 0.  1.
         11    1    1    2    0    0  0.40952359994E+02  0.99756225396E+02  0.34375876546E+03  0.36027557386E+03  0.00000000000E+00 0. -1.
</event>
<event>
 7    1  0.2679104E-009  0.6247067E+02  0.7561462E-02  0.1387747E+00
         -2   -1    0    0    0  501 -0.00000000000E+00  0.00000000000E+00  0.19246788838E+02  0.19246788838E+02  0.00000000000E+00 0.  1.
          2   -1    0    0  501    0  0.00000000000E+00 -0.00000000000E+00 -0.70043545872E+03  0.70043545872E+03  0.00000000000E+00 0. -1.
         25    2    1    2    0    0 -0.24082797869E+02  0.33319042959E+02 -0.41627475962E+03  0.43660248179E+03  0.12508761661E+03 0.  0.
          5    1    3    3  502    0 -0.16473824284E+02  0.81147359611E+01 -0.40836095542E+03  0.40879503194E+03  0.41800000000E+01 0.  1.
         -5    1    3    3    0  502 -0.76089735854E+01  0.25204306998E+02 -0.79138042026E+01  0.27807449851E+02  0.41800000000E+01 0.  1.
        -11    1    1    2    0    0  0.22563730671E+02 -0.54098356340E+02 -0.25163835627E+03  0.25837495321E+03  0.00000000000E+00 0. -1.
         11    1    1    2    0    0  0.15190671980E+01  0.20779313380E+02 -0.13275553986E+02  0.24704812554E+02  0.00000000000E+00 0.  1.
</event>
<event>
 7    1  0.2679104E-009  0.1377836E+03  0.7561462E-02  0.1216343E+00
          1   -1    0    0  501    0  0.00000000000E+00  0.00000000000E+00  0.13965808182E+03  0.13965808182E+03  0.00000000000E+00 0. -1.
         -1   -1    0    0    0  501 -0.00000000000E+00 -0.00000000000E+00 -0.21937632433E+03  0.21937632433E+03  0.00000000000E+00 0.  1.
         25    2    1    2    0    0  0.10118063107E+03  0.90561248037E+02 -0.59853987335E+02  0.19408529069E+03  0.12509092897E+03 0.  0.
          5    1    3    3  502    0  0.16616711420E+02  0.12236133897E+02 -0.74867775289E+02  0.77772065987E+02  0.41800000000E+01 0. -1.
         -5    1    3    3    0  502  0.84563919646E+02  0.78325114140E+02  0.15013787954E+02  0.11631322470E+03  0.41800000000E+01 0. -1.
        -11    1    1    2    0    0 -0.78972382227E+02 -0.51630076805E+02 -0.53907445837E+02  0.10866606969E+03  0.00000000000E+00 0.  1.
         11    1    1    2    0    0 -0.22208248839E+02 -0.38931171232E+02  0.34043190664E+02  0.56283045765E+02  0.00000000000E+00 0. -1.
</event>
<event>
 7    1  0.2679104E-009  0.1133041E+03  0.7561462E-02  0.1254571E+00
         -1   -1    0    0    0  501 -0.00000000000E+00  0.00000000000E+00  0.10102309901E+04  0.10102309901E+04  0.00000000000E+00 0.  1.
          1   -1    0    0  501    0  0.00000000000E+00 -0.00000000000E+00 -0.18368299379E+02  0.18368299379E+02  0.00000000000E+00 0. -1.
         25    2    1    2    0    0 -0.21253320295E+02  0.59031496670E+02  0.74662742337E+03  0.75962877884E+03  0.12508777355E+03 0.  0.
          5    1    3    3  502    0  0.32179928886E+02 -0.20362004039E+02  0.32536745904E+03  0.32761504061E+03  0.41800000000E+01 0. -1.
         -5    1    3    3    0  502 -0.53433249182E+02  0.79393500709E+02  0.42125996432E+03  0.43201373822E+03  0.41800000000E+01 0. -1.
        -11    1    1    2    0    0 -0.22979615706E+02 -0.35811520933E+02  0.42382264769E+02  0.60056507861E+02  0.00000000000E+00 0. -1.
         11    1    1    2    0    0  0.44232936001E+02 -0.23219975737E+02  0.20285300262E+03  0.20891400281E+03  0.00000000000E+00 0.  1.
</event>
<event>
 7    1  0.2679104E-009  0.1027639E+03  0.7561462E-02  0.1274589E+00
          2   -1    0    0  501    0  0.00000000000E+00  0.00000000000E+00  0.37271598418E+02  0.37271598418E+02  0.00000000000E+00 0. -1.
         -2   -1    0    0    0  501 -0.00000000000E+00 -0.00000000000E+00 -0.38815684284E+03  0.38815684284E+03  0.00000000000E+00 0.  1.
         25    2    1    2    0    0  0.40044377772E+02 -0.11375275006E+02 -0.27207091149E+03  0.30233002713E+03  0.12509162785E+03 0.  0.
          5    1    3    3  502    0 -0.15066907397E+01  0.48014222621E+02 -0.17242321651E+03  0.17903874911E+03  0.41800000000E+01 0. -1.
         -5    1    3    3    0  502  0.41551068512E+02 -0.59389497627E+02 -0.99647694973E+02  0.12329127802E+03  0.41800000000E+01 0. -1.
        -11    1    1    2    0    0 -0.47231118180E+02 -0.20894046042E+02 -0.73168515110E+02  0.89559875435E+02  0.00000000000E+00 0.  1.
         11    1    1    2    0    0  0.71867404077E+01  0.32269321048E+02 -0.56458178283E+01  0.33538538691E+02  0.00000000000E+00 0. -1.
</event>
<event>
 7    1  0.2679104E-009  0.5057008E+02  0.7561462E-02  0.1442291E+00
         -2   -1    0    0    0  501 -0.00000000000E+00  0.00000000000E+00  0.56002744248E+02  0.56002744248E+02  0.00000000000E+00 0.  1.
          2   -1    0    0  501    0  0.00000000000E+00 -0.00000000000E+00 -0.23955889738E+03  0.23955889738E+03  0.00000000000E+00 0. -1.
         25    2    1    2    0    0  0.10546954602E+02  0.19495457142E+02 -0.14947094368E+03  0.19616428268E+03  0.12509017425E+03 0.  0.
          5    1    3    3  502    0  0.17674780026E+02  0.25493703787E+02 -0.17020130929E+03  0.17305572763E+03  0.41800000000E+01 0. -1.
         -5    1    3    3    0  502 -0.71278254240E+01 -0.59982466454E+01  0.20730365612E+02  0.23108555050E+02  0.41800000000E+01 0. -1.
        -11    1    1    2    0    0 -0.26683560495E+02 -0.30172274407E+02  0.17788947896E+02  0.44032092964E+02  0.00000000000E+00 0.  1.
         11    1    1    2    0    0  0.16136605892E+02  0.10676817265E+02 -0.51874157345E+02  0.55365265979E+02  0.00000000000E+00 0. -1.
</event>
<event>
 7    1  0.2679104E-009  0.1649984E+03  0.7561462E-02  0.1183166E+00
          2   -1    0    0  501    0  0.00000000000E+00  0.00000000000E+00  0.10027073195E+03  0.10027073195E+03  0.00000000000E+00 0. -1.
         -2   -1    0    0    0  501 -0.00000000000E+00 -0.00000000000E+00 -0.41044078648E+03  0.41044078648E+03  0.00000000000E+00 0.  1.
         25    2    1    2    0    0  0.63543765780E+02  0.12698405539E+03 -0.41820850804E+02  0.19380138469E+03  0.12508889900E+03 0.  0.
          5    1    3    3  502    0 -0.31134412249E+02  0.65178790476E+02 -0.35207591558E+02  0.80465354391E+02  0.41800000000E+01 0. -1.
         -5    1    3    3    0  502  0.94678178029E+02  0.61805264911E+02 -0.66132592454E+01  0.11333603030E+03  0.41800000000E+01 0. -1.
        -11    1    1    2    0    0 -0.34704169953E+02 -0.96429667239E+02 -0.25161330592E+03  0.27168422084E+03  0.00000000000E+00 0.  1.
         11    1    1    2    0    0 -0.28839595827E+02 -0.30554388148E+02 -0.16735897810E+02  0.45225912905E+02  0.00000000000E+00 0. -1.
</event>
<event>
 7    1  0.2679104E-009  0.9500246E+02  0.7561462E-02  0.1291171E+00
         -2   -1    0    0    0  501 -0.00000000000E+00  0.00000000000E+00  0.63386856434E+02  0.63386856434E+02  0.00000000000E+00 0.  1.
          2   -1    0    0  501    0  0.00000000000E+00 -0.00000000000E+00 -0.20835216539E+03  0.20835216539E+03  0.00000000000E+00 0. -1.
         25    2    1    2    0    0 -0.33992597640E+01 -0.70442385436E+01 -0.38601454786E+02  0.13113020917E+03  0.12507550992E+03 0.  0.
          5    1    3    3  502    0  0.41130199065E+01  0.48827753911E+02  0.16809793651E+02  0.51972185324E+02  0.41800000000E+01 0.  1.
         -5    1    3    3    0  502 -0.75122796705E+01 -0.55871992454E+02 -0.55411248437E+02  0.79158023851E+02  0.41800000000E+01 0.  1.
        -11    1    1    2    0    0 -0.32370130353E+02 -0.21222338133E+02 -0.77559796041E+02  0.86681802801E+02  0.00000000000E+00 0. -1.
         11    1    1    2    0    0  0.35769390117E+02  0.28266576676E+02 -0.28804058126E+02  0.53927009846E+02  0.00000000000E+00 0.  1.
</event>
<event>
 7    1  0.2679104E-009  0.3288507E+03  0.7561462E-02  0.1071647E+00
          1   -1    0    0  501    0  0.00000000000E+00  0.00000000000E+00  0.15770827806E+04  0.15770827806E+04  0.00000000000E+00 0. -1.
         -1   -1    0    0    0  501 -0.00000000000E+00 -0.00000000000E+00 -0.70020617470E+02  0.70020617470E+02  0.00000000000E+00 0.  1.
         25    2    1    2    0    0  0.10622963387E+03 -0.29563554418E+03  0.79147225156E+03  0.86067427561E+03  0.12508706414E+03 0.  0.
          5    1    3    3  502    0 -0.16700944589E+02 -0.92985521494E+02  0.30836627831E+03  0.32254063737E+03  0.41800000000E+01 0.  1.
         -5    1    3    3    0  502  0.12293057846E+03 -0.20265002268E+03  0.48310597325E+03  0.53813363824E+03  0.41800000000E+01 0.  1.
        -11    1    1    2    0    0 -0.49202159238E+02  0.24475501258E+03  0.53887819065E+03  0.59389862183E+03  0.00000000000E+00 0.  1.
         11    1    1    2    0    0 -0.57027474635E+02  0.50880531594E+02  0.17671172088E+03  0.19253050058E+03  0.00000000000E+00 0. -1.
</event>
<event>
 7    1  0.2679104E-009  0.1037126E+03  0.7561462E-02  0.1272677E+00
          1   -1    0    0  501    0  0.00000000000E+00  0.00000000000E+00  0.15450278329E+04  0.15450278329E+04  0.00000000000E+00 0. -1.
         -1   -1    0    0    0  501 -0.00000000000E+00 -0.00000000000E+00 -0.10085778119E+02  0.10085778119E+02  0.00000000000E+00 0.  1.
         25    2    1    2    0    0  0.14918734899E+02 -0.49215055933E+02  0.11426662009E+04  0.11506423527E+04  0.12508831596E+03 0.  0.
          5    1    3    3  502    0  0.50802188475E+01  0.29470508324E+02  0.71681918535E+03  0.71745490198E+03  0.41800000000E+01 0. -1.
         -5    1    3    3    0  502  0.98385160514E+01 -0.78685564257E+02  0.42584701553E+03  0.43318745072E+03  0.41800000000E+01 0. -1.
        -11    1    1    2    0    0  0.28015484498E+02  0.47140127137E+02  0.19478777888E+03  0.20235942716E+03  0.00000000000E+00 0.  1.
         11    1    1    2    0    0 -0.42934219397E+02  0.20749287965E+01  0.19748807505E+03  0.20211183120E+03  0.00000000000E+00 0. -1.
</event>
<event>
 7    1  0.2679104E-009  0.1696246E+03  0.7561462E-02  0.1178240E+00
          1   -1    0    0  501    0  0.00000000000E+00  0.00000000000E+00  0.61416640970E+03  0.61416640970E+03  0.00000000000E+00 0. -1.
         -1   -1    0    0    0  501 -0.00000000000E+00 -0.00000000000E+00 -0.55156421862E+02  0.55156421862E+02  0.00000000000E+00 0.  1.
         25    2    1    2    0    0 -0.58373416134E+02 -0.13008579890E+03  0.22038375374E+03  0.29076767611E+03  0.12508825593E+03 0.  0.
          5    1    3    3  502    0  0.26103077016E+02 -0.45649673209E+02  0.18013805055E+02  0.55742558843E+02  0.41800000000E+01 0. -1.
         -5    1    3    3    0  502 -0.84476493150E+02 -0.84436125686E+02  0.20236994868E+03  0.23502511726E+03  0.41800000000E+01 0. -1.
        -11    1    1    2    0    0  0.74212701593E+02  0.60877457263E+02  0.16364472093E+03  0.18971869852E+03  0.00000000000E+00 0.  1.
         11    1    1    2    0    0 -0.15839285459E+02  0.69208341632E+02  0.17498151318E+03  0.18883645694E+03  0.00000000000E+00 0. -1.
</event>
<event>
 7    1  0.2679104E-009  0.1233410E+03  0.7561462E-02  0.1237685E+00
          1   -1    0    0  501    0  0.00000000000E+00  0.00000000000E+00  0.24504353683E+03  0.24504353683E+03  0.00000000000E+00 0. -1.
         -1   -1    0    0    0  501 -0.00000000000E+00 -0.00000000000E+00 -0.64094857184E+02  0.64094857184E+02  0.00000000000E+00 0.  1.
         25    2    1    2    0    0  0.71520651237E+02 -0.70558041814E+01  0.11487807512E+03  0.18441848967E+03  0.12509284257E+03 0.  0.
          5    1    3    3  502    0 -0.34522838258E+02 -0.95852025218E+01  0.16423990888E+02  0.39634862754E+02  0.41800000000E+01 0. -1.
         -5    1    3    3    0  502  0.10604348950E+03  0.25293983404E+01  0.98454084233E+02  0.14478362691E+03  0.41800000000E+01 0. -1.
        -11    1    1    2    0    0 -0.85995704043E+02 -0.42297564043E+01  0.46363336899E+02  0.97789114740E+02  0.00000000000E+00 0.  1.
         11    1    1    2    0    0  0.14475052806E+02  0.11285560586E+02  0.19707267622E+02  0.26930789602E+02  0.00000000000E+00 0. -1.
</event>
<event>
 7    1  0.2679104E-009  0.1007738E+03  0.7561462E-02  0.1278677E+00
          3   -1    0    0  501    0  0.00000000000E+00  0.00000000000E+00  0.14228913058E+03  0.14228913058E+03  0.00000000000E+00 0. -1.
         -3   -1    0    0    0  501 -0.00000000000E+00 -0.00000000000E+00 -0.89829252725E+02  0.89829252725E+02  0.00000000000E+00 0.  1.
         25    2    1    2    0    0 -0.27240914848E+02 -0.21313841726E+02  0.43739982449E+02  0.13696991219E+03  0.12510484999E+03 0.  0.
          5    1    3    3  502    0  0.38928546694E+02 -0.21910322083E+01 -0.19120226059E+02  0.43626686951E+02  0.41800000000E+01 0.  1.
         -5    1    3    3    0  502 -0.66169461541E+02 -0.19122809517E+02  0.62860208507E+02  0.93343225239E+02  0.41800000000E+01 0.  1.
        -11    1    1    2    0    0 -0.31493330363E+02  0.12743151514E+02 -0.46907536377E+01  0.34296077582E+02  0.00000000000E+00 0.  1.
         11    1    1    2    0    0  0.58734245210E+02  0.85706902111E+01  0.13410649047E+02  0.60852393535E+02  0.00000000000E+00 0. -1.
</event>
<event>
 7    1  0.2679104E-009  0.9893284E+02  0.7561462E-02  0.1282556E+00
         -4   -1    0    0    0  501 -0.00000000000E+00  0.00000000000E+00  0.12465433242E+03  0.12465433242E+03  0.00000000000E+00 0.  1.
          4   -1    0    0  501    0  0.00000000000E+00 -0.00000000000E+00 -0.96545963283E+02  0.96545963283E+02  0.00000000000E+00 0. -1.
         25    2    1    2    0    0 -0.15309734644E+02  0.61985221239E+01  0.45830950891E+01  0.12625808533E+03  0.12508912702E+03 0.  0.
          5    1    3    3  502    0 -0.55662093228E+02  0.42481676434E+02 -0.73777958858E+01  0.70532728058E+02  0.41800000000E+01 0.  1.
         -5    1    3    3    0  502  0.40352358584E+02 -0.36283154310E+02  0.11960890975E+02  0.55725357270E+02  0.41800000000E+01 0.  1.
        -11    1    1    2    0    0  0.32844415886E+02 -0.29488903699E+02  0.41588900620E+02  0.60646415813E+02  0.00000000000E+00 0.  1.
         11    1    1    2    0    0 -0.17534681242E+02  0.23290381575E+02 -0.18063626567E+02  0.34295794566E+02  0.00000000000E+00 0. -1.
</event>
<event>
 7    1  0.2679104E-009  0.9551258E+02  0.7561462E-02  0.1290026E+00
         -2   -1    0    0    0  501 -0.00000000000E+00  0.00000000000E+00  0.82271921885E+02  0.82271921885E+02  0.00000000000E+00 0.  1.
          2   -1    0    0  501    0  0.00000000000E+00 -0.00000000000E+00 -0.19394720650E+03  0.19394720650E+03  0.00000000000E+00 0. -1.
         25    2    1    2    0    0  0.26629776158E+01 -0.49034881005E+02 -0.84304317191E+02  0.15863831107E+03  0.12508950730E+03 0.  0.
          5    1    3    3  502    0  0.45864850281E+02  0.12067282076E+02 -0.24768908594E+01  0.47674009443E+02  0.41800000000E+01 0.  1.
         -5    1    3    3    0  502 -0.43201872666E+02 -0.61102163081E+02 -0.81827426331E+02  0.11096430162E+03  0.41800000000E+01 0.  1.
        -11    1    1    2    0    0 -0.23990207997E+02  0.36651652791E+02  0.31365932573E+02  0.53876668960E+02  0.00000000000E+00 0.  1.
         11    1    1    2    0    0  0.21327230381E+02  0.12383228214E+02 -0.58736900002E+02  0.63704148362E+02  0.00000000000E+00 0. -1.
</event>
<event>
 7    1  0.2679104E-009  0.1136506E+03  0.7561462E-02  0.1253955E+00
         -2   -1    0    0    0  501 -0.00000000000E+00  0.00000000000E+00  0.24310849309E+02  0.24310849309E+02  0.00000000000E+00 0. -1.
          2   -1    0    0  501    0  0.00000000000E+00 -0.00000000000E+00 -0.10575419642E+04  0.10575419642E+04  0.00000000000E+00 0.  1.
         25    2    1    2    0    0 -0.14642113694E+02 -0.10256285448E+03 -0.74572960029E+03  0.76321236978E+03  0.12508778528E+03 0.  0.
          5    1    3    3  502    0 -0.64028606991E+01 -0.16473210260E+02 -0.53607296459E+03  0.53638051703E+03  0.41800000000E+01 0. -1.
         -5    1    3    3    0  502 -0.82392529951E+01 -0.86089644216E+02 -0.20965663570E+03  0.22683185276E+03  0.41800000000E+01 0. -1.
        -11    1    1    2    0    0 -0.19222524244E+02  0.78987947566E+02 -0.24999031635E+03  0.26287593950E+03  0.00000000000E+00 0.  1.
         11    1    1    2    0    0  0.33864637938E+02  0.23574906911E+02 -0.37511198278E+02  0.55764504255E+02  0.00000000000E+00 0. -1.
</event>
<event>
 7    1  0.2679104E-009  0.1458364E+03  0.7561462E-02  0.1205685E+00
         -1   -1    0    0    0  501 -0.00000000000E+00  0.00000000000E+00  0.11580947916E+03  0.11580947916E+03  0.00000000000E+00 0.  1.
          1   -1    0    0  501    0  0.00000000000E+00 -0.00000000000E+00 -0.24401850697E+03  0.24401850697E+03  0.00000000000E+00 0. -1.
         25    2    1    2    0    0 -0.89012928643E+02  0.91075285875E+02 -0.82133730991E+02  0.19649778924E+03  0.12508965684E+03 0.  0.
          5    1    3    3  502    0 -0.94306605215E+02  0.26640284628E+02 -0.85512872330E+01  0.98458303182E+02  0.41800000000E+01 0. -1.
         -5    1    3    3    0  502  0.52936765715E+01  0.64435001247E+02 -0.73582443758E+02  0.98039486059E+02  0.41800000000E+01 0. -1.
        -11    1    1    2    0    0  0.62040655104E+02 -0.50100571064E+02 -0.72356684239E+02  0.10767822371E+03  0.00000000000E+00 0. -1.
         11    1    1    2    0    0  0.26972273539E+02 -0.40974714811E+02  0.26281387426E+02  0.55651973179E+02  0.00000000000E+00 0.  1.
</event>
<event>
 7    1  0.2679104E-009  0.1959588E+03  0.7561462E-02  0.1153194E+00
         -2   -1    0    0    0  501 -0.00000000000E+00  0.00000000000E+00  0.27374923602E+03  0.27374923602E+03  0.00000000000E+00 0.  1.
          2   -1    0    0  501    0  0.00000000000E+00 -0.00000000000E+00 -0.17167536288E+03  0.17167536288E+03  0.00000000000E+00 0. -1.
         25    2    1    2    0    0 -0.17719467524E+03  0.32757443152E+02  0.10834396146E+03  0.24465608664E+03  0.12508870345E+03 0.  0.
          5    1    3    3  502    0 -0.78898179305E+02 -0.17925900844E+02  0.10669818088E+03  0.13397102232E+03  0.41800000000E+01 0. -1.
         -5    1    3    3    0  502 -0.98296495933E+02  0.50683343996E+02  0.16457805899E+01  0.11068506433E+03  0.41800000000E+01 0. -1.
        -11    1    1    2    0    0  0.88342270466E+02 -0.60583710966E+02  0.32939082712E+01  0.10717085713E+03  0.00000000000E+00 0.  1.
         11    1    1    2    0    0  0.88852404772E+02  0.27826267814E+02 -0.95639965970E+01  0.93597655126E+02  0.00000000000E+00 0. -1.
</event>
<event>
 7    1  0.2679104E-009  0.1332144E+03  0.7561462E-02  0.1222763E+00
         -2   -1    0    0    0  501 -0.00000000000E+00  0.00000000000E+00  0.27885429957E+03  0.27885429957E+03  0.00000000000E+00 0.  1.
          2   -1    0    0  501    0  0.00000000000E+00 -0.00000000000E+00 -0.80970472891E+02  0.80970472891E+02  0.00000000000E+00 0. -1.
         25    2    1    2    0    0 -0.88621011167E+02 -0.11357336348E+02  0.17484792099E+03  0.23281384139E+03  0.12509123293E+03 0.  0.
          5    1    3    3  502    0 -0.72355093563E+02  0.43963952285E+02  0.58809194649E+02  0.10317016255E+03  0.41800000000E+01 0.  1.
         -5    1    3    3    0  502 -0.16265917605E+02 -0.55321288632E+02  0.11603872634E+03  0.12964367884E+03  0.41800000000E+01 0.  1.
        -11    1    1    2    0    0  0.30222711369E+02  0.46670586015E+02  0.21574861801E+01  0.55643603659E+02  0.00000000000E+00 0. -1.
         11    1    1    2    0    0  0.58398299798E+02 -0.35313249668E+02  0.20878419508E+02  0.71367327417E+02  0.00000000000E+00 0.  1.
</event>
<event>
 7    1  0.2679104E-009  0.1340385E+03  0.7561462E-02  0.1221583E+00
         -3   -1    0    0    0  501 -0.00000000000E+00  0.00000000000E+00  0.67224648466E+03  0.67224648466E+03  0.00000000000E+00 0.  1.
          3   -1    0    0  501    0  0.00000000000E+00 -0.00000000000E+00 -0.43579372251E+02  0.43579372251E+02  0.00000000000E+00 0. -1.
         25    2    1    2    0    0 -0.85297952245E+02  0.67547026722E+01  0.12322175736E+03  0.19532654891E+03  0.12508993787E+03 0.  0.
          5    1    3    3  502    0 -0.14882042083E+02 -0.55161104572E+02  0.53751128949E+02  0.78554941904E+02  0.41800000000E+01 0.  1.
         -5    1    3    3    0  502 -0.70415910161E+02  0.61915807244E+02  0.69470628412E+02  0.11677160700E+03  0.41800000000E+01 0.  1.
        -11    1    1    2    0    0 -0.88579563127E+01  0.17577390492E+02  0.35446488379E+02  0.40544809593E+02  0.00000000000E+00 0.  1.
         11    1    1    2    0    0  0.94155908557E+02 -0.24332093164E+02  0.46999886667E+03  0.47995449841E+03  0.00000000000E+00 0. -1.
</event>
<event>
 7    1  0.2679104E-009  0.9170250E+02  0.7561462E-02  0.1298780E+00
         -1   -1    0    0    0  501 -0.00000000000E+00  0.00000000000E+00  0.66848701087E+02  0.66848701087E+02  0.00000000000E+00 0.  1.
          1   -1    0    0  501    0  0.00000000000E+00 -0.00000000000E+00 -0.21231081761E+03  0.21231081761E+03  0.00000000000E+00 0. -1.
         25    2    1    2    0    0 -0.49980158214E+02  0.63226235074E+00 -0.60982387139E+02  0.14787304252E+03  0.12509663941E+03 0.  0.
          5    1    3    3  502    0 -0.60471964424E+02 -0.35076318865E+02 -0.79621702479E+02  0.10603911793E+03  0.41800000000E+01 0.  1.
         -5    1    3    3    0  502  0.10491806210E+02  0.35708581216E+02  0.18639315341E+02  0.41833924587E+02  0.41800000000E+01 0.  1.
        -11    1    1    2    0    0  0.64443818097E+01  0.24715787831E+02  0.73216275533E+01  0.26570781980E+02  0.00000000000E+00 0.  1.
         11    1    1    2    0    0  0.43535776405E+02 -0.25348050182E+02 -0.91801356934E+02  0.10471569419E+03  0.00000000000E+00 0. -1.
</event>
<event>
 7    1  0.2679104E-009  0.2303544E+03  0.7561462E-02  0.1126391E+00
          1   -1    0    0  501    0  0.00000000000E+00  0.00000000000E+00  0.22577586978E+04  0.22577586978E+04  0.00000000000E+00 0. -1.
         -1   -1    0    0    0  501 -0.00000000000E+00 -0.00000000000E+00 -0.49407605237E+02  0.49407605237E+02  0.00000000000E+00 0.  1.
         25    2    1    2    0    0 -0.20668273643E+03  0.43730315293E+02  0.19268594573E+04  0.19424380606E+04  0.12509259499E+03 0.  0.
          5    1    3    3  502    0 -0.15815011737E+03  0.83881507338E+02  0.15525944338E+04  0.15628865970E+04  0.41800000000E+01 0. -1.
         -5    1    3    3    0  502 -0.48532619057E+02 -0.40151192046E+02  0.37426502352E+03  0.37955146366E+03  0.41800000000E+01 0. -1.
        -11    1    1    2    0    0  0.55341707454E+02  0.13072906988E+02  0.26313772508E+02  0.62657961223E+02  0.00000000000E+00 0.  1.
         11    1    1    2    0    0  0.15134102897E+03 -0.56803222281E+02  0.25517786275E+03  0.30207028114E+03  0.00000000000E+00 0. -1.
</event>
<event>
 7    1  0.2679104E-009  0.1152390E+03  0.7561462E-02  0.1251165E+00
          3   -1    0    0  501    0  0.00000000000E+00  0.00000000000E+00  0.69037283506E+03  0.69037283506E+03  0.00000000000E+00 0. -1.
         -3   -1    0    0    0  501 -0.00000000000E+00 -0.00000000000E+00 -0.24700949249E+02  0.24700949249E+02  0.00000000000E+00 0.  1.
         25    2    1    2    0    0 -0.24056600786E+02 -0.69629055680E+02  0.34016356577E+03  0.36984421492E+03  0.12508623585E+03 0.  0.
          5    1    3    3  502    0 -0.13074321867E+02 -0.91315844196E+02  0.33082343737E+03  0.34346927142E+03  0.41800000000E+01 0. -1.
         -5    1    3    3    0  502 -0.10982278919E+02  0.21686788516E+02  0.93401283962E+01  0.26374943504E+02  0.41800000000E+01 0. -1.
        -11    1    1    2    0    0 -0.23580670827E+02  0.60544777858E+02  0.15788375924E+03  0.17073078104E+03  0.00000000000E+00 0.  1.
         11    1    1    2    0    0  0.47637271614E+02  0.90842778222E+01  0.16762456080E+03  0.17449878834E+03  0.00000000000E+00 0. -1.
</event>
<event>
 7    1  0.2679104E-009  0.2316861E+03  0.7561462E-02  0.1125459E+00
          2   -1    0    0  501    0  0.00000000000E+00  0.00000000000E+00  0.35470143522E+03  0.35470143522E+03  0.00000000000E+00 0. -1.
         -2   -1    0    0    0  501 -0.00000000000E+00 -0.00000000000E+00 -0.18516167042E+03  0.18516167042E+03  0.00000000000E+00 0.  1.
         25    2    1    2    0    0  0.22621665908E+03 -0.13309365940E+02  0.35016136572E+02  0.26119715539E+03  0.12508680224E+03 0.  0.
          5    1    3    3  502    0  0.86527729665E+02 -0.26826732689E+01 -0.47218593037E+02  0.98698088458E+02  0.41800000000E+01 0.  1.
         -5    1    3    3    0  502  0.13968892942E+03 -0.10626692671E+02  0.82234729609E+02  0.16249906693E+03  0.41800000000E+01 0.  1.
        -11    1    1    2    0    0 -0.22320868883E+03  0.24880728473E+02  0.10724614882E+03  0.24888331775E+03  0.00000000000E+00 0. -1.
         11    1    1    2    0    0 -0.30079702563E+01 -0.11571362533E+02  0.27277479403E+02  0.29782632498E+02  0.00000000000E+00 0.  1.
</event>
<event>
 7    1  0.2679104E-009  0.1311582E+03  0.7561462E-02  0.1225747E+00
         -2   -1    0    0    0  501 -0.00000000000E+00  0.00000000000E+00  0.23553192584E+03  0.23553192584E+03  0.00000000000E+00 0. -1.
          2   -1    0    0  501    0  0.00000000000E+00 -0.00000000000E+00 -0.88372157322E+02  0.88372157322E+02  0.00000000000E+00 0.  1.
         25    2    1    2    0    0 -0.24553673949E+02 -0.88583283586E+02  0.11292253278E+03  0.19196289838E+03  0.12509346469E+03 0.  0.
          5    1    3    3  502    0 -0.65417848671E+02 -0.38435507343E+02  0.19846343321E+02  0.78537461716E+02  0.41800000000E+01 0. -1.
         -5    1    3    3    0  502  0.40864174723E+02 -0.50147776243E+02  0.93076189456E+02  0.11342543666E+03  0.41800000000E+01 0. -1.
        -11    1    1    2    0    0 -0.26689930351E+02  0.11777864305E+02 -0.82306603311E+01  0.30311948787E+02  0.00000000000E+00 0. -1.
         11    1    1    2    0    0  0.51243604300E+02  0.76805419281E+02  0.42467896070E+02  0.10162923600E+03  0.00000000000E+00 0.  1.
</event>
<event>
 7    1  0.2679104E-009  0.1269838E+03  0.7561462E-02  0.1232001E+00
          4   -1    0    0  501    0  0.00000000000E+00  0.00000000000E+00  0.10870618024E+03  0.10870618024E+03  0.00000000000E+00 0. -1.
         -4   -1    0    0    0  501 -0.00000000000E+00 -0.00000000000E+00 -0.33665283621E+03  0.33665283621E+03  0.00000000000E+00 0.  1.
         25    2    1    2    0    0  0.41899262130E+02 -0.70708160333E+02 -0.27641995031E+03  0.31434304483E+03  0.12509344027E+03 0.  0.
          5    1    3    3  502    0 -0.44516123313E+02 -0.18967212527E+02 -0.99418026444E+02  0.11064744357E+03  0.41800000000E+01 0.  1.
         -5    1    3    3    0  502  0.86415385443E+02 -0.51740947806E+02 -0.17700192387E+03  0.20369560127E+03  0.41800000000E+01 0.  1.
        -11    1    1    2    0    0 -0.14106230676E+02 -0.11253707178E+02 -0.15181237083E+02  0.23581807151E+02  0.00000000000E+00 0. -1.
         11    1    1    2    0    0 -0.27793031454E+02  0.81961867511E+02  0.63654531432E+02  0.10743416447E+03  0.00000000000E+00 0.  1.
</event>
<event>
 7    1  0.2679104E-009  0.6848822E+02  0.7561462E-02  0.1365311E+00
          1   -1    0    0  501    0  0.00000000000E+00  0.00000000000E+00  0.17104223103E+03  0.17104223103E+03  0.00000000000E+00 0. -1.
         -1   -1    0    0    0  501 -0.00000000000E+00 -0.00000000000E+00 -0.74683755734E+02  0.74683755734E+02  0.00000000000E+00 0.  1.
         25    2    1    2    0    0 -0.22519817645E+01 -0.15113935005E+02  0.86214407048E+02  0.15268145888E+03  0.12508077970E+03 0.  0.
          5    1    3    3  502    0 -0.31419140120E+02 -0.28865294662E+02  0.10619182352E+03  0.11451874687E+03  0.41800000000E+01 0. -1.
         -5    1    3    3    0  502  0.29167158355E+02  0.13751359658E+02 -0.19977416474E+02  0.38162712010E+02  0.41800000000E+01 0. -1.
        -11    1    1    2    0    0  0.29152534775E+02  0.18424694574E+02 -0.29254515268E+02  0.45223515094E+02  0.00000000000E+00 0.  1.
         11    1    1    2    0    0 -0.26900553010E+02 -0.33107595695E+01  0.39398583518E+02  0.47821012792E+02  0.00000000000E+00 0. -1.
</event>
<event>
 7    1  0.2679104E-009  0.1020390E+03  0.7561462E-02  0.1276066E+00
          2   -1    0    0  501    0  0.00000000000E+00  0.00000000000E+00  0.16514611223E+03  0.16514611223E+03  0.00000000000E+00 0. -1.
         -2   -1    0    0    0  501 -0.00000000000E+00 -0.00000000000E+00 -0.11643578010E+03  0.11643578010E+03  0.00000000000E+00 0.  1.
         25    2    1    2    0    0 -0.26830159035E+02  0.74662794547E+02 -0.69144185771E+01  0.14828906211E+03  0.12508975351E+03 0.  0.
          5    1    3    3  502    0  0.14408622074E+02  0.45783166680E+02 -0.58702375556E+02  0.75941741074E+02  0.41800000000E+01 0.  1.
         -5    1    3    3    0  502 -0.41238781109E+02  0.28879627867E+02  0.51787956979E+02  0.72347321037E+02  0.41800000000E+01 0.  1.
        -11    1    1    2    0    0  0.82949871151E+01 -0.84150499385E+02  0.12596860624E+02  0.85491486451E+02  0.00000000000E+00 0.  1.
         11    1    1    2    0    0  0.18535171920E+02  0.94877048377E+01  0.43027890087E+02  0.47801343774E+02  0.00000000000E+00 0. -1.
</event>
<event>
 7    1  0.2679104E-009  0.2984804E+03  0.7561462E-02  0.1086003E+00
         -4   -1    0    0    0  501 -0.00000000000E+00  0.00000000000E+00  0.10770935981E+03  0.10770935981E+03  0.00000000000E+00 0. -1.
          4   -1    0    0  501    0  0.00000000000E+00 -0.00000000000E+00 -0.10003540037E+04  0.10003540037E+04  0.00000000000E+00 0.  1.
         25    2    1    2    0    0  0.11471338579E+03 -0.26417845841E+03 -0.26765744596E+03  0.41259991338E+03  0.12509500939E+03 0.  0.
          5    1    3    3  502    0  0.11098447553E+03 -0.14716832373E+03 -0.10508154052E+03  0.21221609712E+03  0.41800000000E+01 0. -1.
         -5    1    3    3    0  502  0.37289102594E+01 -0.11701013468E+03 -0.16257590544E+03  0.20038381626E+03  0.41800000000E+01 0. -1.
        -11    1    1    2    0    0 -0.71957470059E+02  0.85643621519E+02 -0.32552407457E+03  0.34420724938E+03  0.00000000000E+00 0.  1.
         11    1    1    2    0    0 -0.42755915728E+02  0.17853483689E+03 -0.29946312336E+03  0.35125620075E+03  0.00000000000E+00 0. -1.
</event>
<event>
 7    1  0.2679104E-009  0.1485844E+03  0.7561462E-02  0.1202223E+00
          1   -1    0    0  501    0  0.00000000000E+00  0.00000000000E+00  0.10204647673E+03  0.10204647673E+03  0.00000000000E+00 0. -1.
         -1   -1    0    0    0  501 -0.00000000000E+00 -0.00000000000E+00 -0.29504273525E+03  0.29504273525E+03  0.00000000000E+00 0.  1.
         25    2    1    2    0    0 -0.10303819660E+03  0.45255869155E+02 -0.17822839623E+02  0.16920764139E+03  0.12509439892E+03 0.  0.
          5    1    3    3  502    0 -0.11366813929E+02  0.69803879990E+02 -0.21818666796E+02  0.74130376643E+02  0.41800000000E+01 0.  1.
         -5    1    3    3    0  502 -0.91671382668E+02 -0.24548010834E+02  0.39958271727E+01  0.95077264743E+02  0.41800000000E+01 0.  1.
        -11    1    1    2    0    0  0.37143967185E+02  0.16842894111E+02 -0.10709758699E+03  0.11460039494E+03  0.00000000000E+00 0.  1.
         11    1    1    2    0    0  0.65894229412E+02 -0.62098763267E+02 -0.68075831910E+02  0.11328117566E+03  0.00000000000E+00 0. -1.
</event>
<event>
 7    1  0.2679104E-009  0.1800663E+03  0.7561462E-02  0.1167739E+00
          2   -1    0    0  501    0  0.00000000000E+00  0.00000000000E+00  0.10648868875E+04  0.10648868875E+04  0.00000000000E+00 0.  1.
         -2   -1    0    0    0  501 -0.00000000000E+00 -0.00000000000E+00 -0.48765684473E+02  0.48765684473E+02  0.00000000000E+00 0. -1.
         25    2    1    2    0    0 -0.87700667968E+02 -0.13806070704E+03  0.80514873425E+03  0.83106173970E+03  0.12508782888E+03 0.  0.
          5    1    3    3  502    0 -0.10841426324E+03 -0.80329280867E+02  0.42356264871E+03  0.44455509852E+03  0.41800000000E+01 0.  1.
         -5    1    3    3    0  502  0.20713595268E+02 -0.57731426176E+02  0.38158608555E+03  0.38650664118E+03  0.41800000000E+01 0.  1.
        -11    1    1    2    0    0  0.60187883363E+02  0.99548667187E+02  0.20387913256E+03  0.23473222858E+03  0.00000000000E+00 0.  1.
         11    1    1    2    0    0  0.27512784605E+02  0.38512039856E+02  0.70933362423E+01  0.47858603717E+02  0.00000000000E+00 0. -1.
</event>
<event>
 7    1  0.8020584E-009  0.1015310E+03  0.7561462E-02  0.1277109E+00
         -2   -1    0    0    0  501 -0.00000000000E+00  0.00000000000E+00  0.16525743264E+02  0.16525743264E+02  0.00000000000E+00 0. -1.
          2   -1    0    0  501    0  0.00000000000E+00 -0.00000000000E+00 -0.11739347365E+04  0.11739347365E+04  0.00000000000E+00 0.  1.
         25    2    1    2    0    0  0.66667033790E+02  0.34276176939E+02 -0.82308881562E+03  0.83590819931E+03  0.12509184454E+03 0.  0.
          5    1    3    3  502    0  0.92301679596E+02  0.17530964366E+02 -0.36993474121E+03  0.38170161111E+03  0.41800000000E+01 0. -1.
         -5    1    3    3    0  502 -0.25634645806E+02  0.16745212573E+02 -0.45315407441E+03  0.45420658820E+03  0.41800000000E+01 0. -1.
        -11    1    1    2    0    0 -0.48972226954E+02 -0.35332668010E+02 -0.33106764952E+03  0.33653003581E+03  0.00000000000E+00 0.  1.
         11    1    1    2    0    0 -0.17694806836E+02  0.10564910711E+01 -0.32525280656E+01  0.18022244620E+02  0.00000000000E+00 0. -1.
</event>
<event>
 7    1  0.2679104E-009  0.9728652E+02  0.7561462E-02  0.1286108E+00
         -1   -1    0    0    0  501 -0.00000000000E+00  0.00000000000E+00  0.37191220654E+02  0.37191220654E+02  0.00000000000E+00 0.  1.
          1   -1    0    0  501    0  0.00000000000E+00 -0.00000000000E+00 -0.45228910824E+03  0.45228910824E+03  0.00000000000E+00 0. -1.
         25    2    1    2    0    0 -0.38886955381E+02 -0.63940402550E+01 -0.34382547310E+03  0.36798937237E+03  0.12508854132E+03 0.  0.
          5    1    3    3  502    0 -0.10661101566E+02 -0.46041091779E+02 -0.29547332975E+03  0.29925808630E+03  0.41800000000E+01 0.  1.
         -5    1    3    3    0  502 -0.28225853815E+02  0.39647051524E+02 -0.48352143349E+02  0.68731286068E+02  0.41800000000E+01 0.  1.
        -11    1    1    2    0    0 -0.77729763069E+01 -0.35033162703E+02 -0.28765989072E+02  0.45991562019E+02  0.00000000000E+00 0. -1.
         11    1    1    2    0    0  0.46659931688E+02  0.41427202958E+02 -0.42506425414E+02  0.75499394511E+02  0.00000000000E+00 0.  1.
</event>
<event>
 7    1  0.2679104E-009  0.1128926E+03  0.7561462E-02  0.1255305E+00
          2   -1    0    0  501    0  0.00000000000E+00  0.00000000000E+00  0.47128978024E+03  0.47128978024E+03  0.00000000000E+00 0. -1.
         -2   -1    0    0    0  501 -0.00000000000E+00 -0.00000000000E+00 -0.31795171345E+02  0.31795171345E+02  0.00000000000E+00 0.  1.
         25    2    1    2    0    0 -0.47504490091E+02 -0.19125168961E+02  0.29497009072E+03  0.32446421072E+03  0.12508885223E+03 0.  0.
          5    1    3    3  502    0 -0.68988319052E+02 -0.56613415079E+02  0.16800101732E+03  0.19027948169E+03  0.41800000000E+01 0. -1.
         -5    1    3    3    0  502  0.21483828961E+02  0.37488246118E+02  0.12696907340E+03  0.13418472903E+03  0.41800000000E+01 0. -1.
        -11    1    1    2    0    0  0.62546093110E+02  0.34579079628E+02  0.66326397759E+02  0.97503423278E+02  0.00000000000E+00 0.  1.
         11    1    1    2    0    0 -0.15041603019E+02 -0.15453910667E+02  0.78198120411E+02  0.81117317584E+02  0.00000000000E+00 0. -1.
</event>
<event>
 7    1  0.2679104E-009  0.1083132E+03  0.7561462E-02  0.1263726E+00
          1   -1    0    0  501    0  0.00000000000E+00  0.00000000000E+00  0.40832778501E+02  0.40832778501E+02  0.00000000000E+00 0. -1.
         -1   -1    0    0    0  501 -0.00000000000E+00 -0.00000000000E+00 -0.34453679616E+03  0.34453679616E+03  0.00000000000E+00 0.  1.
         25    2    1    2    0    0  0.34305754094E+02 -0.90612052771E+01 -0.16798708800E+03  0.21242761922E+03  0.12508733536E+03 0.  0.
          5    1    3    3  502    0  0.22587454254E+02 -0.65219314151E+02 -0.11519126818E+03  0.13435122884E+03  0.41800000000E+01 0.  1.
         -5    1    3    3    0  502  0.11718299840E+02  0.56158108874E+02 -0.52795819822E+02  0.78076390375E+02  0.41800000000E+01 0.  1.
        -11    1    1    2    0    0 -0.49018180297E+01  0.44012936602E+02 -0.11413369591E+03  0.12242412732E+03  0.00000000000E+00 0.  1.
         11    1    1    2    0    0 -0.29403936064E+02 -0.34951731325E+02 -0.21583233750E+02  0.50517828118E+02  0.00000000000E+00 0. -1.
</event>
<event>
 7    1  0.2679104E-009  0.9392401E+02  0.7561462E-02  0.1293618E+00
          2   -1    0    0  501    0  0.00000000000E+00  0.00000000000E+00  0.35425943616E+03  0.35425943616E+03  0.00000000000E+00 0. -1.
         -2   -1    0    0    0  501 -0.00000000000E+00 -0.00000000000E+00 -0.43141559672E+02  0.43141559672E+02  0.00000000000E+00 0.  1.
         25    2    1    2    0    0 -0.50770194866E+02 -0.22395004440E+02  0.11407349248E+03  0.17815376370E+03  0.12508738116E+03 0.  0.
          5    1    3    3  502    0 -0.73467857682E+02 -0.37853711538E+02  0.27451116620E+02  0.87186385366E+02  0.41800000000E+01 0.  1.
         -5    1    3    3    0  502  0.22697662816E+02  0.15458707098E+02  0.86622375858E+02  0.90967378338E+02  0.41800000000E+01 0.  1.
        -11    1    1    2    0    0 -0.84415617849E+01  0.15573699525E+02  0.53564377650E+01  0.18506526087E+02  0.00000000000E+00 0.  1.
         11    1    1    2    0    0  0.59211756651E+02  0.68213049147E+01  0.19168794624E+03  0.20074070604E+03  0.00000000000E+00 0. -1.
</event>
<event>
 7    1  0.2679104E-009  0.1287552E+03  0.7561462E-02  0.1229315E+00
          1   -1    0    0  501    0  0.00000000000E+00  0.00000000000E+00  0.30084444364E+03  0.30084444364E+03  0.00000000000E+00 0. -1.
         -1   -1    0    0    0  501 -0.00000000000E+00 -0.00000000000E+00 -0.70854956700E+02  0.70854956700E+02  0.00000000000E+00 0.  1.
         25    2    1    2    0    0  0.39469703518E+02 -0.89449669987E+02  0.12977981115E+03  0.20505928662E+03  0.12508961064E+03 0.  0.
          5    1    3    3  502    0 -0.45118989785E+02 -0.41121068363E+02  0.47187644705E+02  0.77271027658E+02  0.41800000000E+01 0. -1.
         -5    1    3    3    0  502  0.84588693303E+02 -0.48328601623E+02  0.82592166447E+02  0.12778825896E+03  0.41800000000E+01 0. -1.
        -11    1    1    2    0    0 -0.10522211302E+02  0.11151013526E+02  0.79048238602E+02  0.80521339155E+02  0.00000000000E+00 0. -1.
         11    1    1    2    0    0 -0.28947492216E+02  0.78298656461E+02  0.21161437186E+02  0.86118774567E+02  0.00000000000E+00 0.  1.
</event>
<event>
 7    1  0.2679104E-009  0.1517128E+03  0.7561462E-02  0.1198384E+00
          2   -1    0    0  501    0  0.00000000000E+00  0.00000000000E+00  0.79790021607E+03  0.79790021607E+03  0.00000000000E+00 0. -1.
         -2   -1    0    0    0  501 -0.00000000000E+00 -0.00000000000E+00 -0.49133621464E+02  0.49133621464E+02  0.00000000000E+00 0.  1.
         25    2    1    2    0    0 -0.11657531322E+03 -0.13381622976E+02  0.14266111415E+03  0.22308861144E+03  0.12508982204E+03 0.  0.
          5    1    3    3  502    0 -0.30976693601E+02  0.42717866350E+02  0.97926404833E+02  0.11131677688E+03  0.41800000000E+01 0. -1.
         -5    1    3    3    0  502 -0.85598619620E+02 -0.56099489326E+02  0.44734709316E+02  0.11177183456E+03  0.41800000000E+01 0. -1.
        -11    1    1    2    0    0  0.19320604857E+02 -0.34591067519E+02  0.15380558510E+03  0.15882690494E+03  0.00000000000E+00 0. -1.
         11    1    1    2    0    0  0.97254708365E+02  0.47972690495E+02  0.45229989535E+03  0.46511832114E+03  0.00000000000E+00 0.  1.
</event>
<event>
 7    1  0.2679104E-009  0.2213766E+03  0.7561462E-02  0.1132861E+00
         -1   -1    0    0    0  501 -0.00000000000E+00  0.00000000000E+00  0.10343918958E+03  0.10343918958E+03  0.00000000000E+00 0.  1.
          1   -1    0    0  501    0  0.00000000000E+00 -0.00000000000E+00 -0.79705508295E+03  0.79705508295E+03  0.00000000000E+00 0. -1.
         25    2    1    2    0    0 -0.71895812210E+02 -0.19999963703E+03 -0.10430344796E+03  0.26775943435E+03  0.12508814014E+03 0.  0.
          5    1    3    3  502    0 -0.29464809542E+02 -0.13407527594E+03 -0.12592075764E+03  0.18632730402E+03  0.41800000000E+01 0.  1.
         -5    1    3    3    0  502 -0.42431002668E+02 -0.65924361088E+02  0.21617309679E+02  0.81432130330E+02  0.41800000000E+01 0.  1.
        -11    1    1    2    0    0  0.35673847497E+01  0.12649982773E+03 -0.27344959693E+03  0.30131315058E+03  0.00000000000E+00 0.  1.
         11    1    1    2    0    0  0.68328427460E+02  0.73499809291E+02 -0.31586284847E+03  0.33142168760E+03  0.00000000000E+00 0. -1.
</event>
<event>
 7    1  0.2679104E-009  0.5786225E+02  0.7561462E-02  0.1407028E+00
          2   -1    0    0  501    0  0.00000000000E+00  0.00000000000E+00  0.19846386706E+03  0.19846386706E+03  0.00000000000E+00 0.  1.
         -2   -1    0    0    0  501 -0.00000000000E+00 -0.00000000000E+00 -0.12389428544E+03  0.12389428544E+03  0.00000000000E+00 0. -1.
         25    2    1    2    0    0 -0.78983937275E+01  0.23918203264E+02  0.14639244278E+03  0.19419728529E+03  0.12508946095E+03 0.  0.
          5    1    3    3  502    0 -0.10335539207E+02  0.24837780585E+02 -0.16100518893E+02  0.31629698445E+02  0.41800000000E+01 0.  1.
         -5    1    3    3    0  502  0.24371454795E+01 -0.91957732155E+00  0.16249296167E+03  0.16256758685E+03  0.41800000000E+01 0.  1.
        -11    1    1    2    0    0 -0.14249123538E+02 -0.48462886551E+02 -0.15936524979E+01  0.50539376952E+02  0.00000000000E+00 0.  1.
         11    1    1    2    0    0  0.22147517266E+02  0.24544683287E+02 -0.70229208669E+02  0.77621490252E+02  0.00000000000E+00 0. -1.
</event>
<event>
 7    1  0.2679104E-009  0.1144524E+03  0.7561462E-02  0.1252540E+00
         -1   -1    0    0    0  501 -0.00000000000E+00  0.00000000000E+00  0.12802454728E+03  0.12802454728E+03  0.00000000000E+00 0.  1.
          1   -1    0    0  501    0  0.00000000000E+00 -0.00000000000E+00 -0.11683422979E+03  0.11683422979E+03  0.00000000000E+00 0. -1.
         25    2    1    2    0    0 -0.83220797231E+01 -0.41839155288E+02 -0.30161315039E+02  0.13556685915E+03  0.12509554927E+03 0.  0.
          5    1    3    3  502    0 -0.94003130330E+01  0.42323535699E+02  0.58020368604E+01  0.43940682640E+02  0.41800000000E+01 0.  1.
         -5    1    3    3    0  502  0.10782333100E+01 -0.84162690987E+02 -0.35963351899E+02  0.91626176506E+02  0.41800000000E+01 0.  1.
        -11    1    1    2    0    0  0.30077376451E+01  0.71186922440E+02  0.27014105661E+02  0.76199647747E+02  0.00000000000E+00 0. -1.
         11    1    1    2    0    0  0.53143420780E+01 -0.29347767151E+02  0.14337526873E+02  0.33092270175E+02  0.00000000000E+00 0.  1.
</event>
<event>
 7    1  0.2679104E-009  0.2798627E+03  0.7561462E-02  0.1095764E+00
          3   -1    0    0  501    0  0.00000000000E+00  0.00000000000E+00  0.20077423476E+03  0.20077423476E+03  0.00000000000E+00 0. -1.
         -3   -1    0    0    0  501 -0.00000000000E+00 -0.00000000000E+00 -0.45439091005E+03  0.45439091005E+03  0.00000000000E+00 0.  1.
         25    2    1    2    0    0  0.31544133271E+02 -0.26961565924E+03 -0.20945867586E+03  0.36497734396E+03  0.12509152115E+03 0.  0.
          5    1    3    3  502    0  0.61798688397E+02 -0.21058634316E+03 -0.20162745683E+03  0.29805501096E+03  0.41800000000E+01 0.  1.
         -5    1    3    3    0  502 -0.30254555126E+02 -0.59029316077E+02 -0.78312190271E+01  0.66922332998E+02  0.41800000000E+01 0.  1.
        -11    1    1    2    0    0  0.54423594743E+01  0.10031374950E+03 -0.58581162680E+02  0.11629368098E+03  0.00000000000E+00 0.  1.
         11    1    1    2    0    0 -0.36986492745E+02  0.16930190974E+03  0.14423163255E+02  0.17389411987E+03  0.00000000000E+00 0. -1.
</event>
<event>
 7    1  0.2679104E-009  0.2169278E+03  0.7561462E-02  0.1136194E+00
          2   -1    0    0  501    0  0.00000000000E+00  0.00000000000E+00  0.70640953637E+03  0.70640953637E+03  0.00000000000E+00 0. -1.
         -2   -1    0    0    0  501 -0.00000000000E+00 -0.00000000000E+00 -0.69471766484E+02  0.69471766484E+02  0.00000000000E+00 0.  1.
         25    2    1    2    0    0  0.14565851554E+03 -0.11782276967E+03  0.25508806972E+03  0.34031850832E+03  0.12509258808E+03 0.  0.
          5    1    3    3  502    0  0.98926484309E+02 -0.14114287082E+03  0.20461033958E+03  0.26756424040E+03  0.41800000000E+01 0.  1.
         -5    1    3    3    0  502  0.46732031228E+02  0.23320101149E+02  0.50477730143E+02  0.72754267921E+02  0.41800000000E+01 0.  1.
        -11    1    1    2    0    0 -0.94033079063E+02  0.12554020815E+03  0.27321973907E+03  0.31504220295E+03  0.00000000000E+00 0.  1.
         11    1    1    2    0    0 -0.51625436474E+02 -0.77174384794E+01  0.10862996109E+03  0.12052059158E+03  0.00000000000E+00 0. -1.
</event>
<event>
 7    1  0.2679104E-009  0.1035660E+03  0.7561462E-02  0.1272971E+00
         -2   -1    0    0    0  501 -0.00000000000E+00  0.00000000000E+00  0.30151543330E+02  0.30151543330E+02  0.00000000000E+00 0. -1.
          2   -1    0    0  501    0  0.00000000000E+00 -0.00000000000E+00 -0.51846369032E+03  0.51846369032E+03  0.00000000000E+00 0.  1.
         25    2    1    2    0    0  0.48972691766E+02  0.34057437867E+02 -0.27834496144E+03  0.31093447423E+03  0.12508435592E+03 0.  0.
          5    1    3    3  502    0  0.13549061810E+02 -0.47478847479E+02 -0.10275764920E+03  0.11408078236E+03  0.41800000000E+01 0. -1.
         -5    1    3    3    0  502  0.35423629956E+02  0.81536285345E+02 -0.17558731224E+03  0.19685369188E+03  0.41800000000E+01 0. -1.
        -11    1    1    2    0    0 -0.30814082897E+02 -0.95583148557E+00 -0.75062049506E+01  0.31729551389E+02  0.00000000000E+00 0. -1.
         11    1    1    2    0    0 -0.18158608869E+02 -0.33101606381E+02 -0.20246098060E+03  0.20595120803E+03  0.00000000000E+00 0.  1.
</event>
<event>
 7    1  0.2679104E-009  0.1210136E+03  0.7561462E-02  0.1241434E+00
          1   -1    0    0  501    0  0.00000000000E+00  0.00000000000E+00  0.15928321433E+02  0.15928321433E+02  0.00000000000E+00 0. -1.
         -1   -1    0    0    0  501 -0.00000000000E+00 -0.00000000000E+00 -0.97322178404E+03  0.97322178404E+03  0.00000000000E+00 0.  1.
         25    2    1    2    0    0 -0.34943313841E+02 -0.55405012227E+02 -0.55576455898E+03  0.57342153039E+03  0.12508899206E+03 0.  0.
          5    1    3    3  502    0  0.38096904663E+02 -0.47057631798E+02 -0.34166698510E+03  0.34701526762E+03  0.41800000000E+01 0. -1.
         -5    1    3    3    0  502 -0.73040218504E+02 -0.83473804297E+01 -0.21409757388E+03  0.22640626277E+03  0.41800000000E+01 0. -1.
        -11    1    1    2    0    0 -0.16529530446E+02  0.53716658778E+02 -0.20526814204E+03  0.21282320114E+03  0.00000000000E+00 0. -1.
         11    1    1    2    0    0  0.51472844287E+02  0.16883534493E+01 -0.19626076159E+03  0.20290537394E+03  0.00000000000E+00 0.  1.
</event>
<event>
 7    1  0.2679104E-009  0.1238840E+03  0.7561462E-02  0.1236824E+00
          2   -1    0    0  501    0  0.00000000000E+00  0.00000000000E+00  0.20790202797E+04  0.20790202797E+04  0.00000000000E+00 0. -1.
         -2   -1    0    0    0  501 -0.00000000000E+00 -0.00000000000E+00 -0.11749003395E+02  0.11749003395E+02  0.00000000000E+00 0.  1.
         25    2    1    2    0    0 -0.64487762473E+02  0.52661678274E+02  0.16223944859E+04  0.16293385020E+04  0.12509261433E+03 0.  0.
          5    1    3    3  502    0 -0.66109476548E+02 -0.26026340038E+02  0.72035044422E+03  0.72385776790E+03  0.41800000000E+01 0. -1.
         -5    1    3    3    0  502  0.16217140757E+01  0.78688018313E+02  0.90204404170E+03  0.90548073406E+03  0.41800000000E+01 0. -1.
        -11    1    1    2    0    0  0.81163323764E+01  0.10403178951E+02  0.60316316295E+01  0.14507982756E+02  0.00000000000E+00 0.  1.
         11    1    1    2    0    0  0.56371430096E+02 -0.63064857225E+02  0.43884515874E+03  0.44692279836E+03  0.00000000000E+00 0. -1.
</event>
<event>
 7    1  0.2679104E-009  0.1711154E+03  0.7561462E-02  0.1176690E+00
          2   -1    0    0  501    0  0.00000000000E+00  0.00000000000E+00  0.81182069684E+03  0.81182069684E+03  0.00000000000E+00 0. -1.
         -2   -1    0    0    0  501 -0.00000000000E+00 -0.00000000000E+00 -0.50180841208E+02  0.50180841208E+02  0.00000000000E+00 0.  1.
         25    2    1    2    0    0 -0.65368373034E+02  0.15010159646E+03  0.49690355478E+03  0.53792514015E+03  0.12508717041E+03 0.  0.
          5    1    3    3  502    0 -0.60641989933E+02  0.14288683314E+03  0.27497101776E+03  0.31578573596E+03  0.41800000000E+01 0. -1.
         -5    1    3    3    0  502 -0.47263831009E+01  0.72147633217E+01  0.22193253701E+03  0.22213940419E+03  0.41800000000E+01 0. -1.
        -11    1    1    2    0    0  0.36665488116E+02 -0.15615319539E+02  0.11035385483E+03  0.11732932071E+03  0.00000000000E+00 0. -1.
         11    1    1    2    0    0  0.28702884918E+02 -0.13448627692E+03  0.15438244603E+03  0.20674707719E+03  0.00000000000E+00 0.  1.
</event>
<event>
 7    1  0.2679104E-009  0.3100185E+03  0.7561462E-02  0.1080337E+00
         -2   -1    0    0    0  501 -0.00000000000E+00  0.00000000000E+00  0.64288719308E+02  0.64288719308E+02  0.00000000000E+00 0.  1.
          2   -1    0    0  501    0  0.00000000000E+00 -0.00000000000E+00 -0.16651166517E+04  0.16651166517E+04  0.00000000000E+00 0. -1.
         25    2    1    2    0    0  0.24786155057E+03  0.17938018274E+03 -0.93826367377E+03  0.99478598462E+03  0.12509130853E+03 0.  0.
          5    1    3    3  502    0  0.11719364504E+03  0.10118168711E+03 -0.65601176424E+03  0.67404821153E+03  0.41800000000E+01 0. -1.
         -5    1    3    3    0  502  0.13066790552E+03  0.78198495633E+02 -0.28225190952E+03  0.32073777308E+03  0.41800000000E+01 0. -1.
        -11    1    1    2    0    0 -0.95795451550E+02 -0.10941507698E+03 -0.24733027053E+03  0.28691582447E+03  0.00000000000E+00 0.  1.
         11    1    1    2    0    0 -0.15206609901E+03 -0.69965105756E+02 -0.41523398814E+03  0.44770356197E+03  0.00000000000E+00 0. -1.
</event>
<event>
 7    1  0.2679104E-009  0.1301080E+03  0.7561462E-02  0.1227296E+00
         -1   -1    0    0    0  501 -0.00000000000E+00  0.00000000000E+00  0.15827364296E+03  0.15827364296E+03  0.00000000000E+00 0.  1.
          1   -1    0    0  501    0  0.00000000000E+00 -0.00000000000E+00 -0.14618722599E+03  0.14618722599E+03  0.00000000000E+00 0. -1.
         25    2    1    2    0    0  0.84741683130E+02  0.61878229168E+02  0.22999122608E+02  0.16488341894E+03  0.12509002397E+03 0.  0.
          5    1    3    3  502    0  0.72147045117E+02  0.94947291182E+02 -0.52118713809E+01  0.11943542282E+03  0.41800000000E+01 0.  1.
         -5    1    3    3    0  502  0.12594638013E+02 -0.33069062014E+02  0.28210993989E+02  0.45447996117E+02  0.41800000000E+01 0.  1.
        -11    1    1    2    0    0 -0.23121558849E+02 -0.12405420488E+02  0.38342309335E+02  0.46461097988E+02  0.00000000000E+00 0.  1.
         11    1    1    2    0    0 -0.61620124280E+02 -0.49472808680E+02 -0.49255014969E+02  0.93116352026E+02  0.00000000000E+00 0. -1.
</event>
<event>
 7    1  0.2679104E-009  0.7231272E+02  0.7561462E-02  0.1352401E+00
          2   -1    0    0  501    0  0.00000000000E+00  0.00000000000E+00  0.12012259875E+03  0.12012259875E+03  0.00000000000E+00 0. -1.
         -2   -1    0    0    0  501 -0.00000000000E+00 -0.00000000000E+00 -0.11300861455E+03  0.11300861455E+03  0.00000000000E+00 0.  1.
         25    2    1    2    0    0  0.29693489261E+02  0.25781786676E+02 -0.12162804938E+02  0.13168628735E+03  0.12508773171E+03 0.  0.
          5    1    3    3  502    0  0.18265463506E+02  0.24988992823E+01  0.55750847535E+02  0.58868506483E+02  0.41800000000E+01 0. -1.
         -5    1    3    3    0  502  0.11428025756E+02  0.23282887394E+02 -0.67913652474E+02  0.72817780867E+02  0.41800000000E+01 0. -1.
        -11    1    1    2    0    0  0.12925616481E+01 -0.56091044287E+02  0.13591273261E+02  0.57728664229E+02  0.00000000000E+00 0. -1.
         11    1    1    2    0    0 -0.30986050910E+02  0.30309257611E+02  0.56855158788E+01  0.43716261719E+02  0.00000000000E+00 0.  1.
</event>
<event>
 7    1  0.2679104E-009  0.1225051E+03  0.7561462E-02  0.1239021E+00
          4   -1    0    0  501    0  0.00000000000E+00  0.00000000000E+00  0.55360879053E+02  0.55360879053E+02  0.00000000000E+00 0. -1.
         -4   -1    0    0    0  501 -0.00000000000E+00 -0.00000000000E+00 -0.31484055011E+03  0.31484055011E+03  0.00000000000E+00 0.  1.
         25    2    1    2    0    0 -0.41699564090E+02 -0.57648837316E+02 -0.17213531904E+03  0.22436668035E+03  0.12509035575E+03 0.  0.
          5    1    3    3  502    0 -0.80083260835E+01 -0.92776847510E+02 -0.12927717155E+03  0.15937922137E+03  0.41800000000E+01 0. -1.
         -5    1    3    3    0  502 -0.33691238007E+02  0.35128010194E+02 -0.42858147485E+02  0.64987458978E+02  0.41800000000E+01 0. -1.
        -11    1    1    2    0    0 -0.14302451387E+02  0.42624117721E+02 -0.51594265453E+01  0.45254781068E+02  0.00000000000E+00 0. -1.
         11    1    1    2    0    0  0.56002015477E+02  0.15024719595E+02 -0.82184925470E+02  0.10057996774E+03  0.00000000000E+00 0.  1.
</event>
<event>
 7    1  0.2679104E-009  0.8142534E+02  0.7561462E-02  0.1325054E+00
          1   -1    0    0  501    0  0.00000000000E+00  0.00000000000E+00  0.30860169855E+03  0.30860169855E+03  0.00000000000E+00 0. -1.
         -1   -1    0    0    0  501 -0.00000000000E+00 -0.00000000000E+00 -0.51226253927E+02  0.51226253927E+02  0.00000000000E+00 0.  1.
         25    2    1    2    0    0  0.36763730157E+02  0.28446940753E+02  0.70724470401E+02  0.15102764320E+03  0.12508636218E+03 0.  0.
          5    1    3    3  502    0  0.18629739718E+01  0.47814420286E+02 -0.19840144244E+02  0.51969156073E+02  0.41800000000E+01 0.  1.
         -5    1    3    3    0  502  0.34900756185E+02 -0.19367479534E+02  0.90564614645E+02  0.99058487125E+02  0.41800000000E+01 0.  1.
        -11    1    1    2    0    0  0.15512799120E+02 -0.12814949604E+02  0.74167619482E+01  0.21444771570E+02  0.00000000000E+00 0.  1.
         11    1    1    2    0    0 -0.52276529277E+02 -0.15631991148E+02  0.17923421228E+03  0.18735553771E+03  0.00000000000E+00 0. -1.
</event>
<event>
 7    1  0.2679104E-009  0.1875266E+03  0.7561462E-02  0.1160711E+00
         -2   -1    0    0    0  501 -0.00000000000E+00  0.00000000000E+00  0.15580348603E+03  0.15580348603E+03  0.00000000000E+00 0. -1.
          2   -1    0    0  501    0  0.00000000000E+00 -0.00000000000E+00 -0.35136476321E+03  0.35136476321E+03  0.00000000000E+00 0.  1.
         25    2    1    2    0    0 -0.33849224957E+02 -0.14949822808E+03  0.49621842662E+02  0.20398238310E+03  0.12510393724E+03 0.  0.
          5    1    3    3  502    0  0.11369758155E+02 -0.15091017109E+03  0.29271958725E+02  0.15419945236E+03  0.41800000000E+01 0. -1.
         -5    1    3    3    0  502 -0.45218983112E+02  0.14119430090E+01  0.20349883937E+02  0.49782930739E+02  0.41800000000E+01 0. -1.
        -11    1    1    2    0    0  0.22301618513E+02 -0.53592700309E+01 -0.27935851028E+02  0.36145480163E+02  0.00000000000E+00 0.  1.
         11    1    1    2    0    0  0.11547606444E+02  0.15485749811E+03 -0.21724726882E+03  0.26704038598E+03  0.00000000000E+00 0. -1.
</event>
<event>
 7    1  0.2679104E-009  0.1119249E+03  0.7561462E-02  0.1257046E+00
          2   -1    0    0  501    0  0.00000000000E+00  0.00000000000E+00  0.52078545453E+03  0.52078545453E+03  0.00000000000E+00 0. -1.
         -2   -1    0    0    0  501 -0.00000000000E+00 -0.00000000000E+00 -0.36288157666E+02  0.36288157666E+02  0.00000000000E+00 0.  1.
         25    2    1    2    0    0 -0.81737439772E+02  0.21660582084E+02  0.26328777040E+03  0.30350277380E+03  0.12507315372E+03 0.  0.
          5    1    3    3  502    0 -0.46627909081E+02 -0.28736614229E+02  0.30746977110E+02  0.62950805428E+02  0.41800000000E+01 0. -1.
         -5    1    3    3    0  502 -0.35109530690E+02  0.50397196312E+02  0.23254079329E+03  0.24055196837E+03  0.41800000000E+01 0. -1.
        -11    1    1    2    0    0  0.62575120086E+02 -0.45060264042E+02  0.20549700052E+03  0.21948824632E+03  0.00000000000E+00 0. -1.
         11    1    1    2    0    0  0.19162319686E+02  0.23399681958E+02  0.15712525946E+02  0.34082592082E+02  0.00000000000E+00 0.  1.
</event>
<event>
 7    1  0.2679104E-009  0.8227268E+02  0.7561462E-02  0.1322723E+00
          2   -1    0    0  501    0  0.00000000000E+00  0.00000000000E+00  0.15044394947E+03  0.15044394947E+03  0.00000000000E+00 0. -1.
         -2   -1    0    0    0  501 -0.00000000000E+00 -0.00000000000E+00 -0.13729323936E+03  0.13729323936E+03  0.00000000000E+00 0.  1.
         25    2    1    2    0    0 -0.27307027018E+02  0.42436436891E+02 -0.74130930596E+02  0.15391143536E+03  0.12508721023E+03 0.  0.
          5    1    3    3  502    0 -0.13592493097E+02  0.65824318701E+02 -0.97076314105E+02  0.11814770400E+03  0.41800000000E+01 0.  1.
         -5    1    3    3    0  502 -0.13714533922E+02 -0.23387881811E+02  0.22945383509E+02  0.35763731358E+02  0.41800000000E+01 0.  1.
        -11    1    1    2    0    0 -0.11528380534E+02 -0.24325195758E+02  0.86899260417E+02  0.90973073859E+02  0.00000000000E+00 0. -1.
         11    1    1    2    0    0  0.38835407553E+02 -0.18111241133E+02  0.38238028831E+00  0.42852679611E+02  0.00000000000E+00 0.  1.
</event>
<event>
 7    1  0.2679104E-009  0.1353446E+03  0.7561462E-02  0.1219734E+00
         -2   -1    0    0    0  501 -0.00000000000E+00  0.00000000000E+00  0.16370278008E+03  0.16370278008E+03  0.00000000000E+00 0.  1.
          2   -1    0    0  501    0  0.00000000000E+00 -0.00000000000E+00 -0.14575157534E+03  0.14575157534E+03  0.00000000000E+00 0. -1.
         25    2    1    2    0    0 -0.43371276156E+02  0.10107608266E+03  0.18013353826E-01  0.16657271734E+03  0.12509607411E+03 0.  0.
          5    1    3    3  502    0 -0.72013405748E+02  0.10810498347E+03  0.18865367423E+02  0.13132399837E+03  0.41800000000E+01 0. -1.
         -5    1    3    3    0  502  0.28642129592E+02 -0.70289008080E+01 -0.18847354069E+02  0.35248718977E+02  0.41800000000E+01 0. -1.
        -11    1    1    2    0    0  0.34484138787E+02 -0.62784956460E+02  0.53865294435E+02  0.89624642427E+02  0.00000000000E+00 0.  1.
         11    1    1    2    0    0  0.88871373693E+01 -0.38291126204E+02 -0.35932103042E+02  0.53256995650E+02  0.00000000000E+00 0. -1.
</event>
<event>
 7    1  0.2679104E-009  0.7548140E+02  0.7561462E-02  0.1342387E+00
         -2   -1    0    0    0  501 -0.00000000000E+00  0.00000000000E+00  0.67995735204E+02  0.67995735204E+02  0.00000000000E+00 0. -1.
          2   -1    0    0  501    0  0.00000000000E+00 -0.00000000000E+00 -0.28998371548E+03  0.28998371548E+03  0.00000000000E+00 0.  1.
         25    2    1    2    0    0 -0.61769060850E+02  0.51338492157E+01 -0.20062467491E+03  0.24441358827E+03  0.12508384652E+03 0.  0.
          5    1    3    3  502    0 -0.61149422022E+02  0.24927831207E+02 -0.21137952469E+03  0.22149362167E+03  0.41800000000E+01 0. -1.
         -5    1    3    3    0  502 -0.61963882742E+00 -0.19793981991E+02  0.10754849775E+02  0.22919966602E+02  0.41800000000E+01 0. -1.
        -11    1    1    2    0    0  0.51497268246E+02  0.28045755717E+01 -0.56266497449E+02  0.76326620625E+02  0.00000000000E+00 0.  1.
         11    1    1    2    0    0  0.10271792604E+02 -0.79384247874E+01  0.34903192085E+02  0.37239241790E+02  0.00000000000E+00 0. -1.
</event>
<event>
 7    1  0.2679104E-009  0.1152219E+03  0.7561462E-02  0.1251194E+00
         -2   -1    0    0    0  501 -0.00000000000E+00  0.00000000000E+00  0.24357972598E+02  0.24357972598E+02  0.00000000000E+00 0.  1.
          2   -1    0    0  501    0  0.00000000000E+00 -0.00000000000E+00 -0.96103241008E+03  0.96103241008E+03  0.00000000000E+00 0. -1.
         25    2    1    2    0    0 -0.61024889004E+02  0.70147455719E+02 -0.33177983669E+03  0.36656562704E+03  0.12509115184E+03 0.  0.
          5    1    3    3  502    0 -0.67128405066E+02  0.44737575973E+02 -0.81005081700E+02  0.11439829165E+03  0.41800000000E+01 0.  1.
         -5    1    3    3    0  502  0.61035160620E+01  0.25409879747E+02 -0.25077475499E+03  0.25216733539E+03  0.41800000000E+01 0.  1.
        -11    1    1    2    0    0  0.77447045482E+02 -0.36200131653E+02 -0.50221203215E+03  0.50943637446E+03  0.00000000000E+00 0. -1.
         11    1    1    2    0    0 -0.16422156478E+02 -0.33947324067E+02 -0.10268256864E+03  0.10938838118E+03  0.00000000000E+00 0.  1.
</event>
<event>
 7    1  0.2679104E-009  0.2300347E+03  0.7561462E-02  0.1126615E+00
          2   -1    0    0  501    0  0.00000000000E+00  0.00000000000E+00  0.10224435935E+04  0.10224435935E+04  0.00000000000E+00 0. -1.
         -2   -1    0    0    0  501 -0.00000000000E+00 -0.00000000000E+00 -0.63145942381E+02  0.63145942381E+02  0.00000000000E+00 0.  1.
         25    2    1    2    0    0  0.73328321634E+02  0.21298089865E+03  0.58541920381E+03  0.63961022212E+03  0.12509071152E+03 0.  0.
          5    1    3    3  502    0  0.83094839723E+02  0.16354389715E+03  0.54442493074E+03  0.57451487038E+03  0.41800000000E+01 0.  1.
         -5    1    3    3    0  502 -0.97665180895E+01  0.49437001502E+02  0.40994273070E+02  0.65095351736E+02  0.41800000000E+01 0.  1.
        -11    1    1    2    0    0 -0.21393867360E+02 -0.90158069453E+02  0.76825658227E+02  0.12036759036E+03  0.00000000000E+00 0.  1.
         11    1    1    2    0    0 -0.51934454274E+02 -0.12282282920E+03  0.29705278910E+03  0.32561172342E+03  0.00000000000E+00 0. -1.
</event>
<event>
 7    1  0.2679104E-009  0.1082272E+03  0.7561462E-02  0.1263888E+00
         -2   -1    0    0    0  501 -0.00000000000E+00  0.00000000000E+00  0.34935746986E+02  0.34935746986E+02  0.00000000000E+00 0.  1.
          2   -1    0    0  501    0  0.00000000000E+00 -0.00000000000E+00 -0.34317940831E+03  0.34317940831E+03  0.00000000000E+00 0. -1.
         25    2    1    2    0    0  0.19799111026E+02  0.76488366965E+01 -0.19002756757E+03  0.22849284691E+03  0.12509194680E+03 0.  0.
          5    1    3    3  502    0  0.11727569548E+01  0.64748345307E+02 -0.11753213306E+03  0.13425720942E+03  0.41800000000E+01 0. -1.
         -5    1    3    3    0  502  0.18626354071E+02 -0.57099508611E+02 -0.72495434510E+02  0.94235637496E+02  0.41800000000E+01 0. -1.
        -11    1    1    2    0    0 -0.55365829715E+02 -0.25516611569E+01 -0.65141662429E+02  0.85529657188E+02  0.00000000000E+00 0.  1.
         11    1    1    2    0    0  0.35566718689E+02 -0.50971755396E+01 -0.53074431328E+02  0.64092651198E+02  0.00000000000E+00 0. -1.
</event>
<event>
 7    1  0.2679104E-009  0.5073646E+02  0.7561462E-02  0.1441409E+00
          1   -1    0    0  501    0  0.00000000000E+00  0.00000000000E+00  0.67899360000E+03  0.67899360000E+03  0.00000000000E+00 0.  1.
         -1   -1    0    0    0  501 -0.00000000000E+00 -0.00000000000E+00 -0.25127672077E+02  0.25127672077E+02  0.00000000000E+00 0. -1.
         25    2    1    2    0    0  0.36521560092E+02  0.16844035062E+02  0.60310024066E+03  0.61724912321E+03  0.12509609887E+03 0.  0.
          5    1    3    3  502    0  0.39182640754E+01  0.27014785403E+01  0.56479356089E+03  0.56482907999E+03  0.41800000000E+01 0.  1.
         -5    1    3    3    0  502  0.32603296017E+02  0.14142556522E+02  0.38306679763E+02  0.52420043214E+02  0.41800000000E+01 0.  1.
        -11    1    1    2    0    0 -0.40439429362E+02  0.16280010974E+01  0.96191297017E+01  0.41599585226E+02  0.00000000000E+00 0. -1.
         11    1    1    2    0    0  0.39178692702E+01 -0.18472036160E+02  0.41146557566E+02  0.45272563646E+02  0.00000000000E+00 0.  1.
</event>
<event>
 7    1  0.2679104E-009  0.7240907E+02  0.7561462E-02  0.1352087E+00
          2   -1    0    0  501    0  0.00000000000E+00  0.00000000000E+00  0.15391862366E+03  0.15391862366E+03  0.00000000000E+00 0. -1.
         -2   -1    0    0    0  501 -0.00000000000E+00 -0.00000000000E+00 -0.82637707546E+02  0.82637707546E+02  0.00000000000E+00 0.  1.
         25    2    1    2    0    0 -0.13011436647E+02 -0.15647107153E+02  0.66949615228E+02  0.14333126812E+03  0.12508985568E+03 0.  0.
          5    1    3    3  502    0  0.30928757359E+02  0.23072315923E+02  0.74627354952E+02  0.84116789649E+02  0.41800000000E+01 0.  1.
         -5    1    3    3    0  502 -0.43940194006E+02 -0.38719423077E+02 -0.76777397240E+01  0.59214478466E+02  0.41800000000E+01 0.  1.
        -11    1    1    2    0    0  0.60653170732E+00 -0.14593045901E+02  0.41342811300E+02  0.43846925953E+02  0.00000000000E+00 0. -1.
         11    1    1    2    0    0  0.12404904940E+02  0.30240153054E+02 -0.37011510417E+02  0.49378137133E+02  0.00000000000E+00 0.  1.
</event>
<event>
 7    1  0.2679104E-009  0.1150136E+03  0.7561462E-02  0.1251557E+00
          2   -1    0    0  501    0  0.00000000000E+00  0.00000000000E+00  0.30837819306E+03  0.30837819306E+03  0.00000000000E+00 0. -1.
         -2   -1    0    0    0  501 -0.00000000000E+00 -0.00000000000E+00 -0.82942153969E+02  0.82942153969E+02  0.00000000000E+00 0.  1.
         25    2    1    2    0    0 -0.47231354054E+02 -0.55638532261E+02  0.22975149514E+03  0.27158655844E+03  0.12508821738E+03 0.  0.
          5    1    3    3  502    0 -0.34107218334E+02  0.23822675914E+02  0.18990552580E+02  0.45923150126E+02  0.41800000000E+01 0. -1.
         -5    1    3    3    0  502 -0.13124135720E+02 -0.79461208175E+02  0.21076094256E+03  0.22566340831E+03  0.41800000000E+01 0. -1.
        -11    1    1    2    0    0  0.60682503850E+02  0.66685302656E+02 -0.24153981759E+02  0.93341902159E+02  0.00000000000E+00 0.  1.
         11    1    1    2    0    0 -0.13451149796E+02 -0.11046770395E+02  0.19838525713E+02  0.26391886433E+02  0.00000000000E+00 0. -1.
</event>
<event>
 7    1  0.2679104E-009  0.1414492E+03  0.7561462E-02  0.1211392E+00
          2   -1    0    0  501    0  0.00000000000E+00  0.00000000000E+00  0.29484448853E+03  0.29484448853E+03  0.00000000000E+00 0. -1.
         -2   -1    0    0    0  501 -0.00000000000E+00 -0.00000000000E+00 -0.68279235583E+02  0.68279235583E+02  0.00000000000E+00 0.  1.
         25    2    1    2    0    0  0.89524205981E+02  0.56682917107E+01  0.12815892657E+03  0.20029695528E+03  0.12508975516E+03 0.  0.
          5    1    3    3  502    0  0.10221468701E+03 -0.37150235678E+02  0.85615473213E+02  0.13847549929E+03  0.41800000000E+01 0. -1.
         -5    1    3    3    0  502 -0.12690481026E+02  0.42818527389E+02  0.42543453360E+02  0.61821455986E+02  0.41800000000E+01 0. -1.
        -11    1    1    2    0    0  0.19553015056E+02 -0.47677924527E+01  0.10304135946E+02  0.22610339675E+02  0.00000000000E+00 0.  1.
         11    1    1    2    0    0 -0.10907722104E+03 -0.90049925803E+00  0.88102190428E+02  0.14021642916E+03  0.00000000000E+00 0. -1.
</event>
<event>
 7    1  0.2703894E-009  0.1626900E+03  0.7561462E-02  0.1185693E+00
          2   -1    0    0  501    0  0.00000000000E+00  0.00000000000E+00  0.75083860821E+03  0.75083860821E+03  0.00000000000E+00 0. -1.
         -2   -1    0    0    0  501 -0.00000000000E+00 -0.00000000000E+00 -0.48851431691E+02  0.48851431691E+02  0.00000000000E+00 0.  1.
         25    2    1    2    0    0  0.67227777592E+01  0.13029899896E+03  0.55357025759E+03  0.58233247922E+03  0.12509221158E+03 0.  0.
          5    1    3    3  502    0 -0.37960180030E+02  0.96021426347E+01  0.56602837815E+02  0.68953100437E+02  0.41800000000E+01 0. -1.
         -5    1    3    3    0  502  0.44682957790E+02  0.12069685632E+03  0.49696741978E+03  0.51337937879E+03  0.41800000000E+01 0. -1.
        -11    1    1    2    0    0 -0.47088491746E+02 -0.78808067758E+02  0.71398309871E+02  0.11630028483E+03  0.00000000000E+00 0.  1.
         11    1    1    2    0    0  0.40365713987E+02 -0.51490931198E+02  0.77018609049E+02  0.10105727584E+03  0.00000000000E+00 0. -1.
</event>
<event>
 7    1  0.2679104E-009  0.1617674E+03  0.7561462E-02  0.1186716E+00
         -2   -1    0    0    0  501 -0.00000000000E+00  0.00000000000E+00  0.36831208449E+02  0.36831208449E+02  0.00000000000E+00 0.  1.
          2   -1    0    0  501    0  0.00000000000E+00 -0.00000000000E+00 -0.92131159921E+03  0.92131159921E+03  0.00000000000E+00 0. -1.
         25    2    1    2    0    0 -0.10958564104E+03 -0.83767141135E+02 -0.32210320020E+03  0.37205286549E+03  0.12508763521E+03 0.  0.
          5    1    3    3  502    0 -0.38789540898E+02 -0.80236578403E+02 -0.26892992042E+03  0.28334309855E+03  0.41800000000E+01 0.  1.
         -5    1    3    3    0  502 -0.70796100142E+02 -0.35305627320E+01 -0.53173279783E+02  0.88709766945E+02  0.41800000000E+01 0.  1.
        -11    1    1    2    0    0  0.13188362342E+02  0.63433903271E+02 -0.26558227031E+03  0.27337105788E+03  0.00000000000E+00 0.  1.
         11    1    1    2    0    0  0.96397278698E+02  0.20333237864E+02 -0.29679492025E+03  0.31271888429E+03  0.00000000000E+00 0. -1.
</event>
<event>
 7    1  0.2679104E-009  0.1463118E+03  0.7561462E-02  0.1205080E+00
         -3   -1    0    0    0  501 -0.00000000000E+00  0.00000000000E+00  0.55756926422E+02  0.55756926422E+02  0.00000000000E+00 0. -1.
          3   -1    0    0  501    0  0.00000000000E+00 -0.00000000000E+00 -0.61925630348E+03  0.61925630348E+03  0.00000000000E+00 0.  1.
         25    2    1    2    0    0  0.47796988811E+02  0.10368086676E+03 -0.47638623964E+03  0.50559524437E+03  0.12509367506E+03 0.  0.
          5    1    3    3  502    0  0.62775050448E+02 -0.55824643085E+00 -0.20603837182E+03  0.21543050309E+03  0.41800000000E+01 0. -1.
         -5    1    3    3    0  502 -0.14978061637E+02  0.10423911319E+03 -0.27034786782E+03  0.29016474128E+03  0.41800000000E+01 0. -1.
        -11    1    1    2    0    0 -0.18884856212E+02 -0.90659122898E+02 -0.98993694738E+02  0.13555613581E+03  0.00000000000E+00 0.  1.
         11    1    1    2    0    0 -0.28912132599E+02 -0.13021743860E+02  0.11880557316E+02  0.33861849724E+02  0.00000000000E+00 0. -1.
</event>
<event>
 7    1  0.2679104E-009  0.8991495E+02  0.7561462E-02  0.1303058E+00
         -2   -1    0    0    0  501 -0.00000000000E+00  0.00000000000E+00  0.76081839848E+02  0.76081839848E+02  0.00000000000E+00 0.  1.
          2   -1    0    0  501    0  0.00000000000E+00 -0.00000000000E+00 -0.23162363690E+03  0.23162363690E+03  0.00000000000E+00 0. -1.
         25    2    1    2    0    0  0.36010509063E+02 -0.67059249820E+02 -0.78042834730E+02  0.16593991492E+03  0.12510664076E+03 0.  0.
          5    1    3    3  502    0  0.11570402411E+02  0.70207343822E+01 -0.86236470217E+02  0.87392025487E+02  0.41800000000E+01 0.  1.
         -5    1    3    3    0  502  0.24440106652E+02 -0.74079984202E+02  0.81936354868E+01  0.78547889437E+02  0.41800000000E+01 0.  1.
        -11    1    1    2    0    0 -0.23884608342E+02  0.70909009356E+02 -0.12902080812E+02  0.75927767074E+02  0.00000000000E+00 0.  1.
         11    1    1    2    0    0 -0.12125900720E+02 -0.38497595362E+01 -0.64596881511E+02  0.65837794751E+02  0.00000000000E+00 0. -1.
</event>
<event>
 7    1  0.2679104E-009  0.1260672E+03  0.7561462E-02  0.1233411E+00
         -2   -1    0    0    0  501 -0.00000000000E+00  0.00000000000E+00  0.26363962596E+03  0.26363962596E+03  0.00000000000E+00 0.  1.
          2   -1    0    0  501    0  0.00000000000E+00 -0.00000000000E+00 -0.84827133494E+02  0.84827133494E+02  0.00000000000E+00 0. -1.
         25    2    1    2    0    0  0.25262281568E+02 -0.93994608865E+02  0.13444452094E+03  0.20783785139E+03  0.12509226152E+03 0.  0.
          5    1    3    3  502    0 -0.27486012219E+02 -0.16501051129E+02 -0.11513296400E+02  0.34319002754E+02  0.41800000000E+01 0. -1.
         -5    1    3    3    0  502  0.52748293787E+02 -0.77493557736E+02  0.14595781734E+03  0.17351884863E+03  0.41800000000E+01 0. -1.
        -11    1    1    2    0    0  0.25491547699E+02  0.59138116400E+02  0.45829617315E+02  0.79041062990E+02  0.00000000000E+00 0.  1.
         11    1    1    2    0    0 -0.50753829266E+02  0.34856492465E+02 -0.14616457945E+01  0.61587845072E+02  0.00000000000E+00 0. -1.
</event>
<event>
 7    1  0.2679104E-009  0.9314210E+02  0.7561462E-02  0.1295416E+00
          1   -1    0    0  501    0  0.00000000000E+00  0.00000000000E+00  0.74140725951E+02  0.74140725951E+02  0.00000000000E+00 0. -1.
         -1   -1    0    0    0  501 -0.00000000000E+00 -0.00000000000E+00 -0.16937792600E+03  0.16937792600E+03  0.00000000000E+00 0.  1.
         25    2    1    2    0    0 -0.22787590536E+02 -0.15481941346E+02 -0.45725169881E+02  0.13600727676E+03  0.12509285903E+03 0.  0.
          5    1    3    3  502    0 -0.61847037278E+02  0.19651735379E+02 -0.51552495347E+02  0.82984208739E+02  0.41800000000E+01 0. -1.
         -5    1    3    3    0  502  0.39059446742E+02 -0.35133676726E+02  0.58273254664E+01  0.53023068019E+02  0.41800000000E+01 0. -1.
        -11    1    1    2    0    0  0.13488518017E+02 -0.24249549041E+02 -0.59368015567E+02  0.65532755316E+02  0.00000000000E+00 0.  1.
         11    1    1    2    0    0  0.92990725186E+01  0.39731490387E+02  0.98559854031E+01  0.41978619872E+02  0.00000000000E+00 0. -1.
</event>
<event>
 7    1  0.2679104E-009  0.1073497E+03  0.7561462E-02  0.1265558E+00
         -2   -1    0    0    0  501 -0.00000000000E+00  0.00000000000E+00  0.51441202034E+02  0.51441202034E+02  0.00000000000E+00 0.  1.
          2   -1    0    0  501    0  0.00000000000E+00 -0.00000000000E+00 -0.35853176200E+03  0.35853176200E+03  0.00000000000E+00 0. -1.
         25    2    1    2    0    0  0.17257363814E+02  0.96517309730E+02 -0.18421891225E+03  0.24330667470E+03  0.12509245637E+03 0.  0.
          5    1    3    3  502    0  0.20201486357E+01  0.79319584135E+02 -0.26336568053E+02  0.83706419375E+02  0.41800000000E+01 0.  1.
         -5    1    3    3    0  502  0.15237215178E+02  0.17197725595E+02 -0.15788234419E+03  0.15960025532E+03  0.41800000000E+01 0.  1.
        -11    1    1    2    0    0  0.18739001647E+02 -0.20458806037E+02 -0.38981271075E+02  0.47846132778E+02  0.00000000000E+00 0.  1.
         11    1    1    2    0    0 -0.35996365461E+02 -0.76058503693E+02 -0.83890376647E+02  0.11882015656E+03  0.00000000000E+00 0. -1.
</event>
<event>
 7    1  0.2679104E-009  0.1209993E+03  0.7561462E-02  0.1241458E+00
          3   -1    0    0  501    0  0.00000000000E+00  0.00000000000E+00  0.40989719861E+03  0.40989719861E+03  0.00000000000E+00 0. -1.
         -3   -1    0    0    0  501 -0.00000000000E+00 -0.00000000000E+00 -0.56951591813E+02  0.56951591813E+02  0.00000000000E+00 0.  1.
         25    2    1    2    0    0  0.68288362375E+02 -0.60592167719E+02  0.27668274119E+03  0.31707346190E+03  0.12509008652E+03 0.  0.
          5    1    3    3  502    0  0.10371326865E+02 -0.71618214097E+02  0.65227945276E+02  0.97513538835E+02  0.41800000000E+01 0. -1.
         -5    1    3    3    0  502  0.57917035510E+02  0.11026046378E+02  0.21145479592E+03  0.21955992307E+03  0.41800000000E+01 0. -1.
        -11    1    1    2    0    0 -0.80291653663E+02  0.52619415254E+02  0.88728205853E+02  0.13072202195E+03  0.00000000000E+00 0. -1.
         11    1    1    2    0    0  0.12003291287E+02  0.79727524650E+01 -0.12465340250E+02  0.19053306567E+02  0.00000000000E+00 0.  1.
</event>
<event>
 7    1  0.2679104E-009  0.1614010E+03  0.7561462E-02  0.1187124E+00
         -2   -1    0    0    0  501 -0.00000000000E+00  0.00000000000E+00  0.15289642913E+03  0.15289642913E+03  0.00000000000E+00 0.  1.
          2   -1    0    0  501    0  0.00000000000E+00 -0.00000000000E+00 -0.24251940065E+03  0.24251940065E+03  0.00000000000E+00 0. -1.
         25    2    1    2    0    0 -0.15219152589E+03 -0.29915387161E+02 -0.20205103636E+02  0.20026945540E+03  0.12506965104E+03 0.  0.
          5    1    3    3  502    0 -0.11203410277E+03 -0.43666007779E+02 -0.66378247230E+02  0.13741144248E+03  0.41800000000E+01 0.  1.
         -5    1    3    3    0  502 -0.40157423125E+02  0.13750620618E+02  0.46173143594E+02  0.62858012924E+02  0.41800000000E+01 0.  1.
        -11    1    1    2    0    0  0.42307452802E+02 -0.90168446672E+01  0.20549234192E+02  0.47890448695E+02  0.00000000000E+00 0.  1.
         11    1    1    2    0    0  0.10988407309E+03  0.38932231828E+02 -0.89967102077E+02  0.14725592569E+03  0.00000000000E+00 0. -1.
</event>
<event>
 7    1  0.2679104E-009  0.9405238E+02  0.7561462E-02  0.1293325E+00
         -1   -1    0    0    0  501 -0.00000000000E+00  0.00000000000E+00  0.30781890521E+03  0.30781890521E+03  0.00000000000E+00 0.  1.
          1   -1    0    0  501    0  0.00000000000E+00 -0.00000000000E+00 -0.70557554919E+02  0.70557554919E+02  0.00000000000E+00 0. -1.
         25    2    1    2    0    0 -0.23003670376E+02 -0.39975036562E+02  0.23799079989E+03  0.27279482997E+03  0.12510086343E+03 0.  0.
          5    1    3    3  502    0 -0.84426985739E+01 -0.60108844575E+02  0.23992961622E+03  0.24752382814E+03  0.41800000000E+01 0.  1.
         -5    1    3    3    0  502 -0.14560971802E+02  0.20133808013E+02 -0.19388163376E+01  0.25271001834E+02  0.41800000000E+01 0.  1.
        -11    1    1    2    0    0  0.53720925529E+02  0.46045835646E+02  0.12031204988E+02  0.71769817566E+02  0.00000000000E+00 0.  1.
         11    1    1    2    0    0 -0.30717255154E+02 -0.60707990840E+01 -0.12760654578E+02  0.33811812595E+02  0.00000000000E+00 0. -1.
</event>
<event>
 7    1  0.2679104E-009  0.1628626E+03  0.7561462E-02  0.1185502E+00
         -2   -1    0    0    0  501 -0.00000000000E+00  0.00000000000E+00  0.11690513286E+03  0.11690513286E+03  0.00000000000E+00 0.  1.
          2   -1    0    0  501    0  0.00000000000E+00 -0.00000000000E+00 -0.29836617864E+03  0.29836617864E+03  0.00000000000E+00 0. -1.
         25    2    1    2    0    0  0.14197152849E+03 -0.51062917500E+02 -0.11013957280E+03  0.22481509979E+03  0.12509103546E+03 0.  0.
          5    1    3    3  502    0  0.30109342506E+02  0.19177977621E+02 -0.82237378583E+02  0.89748683377E+02  0.41800000000E+01 0. -1.
         -5    1    3    3    0  502  0.11186218599E+03 -0.70240895121E+02 -0.27902194220E+02  0.13506641641E+03  0.41800000000E+01 0. -1.
        -11    1    1    2    0    0 -0.40969618202E+02  0.37831815033E+02  0.14094596142E+02  0.57518809834E+02  0.00000000000E+00 0.  1.
         11    1    1    2    0    0 -0.10100191029E+03  0.13231102467E+02 -0.85416069113E+02  0.13293740188E+03  0.00000000000E+00 0. -1.
</event>
<event>
 7    1  0.2679104E-009  0.8653273E+02  0.7561462E-02  0.1311472E+00
          1   -1    0    0  501    0  0.00000000000E+00  0.00000000000E+00  0.13529601215E+03  0.13529601215E+03  0.00000000000E+00 0. -1.
         -1   -1    0    0    0  501 -0.00000000000E+00 -0.00000000000E+00 -0.11431155039E+03  0.11431155039E+03  0.00000000000E+00 0.  1.
         25    2    1    2    0    0 -0.53044197122E+02 -0.24107244192E+01  0.36175448361E+02  0.14062496432E+03  0.12508884477E+03 0.  0.
          5    1    3    3  502    0  0.29510166186E+02 -0.10564344357E+02  0.47222643578E+02  0.56832259735E+02  0.41800000000E+01 0. -1.
         -5    1    3    3    0  502 -0.82554363308E+02  0.81536199376E+01 -0.11047195217E+02  0.83792704583E+02  0.41800000000E+01 0. -1.
        -11    1    1    2    0    0  0.10702588768E+02  0.10814420244E+02  0.37733720984E+02  0.40685756609E+02  0.00000000000E+00 0. -1.
         11    1    1    2    0    0  0.42341608354E+02 -0.84036958244E+01 -0.52924707584E+02  0.68296841613E+02  0.00000000000E+00 0.  1.
</event>
<event>
 7    1  0.2679104E-009  0.1013918E+03  0.7561462E-02  0.1277396E+00
          2   -1    0    0  501    0  0.00000000000E+00  0.00000000000E+00  0.90927167463E+03  0.90927167463E+03  0.00000000000E+00 0. -1.
         -2   -1    0    0    0  501 -0.00000000000E+00 -0.00000000000E+00 -0.25047477760E+02  0.25047477760E+02  0.00000000000E+00 0.  1.
         25    2    1    2    0    0 -0.25927676566E+01  0.79215724356E+02  0.70196026088E+03  0.71741031269E+03  0.12508994949E+03 0.  0.
          5    1    3    3  502    0 -0.31092668725E+02  0.34085667472E+02  0.60400110597E+03  0.60577503678E+03  0.41800000000E+01 0.  1.
         -5    1    3    3    0  502  0.28499901069E+02  0.45130056884E+02  0.97959154912E+02  0.11163527590E+03  0.41800000000E+01 0.  1.
        -11    1    1    2    0    0 -0.30564265460E+02 -0.50632172705E+02  0.49531874238E+02  0.77144006906E+02  0.00000000000E+00 0.  1.
         11    1    1    2    0    0  0.33157033117E+02 -0.28583551651E+02  0.13273206175E+03  0.13976483279E+03  0.00000000000E+00 0. -1.
</event>
<event>
 7    1  0.2679104E-009  0.1752383E+03  0.7561462E-02  0.1172493E+00
          1   -1    0    0  501    0  0.00000000000E+00  0.00000000000E+00  0.47543557119E+03  0.47543557119E+03  0.00000000000E+00 0. -1.
         -1   -1    0    0    0  501 -0.00000000000E+00 -0.00000000000E+00 -0.81811286445E+02  0.81811286445E+02  0.00000000000E+00 0.  1.
         25    2    1    2    0    0  0.14342382038E+03  0.84249159675E+02  0.18469110798E+03  0.27825674345E+03  0.12509075405E+03 0.  0.
          5    1    3    3  502    0  0.96476430830E+02  0.56861537265E+02  0.32627537467E+02  0.11671745682E+03  0.41800000000E+01 0.  1.
         -5    1    3    3    0  502  0.46947389548E+02  0.27387622410E+02  0.15206357051E+03  0.16153928662E+03  0.41800000000E+01 0.  1.
        -11    1    1    2    0    0 -0.56262847546E+02  0.81815107351E+01  0.51713313599E+02  0.76855136037E+02  0.00000000000E+00 0. -1.
         11    1    1    2    0    0 -0.87160972832E+02 -0.92430670410E+02  0.15721986317E+03  0.20213497815E+03  0.00000000000E+00 0.  1.
</event>
<event>
 7    1  0.2824811E-009  0.8819207E+02  0.7561462E-02  0.1307290E+00
         -1   -1    0    0    0  501 -0.00000000000E+00  0.00000000000E+00  0.36305729921E+02  0.36305729921E+02  0.00000000000E+00 0.  1.
          1   -1    0    0  501    0  0.00000000000E+00 -0.00000000000E+00 -0.36509292521E+03  0.36509292521E+03  0.00000000000E+00 0. -1.
         25    2    1    2    0    0  0.26441773272E+01 -0.11321312456E+02 -0.25036981617E+03  0.28012098753E+03  0.12509020352E+03 0.  0.
          5    1    3    3  502    0  0.51650427827E+02  0.24213199499E+01 -0.45565502023E+02  0.69045759172E+02  0.41800000000E+01 0. -1.
         -5    1    3    3    0  502 -0.49006250500E+02 -0.13742632405E+02 -0.20480431414E+03  0.21107522836E+03  0.41800000000E+01 0. -1.
        -11    1    1    2    0    0 -0.15711498585E+02  0.39428723506E+02 -0.64657694699E+01  0.42933455486E+02  0.00000000000E+00 0.  1.
         11    1    1    2    0    0  0.13067321258E+02 -0.28107411051E+02 -0.71951609651E+02  0.78344212117E+02  0.00000000000E+00 0. -1.
</event>
<event>
 7    1  0.2679104E-009  0.1512042E+03  0.7561462E-02  0.1199001E+00
         -1   -1    0    0    0  501 -0.00000000000E+00  0.00000000000E+00  0.12249230791E+02  0.12249230791E+02  0.00000000000E+00 0.  1.
          1   -1    0    0  501    0  0.00000000000E+00 -0.00000000000E+00 -0.29205204637E+04  0.29205204637E+04  0.00000000000E+00 0. -1.
         25    2    1    2    0    0 -0.71676924852E+02 -0.83158789090E+02 -0.23661279047E+04  0.23719744092E+04  0.12509344689E+03 0.  0.
          5    1    3    3  502    0  0.20586527602E+02  0.13896693696E+02 -0.70599527851E+03  0.70644442732E+03  0.41800000000E+01 0.  1.
         -5    1    3    3    0  502 -0.92263452454E+02 -0.97055482786E+02 -0.16601326262E+04  0.16655299819E+04  0.41800000000E+01 0.  1.
        -11    1    1    2    0    0  0.29887142175E+02 -0.17234753436E+02 -0.11875839603E+03  0.12366824419E+03  0.00000000000E+00 0.  1.
         11    1    1    2    0    0  0.41789782677E+02  0.10039354253E+03 -0.42338493211E+03  0.43712704109E+03  0.00000000000E+00 0. -1.
</event>
<event>
 7    1  0.2679104E-009  0.1372070E+03  0.7561462E-02  0.1217137E+00
          2   -1    0    0  501    0  0.00000000000E+00  0.00000000000E+00  0.20494504847E+02  0.20494504847E+02  0.00000000000E+00 0. -1.
         -2   -1    0    0    0  501 -0.00000000000E+00 -0.00000000000E+00 -0.11088692167E+04  0.11088692167E+04  0.00000000000E+00 0.  1.
         25    2    1    2    0    0 -0.82233626162E+02 -0.60136188059E+02 -0.65694866253E+03  0.67646588422E+03  0.12508324003E+03 0.  0.
          5    1    3    3  502    0 -0.10775302283E+01  0.22883498651E+02 -0.25969296058E+02  0.34881116950E+02  0.41800000000E+01 0. -1.
         -5    1    3    3    0  502 -0.81156095934E+02 -0.83019686710E+02 -0.63097936647E+03  0.64158476727E+03  0.41800000000E+01 0. -1.
        -11    1    1    2    0    0 -0.19224815036E+02  0.73134636568E+01 -0.38363272559E+02  0.43529541064E+02  0.00000000000E+00 0. -1.
         11    1    1    2    0    0  0.10145844120E+03  0.52822724402E+02 -0.39306277681E+03  0.40936829630E+03  0.00000000000E+00 0.  1.
</event>
<event>
 7    1  0.2679104E-009  0.1091082E+03  0.7561462E-02  0.1262230E+00
          3   -1    0    0  501    0  0.00000000000E+00  0.00000000000E+00  0.20273236872E+03  0.20273236872E+03  0.00000000000E+00 0. -1.
         -3   -1    0    0    0  501 -0.00000000000E+00 -0.00000000000E+00 -0.73566944309E+02  0.73566944309E+02  0.00000000000E+00 0.  1.
         25    2    1    2    0    0 -0.51468186467E+02  0.18115033921E+02  0.68387884477E+02  0.15264543326E+03  0.12508635769E+03 0.  0.
          5    1    3    3  502    0  0.14056683096E+02 -0.34620403790E+02 -0.85717208996E+01  0.38563058714E+02  0.41800000000E+01 0. -1.
         -5    1    3    3    0  502 -0.65524869563E+02  0.52735437711E+02  0.76959605377E+02  0.11408237454E+03  0.41800000000E+01 0. -1.
        -11    1    1    2    0    0 -0.21431608462E+02 -0.65055657187E+00  0.40774478873E+02  0.46068375188E+02  0.00000000000E+00 0. -1.
         11    1    1    2    0    0  0.72899794929E+02 -0.17464477349E+02  0.20003061062E+02  0.77585504584E+02  0.00000000000E+00 0.  1.
</event>
<event>
 7    1  0.2679104E-009  0.1369342E+03  0.7561462E-02  0.1217515E+00
          2   -1    0    0  501    0  0.00000000000E+00  0.00000000000E+00  0.31265079227E+04  0.31265079227E+04  0.00000000000E+00 0. -1.
         -2   -1    0    0    0  501 -0.00000000000E+00 -0.00000000000E+00 -0.95221364394E+01  0.95221364394E+01  0.00000000000E+00 0.  1.
         25    2    1    2    0    0 -0.49098642517E+02 -0.10742173419E+03  0.22893465051E+04  0.22958015782E+04  0.12508940975E+03 0.  0.
          5    1    3    3  502    0 -0.29402571278E+02 -0.12985525145E+02  0.11980035523E+03  0.12410774582E+03  0.41800000000E+01 0.  1.
         -5    1    3    3    0  502 -0.19696071239E+02 -0.94436209045E+02  0.21695461498E+04  0.21716938324E+04  0.41800000000E+01 0.  1.
        -11    1    1    2    0    0 -0.10207683059E+02  0.78051243957E+02  0.45383848335E+03  0.46061433157E+03  0.00000000000E+00 0. -1.
         11    1    1    2    0    0  0.59306325576E+02  0.29370490233E+02  0.37380079780E+03  0.37961414935E+03  0.00000000000E+00 0.  1.
</event>
<event>
 7    1  0.2948106E-009  0.1517250E+03  0.7561462E-02  0.1198369E+00
          1   -1    0    0  501    0  0.00000000000E+00  0.00000000000E+00  0.10036600573E+04  0.10036600573E+04  0.00000000000E+00 0. -1.
         -1   -1    0    0    0  501 -0.00000000000E+00 -0.00000000000E+00 -0.24464286772E+02  0.24464286772E+02  0.00000000000E+00 0.  1.
         25    2    1    2    0    0  0.35821461394E+02  0.10558947981E+03  0.46175595165E+03  0.49122110573E+03  0.12508917016E+03 0.  0.
          5    1    3    3  502    0  0.77058270680E+02  0.96985738560E+02  0.31582614486E+03  0.33927545850E+03  0.41800000000E+01 0.  1.
         -5    1    3    3    0  502 -0.41236809286E+02  0.86037412543E+01  0.14592980679E+03  0.15194564723E+03  0.41800000000E+01 0.  1.
        -11    1    1    2    0    0  0.10941669992E+02 -0.85638938150E+02  0.39504600424E+03  0.40436999559E+03  0.00000000000E+00 0.  1.
         11    1    1    2    0    0 -0.46763131386E+02 -0.19950541664E+02  0.12239381459E+03  0.13253324270E+03  0.00000000000E+00 0. -1.
</event>
<event>
 7    1  0.2679104E-009  0.9404271E+02  0.7561462E-02  0.1293347E+00
         -1   -1    0    0    0  501 -0.00000000000E+00  0.00000000000E+00  0.27437504193E+02  0.27437504193E+02  0.00000000000E+00 0.  1.
          1   -1    0    0  501    0  0.00000000000E+00 -0.00000000000E+00 -0.45507801002E+03  0.45507801002E+03  0.00000000000E+00 0. -1.
         25    2    1    2    0    0  0.33934488704E+00 -0.97820609385E+01 -0.30757735258E+03  0.33218239962E+03  0.12508203280E+03 0.  0.
          5    1    3    3  502    0 -0.13587820425E+02 -0.56047186181E+02 -0.75532020152E+02  0.95123469296E+02  0.41800000000E+01 0. -1.
         -5    1    3    3    0  502  0.13927165312E+02  0.46265125242E+02 -0.23204533243E+03  0.23705893033E+03  0.41800000000E+01 0. -1.
        -11    1    1    2    0    0 -0.96930806392E+01 -0.34846097952E+02 -0.86369948390E+02  0.93637462267E+02  0.00000000000E+00 0.  1.
         11    1    1    2    0    0  0.93537357522E+01  0.44628158891E+02 -0.33693204856E+02  0.56695652320E+02  0.00000000000E+00 0. -1.
</event>
<event>
 7    1  0.2679104E-009  0.1455800E+03  0.7561462E-02  0.1206012E+00
         -2   -1    0    0    0  501 -0.00000000000E+00  0.00000000000E+00  0.45418844907E+02  0.45418844907E+02  0.00000000000E+00 0.  1.
          2   -1    0    0  501    0  0.00000000000E+00 -0.00000000000E+00 -0.55117465160E+03  0.55117465160E+03  0.00000000000E+00 0. -1.
         25    2    1    2    0    0  0.95513171716E+02  0.59171397271E+02 -0.23946580801E+03  0.29260107142E+03  0.12508994189E+03 0.  0.
          5    1    3    3  502    0  0.62065149986E+01  0.57781548685E+02 -0.31514140201E+02  0.66240785242E+02  0.41800000000E+01 0.  1.
         -5    1    3    3    0  502  0.89306656718E+02  0.13898485857E+01 -0.20795166781E+03  0.22636028618E+03  0.41800000000E+01 0.  1.
        -11    1    1    2    0    0 -0.50673352865E+02  0.18376377085E+02 -0.13184857106E+03  0.14244130586E+03  0.00000000000E+00 0. -1.
         11    1    1    2    0    0 -0.44839818852E+02 -0.77547774356E+02 -0.13444142763E+03  0.16155111923E+03  0.00000000000E+00 0.  1.
</event>
<event>
 7    1  0.2679104E-009  0.1133260E+03  0.7561462E-02  0.1254532E+00
          1   -1    0    0  501    0  0.00000000000E+00  0.00000000000E+00  0.10551129088E+04  0.10551129088E+04  0.00000000000E+00 0. -1.
         -1   -1    0    0    0  501 -0.00000000000E+00 -0.00000000000E+00 -0.17027662390E+02  0.17027662390E+02  0.00000000000E+00 0.  1.
         25    2    1    2    0    0  0.48624230358E+02 -0.23993474316E+02  0.77115167105E+03  0.78311087187E+03  0.12509090811E+03 0.  0.
          5    1    3    3  502    0  0.64326886526E+02 -0.56705732955E+02  0.67168643088E+03  0.67715110744E+03  0.41800000000E+01 0. -1.
         -5    1    3    3    0  502 -0.15702656168E+02  0.32712258639E+02  0.99465240176E+02  0.10595976444E+03  0.41800000000E+01 0. -1.
        -11    1    1    2    0    0 -0.46208118487E+02 -0.26802264768E+02  0.18535504523E+03  0.19289905236E+03  0.00000000000E+00 0. -1.
         11    1    1    2    0    0 -0.24161118716E+01  0.50795739084E+02  0.81578530127E+02  0.96130646952E+02  0.00000000000E+00 0.  1.
</event>
<event>
 7    1  0.2679104E-009  0.9986991E+02  0.7561462E-02  0.1280570E+00
          2   -1    0    0  501    0  0.00000000000E+00  0.00000000000E+00  0.37242022326E+03  0.37242022326E+03  0.00000000000E+00 0. -1.
         -2   -1    0    0    0  501 -0.00000000000E+00 -0.00000000000E+00 -0.51159675853E+02  0.51159675853E+02  0.00000000000E+00 0.  1.
         25    2    1    2    0    0 -0.58506347205E+02 -0.13267903638E+02  0.26328056092E+03  0.29759489149E+03  0.12508811195E+03 0.  0.
          5    1    3    3  502    0 -0.56303637787E+02  0.48180009008E+02  0.11330917426E+03  0.13545425157E+03  0.41800000000E+01 0. -1.
         -5    1    3    3    0  502 -0.22027094178E+01 -0.61447912647E+02  0.14997138666E+03  0.16214063992E+03  0.41800000000E+01 0. -1.
        -11    1    1    2    0    0  0.24736047858E+02 -0.53762781359E+01 -0.24313686163E+02  0.35098885524E+02  0.00000000000E+00 0.  1.
         11    1    1    2    0    0  0.33770299347E+02  0.18644181774E+02  0.82293672648E+02  0.90886122097E+02  0.00000000000E+00 0. -1.
</event>
<event>
 7    1  0.2679104E-009  0.6966018E+02  0.7561462E-02  0.1361252E+00
         -2   -1    0    0    0  501 -0.00000000000E+00  0.00000000000E+00  0.11801868187E+03  0.11801868187E+03  0.00000000000E+00 0.  1.
          2   -1    0    0  501    0  0.00000000000E+00 -0.00000000000E+00 -0.13470602468E+03  0.13470602468E+03  0.00000000000E+00 0. -1.
         25    2    1    2    0    0 -0.29375511400E+02  0.16044230858E+02  0.41241360116E+02  0.13589795943E+03  0.12508823917E+03 0.  0.
          5    1    3    3  502    0 -0.58847102705E+01  0.34312616713E+02  0.79711274721E+02  0.87082404643E+02  0.41800000000E+01 0. -1.
         -5    1    3    3    0  502 -0.23490801129E+02 -0.18268385855E+02 -0.38469914606E+02  0.48815554787E+02  0.41800000000E+01 0. -1.
        -11    1    1    2    0    0  0.50612916173E+02 -0.68888624581E+01 -0.73092483403E+02  0.89171939754E+02  0.00000000000E+00 0. -1.
         11    1    1    2    0    0 -0.21237404773E+02 -0.91553684002E+01  0.15163780473E+02  0.27654807363E+02  0.00000000000E+00 0.  1.
</event>
<event>
 7    1  0.2679104E-009  0.8728647E+02  0.7561462E-02  0.1309559E+00
          1   -1    0    0  501    0  0.00000000000E+00  0.00000000000E+00  0.53514787931E+03  0.53514787931E+03  0.00000000000E+00 0. -1.
         -1   -1    0    0    0  501 -0.00000000000E+00 -0.00000000000E+00 -0.30970233119E+02  0.30970233119E+02  0.00000000000E+00 0.  1.
         25    2    1    2    0    0  0.51284871638E+02 -0.28897931937E+02  0.20150325738E+03  0.24436854750E+03  0.12508875146E+03 0.  0.
          5    1    3    3  502    0  0.13299428157E+02 -0.24383385249E+02 -0.96796278698E+01  0.29708447640E+02  0.41800000000E+01 0. -1.
         -5    1    3    3    0  502  0.37985443481E+02 -0.45145466879E+01  0.21118288525E+03  0.21466009986E+03  0.41800000000E+01 0. -1.
        -11    1    1    2    0    0 -0.77676053041E+02  0.21485055520E+02  0.24449950786E+03  0.25743967482E+03  0.00000000000E+00 0. -1.
         11    1    1    2    0    0  0.26391181403E+02  0.74128764167E+01  0.58174880946E+02  0.64309890108E+02  0.00000000000E+00 0.  1.
</event>
<event>
 7    1  0.2679104E-009  0.8420126E+02  0.7561462E-02  0.1317535E+00
         -2   -1    0    0    0  501 -0.00000000000E+00  0.00000000000E+00  0.14668731694E+02  0.14668731694E+02  0.00000000000E+00 0.  1.
          2   -1    0    0  501    0  0.00000000000E+00 -0.00000000000E+00 -0.11386607881E+04  0.11386607881E+04  0.00000000000E+00 0. -1.
         25    2    1    2    0    0 -0.46876630749E+02 -0.17764324501E+02 -0.85892893879E+03  0.86943666598E+03  0.12509278363E+03 0.  0.
          5    1    3    3  502    0  0.10349577088E+02 -0.83679129767E+01 -0.70109773328E+03  0.70123650769E+03  0.41800000000E+01 0. -1.
         -5    1    3    3    0  502 -0.57226207837E+02 -0.93964115241E+01 -0.15783120551E+03  0.16820015828E+03  0.41800000000E+01 0. -1.
        -11    1    1    2    0    0  0.69803185449E+02  0.21589981814E+02 -0.15440737692E+03  0.17082227625E+03  0.00000000000E+00 0.  1.
         11    1    1    2    0    0 -0.22926554701E+02 -0.38256573129E+01 -0.11065574066E+03  0.11307057754E+03  0.00000000000E+00 0. -1.
</event>
<event>
 7    1  0.2679104E-009  0.2610318E+03  0.7561462E-02  0.1106525E+00
          1   -1    0    0  501    0  0.00000000000E+00  0.00000000000E+00  0.67897078166E+03  0.67897078166E+03  0.00000000000E+00 0. -1.
         -1   -1    0    0    0  501 -0.00000000000E+00 -0.00000000000E+00 -0.15088112853E+03  0.15088112853E+03  0.00000000000E+00 0.  1.
         25    2    1    2    0    0  0.37009534887E+02  0.23827858218E+03  0.50186650295E+03  0.57067061284E+03  0.12509425717E+03 0.  0.
          5    1    3    3  502    0 -0.39596090011E+02  0.13496200204E+03  0.22531261526E+03  0.26564231465E+03  0.41800000000E+01 0.  1.
         -5    1    3    3    0  502  0.76605624899E+02  0.10331658013E+03  0.27655388769E+03  0.30502829819E+03  0.41800000000E+01 0.  1.
        -11    1    1    2    0    0 -0.18971316733E+02 -0.23313709564E+03  0.38085954549E+02  0.23698809286E+03  0.00000000000E+00 0. -1.
         11    1    1    2    0    0 -0.18038218155E+02 -0.51414865389E+01 -0.11862804371E+02  0.22193204491E+02  0.00000000000E+00 0.  1.
</event>
<event>
 7    1  0.2679104E-009  0.1144613E+03  0.7561462E-02  0.1252524E+00
         -1   -1    0    0    0  501 -0.00000000000E+00  0.00000000000E+00  0.53718976248E+03  0.53718976248E+03  0.00000000000E+00 0.  1.
          1   -1    0    0  501    0  0.00000000000E+00 -0.00000000000E+00 -0.35766700874E+02  0.35766700874E+02  0.00000000000E+00 0. -1.
         25    2    1    2    0    0  0.19107478537E+02  0.59978153075E+02  0.15296008782E+03  0.20738006296E+03  0.12508887827E+03 0.  0.
          5    1    3    3  502    0 -0.40700863664E+02  0.62802712358E+02  0.11180357079E+03  0.13460405575E+03  0.41800000000E+01 0.  1.
         -5    1    3    3    0  502  0.59808342201E+02 -0.28245592829E+01  0.41156517034E+02  0.72776007216E+02  0.41800000000E+01 0.  1.
        -11    1    1    2    0    0  0.23490161057E+02 -0.41131232273E+02  0.27160873313E+03  0.27570794303E+03  0.00000000000E+00 0.  1.
         11    1    1    2    0    0 -0.42597639594E+02 -0.18846920802E+02  0.76854240650E+02  0.89868457362E+02  0.00000000000E+00 0. -1.
</event>
<event>
 7    1  0.2679104E-009  0.4862137E+02  0.7561462E-02  0.1452923E+00
          2   -1    0    0  501    0  0.00000000000E+00  0.00000000000E+00  0.57454723614E+03  0.57454723614E+03  0.00000000000E+00 0. -1.
         -2   -1    0    0    0  501 -0.00000000000E+00 -0.00000000000E+00 -0.22335696188E+02  0.22335696188E+02  0.00000000000E+00 0.  1.
         25    2    1    2    0    0  0.23840186236E+02  0.84066292327E+01  0.44473964832E+03  0.46268865073E+03  0.12509359228E+03 0.  0.
          5    1    3    3  502    0  0.10990085893E+02 -0.13336366759E+02  0.43489934286E+03  0.43526262358E+03  0.41800000000E+01 0. -1.
         -5    1    3    3    0  502  0.12850100343E+02  0.21742995992E+02  0.98403054587E+01  0.27426027146E+02  0.41800000000E+01 0. -1.
        -11    1    1    2    0    0 -0.16375105876E+02  0.19217696938E+02  0.10197726773E+03  0.10505630443E+03  0.00000000000E+00 0. -1.
         11    1    1    2    0    0 -0.74650803594E+01 -0.27624326171E+02  0.54946238973E+01  0.29137977159E+02  0.00000000000E+00 0.  1.
</event>
<event>
 7    1  0.2679104E-009  0.1261220E+03  0.7561462E-02  0.1233326E+00
          2   -1    0    0  501    0  0.00000000000E+00  0.00000000000E+00  0.42706666555E+03  0.42706666555E+03  0.00000000000E+00 0. -1.
         -2   -1    0    0    0  501 -0.00000000000E+00 -0.00000000000E+00 -0.47727249492E+02  0.47727249492E+02  0.00000000000E+00 0.  1.
         25    2    1    2    0    0 -0.78008916107E+02  0.54162798226E+02  0.20976354690E+03  0.26204473075E+03  0.12509074947E+03 0.  0.
          5    1    3    3  502    0 -0.97819546028E+02 -0.13351868291E+01  0.12722760599E+03  0.16054526600E+03  0.41800000000E+01 0.  1.
         -5    1    3    3    0  502  0.19810629920E+02  0.55497985055E+02  0.82535940911E+02  0.10149946475E+03  0.41800000000E+01 0.  1.
        -11    1    1    2    0    0  0.25654052737E+02 -0.13709500224E+02 -0.17012959421E+01  0.29137179447E+02  0.00000000000E+00 0.  1.
         11    1    1    2    0    0  0.52354863370E+02 -0.40453298002E+02  0.17127716511E+03  0.18361200485E+03  0.00000000000E+00 0. -1.
</event>
<event>
 7    1  0.2679104E-009  0.1285783E+03  0.7561462E-02  0.1229581E+00
          2   -1    0    0  501    0  0.00000000000E+00  0.00000000000E+00  0.11351481566E+04  0.11351481566E+04  0.00000000000E+00 0. -1.
         -2   -1    0    0    0  501 -0.00000000000E+00 -0.00000000000E+00 -0.18165663162E+02  0.18165663162E+02  0.00000000000E+00 0.  1.
         25    2    1    2    0    0 -0.93696297331E+02  0.27388520599E+01  0.61209380809E+03  0.63173710134E+03  0.12508572202E+03 0.  0.
          5    1    3    3  502    0 -0.73917115747E+02 -0.38463528139E+02  0.19462988613E+03  0.21175799388E+03  0.41800000000E+01 0.  1.
         -5    1    3    3    0  502 -0.19779181584E+02  0.41202380198E+02  0.41746392196E+03  0.41997910746E+03  0.41800000000E+01 0.  1.
        -11    1    1    2    0    0  0.94139002507E+02 -0.31346173271E+02  0.43258544937E+03  0.44381855006E+03  0.00000000000E+00 0. -1.
         11    1    1    2    0    0 -0.44270517590E+00  0.28607321211E+02  0.72303235940E+02  0.77758168331E+02  0.00000000000E+00 0.  1.
</event>
<event>
 7    1  0.2679104E-009  0.1269256E+03  0.7561462E-02  0.1232090E+00
          3   -1    0    0  501    0  0.00000000000E+00  0.00000000000E+00  0.37565349990E+03  0.37565349990E+03  0.00000000000E+00 0. -1.
         -3   -1    0    0    0  501 -0.00000000000E+00 -0.00000000000E+00 -0.74175634504E+02  0.74175634504E+02  0.00000000000E+00 0.  1.
         25    2    1    2    0    0 -0.65147052006E+02  0.42416135227E+02  0.25685198857E+02  0.14950150682E+03  0.12509078379E+03 0.  0.
          5    1    3    3  502    0 -0.98439136292E+02  0.53243135351E+02  0.18290868941E+02  0.11347741318E+03  0.41800000000E+01 0. -1.
         -5    1    3    3    0  502  0.33292084286E+02 -0.10827000124E+02  0.73943299156E+01  0.36024093642E+02  0.41800000000E+01 0. -1.
        -11    1    1    2    0    0  0.34223916578E+02  0.18045400377E+02  0.43056117992E+02  0.57885596112E+02  0.00000000000E+00 0.  1.
         11    1    1    2    0    0  0.30923135428E+02 -0.60461535604E+02  0.23273654854E+03  0.24244203146E+03  0.00000000000E+00 0. -1.
</event>
<event>
 7    1  0.2679104E-009  0.1163869E+03  0.7561462E-02  0.1249179E+00
         -1   -1    0    0    0  501 -0.00000000000E+00  0.00000000000E+00  0.11304253864E+03  0.11304253864E+03  0.00000000000E+00 0.  1.
          1   -1    0    0  501    0  0.00000000000E+00 -0.00000000000E+00 -0.39580117837E+03  0.39580117837E+03  0.00000000000E+00 0. -1.
         25    2    1    2    0    0 -0.81169925633E+02 -0.24046192311E+02  0.46468025026E+02  0.15802864221E+03  0.12508796192E+03 0.  0.
          5    1    3    3  502    0 -0.97594364261E+02 -0.27732224344E+02 -0.70321108283E+01  0.10178732330E+03  0.41800000000E+01 0.  1.
         -5    1    3    3    0  502  0.16424438628E+02  0.36860320324E+01  0.53500135854E+02  0.56241318910E+02  0.41800000000E+01 0.  1.
        -11    1    1    2    0    0  0.48648479007E+02 -0.25263360411E+02 -0.99337543127E+02  0.11345862402E+03  0.00000000000E+00 0.  1.
         11    1    1    2    0    0  0.32521446626E+02  0.49309552722E+02 -0.22988912163E+03  0.23735645078E+03  0.00000000000E+00 0. -1.
</event>
<event>
 7    1  0.2679104E-009  0.1786730E+03  0.7561462E-02  0.1169094E+00
         -1   -1    0    0    0  501 -0.00000000000E+00  0.00000000000E+00  0.44804953781E+02  0.44804953781E+02  0.00000000000E+00 0.  1.
          1   -1    0    0  501    0  0.00000000000E+00 -0.00000000000E+00 -0.97176905200E+03  0.97176905200E+03  0.00000000000E+00 0. -1.
         25    2    1    2    0    0 -0.90459535250E+02  0.14993961272E+03 -0.42413450454E+03  0.47560740532E+03  0.12509001188E+03 0.  0.
          5    1    3    3  502    0 -0.63655570556E+02  0.13473896570E+03 -0.20064565075E+03  0.24996553783E+03  0.41800000000E+01 0.  1.
         -5    1    3    3    0  502 -0.26803964694E+02  0.15200647024E+02 -0.22348885380E+03  0.22564186749E+03  0.41800000000E+01 0.  1.
        -11    1    1    2    0    0  0.54780197298E+02 -0.64759784662E+02 -0.11869992306E+03  0.14589164287E+03  0.00000000000E+00 0.  1.
         11    1    1    2    0    0  0.35679337952E+02 -0.85179828059E+02 -0.38412967062E+03  0.39507495759E+03  0.00000000000E+00 0. -1.
</event>
<event>
 7    1  0.2679104E-009  0.1356173E+03  0.7561462E-02  0.1219351E+00
          2   -1    0    0  501    0  0.00000000000E+00  0.00000000000E+00  0.11494442017E+04  0.11494442017E+04  0.00000000000E+00 0. -1.
         -2   -1    0    0    0  501 -0.00000000000E+00 -0.00000000000E+00 -0.16819727216E+02  0.16819727216E+02  0.00000000000E+00 0.  1.
         25    2    1    2    0    0 -0.17434910183E+01  0.85337529475E+02  0.56473938785E+03  0.58469059494E+03  0.12508789681E+03 0.  0.
          5    1    3    3  502    0 -0.50607168620E+02  0.86620371440E+02  0.33266992866E+03  0.34749234250E+03  0.41800000000E+01 0.  1.
         -5    1    3    3    0  502  0.48863677602E+02 -0.12828419647E+01  0.23206945919E+03  0.23719825244E+03  0.41800000000E+01 0.  1.
        -11    1    1    2    0    0 -0.46771178314E+01 -0.10293234397E+03  0.52089094497E+03  0.53098429300E+03  0.00000000000E+00 0. -1.
         11    1    1    2    0    0  0.64206088497E+01  0.17594814499E+02  0.46994141677E+02  0.50589040980E+02  0.00000000000E+00 0.  1.
</event>
<event>
 7    1  0.2679104E-009  0.1290466E+03  0.7561462E-02  0.1228877E+00
         -1   -1    0    0    0  501 -0.00000000000E+00  0.00000000000E+00  0.43568207824E+02  0.43568207824E+02  0.00000000000E+00 0.  1.
          1   -1    0    0  501    0  0.00000000000E+00 -0.00000000000E+00 -0.55026626127E+03  0.55026626127E+03  0.00000000000E+00 0. -1.
         25    2    1    2    0    0 -0.74355566031E+02  0.60451182288E+02 -0.17316810264E+03  0.23413268420E+03  0.12509127228E+03 0.  0.
          5    1    3    3  502    0  0.63318710107E+01  0.74344285427E+02 -0.94868300500E+02  0.12076685061E+03  0.41800000000E+01 0. -1.
         -5    1    3    3    0  502 -0.80687437042E+02 -0.13893103139E+02 -0.78299802141E+02  0.11336583359E+03  0.41800000000E+01 0. -1.
        -11    1    1    2    0    0  0.38081389900E+02 -0.51444539776E+02 -0.30765769647E+03  0.31424511313E+03  0.00000000000E+00 0. -1.
         11    1    1    2    0    0  0.36274176132E+02 -0.90066425113E+01 -0.25872254340E+02  0.45456671766E+02  0.00000000000E+00 0.  1.
</event>
<event>
 7    1  0.2679104E-009  0.1347262E+03  0.7561462E-02  0.1220607E+00
          2   -1    0    0  501    0  0.00000000000E+00  0.00000000000E+00  0.43553336659E+03  0.43553336659E+03  0.00000000000E+00 0. -1.
         -2   -1    0    0    0  501 -0.00000000000E+00 -0.00000000000E+00 -0.56952728791E+02  0.56952728791E+02  0.00000000000E+00 0.  1.
         25    2    1    2    0    0  0.11120164663E+03  0.15875266666E+02  0.26134319282E+03  0.31074976435E+03  0.12508925335E+03 0.  0.
          5    1    3    3  502    0  0.51719532389E+02 -0.27994114835E+02  0.21608366173E+03  0.22398259255E+03  0.41800000000E+01 0. -1.
         -5    1    3    3    0  502  0.59482114243E+02  0.43869381501E+02  0.45259531087E+02  0.86767171800E+02  0.41800000000E+01 0. -1.
        -11    1    1    2    0    0 -0.86752445352E+02 -0.45577143482E+02  0.98504435668E+02  0.13894742397E+03  0.00000000000E+00 0. -1.
         11    1    1    2    0    0 -0.24449201280E+02  0.29701876817E+02  0.18733009313E+02  0.42788907062E+02  0.00000000000E+00 0.  1.
</event>
<event>
 7    1  0.2679104E-009  0.1681458E+03  0.7561462E-02  0.1179795E+00
          1   -1    0    0  501    0  0.00000000000E+00  0.00000000000E+00  0.52298122544E+03  0.52298122544E+03  0.00000000000E+00 0. -1.
         -1   -1    0    0    0  501 -0.00000000000E+00 -0.00000000000E+00 -0.71671233801E+02  0.71671233801E+02  0.00000000000E+00 0.  1.
         25    2    1    2    0    0  0.12676743538E+03 -0.68911803293E+02  0.33997643000E+03  0.38993535355E+03  0.12508712040E+03 0.  0.
          5    1    3    3  502    0  0.63650885664E+02  0.28192678514E+02  0.17443756093E+03  0.18786217669E+03  0.41800000000E+01 0.  1.
         -5    1    3    3    0  502  0.63116549713E+02 -0.97104481806E+02  0.16553886907E+03  0.20207317686E+03  0.41800000000E+01 0.  1.
        -11    1    1    2    0    0 -0.55583062185E+02  0.54872744589E+02  0.10640493052E+03  0.13199433374E+03  0.00000000000E+00 0. -1.
         11    1    1    2    0    0 -0.71184373193E+02  0.14039058704E+02  0.49286311283E+01  0.72722771956E+02  0.00000000000E+00 0.  1.
</event>
<event>
 7    1  0.2679104E-009  0.1147080E+03  0.7561462E-02  0.1252092E+00
          2   -1    0    0  501    0  0.00000000000E+00  0.00000000000E+00  0.85136313926E+03  0.85136313926E+03  0.00000000000E+00 0. -1.
         -2   -1    0    0    0  501 -0.00000000000E+00 -0.00000000000E+00 -0.22578806771E+02  0.22578806771E+02  0.00000000000E+00 0.  1.
         25    2    1    2    0    0 -0.40020699483E+02 -0.75324982956E+02  0.48148600326E+03  0.50472897229E+03  0.12508818765E+03 0.  0.
          5    1    3    3  502    0  0.12887885773E+02  0.25944027776E+02  0.17859157932E+03  0.18097407212E+03  0.41800000000E+01 0. -1.
         -5    1    3    3    0  502 -0.52908585256E+02 -0.10126901073E+03  0.30289442393E+03  0.32375490016E+03  0.41800000000E+01 0. -1.
        -11    1    1    2    0    0  0.13809457630E+02  0.17244973305E+02  0.72589314734E+01  0.23254726626E+02  0.00000000000E+00 0.  1.
         11    1    1    2    0    0  0.26211241853E+02  0.58080009651E+02  0.34003939776E+03  0.34595824712E+03  0.00000000000E+00 0. -1.
</event>
<event>
 7    1  0.2679104E-009  0.2690435E+03  0.7561462E-02  0.1101828E+00
          1   -1    0    0  501    0  0.00000000000E+00  0.00000000000E+00  0.89885984678E+03  0.89885984678E+03  0.00000000000E+00 0. -1.
         -1   -1    0    0    0  501 -0.00000000000E+00 -0.00000000000E+00 -0.10365670436E+03  0.10365670436E+03  0.00000000000E+00 0.  1.
         25    2    1    2    0    0  0.67204725868E+02  0.25862380834E+03  0.56620501136E+03  0.63846608722E+03  0.12509228682E+03 0.  0.
          5    1    3    3  502    0  0.28648510704E+02  0.15061600802E+03  0.18471868874E+03  0.24009245180E+03  0.41800000000E+01 0. -1.
         -5    1    3    3    0  502  0.38556215164E+02  0.10800780032E+03  0.38148632262E+03  0.39837363543E+03  0.41800000000E+01 0. -1.
        -11    1    1    2    0    0 -0.37854516934E+02 -0.20817573819E+03  0.12769174602E+03  0.24713414257E+03  0.00000000000E+00 0.  1.
         11    1    1    2    0    0 -0.29350208933E+02 -0.50448070154E+02  0.10130638505E+03  0.11691632135E+03  0.00000000000E+00 0. -1.
</event>
<event>
 7    1  0.2679104E-009  0.1791193E+03  0.7561462E-02  0.1168658E+00
          2   -1    0    0  501    0  0.00000000000E+00  0.00000000000E+00  0.17111296305E+03  0.17111296305E+03  0.00000000000E+00 0. -1.
         -2   -1    0    0    0  501 -0.00000000000E+00 -0.00000000000E+00 -0.24013277688E+03  0.24013277688E+03  0.00000000000E+00 0.  1.
         25    2    1    2    0    0 -0.54663556783E+02  0.14596570151E+03  0.26836202041E+02  0.20164785552E+03  0.12509030913E+03 0.  0.
          5    1    3    3  502    0  0.50851760549E+01  0.12599883035E+03  0.48099491652E+02  0.13502813693E+03  0.41800000000E+01 0. -1.
         -5    1    3    3    0  502 -0.59748732838E+02  0.19966871156E+02 -0.21263289610E+02  0.66619718587E+02  0.41800000000E+01 0. -1.
        -11    1    1    2    0    0 -0.15185518130E+02 -0.26970442187E+02  0.13273161489E+02  0.33677611682E+02  0.00000000000E+00 0. -1.
         11    1    1    2    0    0  0.69849074914E+02 -0.11899525932E+03 -0.10912917736E+03  0.17592027273E+03  0.00000000000E+00 0.  1.
</event>
<event>
 7    1  0.2679104E-009  0.1995096E+03  0.7561462E-02  0.1150153E+00
          1   -1    0    0  501    0  0.00000000000E+00  0.00000000000E+00  0.33603039641E+02  0.33603039641E+02  0.00000000000E+00 0. -1.
         -1   -1    0    0    0  501 -0.00000000000E+00 -0.00000000000E+00 -0.14412720767E+04  0.14412720767E+04  0.00000000000E+00 0.  1.
         25    2    1    2    0    0  0.31888782396E+02 -0.17596137040E+03 -0.95891351306E+03  0.98343419986E+03  0.12509357136E+03 0.  0.
          5    1    3    3  502    0  0.42007080674E+02 -0.18983563832E+03 -0.78939882531E+03  0.81300070246E+03  0.41800000000E+01 0. -1.
         -5    1    3    3    0  502 -0.10118298278E+02  0.13874267915E+02 -0.16951468776E+03  0.17043349740E+03  0.41800000000E+01 0. -1.
        -11    1    1    2    0    0 -0.47376894446E+02  0.12910378524E+03 -0.23699189900E+03  0.27400276948E+03  0.00000000000E+00 0. -1.
         11    1    1    2    0    0  0.15488112050E+02  0.46857585167E+02 -0.21176362500E+03  0.21743814701E+03  0.00000000000E+00 0.  1.
</event>
<event>
 7    1  0.2679104E-009  0.1705909E+03  0.7561462E-02  0.1177233E+00
          2   -1    0    0  501    0  0.00000000000E+00  0.00000000000E+00  0.12296889321E+04  0.12296889321E+04  0.00000000000E+00 0. -1.
         -2   -1    0    0    0  501 -0.00000000000E+00 -0.00000000000E+00 -0.33060390964E+02  0.33060390964E+02  0.00000000000E+00 0.  1.
         25    2    1    2    0    0 -0.46688911553E+02  0.14915892173E+03  0.80868616068E+03  0.83309579354E+03  0.12508819426E+03 0.  0.
          5    1    3    3  502    0 -0.37990436452E+02  0.93261873037E+02  0.22359733061E+03  0.24526371293E+03  0.41800000000E+01 0. -1.
         -5    1    3    3    0  502 -0.86984751013E+01  0.55897048693E+02  0.58508883007E+03  0.58783208061E+03  0.41800000000E+01 0. -1.
        -11    1    1    2    0    0  0.69476048736E+02 -0.14460701102E+03  0.32233942835E+03  0.36005668450E+03  0.00000000000E+00 0.  1.
         11    1    1    2    0    0 -0.22787137183E+02 -0.45519107060E+01  0.65602952113E+02  0.69596845030E+02  0.00000000000E+00 0. -1.
</event>
<event>
 7    1  0.2679104E-009  0.7425215E+02  0.7561462E-02  0.1346203E+00
         -2   -1    0    0    0  501 -0.00000000000E+00  0.00000000000E+00  0.22313902005E+02  0.22313902005E+02  0.00000000000E+00 0.  1.
          2   -1    0    0  501    0  0.00000000000E+00 -0.00000000000E+00 -0.66218461359E+03  0.66218461359E+03  0.00000000000E+00 0. -1.
         25    2    1    2    0    0 -0.39913938588E+02 -0.23192842959E+02 -0.46633896279E+03  0.48502662950E+03  0.12509105745E+03 0.  0.
          5    1    3    3  502    0 -0.31077273023E+02 -0.31241731788E+02 -0.46981492909E+03  0.47189552096E+03  0.41800000000E+01 0.  1.
         -5    1    3    3    0  502 -0.88366655654E+01  0.80488888290E+01  0.34759663080E+01  0.13131108539E+02  0.41800000000E+01 0.  1.
        -11    1    1    2    0    0  0.44834210853E+02 -0.19291976559E+02 -0.55386990583E+02  0.73824152878E+02  0.00000000000E+00 0. -1.
         11    1    1    2    0    0 -0.49202722650E+01  0.42484819518E+02 -0.11814475822E+03  0.12564773322E+03  0.00000000000E+00 0.  1.
</event>
<event>
 7    1  0.2679104E-009  0.1109822E+03  0.7561462E-02  0.1258762E+00
          2   -1    0    0  501    0  0.00000000000E+00  0.00000000000E+00  0.93750992734E+02  0.93750992734E+02  0.00000000000E+00 0. -1.
         -2   -1    0    0    0  501 -0.00000000000E+00 -0.00000000000E+00 -0.18621405501E+03  0.18621405501E+03  0.00000000000E+00 0.  1.
         25    2    1    2    0    0 -0.33903570786E+02 -0.49148762616E+02 -0.99117891181E+02  0.17039120829E+03  0.12507499563E+03 0.  0.
          5    1    3    3  502    0  0.23542990713E+02  0.24686465850E+02 -0.46594984675E+00  0.34371260046E+02  0.41800000000E+01 0. -1.
         -5    1    3    3    0  502 -0.57446561498E+02 -0.73835228466E+02 -0.98651941335E+02  0.13601994824E+03  0.41800000000E+01 0. -1.
        -11    1    1    2    0    0 -0.23045075874E+02  0.12306583786E+02  0.28166666700E+02  0.38417296098E+02  0.00000000000E+00 0. -1.
         11    1    1    2    0    0  0.56948646660E+02  0.36842178830E+02 -0.21511837794E+02  0.71156543358E+02  0.00000000000E+00 0.  1.
</event>
<event>
 7    1  0.2679104E-009  0.1037121E+03  0.7561462E-02  0.1272678E+00
          2   -1    0    0  501    0  0.00000000000E+00  0.00000000000E+00  0.11471318782E+04  0.11471318782E+04  0.00000000000E+00 0.  1.
         -2   -1    0    0    0  501 -0.00000000000E+00 -0.00000000000E+00 -0.17023715805E+02  0.17023715805E+02  0.00000000000E+00 0. -1.
         25    2    1    2    0    0  0.85339957015E+02 -0.13042772562E+01  0.52603524259E+03  0.54739853284E+03  0.12508983934E+03 0.  0.
          5    1    3    3  502    0  0.60475072658E+02  0.47369550154E+01  0.79381190363E+02  0.99992594422E+02  0.41800000000E+01 0.  1.
         -5    1    3    3    0  502  0.24864884357E+02 -0.60412322716E+01  0.44665405223E+03  0.44740593842E+03  0.41800000000E+01 0.  1.
        -11    1    1    2    0    0  0.17127123668E+02 -0.55302681927E+01  0.47628936448E+02  0.50915987848E+02  0.00000000000E+00 0. -1.
         11    1    1    2    0    0 -0.10246708068E+03  0.68345454490E+01  0.55644398331E+03  0.56584107326E+03  0.00000000000E+00 0.  1.
</event>
<event>
 7    1  0.2679104E-009  0.9328403E+02  0.7561462E-02  0.1295088E+00
          1   -1    0    0  501    0  0.00000000000E+00  0.00000000000E+00  0.10129654692E+04  0.10129654692E+04  0.00000000000E+00 0. -1.
         -1   -1    0    0    0  501 -0.00000000000E+00 -0.00000000000E+00 -0.17563495438E+02  0.17563495438E+02  0.00000000000E+00 0.  1.
         25    2    1    2    0    0 -0.40021492161E+01  0.52391857183E+02  0.75181848682E+03  0.76396262063E+03  0.12508766805E+03 0.  0.
          5    1    3    3  502    0 -0.22635042818E+02  0.63288032731E+02  0.72961226200E+03  0.73271361767E+03  0.41800000000E+01 0.  1.
         -5    1    3    3    0  502  0.18632893602E+02 -0.10896175548E+02  0.22206224818E+02  0.31249002964E+02  0.41800000000E+01 0.  1.
        -11    1    1    2    0    0 -0.10525097453E+02 -0.72038883077E+02  0.22311099486E+03  0.23468893110E+03  0.00000000000E+00 0. -1.
         11    1    1    2    0    0  0.14527246669E+02  0.19647025893E+02  0.20472492096E+02  0.31877412926E+02  0.00000000000E+00 0.  1.
</event>
<event>
 7    1  0.2679104E-009  0.8791659E+02  0.7561462E-02  0.1307977E+00
          2   -1    0    0  501    0  0.00000000000E+00  0.00000000000E+00  0.19680280067E+02  0.19680280067E+02  0.00000000000E+00 0. -1.
         -2   -1    0    0    0  501 -0.00000000000E+00 -0.00000000000E+00 -0.80051560242E+03  0.80051560242E+03  0.00000000000E+00 0.  1.
         25    2    1    2    0    0  0.70942014877E+01  0.15241645470E+01 -0.63414651921E+03  0.64640667757E+03  0.12508850555E+03 0.  0.
          5    1    3    3  502    0  0.44027480725E+02 -0.30532799647E+02 -0.14217984434E+03  0.15199753765E+03  0.41800000000E+01 0. -1.
         -5    1    3    3    0  502 -0.36933279237E+02  0.32056964194E+02 -0.49196667486E+03  0.49440913993E+03  0.41800000000E+01 0. -1.
        -11    1    1    2    0    0 -0.37804056400E+02 -0.13361692170E+02 -0.23927796826E+02  0.46692836270E+02  0.00000000000E+00 0. -1.
         11    1    1    2    0    0  0.30709854913E+02  0.11837527623E+02 -0.12276100632E+03  0.12709636864E+03  0.00000000000E+00 0.  1.
</event>
<event>
 7    1  0.2679104E-009  0.3282324E+03  0.7561462E-02  0.1071922E+00
         -2   -1    0    0    0  501 -0.00000000000E+00  0.00000000000E+00  0.86610117067E+02  0.86610117067E+02  0.00000000000E+00 0.  1.
          2   -1    0    0  501    0  0.00000000000E+00 -0.00000000000E+00 -0.13192064068E+04  0.13192064068E+04  0.00000000000E+00 0. -1.
         25    2    1    2    0    0 -0.13268834959E+03  0.28021339134E+03 -0.79121421316E+03  0.85894860500E+03  0.12508809745E+03 0.  0.
          5    1    3    3  502    0 -0.14772614283E+03  0.18212973199E+03 -0.57601807968E+03  0.62193934839E+03  0.41800000000E+01 0. -1.
         -5    1    3    3    0  502  0.15037793242E+02  0.98083659356E+02 -0.21519613348E+03  0.23700925662E+03  0.41800000000E+01 0. -1.
        -11    1    1    2    0    0  0.97293404374E+02 -0.10221028966E+03 -0.20422570614E+03  0.24823595407E+03  0.00000000000E+00 0.  1.
         11    1    1    2    0    0  0.35394945218E+02 -0.17800310168E+03 -0.23715637041E+03  0.29863196477E+03  0.00000000000E+00 0. -1.
</event>
<event>
 7    1  0.2679104E-009  0.1744645E+03  0.7561462E-02  0.1173270E+00
         -1   -1    0    0    0  501 -0.00000000000E+00  0.00000000000E+00  0.39691095319E+02  0.39691095319E+02  0.00000000000E+00 0.  1.
          1   -1    0    0  501    0  0.00000000000E+00 -0.00000000000E+00 -0.96946105174E+03  0.96946105174E+03  0.00000000000E+00 0. -1.
         25    2    1    2    0    0 -0.15465666537E+03 -0.16175967419E+02 -0.36110471605E+03  0.41258303270E+03  0.12509115415E+03 0.  0.
          5    1    3    3  502    0 -0.15325203053E+03  0.63265967900E+00 -0.20747024559E+03  0.25796891349E+03  0.41800000000E+01 0. -1.
         -5    1    3    3    0  502 -0.14046348357E+01 -0.16808627098E+02 -0.15363447047E+03  0.15461411921E+03  0.41800000000E+01 0. -1.
        -11    1    1    2    0    0  0.13001404431E+02  0.33115862319E+02 -0.81099263666E+02  0.88559513444E+02  0.00000000000E+00 0.  1.
         11    1    1    2    0    0  0.14165526094E+03 -0.16939894900E+02 -0.48756597670E+03  0.50800960091E+03  0.00000000000E+00 0. -1.
</event>
<event>
 7    1  0.2679104E-009  0.7983122E+02  0.7561462E-02  0.1329531E+00
          1   -1    0    0  501    0  0.00000000000E+00  0.00000000000E+00  0.69260570401E+02  0.69260570401E+02  0.00000000000E+00 0. -1.
         -1   -1    0    0    0  501 -0.00000000000E+00 -0.00000000000E+00 -0.23848540676E+03  0.23848540676E+03  0.00000000000E+00 0.  1.
         25    2    1    2    0    0  0.30429918934E+02  0.30952233414E+02 -0.30384421792E+02  0.13584048881E+03  0.12508159174E+03 0.  0.
          5    1    3    3  502    0  0.60799720907E+01 -0.17298375270E+02  0.41643592657E+02  0.45693118267E+02  0.41800000000E+01 0. -1.
         -5    1    3    3    0  502  0.24349946843E+02  0.48250608684E+02 -0.72028014449E+02  0.90147370539E+02  0.41800000000E+01 0. -1.
        -11    1    1    2    0    0  0.52958575046E+01  0.22079250914E+02 -0.45330759659E+01  0.23153578672E+02  0.00000000000E+00 0. -1.
         11    1    1    2    0    0 -0.35725776439E+02 -0.53031484327E+02 -0.13430733860E+03  0.14875190968E+03  0.00000000000E+00 0.  1.
</event>
<event>
 7    1  0.2679104E-009  0.2382557E+03  0.7561462E-02  0.1120960E+00
          2   -1    0    0  501    0  0.00000000000E+00  0.00000000000E+00  0.47639813368E+03  0.47639813368E+03  0.00000000000E+00 0. -1.
         -2   -1    0    0    0  501 -0.00000000000E+00 -0.00000000000E+00 -0.13689089432E+03  0.13689089432E+03  0.00000000000E+00 0.  1.
         25    2    1    2    0    0 -0.20789290065E+03  0.40090561528E+02  0.64467786548E+02  0.25422608716E+03  0.12509235239E+03 0.  0.
          5    1    3    3  502    0 -0.52195701864E+02 -0.44337788834E+02  0.14177240643E+02  0.70062096486E+02  0.41800000000E+01 0. -1.
         -5    1    3    3    0  502 -0.15569719878E+03  0.84428350361E+02  0.50290545905E+02  0.18416399068E+03  0.41800000000E+01 0. -1.
        -11    1    1    2    0    0  0.22803674092E+02 -0.39539735868E+02  0.50495777086E+02  0.68067773345E+02  0.00000000000E+00 0. -1.
         11    1    1    2    0    0  0.18508922656E+03 -0.55082565947E+00  0.22454367573E+03  0.29099516749E+03  0.00000000000E+00 0.  1.
</event>
<event>
 7    1  0.2679104E-009  0.1098731E+03  0.7561462E-02  0.1260805E+00
          1   -1    0    0  501    0  0.00000000000E+00  0.00000000000E+00  0.10856257464E+02  0.10856257464E+02  0.00000000000E+00 0. -1.
         -1   -1    0    0    0  501 -0.00000000000E+00 -0.00000000000E+00 -0.12010468329E+04  0.12010468329E+04  0.00000000000E+00 0.  1.
         25    2    1    2    0    0 -0.15137657670E+02  0.27356481786E+02 -0.80765991721E+03  0.81788758151E+03  0.12509207949E+03 0.  0.
          5    1    3    3  502    0  0.48101103640E+02  0.40389281821E+02 -0.45606266498E+03  0.46038639972E+03  0.41800000000E+01 0.  1.
         -5    1    3    3    0  502 -0.63238761309E+02 -0.13032800035E+02 -0.35159725223E+03  0.35750118179E+03  0.41800000000E+01 0.  1.
        -11    1    1    2    0    0  0.48086355455E+02  0.17688814166E+01 -0.24301554000E+03  0.24773368605E+03  0.00000000000E+00 0.  1.
         11    1    1    2    0    0 -0.32948697785E+02 -0.29125363203E+02 -0.13951511818E+03  0.14628182276E+03  0.00000000000E+00 0. -1.
</event>
<event>
 7    1  0.2679104E-009  0.1174035E+03  0.7561462E-02  0.1247443E+00
          2   -1    0    0  501    0  0.00000000000E+00  0.00000000000E+00  0.33036424530E+03  0.33036424530E+03  0.00000000000E+00 0.  1.
         -2   -1    0    0    0  501 -0.00000000000E+00 -0.00000000000E+00 -0.46773832569E+02  0.46773832569E+02  0.00000000000E+00 0. -1.
         25    2    1    2    0    0  0.28504042269E+02 -0.45655711348E+02  0.11898859259E+03  0.18084156226E+03  0.12509380908E+03 0.  0.
          5    1    3    3  502    0 -0.40079106800E+02 -0.52821777294E+02  0.67239272494E+02  0.94525483992E+02  0.41800000000E+01 0. -1.
         -5    1    3    3    0  502  0.68583149068E+02  0.71660659457E+01  0.51749320095E+02  0.86316078268E+02  0.41800000000E+01 0. -1.
        -11    1    1    2    0    0 -0.43119051259E+02  0.63164930722E+02  0.89083072516E+02  0.11740892157E+03  0.00000000000E+00 0. -1.
         11    1    1    2    0    0  0.14615008990E+02 -0.17509219374E+02  0.75518747630E+02  0.78887594047E+02  0.00000000000E+00 0.  1.
</event>
<event>
 7    1  0.2679104E-009  0.1004528E+03  0.7561462E-02  0.1279347E+00
          2   -1    0    0  501    0  0.00000000000E+00  0.00000000000E+00  0.20670557777E+03  0.20670557777E+03  0.00000000000E+00 0. -1.
         -2   -1    0    0    0  501 -0.00000000000E+00 -0.00000000000E+00 -0.57788851752E+02  0.57788851752E+02  0.00000000000E+00 0.  1.
         25    2    1    2    0    0 -0.94952934510E+01  0.83409643379E+01  0.77704125472E+02  0.14780013740E+03  0.12508883730E+03 0.  0.
          5    1    3    3  502    0  0.11606780327E+02  0.57526748229E+02  0.73333381473E+01  0.59289917859E+02  0.41800000000E+01 0.  1.
         -5    1    3    3    0  502 -0.21102073778E+02 -0.49185783891E+02  0.70370787324E+02  0.88510219542E+02  0.41800000000E+01 0.  1.
        -11    1    1    2    0    0 -0.10629163739E+02  0.37151229958E+02  0.48494941749E+02  0.62007680044E+02  0.00000000000E+00 0.  1.
         11    1    1    2    0    0  0.20124457190E+02 -0.45492194296E+02  0.22717658795E+02  0.54686612075E+02  0.00000000000E+00 0. -1.
</event>
