<event>
 8    1  0.9181008E-006  0.1163719E+03  0.7561462E-02  0.1249205E+00
          2   -1    0    0  501    0  0.00000000000E+00  0.00000000000E+00  0.52256495051E+03  0.52256495051E+03  0.00000000000E+00 0. -1.
         -2   -1    0    0    0  501 -0.00000000000E+00 -0.00000000000E+00 -0.29984019643E+02  0.29984019643E+02  0.00000000000E+00 0.  1.
         23    2    1    2    0    0 -0.18875956197E+02  0.44994353644E+02  0.13645889275E+03  0.17195575391E+03  0.92557864655E+02 0.  0.
         23    2    1    2    0    0  0.18875956197E+02 -0.44994353644E+02  0.35612203811E+03  0.38059321624E+03  0.12508995418E+03 0.  0.
          5    1    4    4  502    0  0.54170986789E+02 -0.69338181723E+02  0.19806580114E+03  0.21677133860E+03  0.41800000000E+01 0.  1.
         -5    1    4    4    0  502 -0.35295030592E+02  0.24343828080E+02  0.15805623697E+03  0.16382187765E+03  0.41800000000E+01 0.  1.
        -11    1    3    3    0    0 -0.10662385382E+02 -0.27043973316E+02  0.21965238731E+02  0.36435349144E+02  0.00000000000E+00 0. -1.
         11    1    3    3    0    0 -0.82135708159E+01  0.72038326960E+02  0.11449365402E+03  0.13552040477E+03  0.00000000000E+00 0.  1.
</event>
<event>
 8    1  0.9181008E-006  0.1291805E+03  0.7561462E-02  0.1228677E+00
         -1   -1    0    0    0  501 -0.00000000000E+00  0.00000000000E+00  0.44342364810E+02  0.44342364810E+02  0.00000000000E+00 0.  1.
          1   -1    0    0  501    0  0.00000000000E+00 -0.00000000000E+00 -0.10086685414E+04  0.10086685414E+04  0.00000000000E+00 0. -1.
         23    2    1    2    0    0 -0.27786698711E+02  0.66811681800E+02 -0.47639973587E+02  0.12500423027E+03  0.90114311028E+02 0.  0.
         23    2    1    2    0    0  0.27786698711E+02 -0.66811681800E+02 -0.91668620300E+03  0.92800667593E+03  0.12508754678E+03 0.  0.
          5    1    4    4  502    0  0.17574010905E+02  0.36144254562E+02 -0.29543842258E+03  0.29818884441E+03  0.41800000000E+01 0. -1.
         -5    1    4    4    0  502  0.10212687806E+02 -0.10295593636E+03 -0.62124778042E+03  0.62981783152E+03  0.41800000000E+01 0. -1.
        -11    1    3    3    0    0  0.32182559890E+02  0.16698231553E+02 -0.70323789581E+01  0.36932403820E+02  0.00000000000E+00 0.  1.
         11    1    3    3    0    0 -0.59969258602E+02  0.50113450247E+02 -0.40607594629E+02  0.88071826451E+02  0.00000000000E+00 0. -1.
</event>
<event>
 8    1  0.9181008E-006  0.6453929E+02  0.7561462E-02  0.1379713E+00
          2   -1    0    0  501    0  0.00000000000E+00  0.00000000000E+00  0.94073922048E+02  0.94073922048E+02  0.00000000000E+00 0. -1.
         -2   -1    0    0    0  501 -0.00000000000E+00 -0.00000000000E+00 -0.13000466957E+03  0.13000466957E+03  0.00000000000E+00 0.  1.
         23    2    1    2    0    0  0.20262710604E+02  0.38762233783E+01 -0.25699820791E+02  0.96885231744E+02  0.91107984242E+02 0.  0.
         23    2    1    2    0    0 -0.20262710604E+02 -0.38762233783E+01 -0.10230926729E+02  0.12719335987E+03  0.12509147207E+03 0.  0.
          5    1    4    4  502    0 -0.15456461938E+02  0.11038037713E+02 -0.66160712502E+02  0.68959790972E+02  0.41800000000E+01 0. -1.
         -5    1    4    4    0  502 -0.48062486666E+01 -0.14914261091E+02  0.55929785773E+02  0.58233568899E+02  0.41800000000E+01 0. -1.
        -11    1    3    3    0    0 -0.35236154259E+02  0.12211253646E+02 -0.10491828378E+02  0.38739898622E+02  0.00000000000E+00 0.  1.
         11    1    3    3    0    0  0.55498864863E+02 -0.83350302675E+01 -0.15207992413E+02  0.58145333122E+02  0.00000000000E+00 0. -1.
</event>
<event>
 8    1  0.9181008E-006  0.5738794E+02  0.7561462E-02  0.1409132E+00
          1   -1    0    0  501    0  0.00000000000E+00  0.00000000000E+00  0.66795194999E+03  0.66795194999E+03  0.00000000000E+00 0. -1.
         -1   -1    0    0    0  501 -0.00000000000E+00 -0.00000000000E+00 -0.18154097627E+02  0.18154097627E+02  0.00000000000E+00 0.  1.
         23    2    1    2    0    0  0.11472443458E+02  0.22788450234E+02  0.24612881555E+03  0.26273026048E+03  0.88299861302E+02 0.  0.
         23    2    1    2    0    0 -0.11472443458E+02 -0.22788450234E+02  0.40366903681E+03  0.42337578713E+03  0.12508970952E+03 0.  0.
          5    1    4    4  502    0  0.61097180890E+01 -0.56881969950E+01  0.39767394262E+03  0.39778351057E+03  0.41800000000E+01 0.  1.
         -5    1    4    4    0  502 -0.17582161547E+02 -0.17100253239E+02  0.59950941922E+01  0.25592276567E+02  0.41800000000E+01 0.  1.
        -11    1    3    3    0    0 -0.32092717138E+02  0.17831061873E+02  0.17774462041E+03  0.18149666483E+03  0.00000000000E+00 0.  1.
         11    1    3    3    0    0  0.43565160596E+02  0.49573883615E+01  0.68384195140E+02  0.81233595649E+02  0.00000000000E+00 0. -1.
</event>
<event>
 8    1  0.9181008E-006  0.1223382E+03  0.7561462E-02  0.1239289E+00
          2   -1    0    0  501    0  0.00000000000E+00  0.00000000000E+00  0.84305472318E+03  0.84305472318E+03  0.00000000000E+00 0. -1.
         -2   -1    0    0    0  501 -0.00000000000E+00 -0.00000000000E+00 -0.47605873447E+02  0.47605873447E+02  0.00000000000E+00 0.  1.
         23    2    1    2    0    0  0.11750372326E+03 -0.86257979150E+01  0.17266644475E+03  0.24460627738E+03  0.12703149381E+03 0.  0.
         23    2    1    2    0    0 -0.11750372326E+03  0.86257979150E+01  0.62278240498E+03  0.64605431925E+03  0.12508689020E+03 0.  0.
          5    1    4    4  502    0 -0.66072794901E+02  0.18350708667E+02  0.56004263195E+03  0.56424071524E+03  0.41800000000E+01 0.  1.
         -5    1    4    4    0  502 -0.51430928360E+02 -0.97249107525E+01  0.62739773033E+02  0.81813604012E+02  0.41800000000E+01 0.  1.
        -11    1    3    3    0    0  0.19644276948E+02 -0.15991332752E+02  0.13833988644E+03  0.14063976863E+03  0.00000000000E+00 0. -1.
         11    1    3    3    0    0  0.97859446313E+02  0.73655348374E+01  0.34326558317E+02  0.10396650875E+03  0.00000000000E+00 0.  1.
</event>
<event>
 8    1  0.9181008E-006  0.1598803E+03  0.7561462E-02  0.1188832E+00
          2   -1    0    0  501    0  0.00000000000E+00  0.00000000000E+00  0.44253516885E+03  0.44253516885E+03  0.00000000000E+00 0. -1.
         -2   -1    0    0    0  501 -0.00000000000E+00 -0.00000000000E+00 -0.72263355534E+02  0.72263355534E+02  0.00000000000E+00 0.  1.
         23    2    1    2    0    0 -0.38295882146E+02  0.13733813195E+03  0.16433675406E+03  0.23482502735E+03  0.88362252448E+02 0.  0.
         23    2    1    2    0    0  0.38295882146E+02 -0.13733813195E+03  0.20593505926E+03  0.27997349704E+03  0.12509026076E+03 0.  0.
          5    1    4    4  502    0  0.53210649972E+02 -0.14868963119E+03  0.13928758015E+03  0.21061453435E+03  0.41800000000E+01 0. -1.
         -5    1    4    4    0  502 -0.14914767826E+02  0.11351499243E+02  0.66647479106E+02  0.69358962690E+02  0.41800000000E+01 0. -1.
        -11    1    3    3    0    0 -0.20524160502E+02  0.73985370656E+02  0.25022355008E+02  0.80753913128E+02  0.00000000000E+00 0.  1.
         11    1    3    3    0    0 -0.17771721644E+02  0.63352761291E+02  0.13931439905E+03  0.15407111422E+03  0.00000000000E+00 0. -1.
</event>
<event>
 8    1  0.9181008E-006  0.1104165E+03  0.7561462E-02  0.1259801E+00
         -1   -1    0    0    0  501 -0.00000000000E+00  0.00000000000E+00  0.84692839232E+02  0.84692839232E+02  0.00000000000E+00 0.  1.
          1   -1    0    0  501    0  0.00000000000E+00 -0.00000000000E+00 -0.23258732472E+03  0.23258732472E+03  0.00000000000E+00 0. -1.
         23    2    1    2    0    0 -0.15362454992E+02 -0.71701791969E+02 -0.72646452664E+01  0.11528497044E+03  0.88660573780E+02 0.  0.
         23    2    1    2    0    0  0.15362454992E+02  0.71701791969E+02 -0.14062984022E+03  0.20199519351E+03  0.12509258270E+03 0.  0.
          5    1    4    4  502    0 -0.54988149142E+02  0.26261431165E+02 -0.56257254570E+02  0.83040414285E+02  0.41800000000E+01 0.  1.
         -5    1    4    4    0  502  0.70350604134E+02  0.45440360804E+02 -0.84372585651E+02  0.11895477923E+03  0.41800000000E+01 0.  1.
        -11    1    3    3    0    0  0.15358536407E+01 -0.39519672701E+02  0.39605997529E+02  0.55971407138E+02  0.00000000000E+00 0.  1.
         11    1    3    3    0    0 -0.16898308633E+02 -0.32182119268E+02 -0.46870642795E+02  0.59313563299E+02  0.00000000000E+00 0. -1.
</event>
<event>
 8    1  0.9181008E-006  0.1002538E+03  0.7561462E-02  0.1279763E+00
         -1   -1    0    0    0  501 -0.00000000000E+00  0.00000000000E+00  0.16627775409E+02  0.16627775409E+02  0.00000000000E+00 0. -1.
          1   -1    0    0  501    0  0.00000000000E+00 -0.00000000000E+00 -0.11171027676E+04  0.11171027676E+04  0.00000000000E+00 0.  1.
         23    2    1    2    0    0 -0.43611238162E+01 -0.11338449936E+01 -0.16003950681E+03  0.18500146752E+03  0.92696247164E+02 0.  0.
         23    2    1    2    0    0  0.43611238162E+01  0.11338449936E+01 -0.94043548537E+03  0.94872907548E+03  0.12509057324E+03 0.  0.
          5    1    4    4  502    0  0.60966315214E+02  0.67008625474E+01 -0.63864591389E+03  0.64159790280E+03  0.41800000000E+01 0. -1.
         -5    1    4    4    0  502 -0.56605191398E+02 -0.55670175538E+01 -0.30178957148E+03  0.30713117268E+03  0.41800000000E+01 0. -1.
        -11    1    3    3    0    0 -0.30253813711E+02 -0.30424162161E+02 -0.12620555041E+03  0.13329952679E+03  0.00000000000E+00 0.  1.
         11    1    3    3    0    0  0.25892689895E+02  0.29290317167E+02 -0.33833956402E+02  0.51701940732E+02  0.00000000000E+00 0. -1.
</event>
<event>
 8    1  0.9181008E-006  0.1168350E+03  0.7561462E-02  0.1248412E+00
          1   -1    0    0  501    0  0.00000000000E+00  0.00000000000E+00  0.77796118121E+03  0.77796118121E+03  0.00000000000E+00 0. -1.
         -1   -1    0    0    0  501 -0.00000000000E+00 -0.00000000000E+00 -0.34457642630E+02  0.34457642630E+02  0.00000000000E+00 0.  1.
         23    2    1    2    0    0 -0.74760767499E+02  0.66868043156E+02  0.18688391853E+03  0.23316645088E+03  0.96852915572E+02 0.  0.
         23    2    1    2    0    0  0.74760767499E+02 -0.66868043156E+02  0.55661962005E+03  0.57925237296E+03  0.12508957835E+03 0.  0.
          5    1    4    4  502    0  0.37918153620E+02 -0.15129153148E+02  0.46984871281E+03  0.47163753347E+03  0.41800000000E+01 0.  1.
         -5    1    4    4    0  502  0.36842613879E+02 -0.51738890008E+02  0.86770907238E+02  0.10761483950E+03  0.41800000000E+01 0.  1.
        -11    1    3    3    0    0 -0.11326074959E+02  0.64512991062E+02  0.50410841905E+02  0.82652640438E+02  0.00000000000E+00 0.  1.
         11    1    3    3    0    0 -0.63434692540E+02  0.23550520937E+01  0.13647307663E+03  0.15051381044E+03  0.00000000000E+00 0. -1.
</event>
<event>
 8    1  0.9181008E-006  0.1104554E+03  0.7561462E-02  0.1259729E+00
         -2   -1    0    0    0  501 -0.00000000000E+00  0.00000000000E+00  0.27819433212E+02  0.27819433212E+02  0.00000000000E+00 0.  1.
          2   -1    0    0  501    0  0.00000000000E+00 -0.00000000000E+00 -0.47944301851E+03  0.47944301851E+03  0.00000000000E+00 0. -1.
         23    2    1    2    0    0 -0.32937358373E+02 -0.18303364074E+02 -0.16468123752E+03  0.19197905373E+03  0.91193006137E+02 0.  0.
         23    2    1    2    0    0  0.32937358373E+02  0.18303364074E+02 -0.28694234778E+03  0.31528339799E+03  0.12509127622E+03 0.  0.
          5    1    4    4  502    0 -0.22450350920E+02 -0.41443976156E+02 -0.13113945786E+03  0.13941539091E+03  0.41800000000E+01 0. -1.
         -5    1    4    4    0  502  0.55387709293E+02  0.59747340230E+02 -0.15580288993E+03  0.17586800708E+03  0.41800000000E+01 0. -1.
        -11    1    3    3    0    0 -0.55004750030E+02  0.10224224232E+02 -0.63859420948E+02  0.84900429509E+02  0.00000000000E+00 0.  1.
         11    1    3    3    0    0  0.22067391657E+02 -0.28527588306E+02 -0.10082181657E+03  0.10707862422E+03  0.00000000000E+00 0. -1.
</event>
<event>
 8    1  0.9181008E-006  0.1466800E+03  0.7561462E-02  0.1204613E+00
          1   -1    0    0  501    0  0.00000000000E+00  0.00000000000E+00  0.12293865255E+04  0.12293865255E+04  0.00000000000E+00 0. -1.
         -1   -1    0    0    0  501 -0.00000000000E+00 -0.00000000000E+00 -0.26446531703E+02  0.26446531703E+02  0.00000000000E+00 0.  1.
         23    2    1    2    0    0  0.12149862458E+03 -0.68166145290E+02  0.44648084678E+03  0.47654726052E+03  0.91343340370E+02 0.  0.
         23    2    1    2    0    0 -0.12149862458E+03  0.68166145290E+02  0.75645914702E+03  0.77928579668E+03  0.12508945866E+03 0.  0.
          5    1    4    4  502    0 -0.91404667367E+02  0.44642309192E+02  0.71705964347E+03  0.72425116754E+03  0.41800000000E+01 0. -1.
         -5    1    4    4    0  502 -0.30093957211E+02  0.23523836097E+02  0.39399503545E+02  0.55034629144E+02  0.41800000000E+01 0. -1.
        -11    1    3    3    0    0  0.15245695959E+02 -0.40580180470E+02  0.22748121660E+03  0.23157479612E+03  0.00000000000E+00 0. -1.
         11    1    3    3    0    0  0.10625292862E+03 -0.27585964819E+02  0.21899963018E+03  0.24497246440E+03  0.00000000000E+00 0.  1.
</event>
<event>
 8    1  0.9181008E-006  0.8594088E+02  0.7561462E-02  0.1312990E+00
          1   -1    0    0  501    0  0.00000000000E+00  0.00000000000E+00  0.46277754374E+03  0.46277754374E+03  0.00000000000E+00 0.  1.
         -1   -1    0    0    0  501 -0.00000000000E+00 -0.00000000000E+00 -0.39093412411E+02  0.39093412411E+02  0.00000000000E+00 0. -1.
         23    2    1    2    0    0 -0.55993207432E+01  0.15536783237E+02  0.80966133563E+01  0.67555648279E+02  0.65003587904E+02 0.  0.
         23    2    1    2    0    0  0.55993207432E+01 -0.15536783237E+02  0.41558751797E+03  0.43431530787E+03  0.12507620690E+03 0.  0.
          5    1    4    4  502    0 -0.28375956638E+02 -0.57830217855E+02  0.29561558515E+03  0.30258151893E+03  0.41800000000E+01 0. -1.
         -5    1    4    4    0  502  0.33975277381E+02  0.42293434618E+02  0.11997193282E+03  0.13173378894E+03  0.41800000000E+01 0. -1.
        -11    1    3    3    0    0  0.78912100363E+01  0.31237204623E+02 -0.15846681456E+02  0.35904755418E+02  0.00000000000E+00 0. -1.
         11    1    3    3    0    0 -0.13490530780E+02 -0.15700421386E+02  0.23943294812E+02  0.31650892861E+02  0.00000000000E+00 0.  1.
</event>
<event>
 8    1  0.9181008E-006  0.1118449E+03  0.7561462E-02  0.1257191E+00
          4   -1    0    0  501    0  0.00000000000E+00  0.00000000000E+00  0.10368822947E+03  0.10368822947E+03  0.00000000000E+00 0. -1.
         -4   -1    0    0    0  501 -0.00000000000E+00 -0.00000000000E+00 -0.18325444294E+03  0.18325444294E+03  0.00000000000E+00 0.  1.
         23    2    1    2    0    0 -0.14847590876E+01  0.69788374451E+02 -0.84737240944E+02  0.14359165762E+03  0.92550215647E+02 0.  0.
         23    2    1    2    0    0  0.14847590876E+01 -0.69788374451E+02  0.51710274725E+01  0.14335101480E+03  0.12510056835E+03 0.  0.
          5    1    4    4  502    0 -0.50866342245E+02 -0.40026969204E+02 -0.32138635599E+02  0.72387204223E+02  0.41800000000E+01 0. -1.
         -5    1    4    4    0  502  0.52351101332E+02 -0.29761405247E+02  0.37309663071E+02  0.70963810576E+02  0.41800000000E+01 0. -1.
        -11    1    3    3    0    0  0.30770559875E+02  0.54906789199E+02 -0.87696733600E+02  0.10794581946E+03  0.00000000000E+00 0.  1.
         11    1    3    3    0    0 -0.32255318963E+02  0.14881585253E+02  0.29594926561E+01  0.35645838155E+02  0.00000000000E+00 0. -1.
</event>
<event>
 8    1  0.9181008E-006  0.1644814E+03  0.7561462E-02  0.1183728E+00
         -1   -1    0    0    0  501 -0.00000000000E+00  0.00000000000E+00  0.85698732549E+02  0.85698732549E+02  0.00000000000E+00 0.  1.
          1   -1    0    0  501    0  0.00000000000E+00 -0.00000000000E+00 -0.41827779718E+03  0.41827779718E+03  0.00000000000E+00 0. -1.
         23    2    1    2    0    0  0.54690297329E+02 -0.12291304206E+03 -0.55371352329E+02  0.17142684146E+03  0.90678171494E+02 0.  0.
         23    2    1    2    0    0 -0.54690297329E+02  0.12291304206E+03 -0.27720771230E+03  0.33254968827E+03  0.12508610985E+03 0.  0.
          5    1    4    4  502    0 -0.84894437041E+02  0.10152771676E+03 -0.25945991261E+03  0.29129342829E+03  0.41800000000E+01 0. -1.
         -5    1    4    4    0  502  0.30204139712E+02  0.21385325294E+02 -0.17747799693E+02  0.41256259981E+02  0.41800000000E+01 0. -1.
        -11    1    3    3    0    0  0.72913118332E+02 -0.61938637720E+02 -0.17158628056E+02  0.97196379481E+02  0.00000000000E+00 0.  1.
         11    1    3    3    0    0 -0.18222821003E+02 -0.60974404338E+02 -0.38212724273E+02  0.74230461982E+02  0.00000000000E+00 0. -1.
</event>
<event>
 8    1  0.9181008E-006  0.8863658E+02  0.7561462E-02  0.1306187E+00
         -3   -1    0    0    0  501 -0.00000000000E+00  0.00000000000E+00  0.12286539212E+03  0.12286539212E+03  0.00000000000E+00 0.  1.
          3   -1    0    0  501    0  0.00000000000E+00 -0.00000000000E+00 -0.10338406232E+03  0.10338406232E+03  0.00000000000E+00 0. -1.
         23    2    1    2    0    0 -0.13915812631E+02  0.24212087856E+02  0.34117409952E+02  0.97246191327E+02  0.86677269375E+02 0.  0.
         23    2    1    2    0    0  0.13915812631E+02 -0.24212087856E+02 -0.14636080143E+02  0.12900326311E+03  0.12509097494E+03 0.  0.
          5    1    4    4  502    0 -0.14454030254E+01  0.42981988269E+02 -0.36508878845E+02  0.56567757070E+02  0.41800000000E+01 0.  1.
         -5    1    4    4    0  502  0.15361215657E+02 -0.67194076125E+02  0.21872798701E+02  0.72435506043E+02  0.41800000000E+01 0.  1.
        -11    1    3    3    0    0 -0.28331089599E+02 -0.82360275586E+01  0.50230907045E+02  0.58254843664E+02  0.00000000000E+00 0.  1.
         11    1    3    3    0    0  0.14415276968E+02  0.32448115414E+02 -0.16113497093E+02  0.38991347663E+02  0.00000000000E+00 0. -1.
</event>
<event>
 8    1  0.9181008E-006  0.1036196E+03  0.7561462E-02  0.1272863E+00
         -1   -1    0    0    0  501 -0.00000000000E+00  0.00000000000E+00  0.25415064901E+02  0.25415064901E+02  0.00000000000E+00 0.  1.
          1   -1    0    0  501    0  0.00000000000E+00 -0.00000000000E+00 -0.59352502387E+03  0.59352502387E+03  0.00000000000E+00 0. -1.
         23    2    1    2    0    0  0.24925879214E+02  0.14881082656E+02 -0.13286691296E+03  0.16514496952E+03  0.93682967088E+02 0.  0.
         23    2    1    2    0    0 -0.24925879214E+02 -0.14881082656E+02 -0.43524304601E+03  0.45379511925E+03  0.12510297791E+03 0.  0.
          5    1    4    4  502    0 -0.52141811856E+02 -0.51527352963E+02 -0.34323848401E+03  0.35100422498E+03  0.41800000000E+01 0. -1.
         -5    1    4    4    0  502  0.27215932642E+02  0.36646270306E+02 -0.92004562001E+02  0.10279089428E+03  0.41800000000E+01 0. -1.
        -11    1    3    3    0    0  0.51679881246E+02 -0.85855658933E+01 -0.11260177901E+03  0.12419212013E+03  0.00000000000E+00 0. -1.
         11    1    3    3    0    0 -0.26754002031E+02  0.23466648550E+02 -0.20265133954E+02  0.40952849388E+02  0.00000000000E+00 0.  1.
</event>
<event>
 8    1  0.9181008E-006  0.1167275E+03  0.7561462E-02  0.1248595E+00
         -2   -1    0    0    0  501 -0.00000000000E+00  0.00000000000E+00  0.27964596503E+03  0.27964596503E+03  0.00000000000E+00 0. -1.
          2   -1    0    0  501    0  0.00000000000E+00 -0.00000000000E+00 -0.70474371114E+02  0.70474371114E+02  0.00000000000E+00 0.  1.
         23    2    1    2    0    0  0.71983565724E+02 -0.12633493038E+01  0.15059236467E+03  0.19434668690E+03  0.99545691151E+02 0.  0.
         23    2    1    2    0    0 -0.71983565724E+02  0.12633493038E+01  0.58579229247E+02  0.15577364924E+03  0.12510265350E+03 0.  0.
          5    1    4    4  502    0 -0.32908915026E+02 -0.43801650748E+02  0.75736122889E+02  0.93568231824E+02  0.41800000000E+01 0. -1.
         -5    1    4    4    0  502 -0.39074650698E+02  0.45065000052E+02 -0.17156893642E+02  0.62205417419E+02  0.41800000000E+01 0. -1.
        -11    1    3    3    0    0  0.72517131818E+02  0.36337363211E+02  0.12444447216E+03  0.14854482496E+03  0.00000000000E+00 0.  1.
         11    1    3    3    0    0 -0.53356609347E+00 -0.37600712515E+02  0.26147892516E+02  0.45801861943E+02  0.00000000000E+00 0. -1.
</event>
<event>
 8    1  0.9181008E-006  0.1159749E+03  0.7561462E-02  0.1249889E+00
         -2   -1    0    0    0  501 -0.00000000000E+00  0.00000000000E+00  0.38133766911E+02  0.38133766911E+02  0.00000000000E+00 0. -1.
          2   -1    0    0  501    0  0.00000000000E+00 -0.00000000000E+00 -0.35603884610E+03  0.35603884610E+03  0.00000000000E+00 0.  1.
         23    2    1    2    0    0  0.35283595802E+02  0.19066540577E+02 -0.11978933220E+03  0.15646322783E+03  0.92318971250E+02 0.  0.
         23    2    1    2    0    0 -0.35283595802E+02 -0.19066540577E+02 -0.19811574699E+03  0.23770938517E+03  0.12508971778E+03 0.  0.
          5    1    4    4  502    0 -0.14199900408E+02 -0.72358577721E+02 -0.11437193225E+03  0.13614628981E+03  0.41800000000E+01 0. -1.
         -5    1    4    4    0  502 -0.21083695394E+02  0.53292037143E+02 -0.83743814735E+02  0.10156309537E+03  0.41800000000E+01 0. -1.
        -11    1    3    3    0    0  0.58206010152E+02  0.39154894749E+02 -0.85092075770E+02  0.11028012858E+03  0.00000000000E+00 0.  1.
         11    1    3    3    0    0 -0.22922414350E+02 -0.20088354171E+02 -0.34697256432E+02  0.46183099256E+02  0.00000000000E+00 0. -1.
</event>
<event>
 8    1  0.9181008E-006  0.9796515E+02  0.7561462E-02  0.1284634E+00
          2   -1    0    0  501    0  0.00000000000E+00  0.00000000000E+00  0.76869145729E+03  0.76869145729E+03  0.00000000000E+00 0. -1.
         -2   -1    0    0    0  501 -0.00000000000E+00 -0.00000000000E+00 -0.25000110557E+02  0.25000110557E+02  0.00000000000E+00 0.  1.
         23    2    1    2    0    0  0.29982221282E+02 -0.29775105183E+02  0.12441089913E+03  0.16049241144E+03  0.92164265440E+02 0.  0.
         23    2    1    2    0    0 -0.29982221282E+02  0.29775105183E+02  0.61928044760E+03  0.63319915641E+03  0.12508960156E+03 0.  0.
          5    1    4    4  502    0  0.26244638041E+02  0.34254638503E+02  0.49213649565E+03  0.49404247190E+03  0.41800000000E+01 0. -1.
         -5    1    4    4    0  502 -0.56226859323E+02 -0.44795333198E+01  0.12714395195E+03  0.13915668452E+03  0.41800000000E+01 0. -1.
        -11    1    3    3    0    0  0.57098751716E+02 -0.36893148753E+02  0.10910635514E+03  0.12855181291E+03  0.00000000000E+00 0. -1.
         11    1    3    3    0    0 -0.27116530434E+02  0.71180435702E+01  0.15304543997E+02  0.31940598522E+02  0.00000000000E+00 0.  1.
</event>
<event>
 8    1  0.9181008E-006  0.1888070E+03  0.7561462E-02  0.1159542E+00
         -2   -1    0    0    0  501 -0.00000000000E+00  0.00000000000E+00  0.73469815884E+02  0.73469815884E+02  0.00000000000E+00 0.  1.
          2   -1    0    0  501    0  0.00000000000E+00 -0.00000000000E+00 -0.56446152053E+03  0.56446152053E+03  0.00000000000E+00 0. -1.
         23    2    1    2    0    0 -0.16620302327E+03 -0.36257630789E+02 -0.20690451809E+03  0.28396107388E+03  0.94267444736E+02 0.  0.
         23    2    1    2    0    0  0.16620302327E+03  0.36257630789E+02 -0.28408718656E+03  0.35397026253E+03  0.12510538141E+03 0.  0.
          5    1    4    4  502    0  0.17118415765E+03  0.25087473423E+02 -0.18229570453E+03  0.25136147963E+03  0.41800000000E+01 0.  1.
         -5    1    4    4    0  502 -0.49811343767E+01  0.11170157366E+02 -0.10179148203E+03  0.10260878290E+03  0.41800000000E+01 0.  1.
        -11    1    3    3    0    0 -0.59337823564E+02 -0.57547872993E+02 -0.65631993014E+02  0.10554758879E+03  0.00000000000E+00 0.  1.
         11    1    3    3    0    0 -0.10686519971E+03  0.21290242205E+02 -0.14127252508E+03  0.17841348510E+03  0.00000000000E+00 0. -1.
</event>
<event>
 8    1  0.9181008E-006  0.1835114E+03  0.7561462E-02  0.1164447E+00
         -2   -1    0    0    0  501 -0.00000000000E+00  0.00000000000E+00  0.13176190310E+03  0.13176190310E+03  0.00000000000E+00 0.  1.
          2   -1    0    0  501    0  0.00000000000E+00 -0.00000000000E+00 -0.30596345128E+03  0.30596345128E+03  0.00000000000E+00 0. -1.
         23    2    1    2    0    0 -0.12813761538E+03  0.89740149182E+02  0.49356410328E+00  0.17194800721E+03  0.71367574763E+02 0.  0.
         23    2    1    2    0    0  0.12813761538E+03 -0.89740149182E+02 -0.17469511229E+03  0.26577734717E+03  0.12508666260E+03 0.  0.
          5    1    4    4  502    0  0.13786312502E+03 -0.34922083536E+02 -0.10696389033E+03  0.17800151514E+03  0.41800000000E+01 0. -1.
         -5    1    4    4    0  502 -0.97255096467E+01 -0.54818065646E+02 -0.67731221961E+02  0.87775832023E+02  0.41800000000E+01 0. -1.
        -11    1    3    3    0    0 -0.18715508278E+02 -0.96794738656E+01  0.10931497473E+02  0.23737314537E+02  0.00000000000E+00 0.  1.
         11    1    3    3    0    0 -0.10942210710E+03  0.99419623047E+02 -0.10437933370E+02  0.14821069267E+03  0.00000000000E+00 0. -1.
</event>
<event>
 8    1  0.9181008E-006  0.1473569E+03  0.7561462E-02  0.1203759E+00
          1   -1    0    0  501    0  0.00000000000E+00  0.00000000000E+00  0.12179151032E+04  0.12179151032E+04  0.00000000000E+00 0. -1.
         -1   -1    0    0    0  501 -0.00000000000E+00 -0.00000000000E+00 -0.18736057188E+02  0.18736057188E+02  0.00000000000E+00 0.  1.
         23    2    1    2    0    0  0.22692134876E+02 -0.99923305352E+02  0.46293566147E+03  0.48285933550E+03  0.91346107089E+02 0.  0.
         23    2    1    2    0    0 -0.22692134876E+02  0.99923305352E+02  0.73624338455E+03  0.75379182489E+03  0.12509274180E+03 0.  0.
          5    1    4    4  502    0 -0.35668447083E+02 -0.17205162365E+02  0.26729693534E+03  0.27024688670E+03  0.41800000000E+01 0. -1.
         -5    1    4    4    0  502  0.12976312208E+02  0.11712846772E+03  0.46894644921E+03  0.48354493819E+03  0.41800000000E+01 0. -1.
        -11    1    3    3    0    0 -0.14742579027E+02  0.11966185157E+02  0.75935114835E+02  0.78273078952E+02  0.00000000000E+00 0.  1.
         11    1    3    3    0    0  0.37434713903E+02 -0.11188949051E+03  0.38700054663E+03  0.40458625655E+03  0.00000000000E+00 0. -1.
</event>
<event>
 8    1  0.9181008E-006  0.1177733E+03  0.7561462E-02  0.1246816E+00
         -2   -1    0    0    0  501 -0.00000000000E+00  0.00000000000E+00  0.17466389621E+02  0.17466389621E+02  0.00000000000E+00 0.  1.
          2   -1    0    0  501    0  0.00000000000E+00 -0.00000000000E+00 -0.13045014090E+04  0.13045014090E+04  0.00000000000E+00 0. -1.
         23    2    1    2    0    0  0.28443316105E+02  0.88042033468E+02 -0.36944739544E+03  0.39128217261E+03  0.89721450666E+02 0.  0.
         23    2    1    2    0    0 -0.28443316105E+02 -0.88042033468E+02 -0.91758762392E+03  0.93068562600E+03  0.12509302533E+03 0.  0.
          5    1    4    4  502    0  0.77767024312E+01  0.30212316082E+01 -0.16083827299E+01  0.94691201355E+01  0.41800000000E+01 0.  1.
         -5    1    4    4    0  502 -0.36220018536E+02 -0.91063265076E+02 -0.91597924119E+03  0.92121650587E+03  0.41800000000E+01 0.  1.
        -11    1    3    3    0    0 -0.23222077612E+02 -0.30286293073E+01 -0.85335058452E+02  0.88490167166E+02  0.00000000000E+00 0.  1.
         11    1    3    3    0    0  0.51665393717E+02  0.91070662776E+02 -0.28411233699E+03  0.30279200544E+03  0.00000000000E+00 0. -1.
</event>
<event>
 7    1  0.9181008E-006  0.2247387E+03  0.7561462E-02  0.1130399E+00
         -2   -1    0    0    0  501 -0.00000000000E+00  0.00000000000E+00  0.33362600586E+03  0.33362600586E+03  0.00000000000E+00 0.  1.
          2   -1    0    0  501    0  0.00000000000E+00 -0.00000000000E+00 -0.19683619124E+03  0.19683619124E+03  0.00000000000E+00 0. -1.
         23    2    1    2    0    0  0.19043569359E+03  0.72475041820E+02  0.79813433490E+02  0.23692865818E+03  0.90810901467E+02 0.  0.
          5    1    1    2  502    0 -0.41586233700E+02 -0.65715807058E+02 -0.64594726958E+02  0.10118267283E+03  0.41800000000E+01 0. -1.
         -5    1    1    2    0  502 -0.14884945989E+03 -0.67592347621E+01  0.12157110809E+03  0.19235086609E+03  0.41800000000E+01 0.  1.
        -11    1    3    3    0    0  0.59651450586E+02  0.69673477862E+02  0.24777151190E+02  0.95008401184E+02  0.00000000000E+00 0. -1.
         11    1    3    3    0    0  0.13078424300E+03  0.28015639583E+01  0.55036282301E+02  0.14192025700E+03  0.00000000000E+00 0.  1.
</event>
<event>
 8    1  0.9181008E-006  0.1041249E+03  0.7561462E-02  0.1271853E+00
         -2   -1    0    0    0  501 -0.00000000000E+00  0.00000000000E+00  0.14741138494E+03  0.14741138494E+03  0.00000000000E+00 0. -1.
          2   -1    0    0  501    0  0.00000000000E+00 -0.00000000000E+00 -0.19774178666E+03  0.19774178666E+03  0.00000000000E+00 0.  1.
         23    2    1    2    0    0  0.25584692942E+02 -0.32178122482E+02  0.10220443284E+03  0.14364168294E+03  0.92180143776E+02 0.  0.
         23    2    1    2    0    0 -0.25584692942E+02  0.32178122482E+02 -0.15253483457E+03  0.20151148866E+03  0.12509994495E+03 0.  0.
          5    1    4    4  502    0 -0.60369185564E+02  0.39042041556E+02 -0.37763702918E+02  0.81315983869E+02  0.41800000000E+01 0.  1.
         -5    1    4    4    0  502  0.34784492622E+02 -0.68639190747E+01 -0.11477113165E+03  0.12019550479E+03  0.41800000000E+01 0.  1.
        -11    1    3    3    0    0 -0.23953018029E+02  0.18045887553E+02  0.24817662436E+02  0.38927079252E+02  0.00000000000E+00 0.  1.
         11    1    3    3    0    0  0.49537710971E+02 -0.50224010035E+02  0.77386770408E+02  0.10471460369E+03  0.00000000000E+00 0. -1.
</event>
<event>
 8    1  0.9181008E-006  0.1576319E+03  0.7561462E-02  0.1191397E+00
         -2   -1    0    0    0  501 -0.00000000000E+00  0.00000000000E+00  0.43086042258E+02  0.43086042258E+02  0.00000000000E+00 0. -1.
          2   -1    0    0  501    0  0.00000000000E+00 -0.00000000000E+00 -0.75624690644E+03  0.75624690644E+03  0.00000000000E+00 0.  1.
         23    2    1    2    0    0  0.30636650385E+02  0.13175042034E+03 -0.22762314764E+03  0.28001542553E+03  0.91101940645E+02 0.  0.
         23    2    1    2    0    0 -0.30636650385E+02 -0.13175042034E+03 -0.48553771654E+03  0.51931752317E+03  0.12508812123E+03 0.  0.
          5    1    4    4  502    0 -0.44245257522E+02 -0.29544410793E+02 -0.31875898558E+03  0.32319541814E+03  0.41800000000E+01 0.  1.
         -5    1    4    4    0  502  0.13608607137E+02 -0.10220600955E+03 -0.16677873097E+03  0.19612210502E+03  0.41800000000E+01 0.  1.
        -11    1    3    3    0    0 -0.28175320789E+02  0.29828792307E+02 -0.33314921657E+02  0.52853472516E+02  0.00000000000E+00 0. -1.
         11    1    3    3    0    0  0.58811971174E+02  0.10192162803E+03 -0.19430822598E+03  0.22716195301E+03  0.00000000000E+00 0.  1.
</event>
<event>
 8    1  0.9181008E-006  0.1736987E+03  0.7561462E-02  0.1174045E+00
          1   -1    0    0  501    0  0.00000000000E+00  0.00000000000E+00  0.51963093326E+02  0.51963093326E+02  0.00000000000E+00 0. -1.
         -1   -1    0    0    0  501 -0.00000000000E+00 -0.00000000000E+00 -0.74530684512E+03  0.74530684512E+03  0.00000000000E+00 0.  1.
         23    2    1    2    0    0 -0.11008357626E+03  0.10097283204E+03 -0.46626668948E+03  0.49806432135E+03  0.91375795005E+02 0.  0.
         23    2    1    2    0    0  0.11008357626E+03 -0.10097283204E+03 -0.22707706232E+03  0.29920561709E+03  0.12508438151E+03 0.  0.
          5    1    4    4  502    0  0.38283687751E+02  0.17395025279E+02 -0.12967258540E+02  0.44202373764E+02  0.41800000000E+01 0. -1.
         -5    1    4    4    0  502  0.71799888513E+02 -0.11836785732E+03 -0.21410980378E+03  0.25500324333E+03  0.41800000000E+01 0. -1.
        -11    1    3    3    0    0 -0.45116112453E+02 -0.16838325130E+01 -0.20529691863E+03  0.21020257775E+03  0.00000000000E+00 0.  1.
         11    1    3    3    0    0 -0.64967463812E+02  0.10265666455E+03 -0.26096977085E+03  0.28786174360E+03  0.00000000000E+00 0. -1.
</event>
<event>
 8    1  0.9181008E-006  0.7222997E+02  0.7561462E-02  0.1352670E+00
         -2   -1    0    0    0  501 -0.00000000000E+00  0.00000000000E+00  0.14367922290E+02  0.14367922290E+02  0.00000000000E+00 0.  1.
          2   -1    0    0  501    0  0.00000000000E+00 -0.00000000000E+00 -0.13365090670E+04  0.13365090670E+04  0.00000000000E+00 0. -1.
         23    2    1    2    0    0  0.26388848309E+02 -0.43427993727E+02 -0.26641671812E+03  0.28655389233E+03  0.92481909385E+02 0.  0.
         23    2    1    2    0    0 -0.26388848309E+02  0.43427993727E+02 -0.10557244266E+04  0.10643230970E+04  0.12508887985E+03 0.  0.
          5    1    4    4  502    0 -0.28723231168E+02  0.12169619925E+01 -0.94914082577E+03  0.94958532241E+03  0.41800000000E+01 0. -1.
         -5    1    4    4    0  502  0.23343828598E+01  0.42211031734E+02 -0.10658360088E+03  0.11473777460E+03  0.41800000000E+01 0. -1.
        -11    1    3    3    0    0 -0.58503696991E+01 -0.40090884771E+02 -0.24352791353E+03  0.24687517197E+03  0.00000000000E+00 0. -1.
         11    1    3    3    0    0  0.32239218008E+02 -0.33371089560E+01 -0.22888804585E+02  0.39678720358E+02  0.00000000000E+00 0.  1.
</event>
<event>
 8    1  0.9181008E-006  0.1172535E+03  0.7561462E-02  0.1247698E+00
          1   -1    0    0  501    0  0.00000000000E+00  0.00000000000E+00  0.33548492753E+03  0.33548492753E+03  0.00000000000E+00 0. -1.
         -1   -1    0    0    0  501 -0.00000000000E+00 -0.00000000000E+00 -0.55589141052E+02  0.55589141052E+02  0.00000000000E+00 0.  1.
         23    2    1    2    0    0 -0.64089254722E+02  0.18167383559E+02  0.55360375741E+02  0.12555379333E+03  0.90892779805E+02 0.  0.
         23    2    1    2    0    0  0.64089254722E+02 -0.18167383559E+02  0.22453541073E+03  0.26552027525E+03  0.12508948597E+03 0.  0.
          5    1    4    4  502    0  0.58963562237E+01 -0.55277302847E+02  0.40448822469E+02  0.68876170523E+02  0.41800000000E+01 0.  1.
         -5    1    4    4    0  502  0.58192898499E+02  0.37109919288E+02  0.18408658827E+03  0.19664410473E+03  0.41800000000E+01 0.  1.
        -11    1    3    3    0    0 -0.79852362444E+02 -0.67417209869E+01  0.26772448438E+02  0.84490322435E+02  0.00000000000E+00 0.  1.
         11    1    3    3    0    0  0.15763107722E+02  0.24909104546E+02  0.28587927303E+02  0.41063470893E+02  0.00000000000E+00 0. -1.
</event>
<event>
 8    1  0.9181008E-006  0.1074882E+03  0.7561462E-02  0.1265293E+00
         -2   -1    0    0    0  501 -0.00000000000E+00  0.00000000000E+00  0.53332853197E+02  0.53332853197E+02  0.00000000000E+00 0.  1.
          2   -1    0    0  501    0  0.00000000000E+00 -0.00000000000E+00 -0.30615459381E+03  0.30615459381E+03  0.00000000000E+00 0. -1.
         23    2    1    2    0    0  0.61130978208E+02 -0.67173383505E+01 -0.74174422124E+02  0.13289400438E+03  0.91525146119E+02 0.  0.
         23    2    1    2    0    0 -0.61130978208E+02  0.67173383505E+01 -0.17864731848E+03  0.22659344262E+03  0.12509038614E+03 0.  0.
          5    1    4    4  502    0 -0.53174625495E+02 -0.45429087224E+02 -0.15194980229E+03  0.16732470702E+03  0.41800000000E+01 0. -1.
         -5    1    4    4    0  502 -0.79563527136E+01  0.52146425575E+02 -0.26697516192E+02  0.59268735599E+02  0.41800000000E+01 0. -1.
        -11    1    3    3    0    0  0.32528227377E+02  0.30816715516E+02  0.20395148943E+00  0.44808449289E+02  0.00000000000E+00 0.  1.
         11    1    3    3    0    0  0.28602750831E+02 -0.37534053866E+02 -0.74378373614E+02  0.88085555094E+02  0.00000000000E+00 0. -1.
</event>
<event>
 8    1  0.9181008E-006  0.1023446E+03  0.7561462E-02  0.1275441E+00
         -1   -1    0    0    0  501 -0.00000000000E+00  0.00000000000E+00  0.20119755394E+02  0.20119755394E+02  0.00000000000E+00 0.  1.
          1   -1    0    0  501    0  0.00000000000E+00 -0.00000000000E+00 -0.69560771350E+03  0.69560771350E+03  0.00000000000E+00 0. -1.
         23    2    1    2    0    0  0.33802666914E+02  0.15345613571E+02 -0.19822483267E+03  0.22094901511E+03  0.90262255923E+02 0.  0.
         23    2    1    2    0    0 -0.33802666914E+02 -0.15345613571E+02 -0.47726312544E+03  0.49477845379E+03  0.12509004470E+03 0.  0.
          5    1    4    4  502    0 -0.39755250462E+02  0.38804663918E+02 -0.10827412700E+03  0.12176633713E+03  0.41800000000E+01 0.  1.
         -5    1    4    4    0  502  0.59525835476E+01 -0.54150277489E+02 -0.36898899844E+03  0.37301211665E+03  0.41800000000E+01 0.  1.
        -11    1    3    3    0    0  0.40126393953E+02 -0.29024270703E+02 -0.75463242262E+02  0.90262044704E+02  0.00000000000E+00 0. -1.
         11    1    3    3    0    0 -0.63237270388E+01  0.44369884275E+02 -0.12276159041E+03  0.13068697040E+03  0.00000000000E+00 0.  1.
</event>
<event>
 8    1  0.9181008E-006  0.1681840E+03  0.7561462E-02  0.1179755E+00
         -1   -1    0    0    0  501 -0.00000000000E+00  0.00000000000E+00  0.77931734794E+02  0.77931734794E+02  0.00000000000E+00 0.  1.
          1   -1    0    0  501    0  0.00000000000E+00 -0.00000000000E+00 -0.43857396813E+03  0.43857396813E+03  0.00000000000E+00 0. -1.
         23    2    1    2    0    0 -0.13892397860E+03  0.39033217531E+02 -0.12070050999E+03  0.20983981830E+03  0.92955216807E+02 0.  0.
         23    2    1    2    0    0  0.13892397860E+03 -0.39033217531E+02 -0.23994172334E+03  0.30666588462E+03  0.12509384592E+03 0.  0.
          5    1    4    4  502    0  0.12506651501E+03  0.11415181848E+02 -0.21389679677E+03  0.24807509270E+03  0.41800000000E+01 0.  1.
         -5    1    4    4    0  502  0.13857463593E+02 -0.50448399378E+02 -0.26044926579E+02  0.58590791918E+02  0.41800000000E+01 0.  1.
        -11    1    3    3    0    0 -0.13337473725E+03  0.52753321907E+02 -0.12897034247E+03  0.19288619118E+03  0.00000000000E+00 0. -1.
         11    1    3    3    0    0 -0.55492413480E+01 -0.13720104376E+02  0.82698324751E+01  0.16953627128E+02  0.00000000000E+00 0.  1.
</event>
<event>
 8    1  0.9181008E-006  0.9261091E+02  0.7561462E-02  0.1296649E+00
         -3   -1    0    0    0  501 -0.00000000000E+00  0.00000000000E+00  0.27770394596E+03  0.27770394596E+03  0.00000000000E+00 0.  1.
          3   -1    0    0  501    0  0.00000000000E+00 -0.00000000000E+00 -0.63831507934E+02  0.63831507934E+02  0.00000000000E+00 0. -1.
         23    2    1    2    0    0 -0.65982121464E+01 -0.71234922661E+02  0.13158536453E+03  0.17559265324E+03  0.91652174570E+02 0.  0.
         23    2    1    2    0    0  0.65982121464E+01  0.71234922661E+02  0.82287073495E+02  0.16594280065E+03  0.12509156652E+03 0.  0.
          5    1    4    4  502    0  0.24851992384E+02  0.41807955050E+02  0.11068020004E+03  0.12096737458E+03  0.41800000000E+01 0. -1.
         -5    1    4    4    0  502 -0.18253780238E+02  0.29426967612E+02 -0.28393126546E+02  0.44975426077E+02  0.41800000000E+01 0. -1.
        -11    1    3    3    0    0  0.30066465453E+02 -0.13103883220E+02  0.88731367447E+02  0.94598941164E+02  0.00000000000E+00 0.  1.
         11    1    3    3    0    0 -0.36664677599E+02 -0.58131039442E+02  0.42853997084E+02  0.80993712077E+02  0.00000000000E+00 0. -1.
</event>
<event>
 8    1  0.9181008E-006  0.1116055E+03  0.7561462E-02  0.1257625E+00
         -2   -1    0    0    0  501 -0.00000000000E+00  0.00000000000E+00  0.63506819746E+02  0.63506819746E+02  0.00000000000E+00 0.  1.
          2   -1    0    0  501    0  0.00000000000E+00 -0.00000000000E+00 -0.22936336345E+03  0.22936336345E+03  0.00000000000E+00 0. -1.
         23    2    1    2    0    0 -0.28347703563E+02  0.40167509728E+02 -0.57510881458E+02  0.12023763164E+03  0.93448196572E+02 0.  0.
         23    2    1    2    0    0  0.28347703563E+02 -0.40167509728E+02 -0.10834566224E+03  0.17263255155E+03  0.12508474804E+03 0.  0.
          5    1    4    4  502    0  0.77945405765E+02 -0.20217004897E+02 -0.61143011356E+02  0.10119364508E+03  0.41800000000E+01 0. -1.
         -5    1    4    4    0  502 -0.49597702202E+02 -0.19950504831E+02 -0.47202650889E+02  0.71438906470E+02  0.41800000000E+01 0. -1.
        -11    1    3    3    0    0 -0.53858704606E+02  0.27312864209E+02 -0.66941144402E+02  0.90154697199E+02  0.00000000000E+00 0. -1.
         11    1    3    3    0    0  0.25511001044E+02  0.12854645518E+02  0.94302629442E+01  0.30082934446E+02  0.00000000000E+00 0.  1.
</event>
<event>
 7    1  0.9181008E-006  0.3396801E+03  0.7561462E-02  0.1066932E+00
          2   -1    0    0  501    0  0.00000000000E+00  0.00000000000E+00  0.76221370984E+03  0.76221370984E+03  0.00000000000E+00 0. -1.
         -2   -1    0    0    0  501 -0.00000000000E+00 -0.00000000000E+00 -0.19822038412E+03  0.19822038412E+03  0.00000000000E+00 0.  1.
         23    2    1    2    0    0  0.15321713328E+03 -0.28456539115E+03  0.85882607286E+02  0.34645158941E+03  0.90553463769E+02 0.  0.
          5    1    1    2  502    0 -0.16194114504E+03  0.29765807841E+03  0.48859792269E+03  0.59461808630E+03  0.41800000000E+01 0. -1.
         -5    1    1    2    0  502  0.87240117653E+01 -0.13092687260E+02 -0.10487204253E+02  0.19364418246E+02  0.41800000000E+01 0.  1.
        -11    1    3    3    0    0  0.13213956553E+03 -0.22402703158E+03  0.30758133012E+02  0.26190654517E+03  0.00000000000E+00 0.  1.
         11    1    3    3    0    0  0.21077567750E+02 -0.60538359569E+02  0.55124474274E+02  0.84545044241E+02  0.00000000000E+00 0. -1.
</event>
<event>
 8    1  0.9181008E-006  0.1830014E+03  0.7561462E-02  0.1164929E+00
          1   -1    0    0  501    0  0.00000000000E+00  0.00000000000E+00  0.29013472861E+03  0.29013472861E+03  0.00000000000E+00 0. -1.
         -1   -1    0    0    0  501 -0.00000000000E+00 -0.00000000000E+00 -0.15140901515E+03  0.15140901515E+03  0.00000000000E+00 0.  1.
         23    2    1    2    0    0  0.13424565262E+03  0.10215339457E+03  0.13494917345E+02  0.19702508671E+03  0.10089380918E+03 0.  0.
         23    2    1    2    0    0 -0.13424565262E+03 -0.10215339457E+03  0.12523079612E+03  0.24451865704E+03  0.12509760220E+03 0.  0.
          5    1    4    4  502    0 -0.15090434587E+03 -0.96698640789E+02  0.13462491829E+03  0.22419654270E+03  0.41800000000E+01 0.  1.
         -5    1    4    4    0  502  0.16658693255E+02 -0.54547537798E+01 -0.93941221753E+01  0.20322114339E+02  0.41800000000E+01 0.  1.
        -11    1    3    3    0    0  0.62763579577E+02  0.46461806110E+02  0.56830637759E+02  0.96579955148E+02  0.00000000000E+00 0. -1.
         11    1    3    3    0    0  0.71482073043E+02  0.55691588459E+02 -0.43335720415E+02  0.10044513157E+03  0.00000000000E+00 0.  1.
</event>
<event>
 8    1  0.9181008E-006  0.6038101E+02  0.7561462E-02  0.1396240E+00
          2   -1    0    0  501    0  0.00000000000E+00  0.00000000000E+00  0.43513851415E+03  0.43513851415E+03  0.00000000000E+00 0.  1.
         -2   -1    0    0    0  501 -0.00000000000E+00 -0.00000000000E+00 -0.41211190340E+02  0.41211190340E+02  0.00000000000E+00 0. -1.
         23    2    1    2    0    0 -0.45379760545E+02 -0.34285534340E+02  0.79781623175E+02  0.13346508093E+03  0.90625602888E+02 0.  0.
         23    2    1    2    0    0  0.45379760545E+02  0.34285534340E+02  0.31414570064E+03  0.34288462356E+03  0.12509006082E+03 0.  0.
          5    1    4    4  502    0  0.12204419782E+02  0.20168583821E+02  0.30435036089E+03  0.30529057340E+03  0.41800000000E+01 0.  1.
         -5    1    4    4    0  502  0.33175340762E+02  0.14116950520E+02  0.97953397479E+01  0.37594050160E+02  0.41800000000E+01 0.  1.
        -11    1    3    3    0    0 -0.29353054254E+02 -0.92074590990E+01 -0.14924686399E+02  0.34192475214E+02  0.00000000000E+00 0. -1.
         11    1    3    3    0    0 -0.16026706290E+02 -0.25078075241E+02  0.94706309574E+02  0.99272605715E+02  0.00000000000E+00 0.  1.
</event>
<event>
 8    1  0.9181008E-006  0.3848791E+03  0.7561462E-02  0.1049145E+00
          3   -1    0    0  501    0  0.00000000000E+00  0.00000000000E+00  0.16421475071E+04  0.16421475071E+04  0.00000000000E+00 0. -1.
         -3   -1    0    0    0  501 -0.00000000000E+00 -0.00000000000E+00 -0.95829861583E+02  0.95829861583E+02  0.00000000000E+00 0.  1.
         23    2    1    2    0    0 -0.55422763903E+02  0.37224752977E+03  0.63485895249E+03  0.74397219851E+03  0.93855401638E+02 0.  0.
         23    2    1    2    0    0  0.55422763903E+02 -0.37224752977E+03  0.91145869299E+03  0.99400517014E+03  0.12509765412E+03 0.  0.
          5    1    4    4  502    0  0.19558523245E+02 -0.35069469459E+03  0.84806293208E+03  0.91793110515E+03  0.41800000000E+01 0.  1.
         -5    1    4    4    0  502  0.35864240658E+02 -0.21552835174E+02  0.63395760916E+02  0.76074064990E+02  0.41800000000E+01 0.  1.
        -11    1    3    3    0    0 -0.96789803583E+01  0.89141879383E+02  0.23808759998E+03  0.25441238685E+03  0.00000000000E+00 0. -1.
         11    1    3    3    0    0 -0.45743783545E+02  0.28310565038E+03  0.39677135252E+03  0.48955981166E+03  0.00000000000E+00 0.  1.
</event>
<event>
 8    1  0.9181008E-006  0.1018587E+03  0.7561462E-02  0.1276435E+00
         -1   -1    0    0    0  501 -0.00000000000E+00  0.00000000000E+00  0.42745453598E+02  0.42745453598E+02  0.00000000000E+00 0.  1.
          1   -1    0    0  501    0  0.00000000000E+00 -0.00000000000E+00 -0.11179280471E+04  0.11179280471E+04  0.00000000000E+00 0. -1.
         23    2    1    2    0    0  0.19046396836E+02  0.31514038860E+02 -0.23264498520E+02  0.10070414576E+03  0.90797512098E+02 0.  0.
         23    2    1    2    0    0 -0.19046396836E+02 -0.31514038860E+02 -0.10519180950E+04  0.10599693550E+04  0.12508978772E+03 0.  0.
          5    1    4    4  502    0  0.51528328414E+02 -0.85826613736E+01 -0.56306710808E+03  0.56550054935E+03  0.41800000000E+01 0.  1.
         -5    1    4    4    0  502 -0.70574725250E+02 -0.22931377487E+02 -0.48885098694E+03  0.49446880564E+03  0.41800000000E+01 0.  1.
        -11    1    3    3    0    0  0.10122764498E+02 -0.21216397131E+02 -0.38488255972E+02  0.45099353832E+02  0.00000000000E+00 0.  1.
         11    1    3    3    0    0  0.89236323379E+01  0.52730435991E+02  0.15223757452E+02  0.55604791923E+02  0.00000000000E+00 0. -1.
</event>
<event>
 8    1  0.9181008E-006  0.7144021E+02  0.7561462E-02  0.1355263E+00
          4   -1    0    0  501    0  0.00000000000E+00  0.00000000000E+00  0.36731490256E+03  0.36731490256E+03  0.00000000000E+00 0.  1.
         -4   -1    0    0    0  501 -0.00000000000E+00 -0.00000000000E+00 -0.31913982182E+02  0.31913982182E+02  0.00000000000E+00 0. -1.
         23    2    1    2    0    0  0.10835655415E+02  0.17883846434E+01  0.10792347151E+03  0.13939640824E+03  0.87540123260E+02 0.  0.
         23    2    1    2    0    0 -0.10835655415E+02 -0.17883846434E+01  0.22747744887E+03  0.25983247650E+03  0.12508523635E+03 0.  0.
          5    1    4    4  502    0  0.20750208658E+02 -0.25619269756E+02  0.21583229337E+03  0.21837575279E+03  0.41800000000E+01 0. -1.
         -5    1    4    4    0  502 -0.31585864073E+02  0.23830885113E+02  0.11645155494E+02  0.41456723712E+02  0.41800000000E+01 0. -1.
        -11    1    3    3    0    0 -0.21593966909E+02  0.22654897749E+02  0.80203972450E+01  0.32308985915E+02  0.00000000000E+00 0. -1.
         11    1    3    3    0    0  0.32429622325E+02 -0.20866513106E+02  0.99903074265E+02  0.10708742233E+03  0.00000000000E+00 0.  1.
</event>
<event>
 7    1  0.9181008E-006  0.1195059E+03  0.7561462E-02  0.1243914E+00
          2   -1    0    0  501    0  0.00000000000E+00  0.00000000000E+00  0.13272534914E+04  0.13272534914E+04  0.00000000000E+00 0. -1.
         -2   -1    0    0    0  501 -0.00000000000E+00 -0.00000000000E+00 -0.24131526954E+02  0.24131526954E+02  0.00000000000E+00 0.  1.
         23    2    1    2    0    0  0.12556961932E+02  0.17379701195E+02  0.10517965288E+03  0.14100375825E+03  0.91430679501E+02 0.  0.
          5    1    1    2  502    0 -0.43650653847E+02  0.54708784385E+02  0.88281233300E+03  0.88559218513E+03  0.41800000000E+01 0. -1.
         -5    1    1    2    0  502  0.31093691915E+02 -0.72088485579E+02  0.31512997857E+03  0.32478907497E+03  0.41800000000E+01 0.  1.
        -11    1    3    3    0    0  0.14712349325E+02  0.52790571139E+02  0.81996372372E+02  0.98624047301E+02  0.00000000000E+00 0. -1.
         11    1    3    3    0    0 -0.21553873936E+01 -0.35410869944E+02  0.23183280508E+02  0.42379710949E+02  0.00000000000E+00 0.  1.
</event>
<event>
 8    1  0.9181008E-006  0.1318350E+03  0.7561462E-02  0.1224758E+00
         -2   -1    0    0    0  501 -0.00000000000E+00  0.00000000000E+00  0.60668520524E+02  0.60668520524E+02  0.00000000000E+00 0.  1.
          2   -1    0    0  501    0  0.00000000000E+00 -0.00000000000E+00 -0.43952154852E+03  0.43952154852E+03  0.00000000000E+00 0. -1.
         23    2    1    2    0    0  0.11357834380E+03  0.43729392629E+02 -0.19356946674E+03  0.24565037384E+03  0.89792359094E+02 0.  0.
         23    2    1    2    0    0 -0.11357834380E+03 -0.43729392629E+02 -0.18528356126E+03  0.25453969521E+03  0.12509259931E+03 0.  0.
          5    1    4    4  502    0 -0.10526729297E+03 -0.44683734903E+02 -0.60570022907E+02  0.12947601790E+03  0.41800000000E+01 0.  1.
         -5    1    4    4    0  502 -0.83110508301E+01  0.95434227430E+00 -0.12471353835E+03  0.12506367731E+03  0.41800000000E+01 0.  1.
        -11    1    3    3    0    0  0.89179950446E+02 -0.71465227828E+00 -0.74392603481E+02  0.11613713335E+03  0.00000000000E+00 0.  1.
         11    1    3    3    0    0  0.24398393359E+02  0.44444044907E+02 -0.11917686326E+03  0.12951324049E+03  0.00000000000E+00 0. -1.
</event>
<event>
 8    1  0.9181008E-006  0.1128385E+03  0.7561462E-02  0.1255402E+00
         -1   -1    0    0    0  501 -0.00000000000E+00  0.00000000000E+00  0.48648584907E+03  0.48648584907E+03  0.00000000000E+00 0.  1.
          1   -1    0    0  501    0  0.00000000000E+00 -0.00000000000E+00 -0.40279241177E+02  0.40279241177E+02  0.00000000000E+00 0. -1.
         23    2    1    2    0    0 -0.42444344994E+02  0.77724415351E+02  0.19408929424E+03  0.23171398780E+03  0.90432907959E+02 0.  0.
         23    2    1    2    0    0  0.42444344994E+02 -0.77724415351E+02  0.25211731365E+03  0.29505110244E+03  0.12509758609E+03 0.  0.
          5    1    4    4  502    0 -0.11356456722E+02  0.15705622962E+02 -0.10466003203E+01  0.19854558019E+02  0.41800000000E+01 0. -1.
         -5    1    4    4    0  502  0.53800801716E+02 -0.93430038313E+02  0.25316391397E+03  0.27519654442E+03  0.41800000000E+01 0. -1.
        -11    1    3    3    0    0 -0.31320372851E+02  0.15874749445E+02  0.90019037843E+01  0.36249244092E+02  0.00000000000E+00 0. -1.
         11    1    3    3    0    0 -0.11123972143E+02  0.61849665906E+02  0.18508739046E+03  0.19546474371E+03  0.00000000000E+00 0.  1.
</event>
<event>
 8    1  0.9181008E-006  0.1474486E+03  0.7561462E-02  0.1203644E+00
         -1   -1    0    0    0  501 -0.00000000000E+00  0.00000000000E+00  0.91689199212E+02  0.91689199212E+02  0.00000000000E+00 0.  1.
          1   -1    0    0  501    0  0.00000000000E+00 -0.00000000000E+00 -0.36816077207E+03  0.36816077207E+03  0.00000000000E+00 0. -1.
         23    2    1    2    0    0  0.55298692664E+02 -0.12747154141E+03 -0.87815255523E+02  0.19424485535E+03  0.10350171713E+03 0.  0.
         23    2    1    2    0    0 -0.55298692664E+02  0.12747154141E+03 -0.18865631734E+03  0.26560511594E+03  0.12509169541E+03 0.  0.
          5    1    4    4  502    0 -0.44742145957E+02  0.83078195717E+02 -0.27961224078E+02  0.98504561724E+02  0.41800000000E+01 0.  1.
         -5    1    4    4    0  502 -0.10556546706E+02  0.44393345691E+02 -0.16069509326E+03  0.16710055421E+03  0.41800000000E+01 0.  1.
        -11    1    3    3    0    0  0.58289506111E+02 -0.49155687019E+02  0.39136498884E+00  0.76250254134E+02  0.00000000000E+00 0.  1.
         11    1    3    3    0    0 -0.29908134474E+01 -0.78315854389E+02 -0.88206620512E+02  0.11799460122E+03  0.00000000000E+00 0. -1.
</event>
<event>
 7    1  0.9181008E-006  0.1076870E+03  0.7561462E-02  0.1264914E+00
         -1   -1    0    0    0  501 -0.00000000000E+00  0.00000000000E+00  0.38247150282E+02  0.38247150282E+02  0.00000000000E+00 0.  1.
          1   -1    0    0  501    0  0.00000000000E+00 -0.00000000000E+00 -0.35882361533E+03  0.35882361533E+03  0.00000000000E+00 0. -1.
         23    2    1    2    0    0 -0.28341665685E+02 -0.18968796507E+02 -0.10173516276E+03  0.14079932220E+03  0.91166553817E+02 0.  0.
          5    1    1    2  502    0  0.72503568156E+02  0.32501571491E+02 -0.94338659478E+02  0.12341140392E+03  0.41800000000E+01 0. -1.
         -5    1    1    2    0  502 -0.44161902471E+02 -0.13532774984E+02 -0.12450264281E+03  0.13286003950E+03  0.41800000000E+01 0.  1.
        -11    1    3    3    0    0 -0.49968341318E+02 -0.36263051936E+02 -0.93251331644E+02  0.11183762749E+03  0.00000000000E+00 0.  1.
         11    1    3    3    0    0  0.21626675634E+02  0.17294255429E+02 -0.84838311158E+01  0.28961694705E+02  0.00000000000E+00 0. -1.
</event>
<event>
 8    1  0.9181008E-006  0.1078918E+03  0.7561462E-02  0.1264524E+00
          2   -1    0    0  501    0  0.00000000000E+00  0.00000000000E+00  0.27888463213E+03  0.27888463213E+03  0.00000000000E+00 0. -1.
         -2   -1    0    0    0  501 -0.00000000000E+00 -0.00000000000E+00 -0.54443291336E+02  0.54443291336E+02  0.00000000000E+00 0.  1.
         23    2    1    2    0    0 -0.43038173803E+02 -0.18994584904E+02  0.51468859173E+02  0.11470941270E+03  0.91083078769E+02 0.  0.
         23    2    1    2    0    0  0.43038173803E+02  0.18994584904E+02  0.17297248162E+03  0.21861851077E+03  0.12514589562E+03 0.  0.
          5    1    4    4  502    0  0.59890458699E+02  0.51932609371E+02  0.16100168305E+03  0.17950731824E+03  0.41800000000E+01 0.  1.
         -5    1    4    4    0  502 -0.16852284896E+02 -0.32938024467E+02  0.11970798577E+02  0.39111192523E+02  0.41800000000E+01 0.  1.
        -11    1    3    3    0    0 -0.59876329812E+02 -0.40178749362E+02  0.23618163568E+02  0.75877034881E+02  0.00000000000E+00 0.  1.
         11    1    3    3    0    0  0.16838156009E+02  0.21184164458E+02  0.27850695605E+02  0.38832377821E+02  0.00000000000E+00 0. -1.
</event>
<event>
 8    1  0.9181008E-006  0.8650180E+02  0.7561462E-02  0.1311551E+00
          2   -1    0    0  501    0  0.00000000000E+00  0.00000000000E+00  0.51669282180E+03  0.51669282180E+03  0.00000000000E+00 0. -1.
         -2   -1    0    0    0  501 -0.00000000000E+00 -0.00000000000E+00 -0.28349554927E+02  0.28349554927E+02  0.00000000000E+00 0.  1.
         23    2    1    2    0    0 -0.14778583730E+02  0.37903134717E+02  0.14097590116E+03  0.17360358944E+03  0.92784413575E+02 0.  0.
         23    2    1    2    0    0  0.14778583730E+02 -0.37903134717E+02  0.34736736571E+03  0.37143878728E+03  0.12509049435E+03 0.  0.
          5    1    4    4  502    0 -0.21411926524E+02 -0.50956376684E+02  0.60818049103E+02  0.82288094029E+02  0.41800000000E+01 0.  1.
         -5    1    4    4    0  502  0.36190510254E+02  0.13053241967E+02  0.28654931661E+03  0.28915069325E+03  0.41800000000E+01 0.  1.
        -11    1    3    3    0    0 -0.26245813665E+02 -0.11137383952E+02  0.54566825037E+01  0.29028596938E+02  0.00000000000E+00 0.  1.
         11    1    3    3    0    0  0.11467229936E+02  0.49040518669E+02  0.13551921865E+03  0.14457499251E+03  0.00000000000E+00 0. -1.
</event>
<event>
 7    1  0.9181008E-006  0.1057617E+03  0.7561462E-02  0.1268626E+00
          1   -1    0    0  501    0  0.00000000000E+00  0.00000000000E+00  0.62938678292E+03  0.62938678292E+03  0.00000000000E+00 0. -1.
         -1   -1    0    0    0  501 -0.00000000000E+00 -0.00000000000E+00 -0.21082243528E+02  0.21082243528E+02  0.00000000000E+00 0.  1.
         23    2    1    2    0    0  0.11039946208E+02  0.10346154490E+02  0.14114243555E+03  0.16175019488E+03  0.77543633568E+02 0.  0.
          5    1    1    2  502    0  0.58912271350E+02  0.96134678735E+01  0.12119496747E+03  0.13516200287E+03  0.41800000000E+01 0. -1.
         -5    1    1    2    0  502 -0.69952217558E+02 -0.19959622364E+02  0.34596713638E+03  0.35355682870E+03  0.41800000000E+01 0.  1.
        -11    1    3    3    0    0 -0.22157529702E+02 -0.22881849597E+02  0.51680332314E+02  0.60707428800E+02  0.00000000000E+00 0.  1.
         11    1    3    3    0    0  0.33197475910E+02  0.33228004087E+02  0.89462103234E+02  0.10104276608E+03  0.00000000000E+00 0. -1.
</event>
<event>
 8    1  0.9181008E-006  0.7116870E+02  0.7561462E-02  0.1356163E+00
         -1   -1    0    0    0  501 -0.00000000000E+00  0.00000000000E+00  0.61719017007E+02  0.61719017007E+02  0.00000000000E+00 0.  1.
          1   -1    0    0  501    0  0.00000000000E+00 -0.00000000000E+00 -0.20333866445E+03  0.20333866445E+03  0.00000000000E+00 0. -1.
         23    2    1    2    0    0  0.25435105335E+02  0.25521490813E+01 -0.45174727980E+02  0.10504833965E+03  0.91328744473E+02 0.  0.
         23    2    1    2    0    0 -0.25435105335E+02 -0.25521490813E+01 -0.96444919461E+02  0.16000934180E+03  0.12509160214E+03 0.  0.
          5    1    4    4  502    0  0.24331228429E+02  0.31957785000E+02 -0.90393018530E+02  0.99003428718E+02  0.41800000000E+01 0.  1.
         -5    1    4    4    0  502 -0.49766333764E+02 -0.34509934082E+02 -0.60519009304E+01  0.61005913086E+02  0.41800000000E+01 0.  1.
        -11    1    3    3    0    0  0.12785239457E+02  0.17496534781E+02 -0.70088244320E+02  0.73361795706E+02  0.00000000000E+00 0. -1.
         11    1    3    3    0    0  0.12649865878E+02 -0.14944385700E+02  0.24913516341E+02  0.31686543944E+02  0.00000000000E+00 0.  1.
</event>
<event>
 8    1  0.9181008E-006  0.1299728E+03  0.7561462E-02  0.1227496E+00
          2   -1    0    0  501    0  0.00000000000E+00  0.00000000000E+00  0.27344617745E+03  0.27344617745E+03  0.00000000000E+00 0. -1.
         -2   -1    0    0    0  501 -0.00000000000E+00 -0.00000000000E+00 -0.11220455387E+03  0.11220455387E+03  0.00000000000E+00 0.  1.
         23    2    1    2    0    0 -0.87411363130E+02  0.59376283581E+02 -0.18712548473E+02  0.14232988721E+03  0.93495175633E+02 0.  0.
         23    2    1    2    0    0  0.87411363130E+02 -0.59376283581E+02  0.17995417205E+03  0.24332084411E+03  0.12512090026E+03 0.  0.
          5    1    4    4  502    0 -0.75583829395E+01 -0.10730801560E+02  0.12013496295E+03  0.12092212775E+03  0.41800000000E+01 0.  1.
         -5    1    4    4    0  502  0.94969746069E+02 -0.48645482021E+02  0.59819209094E+02  0.12239871636E+03  0.41800000000E+01 0.  1.
        -11    1    3    3    0    0 -0.81259111736E+02  0.15923770488E+01  0.19883319445E-01  0.81274715011E+02  0.00000000000E+00 0.  1.
         11    1    3    3    0    0 -0.61522513941E+01  0.57783906532E+02 -0.18732431792E+02  0.61055172198E+02  0.00000000000E+00 0. -1.
</event>
<event>
 8    1  0.9181008E-006  0.2168420E+03  0.7561462E-02  0.1136260E+00
         -1   -1    0    0    0  501 -0.00000000000E+00  0.00000000000E+00  0.16137655984E+03  0.16137655984E+03  0.00000000000E+00 0.  1.
          1   -1    0    0  501    0  0.00000000000E+00 -0.00000000000E+00 -0.37028397505E+03  0.37028397505E+03  0.00000000000E+00 0. -1.
         23    2    1    2    0    0 -0.18927100297E+03 -0.88591285512E+02 -0.34921259838E+02  0.23234510673E+03  0.95356309692E+02 0.  0.
         23    2    1    2    0    0  0.18927100297E+03  0.88591285512E+02 -0.17398615537E+03  0.29931542816E+03  0.12508642946E+03 0.  0.
          5    1    4    4  502    0  0.86670812587E+02  0.49854830110E+02 -0.80871914794E+01  0.10040024355E+03  0.41800000000E+01 0.  1.
         -5    1    4    4    0  502  0.10260019038E+03  0.38736455402E+02 -0.16589896389E+03  0.19891518460E+03  0.41800000000E+01 0.  1.
        -11    1    3    3    0    0 -0.31457205061E+02 -0.53701673144E+02 -0.33573556432E+02  0.70714985259E+02  0.00000000000E+00 0. -1.
         11    1    3    3    0    0 -0.15781379791E+03 -0.34889612368E+02 -0.13477034059E+01  0.16163012147E+03  0.00000000000E+00 0.  1.
</event>
<event>
 8    1  0.9181008E-006  0.8947692E+02  0.7561462E-02  0.1304123E+00
          1   -1    0    0  501    0  0.00000000000E+00  0.00000000000E+00  0.66569937269E+03  0.66569937269E+03  0.00000000000E+00 0. -1.
         -1   -1    0    0    0  501 -0.00000000000E+00 -0.00000000000E+00 -0.21395971081E+02  0.21395971081E+02  0.00000000000E+00 0.  1.
         23    2    1    2    0    0 -0.10588367778E+02 -0.20697166435E+02  0.15336519359E+03  0.17993789071E+03  0.91193616433E+02 0.  0.
         23    2    1    2    0    0  0.10588367778E+02  0.20697166435E+02  0.49093820802E+03  0.50715745306E+03  0.12509145403E+03 0.  0.
          5    1    4    4  502    0 -0.43644107267E+02  0.34258911215E+02  0.12334401083E+03  0.13531333454E+03  0.41800000000E+01 0. -1.
         -5    1    4    4    0  502  0.54232475045E+02 -0.13561744779E+02  0.36759419719E+03  0.37184411852E+03  0.41800000000E+01 0. -1.
        -11    1    3    3    0    0 -0.34473924085E+02  0.16924824075E+01  0.14794893166E+02  0.37552693675E+02  0.00000000000E+00 0.  1.
         11    1    3    3    0    0  0.23885556306E+02 -0.22389648843E+02  0.13857030043E+03  0.14238519704E+03  0.00000000000E+00 0. -1.
</event>
<event>
 8    1  0.9181008E-006  0.1153667E+03  0.7561462E-02  0.1250942E+00
          1   -1    0    0  501    0  0.00000000000E+00  0.00000000000E+00  0.22501638509E+03  0.22501638509E+03  0.00000000000E+00 0. -1.
         -1   -1    0    0    0  501 -0.00000000000E+00 -0.00000000000E+00 -0.93273517811E+02  0.93273517811E+02  0.00000000000E+00 0.  1.
         23    2    1    2    0    0  0.64648318219E+02 -0.54344928822E+02  0.87071987061E+01  0.12356291970E+03  0.89773066552E+02 0.  0.
         23    2    1    2    0    0 -0.64648318219E+02  0.54344928822E+02  0.12303566857E+03  0.19472698320E+03  0.12509214967E+03 0.  0.
          5    1    4    4  502    0 -0.18016590181E+02 -0.38022744420E+02  0.14462760346E+02  0.44687475335E+02  0.41800000000E+01 0.  1.
         -5    1    4    4    0  502 -0.46631728038E+02  0.92367673242E+02  0.10857290823E+03  0.15003950787E+03  0.41800000000E+01 0.  1.
        -11    1    3    3    0    0  0.95745752462E+01 -0.12406592644E+02 -0.37290823992E+02  0.40449988704E+02  0.00000000000E+00 0.  1.
         11    1    3    3    0    0  0.55073742973E+02 -0.41938336178E+02  0.45998022698E+02  0.83112930995E+02  0.00000000000E+00 0. -1.
</event>
<event>
 7    1  0.9181008E-006  0.1629472E+03  0.7561462E-02  0.1185409E+00
         -2   -1    0    0    0  501 -0.00000000000E+00  0.00000000000E+00  0.77518713970E+02  0.77518713970E+02  0.00000000000E+00 0.  1.
          2   -1    0    0  501    0  0.00000000000E+00 -0.00000000000E+00 -0.65004748820E+03  0.65004748820E+03  0.00000000000E+00 0. -1.
         23    2    1    2    0    0  0.10101762884E+03  0.19049326249E+02 -0.25664539148E+02  0.14150961653E+03  0.93802264548E+02 0.  0.
          5    1    1    2  502    0 -0.13585329525E+03 -0.51635967514E+02 -0.28602410786E+03  0.32085768441E+03  0.41800000000E+01 0. -1.
         -5    1    1    2    0  502  0.34835666410E+02  0.32586641265E+02 -0.26084012722E+03  0.26519890123E+03  0.41800000000E+01 0.  1.
        -11    1    3    3    0    0  0.10351952431E+03 -0.95014800714E+01 -0.14107067803E+01  0.10396422524E+03  0.00000000000E+00 0.  1.
         11    1    3    3    0    0 -0.25018954707E+01  0.28550806321E+02 -0.24253832368E+02  0.37545391289E+02  0.00000000000E+00 0. -1.
</event>
<event>
 8    1  0.9181008E-006  0.1127204E+03  0.7561462E-02  0.1255613E+00
          1   -1    0    0  501    0  0.00000000000E+00  0.00000000000E+00  0.14758025459E+03  0.14758025459E+03  0.00000000000E+00 0. -1.
         -1   -1    0    0    0  501 -0.00000000000E+00 -0.00000000000E+00 -0.99096435025E+02  0.99096435025E+02  0.00000000000E+00 0.  1.
         23    2    1    2    0    0 -0.37513181874E+02  0.36487034938E+02  0.33187741606E+02  0.11022507283E+03  0.91156996192E+02 0.  0.
         23    2    1    2    0    0  0.37513181874E+02 -0.36487034938E+02  0.15296077954E+02  0.13645161678E+03  0.12508609510E+03 0.  0.
          5    1    4    4  502    0  0.68402751649E+02 -0.64173734024E+02  0.97053076178E+01  0.94386810348E+02  0.41800000000E+01 0. -1.
         -5    1    4    4    0  502 -0.30889569775E+02  0.27686699086E+02  0.55907703360E+01  0.42064806431E+02  0.41800000000E+01 0. -1.
        -11    1    3    3    0    0  0.20911984862E+02 -0.12791959679E+00 -0.15317928322E+02  0.25922314757E+02  0.00000000000E+00 0.  1.
         11    1    3    3    0    0 -0.58425166735E+02  0.36614954535E+02  0.48505669928E+02  0.84302758074E+02  0.00000000000E+00 0. -1.
</event>
<event>
 8    1  0.9181008E-006  0.9287263E+02  0.7561462E-02  0.1296041E+00
          2   -1    0    0  501    0  0.00000000000E+00  0.00000000000E+00  0.34755126704E+03  0.34755126704E+03  0.00000000000E+00 0. -1.
         -2   -1    0    0    0  501 -0.00000000000E+00 -0.00000000000E+00 -0.35451787928E+02  0.35451787928E+02  0.00000000000E+00 0.  1.
         23    2    1    2    0    0 -0.17159349697E+02  0.17160747758E+02  0.10537908225E+03  0.14016548643E+03  0.89177789083E+02 0.  0.
         23    2    1    2    0    0  0.17159349697E+02 -0.17160747758E+02  0.20672039686E+03  0.24283756853E+03  0.12509127734E+03 0.  0.
          5    1    4    4  502    0  0.87356348245E+01 -0.71508935691E+02  0.11223366412E+03  0.13343053234E+03  0.41800000000E+01 0. -1.
         -5    1    4    4    0  502  0.84237148728E+01  0.54348187933E+02  0.94486732744E+02  0.10940703619E+03  0.41800000000E+01 0. -1.
        -11    1    3    3    0    0  0.18785406975E+02  0.11538364580E+02 -0.61209737380E+01  0.22879940819E+02  0.00000000000E+00 0.  1.
         11    1    3    3    0    0 -0.35944756672E+02  0.56223831773E+01  0.11150005599E+03  0.11728554562E+03  0.00000000000E+00 0. -1.
</event>
<event>
 8    1  0.9181008E-006  0.1235027E+03  0.7561462E-02  0.1237428E+00
          2   -1    0    0  501    0  0.00000000000E+00  0.00000000000E+00  0.51648481013E+03  0.51648481013E+03  0.00000000000E+00 0. -1.
         -2   -1    0    0    0  501 -0.00000000000E+00 -0.00000000000E+00 -0.87818672953E+02  0.87818672953E+02  0.00000000000E+00 0.  1.
         23    2    1    2    0    0  0.46041348069E+02 -0.10727014166E+03  0.55771549574E+01  0.14792869947E+03  0.90692372590E+02 0.  0.
         23    2    1    2    0    0 -0.46041348069E+02  0.10727014166E+03  0.42308898222E+03  0.45637478362E+03  0.12508783802E+03 0.  0.
          5    1    4    4  502    0 -0.28331609774E+02  0.10265812875E+03  0.42438043631E+03  0.43755868022E+03  0.41800000000E+01 0.  1.
         -5    1    4    4    0  502 -0.17709738295E+02  0.46120129044E+01 -0.12914540857E+01  0.18816103400E+02  0.41800000000E+01 0.  1.
        -11    1    3    3    0    0 -0.64769268332E+00 -0.38666493392E+02  0.42185387894E+02  0.57228700569E+02  0.00000000000E+00 0. -1.
         11    1    3    3    0    0  0.46689040752E+02 -0.68603648265E+02 -0.36608232937E+02  0.90699998900E+02  0.00000000000E+00 0.  1.
</event>
<event>
 8    1  0.9181008E-006  0.1278344E+03  0.7561462E-02  0.1230705E+00
         -4   -1    0    0    0  501 -0.00000000000E+00  0.00000000000E+00  0.12852017210E+03  0.12852017210E+03  0.00000000000E+00 0. -1.
          4   -1    0    0  501    0  0.00000000000E+00 -0.00000000000E+00 -0.13219977779E+03  0.13219977779E+03  0.00000000000E+00 0.  1.
         23    2    1    2    0    0  0.57998755963E+02 -0.37764137789E+02  0.19050275610E+02  0.11596545188E+03  0.91077369487E+02 0.  0.
         23    2    1    2    0    0 -0.57998755963E+02  0.37764137789E+02 -0.22729881302E+02  0.14475449801E+03  0.12508889396E+03 0.  0.
          5    1    4    4  502    0 -0.17678091601E+02 -0.46240088891E+02 -0.73215364156E+01  0.50216909889E+02  0.41800000000E+01 0.  1.
         -5    1    4    4    0  502 -0.40320664362E+02  0.84004226681E+02 -0.15408344887E+02  0.94537588117E+02  0.41800000000E+01 0.  1.
        -11    1    3    3    0    0  0.76800281689E+02 -0.76057411223E+01  0.22149374464E+02  0.80291502381E+02  0.00000000000E+00 0.  1.
         11    1    3    3    0    0 -0.18801525726E+02 -0.30158396667E+02 -0.30990988538E+01  0.35673949499E+02  0.00000000000E+00 0. -1.
</event>
<event>
 8    1  0.9181008E-006  0.1167477E+03  0.7561462E-02  0.1248561E+00
         -2   -1    0    0    0  501 -0.00000000000E+00  0.00000000000E+00  0.13748407852E+02  0.13748407852E+02  0.00000000000E+00 0.  1.
          2   -1    0    0  501    0  0.00000000000E+00 -0.00000000000E+00 -0.10424005896E+04  0.10424005896E+04  0.00000000000E+00 0. -1.
         23    2    1    2    0    0  0.40427474400E+02  0.27097497204E+02 -0.36267034457E+03  0.37677625516E+03  0.89788153924E+02 0.  0.
         23    2    1    2    0    0 -0.40427474400E+02 -0.27097497204E+02 -0.66598183713E+03  0.67937274224E+03  0.12508741130E+03 0.  0.
          5    1    4    4  502    0  0.43199072883E+02  0.42307581940E+01 -0.26328583345E+03  0.26687255706E+03  0.41800000000E+01 0.  1.
         -5    1    4    4    0  502 -0.83626547283E+02 -0.31328255398E+02 -0.40269600368E+03  0.41250018518E+03  0.41800000000E+01 0.  1.
        -11    1    3    3    0    0 -0.26236912166E+02  0.20887474486E+02 -0.91170346814E+02  0.97142649174E+02  0.00000000000E+00 0.  1.
         11    1    3    3    0    0  0.66664386566E+02  0.62100227183E+01 -0.27149999775E+03  0.27963360599E+03  0.00000000000E+00 0. -1.
</event>
<event>
 8    1  0.9181008E-006  0.1078935E+03  0.7561462E-02  0.1264521E+00
         -2   -1    0    0    0  501 -0.00000000000E+00  0.00000000000E+00  0.56576526712E+02  0.56576526712E+02  0.00000000000E+00 0.  1.
          2   -1    0    0  501    0  0.00000000000E+00 -0.00000000000E+00 -0.23145826963E+03  0.23145826963E+03  0.00000000000E+00 0. -1.
         23    2    1    2    0    0  0.68430526136E+01 -0.31316503808E+02 -0.49729437287E+02  0.10832247075E+03  0.90736927190E+02 0.  0.
         23    2    1    2    0    0 -0.68430526136E+01  0.31316503808E+02 -0.12515230563E+03  0.17971232559E+03  0.12492345491E+03 0.  0.
          5    1    4    4  502    0 -0.10275984208E+02 -0.43767208132E+02 -0.17660338256E+02  0.48482206081E+02  0.41800000000E+01 0.  1.
         -5    1    4    4    0  502  0.34329315943E+01  0.75083711940E+02 -0.10749196737E+03  0.13123011951E+03  0.41800000000E+01 0.  1.
        -11    1    3    3    0    0  0.44306084461E+02 -0.36671373984E+02 -0.37035307435E+02  0.68406379724E+02  0.00000000000E+00 0.  1.
         11    1    3    3    0    0 -0.37463031847E+02  0.53548701765E+01 -0.12694129851E+02  0.39916091022E+02  0.00000000000E+00 0. -1.
</event>
<event>
 8    1  0.9181008E-006  0.1007810E+03  0.7561462E-02  0.1278662E+00
          2   -1    0    0  501    0  0.00000000000E+00  0.00000000000E+00  0.89470877070E+03  0.89470877070E+03  0.00000000000E+00 0. -1.
         -2   -1    0    0    0  501 -0.00000000000E+00 -0.00000000000E+00 -0.20432217226E+02  0.20432217226E+02  0.00000000000E+00 0.  1.
         23    2    1    2    0    0  0.55538236264E+02 -0.10032850031E+02  0.20208659247E+03  0.22908565496E+03  0.91957015444E+02 0.  0.
         23    2    1    2    0    0 -0.55538236264E+02  0.10032850031E+02  0.67218996100E+03  0.68605533296E+03  0.12508965759E+03 0.  0.
          5    1    4    4  502    0 -0.48117679410E+02 -0.45398611604E+02  0.20353604189E+03  0.21405779070E+03  0.41800000000E+01 0.  1.
         -5    1    4    4    0  502 -0.74205568536E+01  0.55431461635E+02  0.46865391911E+03  0.47199754226E+03  0.41800000000E+01 0.  1.
        -11    1    3    3    0    0  0.27301098595E+02 -0.32976297119E+02  0.27807749513E+02  0.51049555230E+02  0.00000000000E+00 0.  1.
         11    1    3    3    0    0  0.28237137668E+02  0.22943447088E+02  0.17427884295E+03  0.17803609973E+03  0.00000000000E+00 0. -1.
</event>
<event>
 8    1  0.9181008E-006  0.1136698E+03  0.7561462E-02  0.1253921E+00
          2   -1    0    0  501    0  0.00000000000E+00  0.00000000000E+00  0.80204837759E+02  0.80204837759E+02  0.00000000000E+00 0.  1.
         -2   -1    0    0    0  501 -0.00000000000E+00 -0.00000000000E+00 -0.19282512124E+03  0.19282512124E+03  0.00000000000E+00 0. -1.
         23    2    1    2    0    0  0.31795921638E+02 -0.27644213316E+02 -0.97434949258E+02  0.14015650474E+03  0.91515535950E+02 0.  0.
         23    2    1    2    0    0 -0.31795921638E+02  0.27644213316E+02 -0.15185334220E+02  0.13287345426E+03  0.12509827061E+03 0.  0.
          5    1    4    4  502    0 -0.61481807665E+02 -0.26031568041E+02  0.75566854976E+01  0.67321847153E+02  0.41800000000E+01 0. -1.
         -5    1    4    4    0  502  0.29685886027E+02  0.53675781357E+02 -0.22742019718E+02  0.65551607107E+02  0.41800000000E+01 0. -1.
        -11    1    3    3    0    0 -0.18770141651E+02  0.21437471296E+02 -0.16838719252E+02  0.33097218300E+02  0.00000000000E+00 0.  1.
         11    1    3    3    0    0  0.50566063288E+02 -0.49081684612E+02 -0.80596230006E+02  0.10705928644E+03  0.00000000000E+00 0. -1.
</event>
<event>
 8    1  0.9181008E-006  0.1070900E+03  0.7561462E-02  0.1266056E+00
         -2   -1    0    0    0  501 -0.00000000000E+00  0.00000000000E+00  0.17090785850E+02  0.17090785850E+02  0.00000000000E+00 0.  1.
          2   -1    0    0  501    0  0.00000000000E+00 -0.00000000000E+00 -0.69651700789E+03  0.69651700789E+03  0.00000000000E+00 0. -1.
         23    2    1    2    0    0  0.25124895493E+01 -0.25943106337E+02 -0.24997895509E+03  0.26555499331E+03  0.85735751663E+02 0.  0.
         23    2    1    2    0    0 -0.25124895493E+01  0.25943106337E+02 -0.42944726695E+03  0.44805280044E+03  0.12508796710E+03 0.  0.
          5    1    4    4  502    0 -0.49117678512E+02  0.51580651347E+02 -0.29256755402E+03  0.30114175400E+03  0.41800000000E+01 0. -1.
         -5    1    4    4    0  502  0.46605188963E+02 -0.25637545010E+02 -0.13687971293E+03  0.14691104643E+03  0.41800000000E+01 0. -1.
        -11    1    3    3    0    0  0.43709482691E+02 -0.75369737322E+01 -0.11666831330E+03  0.12481514403E+03  0.00000000000E+00 0.  1.
         11    1    3    3    0    0 -0.41196993142E+02 -0.18406132605E+02 -0.13331064179E+03  0.14073984928E+03  0.00000000000E+00 0. -1.
</event>
<event>
 8    1  0.9181008E-006  0.1141416E+03  0.7561462E-02  0.1253087E+00
         -3   -1    0    0    0  501 -0.00000000000E+00  0.00000000000E+00  0.27174386216E+03  0.27174386216E+03  0.00000000000E+00 0. -1.
          3   -1    0    0  501    0  0.00000000000E+00 -0.00000000000E+00 -0.73364251547E+02  0.73364251547E+02  0.00000000000E+00 0.  1.
         23    2    1    2    0    0 -0.58564281254E+02 -0.42866988272E+02  0.16259108845E+03  0.19612619439E+03  0.82233012608E+02 0.  0.
         23    2    1    2    0    0  0.58564281254E+02  0.42866988272E+02  0.35788522172E+02  0.14898191932E+03  0.12508972876E+03 0.  0.
          5    1    4    4  502    0  0.10429214099E+01  0.72186595197E+02 -0.50200238469E+01  0.72489069870E+02  0.41800000000E+01 0.  1.
         -5    1    4    4    0  502  0.57521359844E+02 -0.29319606926E+02  0.40808546019E+02  0.76492849448E+02  0.41800000000E+01 0.  1.
        -11    1    3    3    0    0 -0.46816280726E+02  0.65150883980E-02  0.28384720926E+02  0.54749032553E+02  0.00000000000E+00 0.  1.
         11    1    3    3    0    0 -0.11748000528E+02 -0.42873503360E+02  0.13420636752E+03  0.14137716184E+03  0.00000000000E+00 0. -1.
</event>
<event>
 8    1  0.9181008E-006  0.1572632E+03  0.7561462E-02  0.1191822E+00
          2   -1    0    0  501    0  0.00000000000E+00  0.00000000000E+00  0.67248701033E+03  0.67248701033E+03  0.00000000000E+00 0. -1.
         -2   -1    0    0    0  501 -0.00000000000E+00 -0.00000000000E+00 -0.39110434757E+02  0.39110434757E+02  0.00000000000E+00 0.  1.
         23    2    1    2    0    0  0.90147743571E+02 -0.70046366240E+02  0.21621371191E+03  0.26136934225E+03  0.92371287511E+02 0.  0.
         23    2    1    2    0    0 -0.90147743571E+02  0.70046366240E+02  0.41716286366E+03  0.45022810284E+03  0.12508949065E+03 0.  0.
          5    1    4    4  502    0 -0.55863713255E+02  0.10544344942E+03  0.27877881970E+03  0.30327244879E+03  0.41800000000E+01 0.  1.
         -5    1    4    4    0  502 -0.34284030316E+02 -0.35397083176E+02  0.13838404396E+03  0.14695565404E+03  0.41800000000E+01 0.  1.
        -11    1    3    3    0    0 -0.17799894837E+02 -0.16449625441E+01  0.16867390734E+02  0.24577449586E+02  0.00000000000E+00 0.  1.
         11    1    3    3    0    0  0.10794763841E+03 -0.68401403696E+02  0.19934632118E+03  0.23679189267E+03  0.00000000000E+00 0. -1.
</event>
<event>
 8    1  0.9181008E-006  0.1919935E+03  0.7561462E-02  0.1156676E+00
         -2   -1    0    0    0  501 -0.00000000000E+00  0.00000000000E+00  0.11386932282E+03  0.11386932282E+03  0.00000000000E+00 0.  1.
          2   -1    0    0  501    0  0.00000000000E+00 -0.00000000000E+00 -0.35360720033E+03  0.35360720033E+03  0.00000000000E+00 0. -1.
         23    2    1    2    0    0 -0.15441222369E+03 -0.39855662442E+02 -0.55377036112E+02  0.19239431193E+03  0.92289471125E+02 0.  0.
         23    2    1    2    0    0  0.15441222369E+03  0.39855662442E+02 -0.18436084140E+03  0.27508221122E+03  0.12747428932E+03 0.  0.
          5    1    4    4  502    0  0.17101680033E+03  0.14279634815E+02 -0.14236655943E+03  0.22301650972E+03  0.41800000000E+01 0. -1.
         -5    1    4    4    0  502 -0.16604576639E+02  0.25576027627E+02 -0.41994281972E+02  0.52065701502E+02  0.41800000000E+01 0.  1.
        -11    1    3    3    0    0 -0.32197348069E+02  0.27195511890E+02 -0.27241759009E+02  0.50183448701E+02  0.00000000000E+00 0. -1.
         11    1    3    3    0    0 -0.12221487562E+03 -0.67051174332E+02 -0.28135277104E+02  0.14221086323E+03  0.00000000000E+00 0.  1.
</event>
<event>
 8    1  0.9181008E-006  0.1219711E+03  0.7561462E-02  0.1239880E+00
          2   -1    0    0  501    0  0.00000000000E+00  0.00000000000E+00  0.25457164212E+03  0.25457164212E+03  0.00000000000E+00 0.  1.
         -2   -1    0    0    0  501 -0.00000000000E+00 -0.00000000000E+00 -0.94640474309E+02  0.94640474309E+02  0.00000000000E+00 0. -1.
         23    2    1    2    0    0  0.31667172417E+02  0.92413682661E+02  0.16318809516E+02  0.13516737342E+03  0.91982698056E+02 0.  0.
         23    2    1    2    0    0 -0.31667172417E+02 -0.92413682661E+02  0.14361235829E+03  0.21404474301E+03  0.12509014350E+03 0.  0.
          5    1    4    4  502    0 -0.15283404478E+02 -0.11102909519E+03  0.15075875578E+03  0.18790081766E+03  0.41800000000E+01 0. -1.
         -5    1    4    4    0  502 -0.16383767939E+02  0.18615412529E+02 -0.71463974897E+01  0.26143925347E+02  0.41800000000E+01 0. -1.
        -11    1    3    3    0    0  0.20732744163E+02  0.91511778700E+01 -0.31288866782E+02  0.38633973669E+02  0.00000000000E+00 0. -1.
         11    1    3    3    0    0  0.10934428254E+02  0.83262504791E+02  0.47607676298E+02  0.96533399753E+02  0.00000000000E+00 0.  1.
</event>
<event>
 8    1  0.9181008E-006  0.7986038E+02  0.7561462E-02  0.1329448E+00
          2   -1    0    0  501    0  0.00000000000E+00  0.00000000000E+00  0.52769120582E+02  0.52769120582E+02  0.00000000000E+00 0. -1.
         -2   -1    0    0    0  501 -0.00000000000E+00 -0.00000000000E+00 -0.28347819655E+03  0.28347819655E+03  0.00000000000E+00 0.  1.
         23    2    1    2    0    0  0.67081733132E+01  0.17762722761E+02 -0.16967684962E+03  0.19578533479E+03  0.95818318252E+02 0.  0.
         23    2    1    2    0    0 -0.67081733132E+01 -0.17762722761E+02 -0.61032226354E+02  0.14046198235E+03  0.12507646430E+03 0.  0.
          5    1    4    4  502    0  0.25276916077E+02 -0.27052572242E+02  0.27153317905E+02  0.46103570626E+02  0.41800000000E+01 0. -1.
         -5    1    4    4    0  502 -0.31985089390E+02  0.92898494804E+01 -0.88185544259E+02  0.94358411723E+02  0.41800000000E+01 0. -1.
        -11    1    3    3    0    0  0.45347240185E+02  0.21285316411E+02 -0.53458538555E+02  0.73261533096E+02  0.00000000000E+00 0. -1.
         11    1    3    3    0    0 -0.38639066872E+02 -0.35225936498E+01 -0.11621831106E+03  0.12252380169E+03  0.00000000000E+00 0.  1.
</event>
<event>
 8    1  0.9181008E-006  0.1158115E+03  0.7561462E-02  0.1250171E+00
          1   -1    0    0  501    0  0.00000000000E+00  0.00000000000E+00  0.29584955486E+02  0.29584955486E+02  0.00000000000E+00 0. -1.
         -1   -1    0    0    0  501 -0.00000000000E+00 -0.00000000000E+00 -0.63306855782E+03  0.63306855782E+03  0.00000000000E+00 0.  1.
         23    2    1    2    0    0  0.82365895545E+02  0.10575673488E+02 -0.25558350095E+03  0.28373643039E+03  0.91035434623E+02 0.  0.
         23    2    1    2    0    0 -0.82365895545E+02 -0.10575673488E+02 -0.34790010138E+03  0.37891708291E+03  0.12509072532E+03 0.  0.
          5    1    4    4  502    0 -0.19051399460E+02 -0.62891744749E+02 -0.12412928238E+03  0.14051291230E+03  0.41800000000E+01 0. -1.
         -5    1    4    4    0  502 -0.63314496085E+02  0.52316071261E+02 -0.22377081900E+03  0.23840417061E+03  0.41800000000E+01 0. -1.
        -11    1    3    3    0    0  0.48081756710E+02  0.16467942201E+01 -0.24044319759E+03  0.24520909145E+03  0.00000000000E+00 0.  1.
         11    1    3    3    0    0  0.34284138834E+02  0.89288792682E+01 -0.15140303355E+02  0.38527338946E+02  0.00000000000E+00 0. -1.
</event>
<event>
 8    1  0.9181008E-006  0.2024186E+03  0.7561462E-02  0.1147714E+00
         -1   -1    0    0    0  501 -0.00000000000E+00  0.00000000000E+00  0.97345231755E+02  0.97345231755E+02  0.00000000000E+00 0. -1.
          1   -1    0    0  501    0  0.00000000000E+00 -0.00000000000E+00 -0.48640231178E+03  0.48640231178E+03  0.00000000000E+00 0.  1.
         23    2    1    2    0    0  0.18407838871E+03  0.13838972096E+02 -0.21835018912E+03  0.30292040892E+03  0.10003798635E+03 0.  0.
         23    2    1    2    0    0 -0.18407838871E+03 -0.13838972096E+02 -0.17070689090E+03  0.28082713461E+03  0.12508663636E+03 0.  0.
          5    1    4    4  502    0 -0.11958159243E+03  0.30500115957E+02 -0.42557161711E+02  0.13060857068E+03  0.41800000000E+01 0. -1.
         -5    1    4    4    0  502 -0.64496796281E+02 -0.44339088052E+02 -0.12814972919E+03  0.15021856394E+03  0.41800000000E+01 0. -1.
        -11    1    3    3    0    0  0.13747254614E+02  0.28878574773E+02 -0.68331068984E+02  0.75445967943E+02  0.00000000000E+00 0.  1.
         11    1    3    3    0    0  0.17033113410E+03 -0.15039602677E+02 -0.15001912014E+03  0.22747444098E+03  0.00000000000E+00 0. -1.
</event>
<event>
 8    1  0.9181008E-006  0.1208236E+03  0.7561462E-02  0.1241745E+00
          1   -1    0    0  501    0  0.00000000000E+00  0.00000000000E+00  0.34227272982E+03  0.34227272982E+03  0.00000000000E+00 0. -1.
         -1   -1    0    0    0  501 -0.00000000000E+00 -0.00000000000E+00 -0.91414253168E+02  0.91414253168E+02  0.00000000000E+00 0.  1.
         23    2    1    2    0    0  0.62500272570E+02  0.19348014055E+02 -0.32795430391E+02  0.11789546193E+03  0.92429270097E+02 0.  0.
         23    2    1    2    0    0 -0.62500272570E+02 -0.19348014055E+02  0.28365390705E+03  0.31579152106E+03  0.12240962409E+03 0.  0.
          5    1    4    4  502    0 -0.49851635987E+02  0.43793267217E+02  0.91599709540E+02  0.11318575463E+03  0.41800000000E+01 0. -1.
         -5    1    4    4    0  502 -0.12648636583E+02 -0.63141281273E+02  0.19205419751E+03  0.20260576642E+03  0.41800000000E+01 0.  1.
        -11    1    3    3    0    0  0.80505363849E+02 -0.46359942274E+01 -0.12301411140E+02  0.81571629669E+02  0.00000000000E+00 0.  1.
         11    1    3    3    0    0 -0.18005091279E+02  0.23984008283E+02 -0.20494019251E+02  0.36323832264E+02  0.00000000000E+00 0. -1.
</event>
<event>
 8    1  0.9181008E-006  0.7387488E+02  0.7561462E-02  0.1347391E+00
          2   -1    0    0  501    0  0.00000000000E+00  0.00000000000E+00  0.26070887297E+02  0.26070887297E+02  0.00000000000E+00 0. -1.
         -2   -1    0    0    0  501 -0.00000000000E+00 -0.00000000000E+00 -0.51540541826E+03  0.51540541826E+03  0.00000000000E+00 0.  1.
         23    2    1    2    0    0 -0.89745537555E+01  0.32863915032E+02 -0.24645922812E+03  0.26616954504E+03  0.94570058991E+02 0.  0.
         23    2    1    2    0    0  0.89745537555E+01 -0.32863915032E+02 -0.24287530284E+03  0.27530676051E+03  0.12507925538E+03 0.  0.
          5    1    4    4  502    0 -0.13487750664E+02 -0.11674911637E+02 -0.24345205321E+03  0.24414052837E+03  0.41800000000E+01 0. -1.
         -5    1    4    4    0  502  0.22462304420E+02 -0.21189003395E+02  0.57675037258E+00  0.31166232139E+02  0.41800000000E+01 0. -1.
        -11    1    3    3    0    0 -0.44572148194E+02  0.42290443621E+02 -0.12557245223E+03  0.13979842194E+03  0.00000000000E+00 0. -1.
         11    1    3    3    0    0  0.35597594439E+02 -0.94265285899E+01 -0.12088677589E+03  0.12637112311E+03  0.00000000000E+00 0.  1.
</event>
<event>
 8    1  0.9181008E-006  0.1365532E+03  0.7561462E-02  0.1218044E+00
         -2   -1    0    0    0  501 -0.00000000000E+00  0.00000000000E+00  0.15497036074E+02  0.15497036074E+02  0.00000000000E+00 0.  1.
          2   -1    0    0  501    0  0.00000000000E+00 -0.00000000000E+00 -0.20896371695E+04  0.20896371695E+04  0.00000000000E+00 0. -1.
         23    2    1    2    0    0  0.89466804951E+02 -0.15381990827E+02 -0.32621733369E+03  0.35039185506E+03  0.90087670990E+02 0.  0.
         23    2    1    2    0    0 -0.89466804951E+02  0.15381990827E+02 -0.17479227998E+04  0.17547423505E+04  0.12508272466E+03 0.  0.
          5    1    4    4  502    0 -0.39587787226E+02  0.69852145065E+02 -0.86813420841E+03  0.87184917921E+03  0.41800000000E+01 0.  1.
         -5    1    4    4    0  502 -0.49879017725E+02 -0.54470154239E+02 -0.87978859134E+03  0.88289317132E+03  0.41800000000E+01 0.  1.
        -11    1    3    3    0    0  0.78752054615E+02 -0.42560923248E+02 -0.29192821702E+03  0.30534472681E+03  0.00000000000E+00 0. -1.
         11    1    3    3    0    0  0.10714750336E+02  0.27178932421E+02 -0.34289116662E+02  0.45047128253E+02  0.00000000000E+00 0.  1.
</event>
<event>
 8    1  0.9181008E-006  0.1803560E+03  0.7561462E-02  0.1167459E+00
          2   -1    0    0  501    0  0.00000000000E+00  0.00000000000E+00  0.28823375255E+04  0.28823375255E+04  0.00000000000E+00 0. -1.
         -2   -1    0    0    0  501 -0.00000000000E+00 -0.00000000000E+00 -0.26553183550E+02  0.26553183550E+02  0.00000000000E+00 0.  1.
         23    2    1    2    0    0  0.15676071136E+03 -0.23843383450E+02  0.35045920140E+03  0.39543836200E+03  0.91691977473E+02 0.  0.
         23    2    1    2    0    0 -0.15676071136E+03  0.23843383450E+02  0.25053251406E+04  0.25134523471E+04  0.12508482513E+03 0.  0.
          5    1    4    4  502    0 -0.10331341141E+02 -0.40409047289E+02  0.49147886066E+03  0.49326318593E+03  0.41800000000E+01 0. -1.
         -5    1    4    4    0  502 -0.14642937021E+03  0.64252430739E+02  0.20138462799E+04  0.20201891611E+04  0.41800000000E+01 0. -1.
        -11    1    3    3    0    0  0.18815897260E+02 -0.59428461928E+01  0.15145141138E+01  0.19790127932E+02  0.00000000000E+00 0.  1.
         11    1    3    3    0    0  0.13794481410E+03 -0.17900537257E+02  0.34894468729E+03  0.37564823407E+03  0.00000000000E+00 0. -1.
</event>
<event>
 8    1  0.9181008E-006  0.1117905E+03  0.7561462E-02  0.1257290E+00
         -1   -1    0    0    0  501 -0.00000000000E+00  0.00000000000E+00  0.22198137702E+03  0.22198137702E+03  0.00000000000E+00 0.  1.
          1   -1    0    0  501    0  0.00000000000E+00 -0.00000000000E+00 -0.92389073797E+02  0.92389073797E+02  0.00000000000E+00 0. -1.
         23    2    1    2    0    0 -0.25582410166E+02 -0.81598548288E+02  0.10165817484E+03  0.16028986083E+03  0.89697670975E+02 0.  0.
         23    2    1    2    0    0  0.25582410166E+02  0.81598548288E+02  0.27934128379E+02  0.15408058999E+03  0.12509088652E+03 0.  0.
          5    1    4    4  502    0  0.48203296136E+02  0.58766642932E+01 -0.28885685855E+02  0.56656404659E+02  0.41800000000E+01 0.  1.
         -5    1    4    4    0  502 -0.22620885970E+02  0.75721883995E+02  0.56819814235E+02  0.97424185331E+02  0.41800000000E+01 0.  1.
        -11    1    3    3    0    0 -0.13266437071E+02 -0.82303658566E+02  0.11505213940E+03  0.14208055935E+03  0.00000000000E+00 0.  1.
         11    1    3    3    0    0 -0.12315973094E+02  0.70511027812E+00 -0.13393964552E+02  0.18209301475E+02  0.00000000000E+00 0. -1.
</event>
<event>
 8    1  0.9181008E-006  0.1219033E+03  0.7561462E-02  0.1239990E+00
         -2   -1    0    0    0  501 -0.00000000000E+00  0.00000000000E+00  0.38089047041E+02  0.38089047041E+02  0.00000000000E+00 0.  1.
          2   -1    0    0  501    0  0.00000000000E+00 -0.00000000000E+00 -0.47640682421E+03  0.47640682421E+03  0.00000000000E+00 0. -1.
         23    2    1    2    0    0  0.76870681456E+02  0.18330047794E+02 -0.20799929112E+03  0.24074301882E+03  0.91915198350E+02 0.  0.
         23    2    1    2    0    0 -0.76870681456E+02 -0.18330047794E+02 -0.23031848605E+03  0.27375285242E+03  0.12509567088E+03 0.  0.
          5    1    4    4  502    0 -0.10232360080E+03 -0.52666458400E+00 -0.21650122811E+03  0.23950083680E+03  0.41800000000E+01 0. -1.
         -5    1    4    4    0  502  0.25452919349E+02 -0.17803383210E+02 -0.13817257944E+02  0.34252015622E+02  0.41800000000E+01 0. -1.
        -11    1    3    3    0    0  0.90441540814E+02  0.26463031584E+02 -0.12660425461E+03  0.15782459134E+03  0.00000000000E+00 0.  1.
         11    1    3    3    0    0 -0.13570859358E+02 -0.81329837897E+01 -0.81395036503E+02  0.82918427484E+02  0.00000000000E+00 0. -1.
</event>
<event>
 8    1  0.9181008E-006  0.1055607E+03  0.7561462E-02  0.1269019E+00
         -2   -1    0    0    0  501 -0.00000000000E+00  0.00000000000E+00  0.46755494411E+02  0.46755494411E+02  0.00000000000E+00 0.  1.
          2   -1    0    0  501    0  0.00000000000E+00 -0.00000000000E+00 -0.27691084365E+03  0.27691084365E+03  0.00000000000E+00 0. -1.
         23    2    1    2    0    0  0.10088816269E+02  0.24757655039E+02 -0.13230890818E+03  0.16261678774E+03  0.90685427582E+02 0.  0.
         23    2    1    2    0    0 -0.10088816269E+02 -0.24757655039E+02 -0.97846441068E+02  0.16104955032E+03  0.12509318900E+03 0.  0.
          5    1    4    4  502    0  0.47991383026E+02 -0.32527609867E+02 -0.81438667677E+02  0.10005472123E+03  0.41800000000E+01 0.  1.
         -5    1    4    4    0  502 -0.58080199294E+02  0.77699548275E+01 -0.16407773391E+02  0.60994829090E+02  0.41800000000E+01 0.  1.
        -11    1    3    3    0    0  0.48159186909E+02 -0.11942534002E+01 -0.61196111310E+02  0.77882588327E+02  0.00000000000E+00 0. -1.
         11    1    3    3    0    0 -0.38070370641E+02  0.25951908439E+02 -0.71112796865E+02  0.84734199414E+02  0.00000000000E+00 0.  1.
</event>
<event>
 8    1  0.9181008E-006  0.1485958E+03  0.7561462E-02  0.1202209E+00
         -2   -1    0    0    0  501 -0.00000000000E+00  0.00000000000E+00  0.81678456227E+02  0.81678456227E+02  0.00000000000E+00 0. -1.
          2   -1    0    0  501    0  0.00000000000E+00 -0.00000000000E+00 -0.46924486898E+03  0.46924486898E+03  0.00000000000E+00 0.  1.
         23    2    1    2    0    0  0.45924118320E+02  0.12331017927E+03 -0.46497733104E+02  0.16453847229E+03  0.87157585587E+02 0.  0.
         23    2    1    2    0    0 -0.45924118320E+02 -0.12331017927E+03 -0.34106867965E+03  0.38638485292E+03  0.12510389829E+03 0.  0.
          5    1    4    4  502    0  0.15083739994E+02 -0.46168249207E+01 -0.16301619798E+03  0.16383097231E+03  0.41800000000E+01 0. -1.
         -5    1    4    4    0  502 -0.61007858315E+02 -0.11869335435E+03 -0.17805248167E+03  0.22255388061E+03  0.41800000000E+01 0. -1.
        -11    1    3    3    0    0 -0.93134813316E+01  0.69895662747E+02 -0.51832111675E+02  0.87514069760E+02  0.00000000000E+00 0.  1.
         11    1    3    3    0    0  0.55237599652E+02  0.53414516523E+02  0.53343785710E+01  0.77024402532E+02  0.00000000000E+00 0. -1.
</event>
<event>
 8    1  0.9181008E-006  0.1441534E+03  0.7561462E-02  0.1207847E+00
         -3   -1    0    0    0  501 -0.00000000000E+00  0.00000000000E+00  0.19490689423E+03  0.19490689423E+03  0.00000000000E+00 0.  1.
          3   -1    0    0  501    0  0.00000000000E+00 -0.00000000000E+00 -0.18621995050E+03  0.18621995050E+03  0.00000000000E+00 0. -1.
         23    2    1    2    0    0  0.10723231871E+03 -0.53874800486E+02  0.10339016753E+03  0.18359458003E+03  0.92823374056E+02 0.  0.
         23    2    1    2    0    0 -0.10723231871E+03  0.53874800486E+02 -0.94703223801E+02  0.19753226469E+03  0.12509608583E+03 0.  0.
          5    1    4    4  502    0  0.22550099066E+02 -0.39093553570E+01 -0.37908001604E+02  0.44477848563E+02  0.41800000000E+01 0. -1.
         -5    1    4    4    0  502 -0.12978241778E+03  0.57784155843E+02 -0.56795222197E+02  0.15305441613E+03  0.41800000000E+01 0. -1.
        -11    1    3    3    0    0  0.30256792664E+02 -0.24786948752E+01 -0.14556181330E+02  0.33667489444E+02  0.00000000000E+00 0. -1.
         11    1    3    3    0    0  0.76975526050E+02 -0.51396105611E+02  0.11794634886E+03  0.14992709059E+03  0.00000000000E+00 0.  1.
</event>
<event>
 8    1  0.9181008E-006  0.1183476E+03  0.7561462E-02  0.1245848E+00
         -1   -1    0    0    0  501 -0.00000000000E+00  0.00000000000E+00  0.91705957847E+02  0.91705957847E+02  0.00000000000E+00 0.  1.
          1   -1    0    0  501    0  0.00000000000E+00 -0.00000000000E+00 -0.54782653037E+03  0.54782653037E+03  0.00000000000E+00 0. -1.
         23    2    1    2    0    0 -0.62489683469E+02 -0.27524464748E+02  0.41429488152E+02  0.12141204093E+03  0.91443559061E+02 0.  0.
         23    2    1    2    0    0  0.62489683469E+02  0.27524464748E+02 -0.49755006067E+03  0.51812044729E+03  0.12739771711E+03 0.  0.
          5    1    4    4  502    0  0.51745325817E+02 -0.33640098397E+02 -0.11539755136E+03  0.13093243381E+03  0.41800000000E+01 0. -1.
         -5    1    4    4    0  502  0.10744357652E+02  0.61164563145E+02 -0.38215250931E+03  0.38718801347E+03  0.41800000000E+01 0.  1.
        -11    1    3    3    0    0 -0.71935227074E+02  0.11139052556E+02  0.17133432659E+02  0.74781748447E+02  0.00000000000E+00 0.  1.
         11    1    3    3    0    0  0.94455436050E+01 -0.38663517303E+02  0.24296055492E+02  0.46630292480E+02  0.00000000000E+00 0. -1.
</event>
<event>
 8    1  0.9181008E-006  0.1235247E+03  0.7561462E-02  0.1237393E+00
         -4   -1    0    0    0  501 -0.00000000000E+00  0.00000000000E+00  0.75857810313E+03  0.75857810313E+03  0.00000000000E+00 0.  1.
          4   -1    0    0  501    0  0.00000000000E+00 -0.00000000000E+00 -0.41178107232E+02  0.41178107232E+02  0.00000000000E+00 0. -1.
         23    2    1    2    0    0 -0.41472887863E+02  0.83050352630E+02  0.57231512551E+03  0.58688035838E+03  0.90920793345E+02 0.  0.
         23    2    1    2    0    0  0.41472887863E+02 -0.83050352630E+02  0.14508487038E+03  0.21287585198E+03  0.12509655168E+03 0.  0.
          5    1    4    4  502    0 -0.12974113508E+02 -0.53587933023E+02  0.14011261041E+03  0.15062871633E+03  0.41800000000E+01 0.  1.
         -5    1    4    4    0  502  0.54447001371E+02 -0.29462419607E+02  0.49722599728E+01  0.62247135650E+02  0.41800000000E+01 0.  1.
        -11    1    3    3    0    0 -0.29479636581E+02 -0.13493364282E+02  0.15873326244E+03  0.16201039614E+03  0.00000000000E+00 0.  1.
         11    1    3    3    0    0 -0.11993251281E+02  0.96543716912E+02  0.41358186307E+03  0.42486996224E+03  0.00000000000E+00 0. -1.
</event>
<event>
 8    1  0.9181008E-006  0.1280889E+03  0.7561462E-02  0.1230319E+00
         -4   -1    0    0    0  501 -0.00000000000E+00  0.00000000000E+00  0.35254050157E+03  0.35254050157E+03  0.00000000000E+00 0.  1.
          4   -1    0    0  501    0  0.00000000000E+00 -0.00000000000E+00 -0.67271728524E+02  0.67271728524E+02  0.00000000000E+00 0. -1.
         23    2    1    2    0    0  0.83338260533E+02 -0.35976820409E+02  0.21294448087E+03  0.24917354559E+03  0.92209037579E+02 0.  0.
         23    2    1    2    0    0 -0.83338260533E+02  0.35976820409E+02  0.72324292174E+02  0.17063868451E+03  0.12508860914E+03 0.  0.
          5    1    4    4  502    0 -0.53920242913E+02 -0.30567456691E+02  0.75401914961E+02  0.97696894444E+02  0.41800000000E+01 0.  1.
         -5    1    4    4    0  502 -0.29418017620E+02  0.66544277101E+02 -0.30776227861E+01  0.72941790063E+02  0.41800000000E+01 0.  1.
        -11    1    3    3    0    0  0.67885112282E+02 -0.61330305722E+02  0.11571722078E+03  0.14751362667E+03  0.00000000000E+00 0. -1.
         11    1    3    3    0    0  0.15453148251E+02  0.25353485313E+02  0.97227260094E+02  0.10165991892E+03  0.00000000000E+00 0.  1.
</event>
<event>
 8    1  0.9181008E-006  0.1048327E+03  0.7561462E-02  0.1270450E+00
         -4   -1    0    0    0  501 -0.00000000000E+00  0.00000000000E+00  0.33282494060E+02  0.33282494060E+02  0.00000000000E+00 0.  1.
          4   -1    0    0  501    0  0.00000000000E+00 -0.00000000000E+00 -0.41893248577E+03  0.41893248577E+03  0.00000000000E+00 0. -1.
         23    2    1    2    0    0  0.63924408952E+00  0.38762317357E+02 -0.11559157076E+03  0.15208182498E+03  0.90909539527E+02 0.  0.
         23    2    1    2    0    0 -0.63924408952E+00 -0.38762317357E+02 -0.27005842095E+03  0.30013315486E+03  0.12508170944E+03 0.  0.
          5    1    4    4  502    0  0.14261007700E+02  0.43655942283E+02 -0.11392357836E+03  0.12290350582E+03  0.41800000000E+01 0.  1.
         -5    1    4    4    0  502 -0.14900251790E+02 -0.82418259640E+02 -0.15613484260E+03  0.17722964904E+03  0.41800000000E+01 0.  1.
        -11    1    3    3    0    0 -0.45498486840E+01 -0.20095753655E+02  0.17755687865E+01  0.20680741827E+02  0.00000000000E+00 0.  1.
         11    1    3    3    0    0  0.51890927736E+01  0.58858071012E+02 -0.11736713955E+03  0.13140108315E+03  0.00000000000E+00 0. -1.
</event>
<event>
 8    1  0.9181008E-006  0.8427227E+02  0.7561462E-02  0.1317347E+00
         -2   -1    0    0    0  501 -0.00000000000E+00  0.00000000000E+00  0.16130891154E+03  0.16130891154E+03  0.00000000000E+00 0.  1.
          2   -1    0    0  501    0  0.00000000000E+00 -0.00000000000E+00 -0.11236171198E+03  0.11236171198E+03  0.00000000000E+00 0. -1.
         23    2    1    2    0    0  0.53980450785E+02 -0.34841056627E+00  0.81069737498E+02  0.13369535752E+03  0.91586766655E+02 0.  0.
         23    2    1    2    0    0 -0.53980450785E+02  0.34841056627E+00 -0.32122537943E+02  0.13997526601E+03  0.12508879723E+03 0.  0.
          5    1    4    4  502    0 -0.89717659147E+01 -0.22285602833E+02  0.42996649873E+02  0.49430000784E+02  0.41800000000E+01 0.  1.
         -5    1    4    4    0  502 -0.45008684870E+02  0.22634013400E+02 -0.75119187816E+02  0.90545265223E+02  0.41800000000E+01 0.  1.
        -11    1    3    3    0    0  0.20523731859E+02 -0.38031065322E+02  0.69742196935E+02  0.82046081760E+02  0.00000000000E+00 0.  1.
         11    1    3    3    0    0  0.33456718926E+02  0.37682654756E+02  0.11327540563E+02  0.51649275755E+02  0.00000000000E+00 0. -1.
</event>
<event>
 8    1  0.9181008E-006  0.1071678E+03  0.7561462E-02  0.1265906E+00
          1   -1    0    0  501    0  0.00000000000E+00  0.00000000000E+00  0.57778194904E+03  0.57778194904E+03  0.00000000000E+00 0. -1.
         -1   -1    0    0    0  501 -0.00000000000E+00 -0.00000000000E+00 -0.28453464373E+02  0.28453464373E+02  0.00000000000E+00 0.  1.
         23    2    1    2    0    0 -0.60241582185E+02 -0.22054589071E+01  0.16331296797E+03  0.19600401699E+03  0.90069622485E+02 0.  0.
         23    2    1    2    0    0  0.60241582185E+02  0.22054589071E+01  0.38601551669E+03  0.41023139642E+03  0.12509159528E+03 0.  0.
          5    1    4    4  502    0  0.82620104747E+02 -0.30715504424E+02  0.18124350350E+03  0.20158423520E+03  0.41800000000E+01 0.  1.
         -5    1    4    4    0  502 -0.22378522562E+02  0.32920963331E+02  0.20477201319E+03  0.20864716122E+03  0.41800000000E+01 0.  1.
        -11    1    3    3    0    0 -0.18231156255E+02 -0.30416777457E+02  0.13157672821E+03  0.13627175355E+03  0.00000000000E+00 0.  1.
         11    1    3    3    0    0 -0.42010425930E+02  0.28211318549E+02  0.31736239761E+02  0.59732263437E+02  0.00000000000E+00 0. -1.
</event>
<event>
 8    1  0.9181008E-006  0.1247403E+03  0.7561462E-02  0.1235476E+00
         -2   -1    0    0    0  501 -0.00000000000E+00  0.00000000000E+00  0.12240542206E+03  0.12240542206E+03  0.00000000000E+00 0.  1.
          2   -1    0    0  501    0  0.00000000000E+00 -0.00000000000E+00 -0.15147659036E+03  0.15147659036E+03  0.00000000000E+00 0. -1.
         23    2    1    2    0    0 -0.58664210256E+02 -0.53708046511E+02  0.75105640409E+01  0.12120140520E+03  0.91144545783E+02 0.  0.
         23    2    1    2    0    0  0.58664210256E+02  0.53708046511E+02 -0.36581732336E+02  0.15268060721E+03  0.12508837218E+03 0.  0.
          5    1    4    4  502    0  0.18632412075E+02  0.91208594484E+02 -0.24612902455E+02  0.96381750631E+02  0.41800000000E+01 0.  1.
         -5    1    4    4    0  502  0.40031798181E+02 -0.37500547973E+02 -0.11968829882E+02  0.56298856583E+02  0.41800000000E+01 0.  1.
        -11    1    3    3    0    0 -0.15051768573E+02  0.14123412983E+02 -0.26577135582E+02  0.33650715701E+02  0.00000000000E+00 0. -1.
         11    1    3    3    0    0 -0.43612441683E+02 -0.67831459495E+02  0.34087699623E+02  0.87550689502E+02  0.00000000000E+00 0.  1.
</event>
<event>
 8    1  0.9181008E-006  0.1939238E+03  0.7561462E-02  0.1154969E+00
          2   -1    0    0  501    0  0.00000000000E+00  0.00000000000E+00  0.29382347579E+03  0.29382347579E+03  0.00000000000E+00 0. -1.
         -2   -1    0    0    0  501 -0.00000000000E+00 -0.00000000000E+00 -0.34317646020E+03  0.34317646020E+03  0.00000000000E+00 0.  1.
         23    2    1    2    0    0  0.57816650119E+02 -0.17470161711E+03 -0.25943761585E+03  0.33098261028E+03  0.91532462733E+02 0.  0.
         23    2    1    2    0    0 -0.57816650119E+02  0.17470161711E+03  0.21008463144E+03  0.30601732571E+03  0.12509049211E+03 0.  0.
          5    1    4    4  502    0 -0.44053302368E+01 -0.73555191459E+01 -0.11061292135E+02  0.14605998087E+02  0.41800000000E+01 0. -1.
         -5    1    4    4    0  502 -0.53411319882E+02  0.18205713626E+03  0.22114592357E+03  0.29141132762E+03  0.41800000000E+01 0. -1.
        -11    1    3    3    0    0  0.37847863719E+02 -0.15809137993E+03 -0.25803441705E+03  0.30497066347E+03  0.00000000000E+00 0.  1.
         11    1    3    3    0    0  0.19968786400E+02 -0.16610237183E+02 -0.14031987986E+01  0.26011946802E+02  0.00000000000E+00 0. -1.
</event>
<event>
 8    1  0.9181008E-006  0.2192952E+03  0.7561462E-02  0.1134410E+00
         -2   -1    0    0    0  501 -0.00000000000E+00  0.00000000000E+00  0.37938844503E+02  0.37938844503E+02  0.00000000000E+00 0. -1.
          2   -1    0    0  501    0  0.00000000000E+00 -0.00000000000E+00 -0.15883294486E+04  0.15883294486E+04  0.00000000000E+00 0.  1.
         23    2    1    2    0    0 -0.14989756718E+03  0.15164996302E+03 -0.56065933993E+03  0.60612921408E+03  0.87101875863E+02 0.  0.
         23    2    1    2    0    0  0.14989756718E+03 -0.15164996302E+03 -0.98973126413E+03  0.10201390790E+04  0.12509505727E+03 0.  0.
          5    1    4    4  502    0  0.95485126804E+02 -0.10405696717E+03 -0.86033946313E+03  0.87186393783E+03  0.41800000000E+01 0.  1.
         -5    1    4    4    0  502  0.54412440372E+02 -0.47592995855E+02 -0.12939180100E+03  0.14827514116E+03  0.41800000000E+01 0.  1.
        -11    1    3    3    0    0 -0.11255101338E+03  0.14996933821E+03 -0.40904282957E+03  0.44997174294E+03  0.00000000000E+00 0.  1.
         11    1    3    3    0    0 -0.37346553791E+02  0.16806248061E+01 -0.15161651035E+03  0.15615747114E+03  0.00000000000E+00 0. -1.
</event>
<event>
 8    1  0.9181008E-006  0.1100281E+03  0.7561462E-02  0.1260518E+00
         -2   -1    0    0    0  501 -0.00000000000E+00  0.00000000000E+00  0.38414983688E+02  0.38414983688E+02  0.00000000000E+00 0.  1.
          2   -1    0    0  501    0  0.00000000000E+00 -0.00000000000E+00 -0.80685409314E+03  0.80685409314E+03  0.00000000000E+00 0. -1.
         23    2    1    2    0    0  0.70938717345E+02  0.20597993438E+02 -0.80496248233E+02  0.14302650295E+03  0.92305772382E+02 0.  0.
         23    2    1    2    0    0 -0.70938717345E+02 -0.20597993438E+02 -0.68794286122E+03  0.70224257388E+03  0.12009443495E+03 0.  0.
          5    1    4    4  502    0 -0.80747216237E+02 -0.25269406790E+01 -0.66931182369E+03  0.67418268155E+03  0.41800000000E+01 0. -1.
         -5    1    4    4    0  502  0.98084988919E+01 -0.18071052759E+02 -0.18631037530E+02  0.28059892333E+02  0.41800000000E+01 0.  1.
        -11    1    3    3    0    0  0.38921873904E+02  0.57430273892E+02 -0.49184216760E+02  0.85042552912E+02  0.00000000000E+00 0.  1.
         11    1    3    3    0    0  0.32016843441E+02 -0.36832280454E+02 -0.31312031473E+02  0.57983950041E+02  0.00000000000E+00 0. -1.
</event>
<event>
 8    1  0.9181008E-006  0.1143654E+03  0.7561462E-02  0.1252693E+00
         -2   -1    0    0    0  501 -0.00000000000E+00  0.00000000000E+00  0.15712386002E+03  0.15712386002E+03  0.00000000000E+00 0.  1.
          2   -1    0    0  501    0  0.00000000000E+00 -0.00000000000E+00 -0.14008599373E+03  0.14008599373E+03  0.00000000000E+00 0. -1.
         23    2    1    2    0    0 -0.73486052300E+01  0.66803782170E+02  0.84734948551E+02  0.13989672389E+03  0.88737447214E+02 0.  0.
         23    2    1    2    0    0  0.73486052300E+01 -0.66803782170E+02 -0.67697082262E+02  0.15731312986E+03  0.12509108109E+03 0.  0.
          5    1    4    4  502    0  0.51287219675E+02 -0.20247438628E+02 -0.74523242133E+02  0.92798295733E+02  0.41800000000E+01 0.  1.
         -5    1    4    4    0  502 -0.43938614445E+02 -0.46556343542E+02  0.68261598705E+01  0.64514834122E+02  0.41800000000E+01 0.  1.
        -11    1    3    3    0    0  0.33167304366E+02  0.24795389161E+01  0.38681192784E+02  0.51014241809E+02  0.00000000000E+00 0. -1.
         11    1    3    3    0    0 -0.40515909596E+02  0.64324243254E+02  0.46053755768E+02  0.88882482081E+02  0.00000000000E+00 0.  1.
</event>
<event>
 8    1  0.9181008E-006  0.8673762E+02  0.7561462E-02  0.1310950E+00
          2   -1    0    0  501    0  0.00000000000E+00  0.00000000000E+00  0.21835710172E+03  0.21835710172E+03  0.00000000000E+00 0. -1.
         -2   -1    0    0    0  501 -0.00000000000E+00 -0.00000000000E+00 -0.82095918002E+02  0.82095918002E+02  0.00000000000E+00 0.  1.
         23    2    1    2    0    0 -0.38832953716E+02 -0.22995673091E+02 -0.14366744650E+02  0.99522462755E+02  0.87530097484E+02 0.  0.
         23    2    1    2    0    0  0.38832953716E+02  0.22995673091E+02  0.15062792837E+03  0.20093055697E+03  0.12509003415E+03 0.  0.
          5    1    4    4  502    0 -0.10067039003E+02  0.48028604958E+02  0.10494165596E+02  0.50355655890E+02  0.41800000000E+01 0. -1.
         -5    1    4    4    0  502  0.48899992720E+02 -0.25032931867E+02  0.14013376277E+03  0.15057490108E+03  0.41800000000E+01 0. -1.
        -11    1    3    3    0    0 -0.96836170951E+01 -0.35951298001E+02 -0.42844059673E+02  0.56761621870E+02  0.00000000000E+00 0.  1.
         11    1    3    3    0    0 -0.29149336621E+02  0.12955624909E+02  0.28477315023E+02  0.42760840885E+02  0.00000000000E+00 0. -1.
</event>
<event>
 8    1  0.9181008E-006  0.1132051E+03  0.7561462E-02  0.1254747E+00
          2   -1    0    0  501    0  0.00000000000E+00  0.00000000000E+00  0.42399658324E+03  0.42399658324E+03  0.00000000000E+00 0.  1.
         -2   -1    0    0    0  501 -0.00000000000E+00 -0.00000000000E+00 -0.44431370011E+02  0.44431370011E+02  0.00000000000E+00 0. -1.
         23    2    1    2    0    0  0.66796974832E+02 -0.42728228156E+02  0.15464358338E+03  0.19912286924E+03  0.97199495101E+02 0.  0.
         23    2    1    2    0    0 -0.66796974832E+02  0.42728228156E+02  0.22492162985E+03  0.26930508401E+03  0.12509177179E+03 0.  0.
          5    1    4    4  502    0  0.27404603680E+02  0.41130338697E+02  0.10982354857E+03  0.12050477702E+03  0.41800000000E+01 0. -1.
         -5    1    4    4    0  502 -0.94201578512E+02  0.15978894589E+01  0.11509808128E+03  0.14880030699E+03  0.41800000000E+01 0. -1.
        -11    1    3    3    0    0  0.21988163919E+02 -0.22246881395E+01  0.13321025222E+03  0.13503110711E+03  0.00000000000E+00 0.  1.
         11    1    3    3    0    0  0.44808810913E+02 -0.40503540017E+02  0.21433331157E+02  0.64091762137E+02  0.00000000000E+00 0. -1.
</event>
<event>
 8    1  0.9181008E-006  0.2359187E+03  0.7561462E-02  0.1122542E+00
          1   -1    0    0  501    0  0.00000000000E+00  0.00000000000E+00  0.15868174355E+04  0.15868174355E+04  0.00000000000E+00 0. -1.
         -1   -1    0    0    0  501 -0.00000000000E+00 -0.00000000000E+00 -0.39188221527E+02  0.39188221527E+02  0.00000000000E+00 0.  1.
         23    2    1    2    0    0  0.74001173682E+02 -0.20350161441E+03  0.95108125784E+03  0.97916236444E+03  0.85523658497E+02 0.  0.
         23    2    1    2    0    0 -0.74001173682E+02  0.20350161441E+03  0.59654795610E+03  0.64684329255E+03  0.12509076869E+03 0.  0.
          5    1    4    4  502    0  0.32904570494E+02  0.31482088502E+02  0.14240987788E+03  0.14957231821E+03  0.41800000000E+01 0.  1.
         -5    1    4    4    0  502 -0.10690574418E+03  0.17201952591E+03  0.45413807822E+03  0.49727097434E+03  0.41800000000E+01 0.  1.
        -11    1    3    3    0    0  0.72577134346E+02 -0.12156881519E+03  0.72482081495E+03  0.73851989211E+03  0.00000000000E+00 0. -1.
         11    1    3    3    0    0  0.14240393364E+01 -0.81932799223E+02  0.22626044289E+03  0.24064247234E+03  0.00000000000E+00 0.  1.
</event>
<event>
 8    1  0.9181008E-006  0.1140774E+03  0.7561462E-02  0.1253200E+00
         -3   -1    0    0    0  501 -0.00000000000E+00  0.00000000000E+00  0.23064837403E+03  0.23064837403E+03  0.00000000000E+00 0.  1.
          3   -1    0    0  501    0  0.00000000000E+00 -0.00000000000E+00 -0.10498795108E+03  0.10498795108E+03  0.00000000000E+00 0. -1.
         23    2    1    2    0    0  0.48778662847E+02 -0.10546113335E+02  0.16581811457E+03  0.19514030586E+03  0.89963956098E+02 0.  0.
         23    2    1    2    0    0 -0.48778662847E+02  0.10546113335E+02 -0.40157691615E+02  0.14049601924E+03  0.12504364347E+03 0.  0.
          5    1    4    4  502    0 -0.82148543630E+02  0.30548004491E+02 -0.48831584118E+02  0.10041692988E+03  0.41800000000E+01 0.  1.
         -5    1    4    4    0  502  0.33369880782E+02 -0.20001891156E+02  0.86738925025E+01  0.40079089366E+02  0.41800000000E+01 0.  1.
        -11    1    3    3    0    0 -0.22235680773E+02  0.13846518990E+02  0.29048594553E+02  0.39114862049E+02  0.00000000000E+00 0.  1.
         11    1    3    3    0    0  0.71014343620E+02 -0.24392632325E+02  0.13676952001E+03  0.15602544381E+03  0.00000000000E+00 0. -1.
</event>
<event>
 8    1  0.9181008E-006  0.1765741E+03  0.7561462E-02  0.1171160E+00
          2   -1    0    0  501    0  0.00000000000E+00  0.00000000000E+00  0.75540294413E+03  0.75540294413E+03  0.00000000000E+00 0.  1.
         -2   -1    0    0    0  501 -0.00000000000E+00 -0.00000000000E+00 -0.43037973865E+02  0.43037973865E+02  0.00000000000E+00 0. -1.
         23    2    1    2    0    0 -0.23156998514E+02 -0.14015018674E+03  0.27773614291E+03  0.32438588643E+03  0.88941086192E+02 0.  0.
         23    2    1    2    0    0  0.23156998514E+02  0.14015018674E+03  0.43462882736E+03  0.47405503157E+03  0.12509050309E+03 0.  0.
          5    1    4    4  502    0 -0.17666540830E+02 -0.16536131837E+02  0.34152923254E+02  0.42064770151E+02  0.41800000000E+01 0. -1.
         -5    1    4    4    0  502  0.40823539344E+02  0.15668631857E+03  0.40047590410E+03  0.43199026142E+03  0.41800000000E+01 0. -1.
        -11    1    3    3    0    0 -0.56446109251E+02 -0.95370488424E+02  0.20071090790E+03  0.22927398863E+03  0.00000000000E+00 0.  1.
         11    1    3    3    0    0  0.33289110737E+02 -0.44779698312E+02  0.77025235008E+02  0.95111897797E+02  0.00000000000E+00 0. -1.
</event>
<event>
 8    1  0.9181008E-006  0.2184063E+03  0.7561462E-02  0.1135077E+00
         -1   -1    0    0    0  501 -0.00000000000E+00  0.00000000000E+00  0.35377105839E+02  0.35377105839E+02  0.00000000000E+00 0.  1.
          1   -1    0    0  501    0  0.00000000000E+00 -0.00000000000E+00 -0.13883611885E+04  0.13883611885E+04  0.00000000000E+00 0. -1.
         23    2    1    2    0    0 -0.99144666277E+02 -0.16167225222E+03 -0.53401599572E+03  0.57384206520E+03  0.90299779217E+02 0.  0.
         23    2    1    2    0    0  0.99144666277E+02  0.16167225222E+03 -0.81896808691E+03  0.84989622910E+03  0.12508913172E+03 0.  0.
          5    1    4    4  502    0  0.39542454193E+02  0.16256724447E+03 -0.59379440464E+03  0.61692866852E+03  0.41800000000E+01 0. -1.
         -5    1    4    4    0  502  0.59602212084E+02 -0.89499225273E+00 -0.22517368227E+03  0.23296756058E+03  0.41800000000E+01 0. -1.
        -11    1    3    3    0    0 -0.67861662796E+02 -0.29713419135E+02 -0.20483126837E+03  0.21781630117E+03  0.00000000000E+00 0.  1.
         11    1    3    3    0    0 -0.31283003481E+02 -0.13195883309E+03 -0.32918472735E+03  0.35602576404E+03  0.00000000000E+00 0. -1.
</event>
<event>
 8    1  0.9181008E-006  0.9367592E+02  0.7561462E-02  0.1294186E+00
          2   -1    0    0  501    0  0.00000000000E+00  0.00000000000E+00  0.53788753381E+03  0.53788753381E+03  0.00000000000E+00 0.  1.
         -2   -1    0    0    0  501 -0.00000000000E+00 -0.00000000000E+00 -0.24416275215E+02  0.24416275215E+02  0.00000000000E+00 0. -1.
         23    2    1    2    0    0 -0.40578741321E+02 -0.88556809035E+01  0.16790963119E+03  0.19245850746E+03  0.84389427765E+02 0.  0.
         23    2    1    2    0    0  0.40578741321E+02  0.88556809035E+01  0.34556162741E+03  0.36984530156E+03  0.12509057286E+03 0.  0.
          5    1    4    4  502    0  0.61223493061E+02  0.32183007348E+02  0.96461485579E+02  0.11877016740E+03  0.41800000000E+01 0. -1.
         -5    1    4    4    0  502 -0.20644751741E+02 -0.23327326444E+02  0.24910014183E+03  0.25107513416E+03  0.41800000000E+01 0. -1.
        -11    1    3    3    0    0 -0.60421059937E+02  0.75390770200E+01  0.78087258131E+02  0.99021018217E+02  0.00000000000E+00 0.  1.
         11    1    3    3    0    0  0.19842318617E+02 -0.16394757924E+02  0.89822373056E+02  0.93437489248E+02  0.00000000000E+00 0. -1.
</event>
<event>
 8    1  0.9181008E-006  0.8588516E+02  0.7561462E-02  0.1313134E+00
          1   -1    0    0  501    0  0.00000000000E+00  0.00000000000E+00  0.34582132146E+02  0.34582132146E+02  0.00000000000E+00 0. -1.
         -1   -1    0    0    0  501 -0.00000000000E+00 -0.00000000000E+00 -0.41195958455E+03  0.41195958455E+03  0.00000000000E+00 0.  1.
         23    2    1    2    0    0 -0.29789885433E+02  0.29484847016E+02 -0.14699744979E+03  0.18106325054E+03  0.97050795849E+02 0.  0.
         23    2    1    2    0    0  0.29789885433E+02 -0.29484847016E+02 -0.23038000262E+03  0.26547846616E+03  0.12508827647E+03 0.  0.
          5    1    4    4  502    0  0.33322183423E+02 -0.41183404545E+02 -0.24220582003E+03  0.24796687758E+03  0.41800000000E+01 0.  1.
         -5    1    4    4    0  502 -0.35322979896E+01  0.11698557529E+02  0.11825817409E+02  0.17511588584E+02  0.41800000000E+01 0.  1.
        -11    1    3    3    0    0  0.45443821258E+01  0.59763684513E+02 -0.83609233724E+02  0.10287299626E+03  0.00000000000E+00 0.  1.
         11    1    3    3    0    0 -0.34334267559E+02 -0.30278837497E+02 -0.63388216062E+02  0.78190254281E+02  0.00000000000E+00 0. -1.
</event>
<event>
 8    1  0.9181008E-006  0.1118156E+03  0.7561462E-02  0.1257244E+00
          2   -1    0    0  501    0  0.00000000000E+00  0.00000000000E+00  0.61076362170E+03  0.61076362170E+03  0.00000000000E+00 0. -1.
         -2   -1    0    0    0  501 -0.00000000000E+00 -0.00000000000E+00 -0.35629357027E+02  0.35629357027E+02  0.00000000000E+00 0.  1.
         23    2    1    2    0    0 -0.10824605665E+02  0.89088203037E+02  0.16959883192E+03  0.21261862102E+03  0.91591671064E+02 0.  0.
         23    2    1    2    0    0  0.10824605665E+02 -0.89088203037E+02  0.40553543276E+03  0.43377435771E+03  0.12508927283E+03 0.  0.
          5    1    4    4  502    0  0.23316303038E+02 -0.54259314167E+02  0.53565568071E+02  0.79840250776E+02  0.41800000000E+01 0.  1.
         -5    1    4    4    0  502 -0.12491697373E+02 -0.34828888870E+02  0.35196986469E+03  0.35393410693E+03  0.41800000000E+01 0.  1.
        -11    1    3    3    0    0 -0.96750586011E+01 -0.17819125605E+02  0.18008078202E+02  0.27118607575E+02  0.00000000000E+00 0.  1.
         11    1    3    3    0    0 -0.11495470639E+01  0.10690732864E+03  0.15159075372E+03  0.18550001345E+03  0.00000000000E+00 0. -1.
</event>
<event>
 8    1  0.9181008E-006  0.9575124E+02  0.7561462E-02  0.1289493E+00
          2   -1    0    0  501    0  0.00000000000E+00  0.00000000000E+00  0.14435006300E+04  0.14435006300E+04  0.00000000000E+00 0. -1.
         -2   -1    0    0    0  501 -0.00000000000E+00 -0.00000000000E+00 -0.23242217540E+02  0.23242217540E+02  0.00000000000E+00 0.  1.
         23    2    1    2    0    0  0.83637051032E+02 -0.40569572868E+02  0.21806949421E+03  0.25449416189E+03  0.92584704898E+02 0.  0.
         23    2    1    2    0    0 -0.83637051032E+02  0.40569572868E+02  0.12021889183E+04  0.12122486857E+04  0.12509050387E+03 0.  0.
          5    1    4    4  502    0 -0.58183089007E+02  0.27282700781E+02  0.21038252214E+03  0.22001794389E+03  0.41800000000E+01 0.  1.
         -5    1    4    4    0  502 -0.25453962026E+02  0.13286872088E+02  0.99180639611E+03  0.99223074178E+03  0.41800000000E+01 0.  1.
        -11    1    3    3    0    0  0.24630007816E+02 -0.28842074404E+02  0.17850353294E+03  0.18248839364E+03  0.00000000000E+00 0. -1.
         11    1    3    3    0    0  0.59007043217E+02 -0.11727498464E+02  0.39565961266E+02  0.72005768243E+02  0.00000000000E+00 0.  1.
</event>
<event>
 8    1  0.9181008E-006  0.1066345E+03  0.7561462E-02  0.1266932E+00
          1   -1    0    0  501    0  0.00000000000E+00  0.00000000000E+00  0.22126015530E+03  0.22126015530E+03  0.00000000000E+00 0. -1.
         -1   -1    0    0    0  501 -0.00000000000E+00 -0.00000000000E+00 -0.63159185514E+02  0.63159185514E+02  0.00000000000E+00 0.  1.
         23    2    1    2    0    0  0.21676387216E+02  0.10055901860E+02  0.20812458894E+02  0.97156751295E+02  0.91843829145E+02 0.  0.
         23    2    1    2    0    0 -0.21676387216E+02 -0.10055901860E+02  0.13728851089E+03  0.18726258952E+03  0.12509258685E+03 0.  0.
          5    1    4    4  502    0  0.41452809909E+01 -0.65593336209E+02  0.67194132075E+02  0.94086092994E+02  0.41800000000E+01 0.  1.
         -5    1    4    4    0  502 -0.25821668207E+02  0.55537434349E+02  0.70094378816E+02  0.93176496525E+02  0.41800000000E+01 0.  1.
        -11    1    3    3    0    0  0.40437462086E+02  0.35908797689E+02 -0.73434808614E+01  0.54576155989E+02  0.00000000000E+00 0. -1.
         11    1    3    3    0    0 -0.18761074870E+02 -0.25852895829E+02  0.28155939756E+02  0.42580595305E+02  0.00000000000E+00 0.  1.
</event>
<event>
 8    1  0.9181008E-006  0.2367683E+03  0.7561462E-02  0.1121965E+00
          1   -1    0    0  501    0  0.00000000000E+00  0.00000000000E+00  0.61365833672E+03  0.61365833672E+03  0.00000000000E+00 0. -1.
         -1   -1    0    0    0  501 -0.00000000000E+00 -0.00000000000E+00 -0.10349149246E+03  0.10349149246E+03  0.00000000000E+00 0.  1.
         23    2    1    2    0    0  0.17417278653E+03 -0.14632306250E+03  0.24754797369E+03  0.34787532751E+03  0.89390413499E+02 0.  0.
         23    2    1    2    0    0 -0.17417278653E+03  0.14632306250E+03  0.26261887057E+03  0.36927450167E+03  0.12509351789E+03 0.  0.
          5    1    4    4  502    0 -0.72658049497E+02  0.15871698045E+02  0.15505050415E+03  0.17201521500E+03  0.41800000000E+01 0. -1.
         -5    1    4    4    0  502 -0.10151473703E+03  0.13045136446E+03  0.10756836642E+03  0.19725928667E+03  0.41800000000E+01 0. -1.
        -11    1    3    3    0    0  0.56957402088E+02 -0.82449107807E+02  0.15811771042E+03  0.18719832098E+03  0.00000000000E+00 0. -1.
         11    1    3    3    0    0  0.11721538444E+03 -0.63873954694E+02  0.89430263274E+02  0.16067700653E+03  0.00000000000E+00 0.  1.
</event>
<event>
 8    1  0.9181008E-006  0.1642188E+03  0.7561462E-02  0.1184014E+00
         -2   -1    0    0    0  501 -0.00000000000E+00  0.00000000000E+00  0.12262826421E+03  0.12262826421E+03  0.00000000000E+00 0.  1.
          2   -1    0    0  501    0  0.00000000000E+00 -0.00000000000E+00 -0.49011267917E+03  0.49011267917E+03  0.00000000000E+00 0. -1.
         23    2    1    2    0    0 -0.53465918474E+02  0.12613486496E+03  0.36419563857E+02  0.16826926738E+03  0.90661751118E+02 0.  0.
         23    2    1    2    0    0  0.53465918474E+02 -0.12613486496E+03 -0.40390397881E+03  0.44447167599E+03  0.12509211832E+03 0.  0.
          5    1    4    4  502    0 -0.26756299187E+02 -0.95768208625E+02 -0.20900277371E+03  0.23148883591E+03  0.41800000000E+01 0.  1.
         -5    1    4    4    0  502  0.80222217661E+02 -0.30366656339E+02 -0.19490120510E+03  0.21298284009E+03  0.41800000000E+01 0.  1.
        -11    1    3    3    0    0 -0.46531087470E+02  0.57125311702E+02  0.59994867307E+02  0.95014880105E+02  0.00000000000E+00 0.  1.
         11    1    3    3    0    0 -0.69348310044E+01  0.69009553263E+02 -0.23575303450E+02  0.73254387277E+02  0.00000000000E+00 0. -1.
</event>
<event>
 8    1  0.9181008E-006  0.1136622E+03  0.7561462E-02  0.1253935E+00
         -2   -1    0    0    0  501 -0.00000000000E+00  0.00000000000E+00  0.53179154005E+02  0.53179154005E+02  0.00000000000E+00 0.  1.
          2   -1    0    0  501    0  0.00000000000E+00 -0.00000000000E+00 -0.39667106566E+03  0.39667106566E+03  0.00000000000E+00 0. -1.
         23    2    1    2    0    0  0.88127847626E+02  0.31364492045E+02 -0.12101189300E+03  0.17801396498E+03  0.91076037408E+02 0.  0.
         23    2    1    2    0    0 -0.88127847626E+02 -0.31364492045E+02 -0.22248001865E+03  0.27183625469E+03  0.12508933518E+03 0.  0.
          5    1    4    4  502    0  0.70597492983E+01  0.22339291042E+02 -0.11870327202E+03  0.12106536736E+03  0.41800000000E+01 0. -1.
         -5    1    4    4    0  502 -0.95187596924E+02 -0.53703783087E+02 -0.10377674663E+03  0.15077088733E+03  0.41800000000E+01 0. -1.
        -11    1    3    3    0    0  0.39588065392E+02  0.19763599226E+02 -0.12021647403E+03  0.12810080173E+03  0.00000000000E+00 0. -1.
         11    1    3    3    0    0  0.48539782233E+02  0.11600892818E+02 -0.79541896867E+00  0.49913163241E+02  0.00000000000E+00 0.  1.
</event>
<event>
 8    1  0.9181008E-006  0.1624316E+03  0.7561462E-02  0.1185979E+00
          1   -1    0    0  501    0  0.00000000000E+00  0.00000000000E+00  0.44012807847E+03  0.44012807847E+03  0.00000000000E+00 0. -1.
         -1   -1    0    0    0  501 -0.00000000000E+00 -0.00000000000E+00 -0.61086879345E+02  0.61086879345E+02  0.00000000000E+00 0.  1.
         23    2    1    2    0    0  0.11738847101E+03 -0.35337129828E+02  0.17375093667E+03  0.23136344624E+03  0.91164084982E+02 0.  0.
         23    2    1    2    0    0 -0.11738847101E+03  0.35337129828E+02  0.20529026246E+03  0.26985151158E+03  0.12508789139E+03 0.  0.
          5    1    4    4  502    0  0.24371209647E+02 -0.58185456710E+01  0.17025053638E+02  0.30579996481E+02  0.41800000000E+01 0. -1.
         -5    1    4    4    0  502 -0.14175968066E+03  0.41155675499E+02  0.18826520882E+03  0.23927151510E+03  0.41800000000E+01 0. -1.
        -11    1    3    3    0    0  0.68453858723E+02 -0.65138862281E+02  0.95174113332E+02  0.13411604677E+03  0.00000000000E+00 0.  1.
         11    1    3    3    0    0  0.48934612286E+02  0.29801732453E+02  0.78576823336E+02  0.97247399463E+02  0.00000000000E+00 0. -1.
</event>
<event>
 8    1  0.9181008E-006  0.3109890E+03  0.7561462E-02  0.1079873E+00
         -2   -1    0    0    0  501 -0.00000000000E+00  0.00000000000E+00  0.94433148021E+02  0.94433148021E+02  0.00000000000E+00 0.  1.
          2   -1    0    0  501    0  0.00000000000E+00 -0.00000000000E+00 -0.17374522310E+04  0.17374522310E+04  0.00000000000E+00 0. -1.
         23    2    1    2    0    0 -0.29567133293E+03  0.78922456840E+01 -0.23639022561E+03  0.38906319559E+03  0.89476291525E+02 0.  0.
         23    2    1    2    0    0  0.29567133293E+03 -0.78922456840E+01 -0.14066288574E+04  0.14428221834E+04  0.12508911206E+03 0.  0.
          5    1    4    4  502    0  0.13563613098E+03  0.48384712152E+02 -0.80174773519E+03  0.81458894154E+03  0.41800000000E+01 0.  1.
         -5    1    4    4    0  502  0.16003520195E+03 -0.56276957836E+02 -0.60488112216E+03  0.62823324187E+03  0.41800000000E+01 0.  1.
        -11    1    3    3    0    0 -0.12350555117E+03 -0.39462029411E+02 -0.11333443378E+03  0.17220791740E+03  0.00000000000E+00 0. -1.
         11    1    3    3    0    0 -0.17216578175E+03  0.47354275095E+02 -0.12305579184E+03  0.21685527820E+03  0.00000000000E+00 0.  1.
</event>
<event>
 8    1  0.9181008E-006  0.1650161E+03  0.7561462E-02  0.1183147E+00
         -2   -1    0    0    0  501 -0.00000000000E+00  0.00000000000E+00  0.18039622170E+02  0.18039622170E+02  0.00000000000E+00 0.  1.
          2   -1    0    0  501    0  0.00000000000E+00 -0.00000000000E+00 -0.19040731530E+04  0.19040731530E+04  0.00000000000E+00 0. -1.
         23    2    1    2    0    0  0.13018548246E+03  0.44719143760E+02 -0.59067859939E+03  0.61347243402E+03  0.92190877286E+02 0.  0.
         23    2    1    2    0    0 -0.13018548246E+03 -0.44719143760E+02 -0.12953549314E+04  0.13086403411E+04  0.12508829856E+03 0.  0.
          5    1    4    4  502    0  0.24435315812E+02 -0.13086457916E+02 -0.21003675550E+03  0.21189915313E+03  0.41800000000E+01 0.  1.
         -5    1    4    4    0  502 -0.15462079827E+03 -0.31632685844E+02 -0.10853181759E+04  0.10967411880E+04  0.41800000000E+01 0.  1.
        -11    1    3    3    0    0  0.68152800727E+02  0.87550004649E+00 -0.13212333856E+03  0.14866790959E+03  0.00000000000E+00 0.  1.
         11    1    3    3    0    0  0.62032681732E+02  0.43843643713E+02 -0.45855526083E+03  0.46480452443E+03  0.00000000000E+00 0. -1.
</event>
<event>
 8    1  0.9181008E-006  0.1214145E+03  0.7561462E-02  0.1240782E+00
          2   -1    0    0  501    0  0.00000000000E+00  0.00000000000E+00  0.67712455386E+02  0.67712455386E+02  0.00000000000E+00 0. -1.
         -2   -1    0    0    0  501 -0.00000000000E+00 -0.00000000000E+00 -0.25388117346E+03  0.25388117346E+03  0.00000000000E+00 0.  1.
         23    2    1    2    0    0 -0.54937688520E+02 -0.29973597727E+02 -0.13233853851E+03  0.17171997361E+03  0.89764661091E+02 0.  0.
         23    2    1    2    0    0  0.54937688520E+02  0.29973597727E+02 -0.53830179559E+02  0.14987365523E+03  0.12509139907E+03 0.  0.
          5    1    4    4  502    0 -0.35490524208E+02  0.26971053671E+02 -0.36254323499E+02  0.57609577477E+02  0.41800000000E+01 0. -1.
         -5    1    4    4    0  502  0.90428212728E+02  0.30025440558E+01 -0.17575856060E+02  0.92264077756E+02  0.41800000000E+01 0. -1.
        -11    1    3    3    0    0 -0.22278094195E+02  0.31081795233E+02 -0.32304348368E+02  0.50059588486E+02  0.00000000000E+00 0. -1.
         11    1    3    3    0    0 -0.32659594325E+02 -0.61055392960E+02 -0.10003419015E+03  0.12166038513E+03  0.00000000000E+00 0.  1.
</event>
<event>
 7    1  0.9181008E-006  0.1342241E+03  0.7561462E-02  0.1221319E+00
          2   -1    0    0  501    0  0.00000000000E+00  0.00000000000E+00  0.50286223787E+03  0.50286223787E+03  0.00000000000E+00 0. -1.
         -2   -1    0    0    0  501 -0.00000000000E+00 -0.00000000000E+00 -0.43681847512E+02  0.43681847512E+02  0.00000000000E+00 0.  1.
         23    2    1    2    0    0 -0.27639730948E+02 -0.78649331964E+02  0.11201161983E+03  0.16616123508E+03  0.90073752679E+02 0.  0.
          5    1    1    2  502    0 -0.44350673185E+02  0.67153145853E+01  0.17152598527E+03  0.17734349068E+03  0.41800000000E+01 0. -1.
         -5    1    1    2    0  502  0.71990404133E+02  0.71934017378E+02  0.17564278526E+03  0.20303935963E+03  0.41800000000E+01 0.  1.
        -11    1    3    3    0    0  0.10524063679E+02  0.16191168310E+02  0.27039725625E+02  0.33227347312E+02  0.00000000000E+00 0.  1.
         11    1    3    3    0    0 -0.38163794627E+02 -0.94840500274E+02  0.84971894201E+02  0.13293388777E+03  0.00000000000E+00 0. -1.
</event>
<event>
 8    1  0.9181008E-006  0.1365912E+03  0.7561462E-02  0.1217991E+00
          3   -1    0    0  501    0  0.00000000000E+00  0.00000000000E+00  0.11568176210E+03  0.11568176210E+03  0.00000000000E+00 0. -1.
         -3   -1    0    0    0  501 -0.00000000000E+00 -0.00000000000E+00 -0.17680634020E+03  0.17680634020E+03  0.00000000000E+00 0.  1.
         23    2    1    2    0    0 -0.15023050366E+02 -0.85882935388E+02 -0.58520476873E+02  0.13998801954E+03  0.92576610269E+02 0.  0.
         23    2    1    2    0    0  0.15023050366E+02  0.85882935388E+02 -0.26041012310E+01  0.15250008276E+03  0.12509165946E+03 0.  0.
          5    1    4    4  502    0  0.41076247085E+02 -0.17830191211E+02 -0.63359962907E+01  0.45417959468E+02  0.41800000000E+01 0. -1.
         -5    1    4    4    0  502 -0.26053196719E+02  0.10371312660E+03  0.37318950596E+01  0.10708212329E+03  0.41800000000E+01 0. -1.
        -11    1    3    3    0    0  0.20581378605E+02 -0.82951353338E+02 -0.59685152335E+02  0.10424412490E+03  0.00000000000E+00 0. -1.
         11    1    3    3    0    0 -0.35604428970E+02 -0.29315820495E+01  0.11646754623E+01  0.35743894647E+02  0.00000000000E+00 0.  1.
</event>
<event>
 8    1  0.9181008E-006  0.1268010E+03  0.7561462E-02  0.1232281E+00
          4   -1    0    0  501    0  0.00000000000E+00  0.00000000000E+00  0.23394087888E+03  0.23394087888E+03  0.00000000000E+00 0. -1.
         -4   -1    0    0    0  501 -0.00000000000E+00 -0.00000000000E+00 -0.71585120604E+02  0.71585120604E+02  0.00000000000E+00 0.  1.
         23    2    1    2    0    0  0.26131856937E+02 -0.52847688874E+02  0.10216768561E+03  0.15471260206E+03  0.10010994500E+03 0.  0.
         23    2    1    2    0    0 -0.26131856937E+02  0.52847688874E+02  0.60188072671E+02  0.15081339742E+03  0.12508526925E+03 0.  0.
          5    1    4    4  502    0  0.48481797282E+02  0.41569431825E+01  0.16989874751E+02  0.51709700138E+02  0.41800000000E+01 0. -1.
         -5    1    4    4    0  502 -0.74613654219E+02  0.48690745691E+02  0.43198197919E+02  0.99103697284E+02  0.41800000000E+01 0. -1.
        -11    1    3    3    0    0 -0.27037871709E+02 -0.56126045216E+02  0.47139975616E+02  0.78123983252E+02  0.00000000000E+00 0.  1.
         11    1    3    3    0    0  0.53169728646E+02  0.32783563417E+01  0.55027709991E+02  0.76588618812E+02  0.00000000000E+00 0. -1.
</event>
<event>
 8    1  0.9181008E-006  0.1717931E+03  0.7561462E-02  0.1175991E+00
          1   -1    0    0  501    0  0.00000000000E+00  0.00000000000E+00  0.24409230750E+03  0.24409230750E+03  0.00000000000E+00 0. -1.
         -1   -1    0    0    0  501 -0.00000000000E+00 -0.00000000000E+00 -0.15144987304E+03  0.15144987304E+03  0.00000000000E+00 0.  1.
         23    2    1    2    0    0 -0.15541519669E+03 -0.30709064333E+02  0.67429486737E+02  0.19212722935E+03  0.85259642173E+02 0.  0.
         23    2    1    2    0    0  0.15541519669E+03  0.30709064333E+02  0.25212947722E+02  0.20341495119E+03  0.12508005293E+03 0.  0.
          5    1    4    4  502    0  0.11934530686E+03  0.38099984191E+01 -0.38298782131E+02  0.12546747574E+03  0.41800000000E+01 0.  1.
         -5    1    4    4    0  502  0.36069889833E+02  0.26899065914E+02  0.63511729853E+02  0.77947475447E+02  0.41800000000E+01 0.  1.
        -11    1    3    3    0    0 -0.58549881198E+02 -0.53605689811E+02  0.19967018416E+02  0.81855606973E+02  0.00000000000E+00 0.  1.
         11    1    3    3    0    0 -0.96865315490E+02  0.22896625478E+02  0.47462468321E+02  0.11027162238E+03  0.00000000000E+00 0. -1.
</event>
<event>
 8    1  0.9181008E-006  0.1135190E+03  0.7561462E-02  0.1254189E+00
         -1   -1    0    0    0  501 -0.00000000000E+00  0.00000000000E+00  0.38491782074E+02  0.38491782074E+02  0.00000000000E+00 0. -1.
          1   -1    0    0  501    0  0.00000000000E+00 -0.00000000000E+00 -0.45635884305E+03  0.45635884305E+03  0.00000000000E+00 0.  1.
         23    2    1    2    0    0  0.30781716929E+02 -0.68161831134E+02 -0.19238579862E+03  0.22636723761E+03  0.92931595429E+02 0.  0.
         23    2    1    2    0    0 -0.30781716929E+02  0.68161831134E+02 -0.22548126235E+03  0.26848338752E+03  0.12509188775E+03 0.  0.
          5    1    4    4  502    0 -0.31753607873E+02 -0.97448850067E+01 -0.40667262865E+01  0.33723360738E+02  0.41800000000E+01 0.  1.
         -5    1    4    4    0  502  0.97189094443E+00  0.77906716140E+02 -0.22141453607E+03  0.23476002678E+03  0.41800000000E+01 0.  1.
        -11    1    3    3    0    0 -0.29469428454E+02 -0.38199883115E+02 -0.53513282596E+02  0.72051021489E+02  0.00000000000E+00 0. -1.
         11    1    3    3    0    0  0.60251145383E+02 -0.29961948019E+02 -0.13887251603E+03  0.15431621612E+03  0.00000000000E+00 0.  1.
</event>
<event>
 8    1  0.9181008E-006  0.1115649E+03  0.7561462E-02  0.1257699E+00
         -2   -1    0    0    0  501 -0.00000000000E+00  0.00000000000E+00  0.56121138716E+03  0.56121138716E+03  0.00000000000E+00 0. -1.
          2   -1    0    0  501    0  0.00000000000E+00 -0.00000000000E+00 -0.29485802344E+02  0.29485802344E+02  0.00000000000E+00 0.  1.
         23    2    1    2    0    0  0.58344295704E+02 -0.13850518581E+02  0.31242168454E+03  0.33120569482E+03  0.92162951357E+02 0.  0.
         23    2    1    2    0    0 -0.58344295704E+02  0.13850518581E+02  0.21930390028E+03  0.25949149469E+03  0.12508293821E+03 0.  0.
          5    1    4    4  502    0  0.35332243558E+02  0.25868913426E+02  0.76042544262E+02  0.87849354320E+02  0.41800000000E+01 0. -1.
         -5    1    4    4    0  502 -0.93676539262E+02 -0.12018394844E+02  0.14326135602E+03  0.17164214037E+03  0.41800000000E+01 0. -1.
        -11    1    3    3    0    0 -0.11073418415E+02 -0.10256046739E+02  0.48145196423E+01  0.15842559436E+02  0.00000000000E+00 0.  1.
         11    1    3    3    0    0  0.69417714119E+02 -0.35944718426E+01  0.30760716490E+03  0.31536313538E+03  0.00000000000E+00 0. -1.
</event>
<event>
 8    1  0.9181008E-006  0.2256870E+03  0.7561462E-02  0.1129713E+00
         -2   -1    0    0    0  501 -0.00000000000E+00  0.00000000000E+00  0.85483395056E+02  0.85483395056E+02  0.00000000000E+00 0.  1.
          2   -1    0    0  501    0  0.00000000000E+00 -0.00000000000E+00 -0.62531391466E+03  0.62531391466E+03  0.00000000000E+00 0. -1.
         23    2    1    2    0    0 -0.12619780396E+03  0.15219258434E+03 -0.18853428698E+03  0.28872591052E+03  0.93429147396E+02 0.  0.
         23    2    1    2    0    0  0.12619780396E+03 -0.15219258434E+03 -0.35129623262E+03  0.42207139920E+03  0.12508698777E+03 0.  0.
          5    1    4    4  502    0  0.80321783634E+02 -0.60690297577E+01 -0.11583191629E+03  0.14114859999E+03  0.41800000000E+01 0. -1.
         -5    1    4    4    0  502  0.45876020328E+02 -0.14612355459E+03 -0.23546431634E+03  0.28092279921E+03  0.41800000000E+01 0. -1.
        -11    1    3    3    0    0 -0.29869123498E+02  0.10701534387E+03 -0.81375607122E+02  0.13771869080E+03  0.00000000000E+00 0.  1.
         11    1    3    3    0    0 -0.96328680464E+02  0.45177240473E+02 -0.10715867986E+03  0.15100721971E+03  0.00000000000E+00 0. -1.
</event>
<event>
 8    1  0.9181008E-006  0.2176502E+03  0.7561462E-02  0.1135647E+00
          2   -1    0    0  501    0  0.00000000000E+00  0.00000000000E+00  0.48860251443E+03  0.48860251443E+03  0.00000000000E+00 0. -1.
         -2   -1    0    0    0  501 -0.00000000000E+00 -0.00000000000E+00 -0.10533202811E+03  0.10533202811E+03  0.00000000000E+00 0.  1.
         23    2    1    2    0    0 -0.18076587981E+03 -0.82979066602E+02  0.19332814625E+03  0.29179698337E+03  0.90597343078E+02 0.  0.
         23    2    1    2    0    0  0.18076587981E+03  0.82979066602E+02  0.18994234007E+03  0.30213755917E+03  0.12508870177E+03 0.  0.
          5    1    4    4  502    0  0.17056623052E+03  0.10999271532E+03  0.14877519524E+03  0.25167989101E+03  0.41800000000E+01 0.  1.
         -5    1    4    4    0  502  0.10199649290E+02 -0.27013648721E+02  0.41167144827E+02  0.50457668160E+02  0.41800000000E+01 0.  1.
        -11    1    3    3    0    0 -0.91947472334E+02 -0.64741837388E+02  0.15920850161E+03  0.19491841925E+03  0.00000000000E+00 0. -1.
         11    1    3    3    0    0 -0.88818407473E+02 -0.18237229214E+02  0.34119644642E+02  0.96878564120E+02  0.00000000000E+00 0.  1.
</event>
<event>
 8    1  0.9181008E-006  0.1056967E+03  0.7561462E-02  0.1268753E+00
          1   -1    0    0  501    0  0.00000000000E+00  0.00000000000E+00  0.38076279291E+03  0.38076279291E+03  0.00000000000E+00 0. -1.
         -1   -1    0    0    0  501 -0.00000000000E+00 -0.00000000000E+00 -0.34313176807E+02  0.34313176807E+02  0.00000000000E+00 0.  1.
         23    2    1    2    0    0 -0.37576762015E+02  0.25723799616E+02  0.11495588348E+03  0.14803519931E+03  0.81399251692E+02 0.  0.
         23    2    1    2    0    0  0.37576762015E+02 -0.25723799616E+02  0.23149373262E+03  0.26704077041E+03  0.12509075869E+03 0.  0.
          5    1    4    4  502    0 -0.28466933175E+02  0.33604305637E+02  0.78147495067E+02  0.89800440016E+02  0.41800000000E+01 0.  1.
         -5    1    4    4    0  502  0.66043695190E+02 -0.59328105254E+02  0.15334623755E+03  0.17724033040E+03  0.41800000000E+01 0.  1.
        -11    1    3    3    0    0 -0.54360003320E+02  0.99851207076E+01  0.36399824015E+02  0.66178998065E+02  0.00000000000E+00 0.  1.
         11    1    3    3    0    0  0.16783241305E+02  0.15738678909E+02  0.78556059470E+02  0.81856201243E+02  0.00000000000E+00 0. -1.
</event>
<event>
 8    1  0.1166482E-005  0.1250254E+03  0.7561462E-02  0.1235030E+00
         -1   -1    0    0    0  501 -0.00000000000E+00  0.00000000000E+00  0.61641473849E+02  0.61641473849E+02  0.00000000000E+00 0.  1.
          1   -1    0    0  501    0  0.00000000000E+00 -0.00000000000E+00 -0.43528585914E+03  0.43528585914E+03  0.00000000000E+00 0. -1.
         23    2    1    2    0    0 -0.68128410605E+02 -0.10111241844E+03 -0.10312734234E+03  0.17491493279E+03  0.71377752001E+02 0.  0.
         23    2    1    2    0    0  0.68128410605E+02  0.10111241844E+03 -0.27051704295E+03  0.32201240020E+03  0.12508922361E+03 0.  0.
          5    1    4    4  502    0  0.21476581662E+02  0.16042751115E+02 -0.20041173732E+03  0.20223983357E+03  0.41800000000E+01 0.  1.
         -5    1    4    4    0  502  0.46651828943E+02  0.85069667320E+02 -0.70105305626E+02  0.11977256664E+03  0.41800000000E+01 0.  1.
        -11    1    3    3    0    0 -0.30353475352E+02 -0.20054308277E+02  0.25592055577E+01  0.36469964074E+02  0.00000000000E+00 0.  1.
         11    1    3    3    0    0 -0.37774935253E+02 -0.81058110158E+02 -0.10568654790E+03  0.13844496872E+03  0.00000000000E+00 0. -1.
</event>
<event>
 8    1  0.9181008E-006  0.1278209E+03  0.7561462E-02  0.1230725E+00
          1   -1    0    0  501    0  0.00000000000E+00  0.00000000000E+00  0.45483435372E+03  0.45483435372E+03  0.00000000000E+00 0. -1.
         -1   -1    0    0    0  501 -0.00000000000E+00 -0.00000000000E+00 -0.54395913493E+02  0.54395913493E+02  0.00000000000E+00 0.  1.
         23    2    1    2    0    0 -0.10969831969E+02 -0.10959415827E+03  0.14345864066E+03  0.20293479377E+03  0.92037667303E+02 0.  0.
         23    2    1    2    0    0  0.10969831969E+02  0.10959415827E+03  0.25697979956E+03  0.30629547344E+03  0.12508830051E+03 0.  0.
          5    1    4    4  502    0 -0.50713471486E+00 -0.51588787177E+00  0.15702699412E+03  0.15708428505E+03  0.41800000000E+01 0. -1.
         -5    1    4    4    0  502  0.11476966684E+02  0.11011004614E+03  0.99952805439E+02  0.14921118839E+03  0.41800000000E+01 0. -1.
        -11    1    3    3    0    0  0.17696328734E+02  0.81125115013E+01  0.36322763904E+02  0.41210630560E+02  0.00000000000E+00 0. -1.
         11    1    3    3    0    0 -0.28666160703E+02 -0.11770666977E+03  0.10713587676E+03  0.16172416321E+03  0.00000000000E+00 0.  1.
</event>
<event>
 8    1  0.9181008E-006  0.1547020E+03  0.7561462E-02  0.1194811E+00
          1   -1    0    0  501    0  0.00000000000E+00  0.00000000000E+00  0.13763547742E+04  0.13763547742E+04  0.00000000000E+00 0. -1.
         -1   -1    0    0    0  501 -0.00000000000E+00 -0.00000000000E+00 -0.34736455307E+02  0.34736455307E+02  0.00000000000E+00 0.  1.
         23    2    1    2    0    0  0.12148895284E+03 -0.64586115819E+02  0.22406658803E+03  0.27817422868E+03  0.90797211477E+02 0.  0.
         23    2    1    2    0    0 -0.12148895284E+03  0.64586115819E+02  0.11175517309E+04  0.11329170008E+04  0.12509247614E+03 0.  0.
          5    1    4    4  502    0 -0.12335606240E+03  0.78950284514E+02  0.11002736576E+04  0.11099862430E+04  0.41800000000E+01 0.  1.
         -5    1    4    4    0  502  0.18671095555E+01 -0.14364168694E+02  0.17278073246E+02  0.22930757848E+02  0.41800000000E+01 0.  1.
        -11    1    3    3    0    0  0.11419244416E+03 -0.38166506487E+02  0.21954809414E+03  0.25039561131E+03  0.00000000000E+00 0. -1.
         11    1    3    3    0    0  0.72965086816E+01 -0.26419609332E+02  0.45184938884E+01  0.27778617374E+02  0.00000000000E+00 0.  1.
</event>
<event>
 8    1  0.9181008E-006  0.1632343E+03  0.7561462E-02  0.1185093E+00
         -2   -1    0    0    0  501 -0.00000000000E+00  0.00000000000E+00  0.98707394325E+02  0.98707394325E+02  0.00000000000E+00 0.  1.
          2   -1    0    0  501    0  0.00000000000E+00 -0.00000000000E+00 -0.57896518744E+03  0.57896518744E+03  0.00000000000E+00 0. -1.
         23    2    1    2    0    0 -0.11001281994E+03 -0.10852490682E+03 -0.22526532293E+02  0.17862758561E+03  0.86717320839E+02 0.  0.
         23    2    1    2    0    0  0.11001281994E+03  0.10852490682E+03 -0.45773126083E+03  0.49904499616E+03  0.12509006795E+03 0.  0.
          5    1    4    4  502    0  0.11506340116E+03  0.78530298625E+02 -0.22765050490E+03  0.26692474383E+03  0.41800000000E+01 0.  1.
         -5    1    4    4    0  502 -0.50505812198E+01  0.29994608196E+02 -0.23008075593E+03  0.23212025233E+03  0.41800000000E+01 0.  1.
        -11    1    3    3    0    0 -0.54922516485E+02 -0.70893603885E+02 -0.54188341255E+02  0.10477958874E+03  0.00000000000E+00 0. -1.
         11    1    3    3    0    0 -0.55090303453E+02 -0.37631302935E+02  0.31661808962E+02  0.73847996871E+02  0.00000000000E+00 0.  1.
</event>
<event>
 8    1  0.9181008E-006  0.1098652E+03  0.7561462E-02  0.1260820E+00
          3   -1    0    0  501    0  0.00000000000E+00  0.00000000000E+00  0.42593793054E+03  0.42593793054E+03  0.00000000000E+00 0. -1.
         -3   -1    0    0    0  501 -0.00000000000E+00 -0.00000000000E+00 -0.32446603604E+02  0.32446603604E+02  0.00000000000E+00 0.  1.
         23    2    1    2    0    0 -0.93941582032E+01 -0.34960178047E+02  0.11014633808E+03  0.14654450463E+03  0.89624839127E+02 0.  0.
         23    2    1    2    0    0  0.93941582032E+01  0.34960178047E+02  0.28334498886E+03  0.31184002952E+03  0.12509739021E+03 0.  0.
          5    1    4    4  502    0 -0.10996954079E+02 -0.43075338885E+02  0.63490416045E+02  0.77620378436E+02  0.41800000000E+01 0.  1.
         -5    1    4    4    0  502  0.20391112282E+02  0.78035516933E+02  0.21985457282E+03  0.23421965108E+03  0.41800000000E+01 0.  1.
        -11    1    3    3    0    0 -0.16607318076E+02  0.27127995158E+02  0.22792229515E+02  0.39130766172E+02  0.00000000000E+00 0.  1.
         11    1    3    3    0    0  0.72131598724E+01 -0.62088173205E+02  0.87354108560E+02  0.10741373846E+03  0.00000000000E+00 0. -1.
</event>
<event>
 8    1  0.9181008E-006  0.7246961E+02  0.7561462E-02  0.1351891E+00
          2   -1    0    0  501    0  0.00000000000E+00  0.00000000000E+00  0.39355177950E+03  0.39355177950E+03  0.00000000000E+00 0. -1.
         -2   -1    0    0    0  501 -0.00000000000E+00 -0.00000000000E+00 -0.35791405970E+02  0.35791405970E+02  0.00000000000E+00 0.  1.
         23    2    1    2    0    0  0.33731888305E+02 -0.29200516979E+02  0.99003831332E+02  0.13849462991E+03  0.85956345992E+02 0.  0.
         23    2    1    2    0    0 -0.33731888305E+02  0.29200516979E+02  0.25875654220E+03  0.29084855556E+03  0.12508966248E+03 0.  0.
          5    1    4    4  502    0 -0.25310290435E+02  0.56315692902E+02  0.25440291654E+03  0.26182128334E+03  0.41800000000E+01 0.  1.
         -5    1    4    4    0  502 -0.84215978697E+01 -0.27115175923E+02  0.43536256657E+01  0.29027272218E+02  0.41800000000E+01 0.  1.
        -11    1    3    3    0    0  0.82448738481E+01 -0.27616314622E+02 -0.68338033272E+01  0.29619919750E+02  0.00000000000E+00 0.  1.
         11    1    3    3    0    0  0.25487014457E+02 -0.15842023566E+01  0.10583763466E+03  0.10887471016E+03  0.00000000000E+00 0. -1.
</event>
<event>
 8    1  0.9181008E-006  0.1153491E+03  0.7561462E-02  0.1250973E+00
         -1   -1    0    0    0  501 -0.00000000000E+00  0.00000000000E+00  0.38332394944E+02  0.38332394944E+02  0.00000000000E+00 0.  1.
          1   -1    0    0  501    0  0.00000000000E+00 -0.00000000000E+00 -0.42864058011E+03  0.42864058011E+03  0.00000000000E+00 0. -1.
         23    2    1    2    0    0  0.16956821109E+02  0.62211398032E+02 -0.13209519608E+03  0.17289957649E+03  0.91034778482E+02 0.  0.
         23    2    1    2    0    0 -0.16956821109E+02 -0.62211398032E+02 -0.25821298908E+03  0.29407339857E+03  0.12508966459E+03 0.  0.
          5    1    4    4  502    0  0.47031798537E+02  0.36437562118E+01 -0.68642819737E+02  0.83394101317E+02  0.41800000000E+01 0.  1.
         -5    1    4    4    0  502 -0.63988619646E+02 -0.65855154244E+02 -0.18957016935E+03  0.21067929725E+03  0.41800000000E+01 0.  1.
        -11    1    3    3    0    0 -0.20962567993E+02  0.30948096814E+01  0.22448369309E+01  0.21308364476E+02  0.00000000000E+00 0.  1.
         11    1    3    3    0    0  0.37919389102E+02  0.59116588350E+02 -0.13434003301E+03  0.15159121201E+03  0.00000000000E+00 0. -1.
</event>
<event>
 8    1  0.1775899E-005  0.2749956E+03  0.7561462E-02  0.1098454E+00
         -2   -1    0    0    0  501 -0.00000000000E+00  0.00000000000E+00  0.19199392777E+03  0.19199392777E+03  0.00000000000E+00 0.  1.
          2   -1    0    0  501    0  0.00000000000E+00 -0.00000000000E+00 -0.57697172456E+03  0.57697172456E+03  0.00000000000E+00 0. -1.
         23    2    1    2    0    0  0.23618057221E+03  0.13749425310E+03 -0.99986585255E+01  0.28840033557E+03  0.91590654872E+02 0.  0.
         23    2    1    2    0    0 -0.23618057221E+03 -0.13749425310E+03 -0.37497913827E+03  0.48056531676E+03  0.12509091577E+03 0.  0.
          5    1    4    4  502    0 -0.29048301419E+02 -0.47362770798E+01  0.26488049393E+01  0.29845011368E+02  0.41800000000E+01 0. -1.
         -5    1    4    4    0  502 -0.20713227079E+03 -0.13275797602E+03 -0.37762794321E+03  0.45072030539E+03  0.41800000000E+01 0. -1.
        -11    1    3    3    0    0  0.48109598152E+02  0.17921034981E+02  0.33538861522E+02  0.61323341081E+02  0.00000000000E+00 0.  1.
         11    1    3    3    0    0  0.18807097405E+03  0.11957321812E+03 -0.43537520047E+02  0.22707699449E+03  0.00000000000E+00 0. -1.
</event>
<event>
 8    1  0.9181008E-006  0.1779986E+03  0.7561462E-02  0.1169754E+00
         -2   -1    0    0    0  501 -0.00000000000E+00  0.00000000000E+00  0.14153995412E+03  0.14153995412E+03  0.00000000000E+00 0.  1.
          2   -1    0    0  501    0  0.00000000000E+00 -0.00000000000E+00 -0.22921978518E+03  0.22921978518E+03  0.00000000000E+00 0. -1.
         23    2    1    2    0    0  0.33973707544E+01 -0.14350034901E+03 -0.46557198936E+02  0.17597147297E+03  0.90523445750E+02 0.  0.
         23    2    1    2    0    0 -0.33973707544E+01  0.14350034901E+03 -0.41122632120E+02  0.19478826633E+03  0.12508998974E+03 0.  0.
          5    1    4    4  502    0 -0.13493328527E+02 -0.19055763265E+02 -0.18955819574E+02  0.30364247465E+02  0.41800000000E+01 0.  1.
         -5    1    4    4    0  502  0.10095957773E+02  0.16255611228E+03 -0.22166812546E+02  0.16442401887E+03  0.41800000000E+01 0.  1.
        -11    1    3    3    0    0  0.46595603917E+02 -0.79195822676E+02 -0.19647272348E+02  0.93963524543E+02  0.00000000000E+00 0.  1.
         11    1    3    3    0    0 -0.43198233163E+02 -0.64304526336E+02 -0.26909926588E+02  0.82007948424E+02  0.00000000000E+00 0. -1.
</event>
<event>
 8    1  0.9181008E-006  0.1470225E+03  0.7561462E-02  0.1204180E+00
          2   -1    0    0  501    0  0.00000000000E+00  0.00000000000E+00  0.53012253376E+02  0.53012253376E+02  0.00000000000E+00 0. -1.
         -2   -1    0    0    0  501 -0.00000000000E+00 -0.00000000000E+00 -0.47741259410E+03  0.47741259410E+03  0.00000000000E+00 0.  1.
         23    2    1    2    0    0  0.33372059014E+02  0.10229049842E+03 -0.26383371683E+03  0.30019377294E+03  0.94504131042E+02 0.  0.
         23    2    1    2    0    0 -0.33372059014E+02 -0.10229049842E+03 -0.16056662390E+03  0.23023107454E+03  0.12509063349E+03 0.  0.
          5    1    4    4  502    0 -0.73457177896E+02 -0.56989854005E+02 -0.53932857842E+02  0.10756405533E+03  0.41800000000E+01 0. -1.
         -5    1    4    4    0  502  0.40085118882E+02 -0.45300644411E+02 -0.10663376606E+03  0.12266701921E+03  0.41800000000E+01 0. -1.
        -11    1    3    3    0    0 -0.31357830077E+02  0.33938576475E+02 -0.11677776734E+03  0.12558736968E+03  0.00000000000E+00 0.  1.
         11    1    3    3    0    0  0.64729889091E+02  0.68351921940E+02 -0.14705594950E+03  0.17460640325E+03  0.00000000000E+00 0. -1.
</event>
<event>
 8    1  0.9181008E-006  0.2652737E+03  0.7561462E-02  0.1104015E+00
         -1   -1    0    0    0  501 -0.00000000000E+00  0.00000000000E+00  0.37258940655E+03  0.37258940655E+03  0.00000000000E+00 0.  1.
          1   -1    0    0  501    0  0.00000000000E+00 -0.00000000000E+00 -0.24816617187E+03  0.24816617187E+03  0.00000000000E+00 0. -1.
         23    2    1    2    0    0 -0.24020817169E+03 -0.36403095482E+02  0.21031797487E+03  0.33431040357E+03  0.92220628247E+02 0.  0.
         23    2    1    2    0    0  0.24020817169E+03  0.36403095482E+02 -0.85894740194E+02  0.28644517484E+03  0.12509108956E+03 0.  0.
          5    1    4    4  502    0  0.14874504878E+03 -0.39800687148E+02 -0.52409589308E+02  0.16270655084E+03  0.41800000000E+01 0.  1.
         -5    1    4    4    0  502  0.91463122912E+02  0.76203782630E+02 -0.33485150886E+02  0.12373862400E+03  0.41800000000E+01 0.  1.
        -11    1    3    3    0    0 -0.92113337785E+02 -0.56314341029E+02  0.65824837905E+02  0.12644793904E+03  0.00000000000E+00 0. -1.
         11    1    3    3    0    0 -0.14809483391E+03  0.19911245547E+02  0.14449313697E+03  0.20786246453E+03  0.00000000000E+00 0.  1.
</event>
<event>
 8    1  0.9181008E-006  0.1194196E+03  0.7561462E-02  0.1244058E+00
         -2   -1    0    0    0  501 -0.00000000000E+00  0.00000000000E+00  0.17417339953E+02  0.17417339953E+02  0.00000000000E+00 0. -1.
          2   -1    0    0  501    0  0.00000000000E+00 -0.00000000000E+00 -0.11007260395E+04  0.11007260395E+04  0.00000000000E+00 0.  1.
         23    2    1    2    0    0 -0.77946486768E+02  0.37236572154E+02 -0.43939523406E+03  0.45652880588E+03  0.88815324023E+02 0.  0.
         23    2    1    2    0    0  0.77946486768E+02 -0.37236572154E+02 -0.64391346545E+03  0.66161457353E+03  0.12508827210E+03 0.  0.
          5    1    4    4  502    0  0.69514195690E+02 -0.73766107396E+02 -0.32465538215E+03  0.34013563701E+03  0.41800000000E+01 0.  1.
         -5    1    4    4    0  502  0.84322910784E+01  0.36529535241E+02 -0.31925808329E+03  0.32147893652E+03  0.41800000000E+01 0.  1.
        -11    1    3    3    0    0 -0.65380940245E+02  0.49582743554E+02 -0.42742651700E+03  0.43523159725E+03  0.00000000000E+00 0.  1.
         11    1    3    3    0    0 -0.12565546523E+02 -0.12346171399E+02 -0.11968717056E+02  0.21297208634E+02  0.00000000000E+00 0. -1.
</event>
<event>
 8    1  0.9181008E-006  0.2064727E+03  0.7561462E-02  0.1144390E+00
         -2   -1    0    0    0  501 -0.00000000000E+00  0.00000000000E+00  0.30741820173E+02  0.30741820173E+02  0.00000000000E+00 0.  1.
          2   -1    0    0  501    0  0.00000000000E+00 -0.00000000000E+00 -0.17837899739E+04  0.17837899739E+04  0.00000000000E+00 0. -1.
         23    2    1    2    0    0 -0.14990668475E+03  0.11629002782E+03 -0.52965581093E+03  0.57021212137E+03  0.92796554923E+02 0.  0.
         23    2    1    2    0    0  0.14990668475E+03 -0.11629002782E+03 -0.12233923428E+04  0.12443196727E+04  0.12508892336E+03 0.  0.
          5    1    4    4  502    0  0.28800283830E+02 -0.89297497262E+02 -0.36010960560E+03  0.37215574672E+03  0.41800000000E+01 0.  1.
         -5    1    4    4    0  502  0.12110640092E+03 -0.26992530560E+02 -0.86328273717E+03  0.87216392596E+03  0.41800000000E+01 0.  1.
        -11    1    3    3    0    0 -0.93343531571E+02  0.44295719960E+02 -0.38818138290E+03  0.40169629290E+03  0.00000000000E+00 0. -1.
         11    1    3    3    0    0 -0.56563153180E+02  0.71994307862E+02 -0.14147442802E+03  0.16851582847E+03  0.00000000000E+00 0.  1.
</event>
<event>
 8    1  0.9181008E-006  0.9698744E+02  0.7561462E-02  0.1286762E+00
         -4   -1    0    0    0  501 -0.00000000000E+00  0.00000000000E+00  0.30402555279E+03  0.30402555279E+03  0.00000000000E+00 0.  1.
          4   -1    0    0  501    0  0.00000000000E+00 -0.00000000000E+00 -0.52075866507E+02  0.52075866507E+02  0.00000000000E+00 0. -1.
         23    2    1    2    0    0 -0.22091462187E+02 -0.60243655018E+02  0.92415769705E+02  0.14347075724E+03  0.89027259998E+02 0.  0.
         23    2    1    2    0    0  0.22091462187E+02  0.60243655018E+02  0.15953391658E+03  0.21263066205E+03  0.12507356729E+03 0.  0.
          5    1    4    4  502    0 -0.48541603880E+01 -0.17565027491E+02  0.11954162148E+03  0.12099489547E+03  0.41800000000E+01 0. -1.
         -5    1    4    4    0  502  0.26945622575E+02  0.77808682509E+02  0.39992295096E+02  0.91635766580E+02  0.41800000000E+01 0. -1.
        -11    1    3    3    0    0 -0.46339983711E+02 -0.40982316920E+02  0.93924245473E+02  0.11246647624E+03  0.00000000000E+00 0.  1.
         11    1    3    3    0    0  0.24248521524E+02 -0.19261338098E+02 -0.15084757676E+01  0.31004281004E+02  0.00000000000E+00 0. -1.
</event>
<event>
 8    1  0.9181008E-006  0.1089219E+03  0.7561462E-02  0.1262579E+00
         -1   -1    0    0    0  501 -0.00000000000E+00  0.00000000000E+00  0.30144884379E+03  0.30144884379E+03  0.00000000000E+00 0.  1.
          1   -1    0    0  501    0  0.00000000000E+00 -0.00000000000E+00 -0.43367392527E+02  0.43367392527E+02  0.00000000000E+00 0. -1.
         23    2    1    2    0    0 -0.76954228121E+01  0.21340015316E+02  0.16000826892E+03  0.18425409379E+03  0.88500334275E+02 0.  0.
         23    2    1    2    0    0  0.76954228121E+01 -0.21340015316E+02  0.98073182337E+02  0.16056214253E+03  0.12508891531E+03 0.  0.
          5    1    4    4  502    0 -0.36896652640E+02  0.37395269218E+02  0.48375324057E+02  0.71536099373E+02  0.41800000000E+01 0.  1.
         -5    1    4    4    0  502  0.44592075453E+02 -0.58735284534E+02  0.49697858280E+02  0.89026043156E+02  0.41800000000E+01 0.  1.
        -11    1    3    3    0    0 -0.20255051794E+02  0.53258698882E+02  0.10358924825E+03  0.11822642887E+03  0.00000000000E+00 0.  1.
         11    1    3    3    0    0  0.12559628982E+02 -0.31918683566E+02  0.56419020673E+02  0.66027664917E+02  0.00000000000E+00 0. -1.
</event>
<event>
 8    1  0.9181008E-006  0.8895431E+02  0.7561462E-02  0.1305404E+00
         -2   -1    0    0    0  501 -0.00000000000E+00  0.00000000000E+00  0.27059958506E+03  0.27059958506E+03  0.00000000000E+00 0.  1.
          2   -1    0    0  501    0  0.00000000000E+00 -0.00000000000E+00 -0.93563685424E+02  0.93563685424E+02  0.00000000000E+00 0. -1.
         23    2    1    2    0    0 -0.47324148140E+02 -0.52686826289E+02  0.20018415256E+03  0.23119733860E+03  0.91449646122E+02 0.  0.
         23    2    1    2    0    0  0.47324148140E+02  0.52686826289E+02 -0.23148252931E+02  0.13296593188E+03  0.11013001755E+03 0.  0.
          5    1    4    4  502    0  0.91834401108E+01  0.20961705021E+02 -0.64296726398E+02  0.68375946613E+02  0.41800000000E+01 0. -1.
         -5    1    4    4    0  502  0.38140708030E+02  0.31725121268E+02  0.41148473467E+02  0.64589985270E+02  0.41800000000E+01 0.  1.
        -11    1    3    3    0    0 -0.11802450357E+02 -0.65907891671E+02  0.17011035724E+03  0.18281324257E+03  0.00000000000E+00 0.  1.
         11    1    3    3    0    0 -0.35521697783E+02  0.13221065382E+02  0.30073795323E+02  0.48384096027E+02  0.00000000000E+00 0. -1.
</event>
<event>
 8    1  0.9181008E-006  0.1786693E+03  0.7561462E-02  0.1169097E+00
          2   -1    0    0  501    0  0.00000000000E+00  0.00000000000E+00  0.52161312634E+02  0.52161312634E+02  0.00000000000E+00 0. -1.
         -2   -1    0    0    0  501 -0.00000000000E+00 -0.00000000000E+00 -0.78630400492E+03  0.78630400492E+03  0.00000000000E+00 0.  1.
         23    2    1    2    0    0  0.10876636946E+03  0.95653350320E+02 -0.53721331004E+03  0.56387874964E+03  0.91550080564E+02 0.  0.
         23    2    1    2    0    0 -0.10876636946E+03 -0.95653350320E+02 -0.19692938225E+03  0.27458656792E+03  0.12504765146E+03 0.  0.
          5    1    4    4  502    0  0.26268771998E+02 -0.15862579030E+02 -0.15213605350E+02  0.34505013889E+02  0.41800000000E+01 0. -1.
         -5    1    4    4    0  502 -0.13503514146E+03 -0.79790771290E+02 -0.18171577690E+03  0.24008155403E+03  0.41800000000E+01 0. -1.
        -11    1    3    3    0    0  0.12309522912E+03  0.74397834652E+02 -0.48204803415E+03  0.50304848718E+03  0.00000000000E+00 0.  1.
         11    1    3    3    0    0 -0.14328859658E+02  0.21255515668E+02 -0.55165275896E+02  0.60830262453E+02  0.00000000000E+00 0. -1.
</event>
<event>
 8    1  0.9181008E-006  0.1196404E+03  0.7561462E-02  0.1243691E+00
          2   -1    0    0  501    0  0.00000000000E+00  0.00000000000E+00  0.14890435857E+04  0.14890435857E+04  0.00000000000E+00 0.  1.
         -2   -1    0    0    0  501 -0.00000000000E+00 -0.00000000000E+00 -0.16801097919E+02  0.16801097919E+02  0.00000000000E+00 0. -1.
         23    2    1    2    0    0 -0.58702772791E+02 -0.42768475865E+02  0.25674389656E+03  0.28176952809E+03  0.90562025583E+02 0.  0.
         23    2    1    2    0    0  0.58702772791E+02  0.42768475865E+02  0.12154985912E+04  0.12240751555E+04  0.12509197841E+03 0.  0.
          5    1    4    4  502    0  0.84460789887E+02  0.57253209321E+02  0.66773842484E+03  0.67550250289E+03  0.41800000000E+01 0.  1.
         -5    1    4    4    0  502 -0.25758017095E+02 -0.14484733456E+02  0.54776016634E+03  0.54857265260E+03  0.41800000000E+01 0.  1.
        -11    1    3    3    0    0  0.18499106304E+02 -0.19039230912E+02  0.12046306428E+03  0.12335339113E+03  0.00000000000E+00 0.  1.
         11    1    3    3    0    0 -0.77201879096E+02 -0.23729244953E+02  0.13628083228E+03  0.15841613696E+03  0.00000000000E+00 0. -1.
</event>
<event>
 8    1  0.9181008E-006  0.9206173E+02  0.7561462E-02  0.1297934E+00
          2   -1    0    0  501    0  0.00000000000E+00  0.00000000000E+00  0.58103551868E+02  0.58103551868E+02  0.00000000000E+00 0. -1.
         -2   -1    0    0    0  501 -0.00000000000E+00 -0.00000000000E+00 -0.23731367775E+03  0.23731367775E+03  0.00000000000E+00 0.  1.
         23    2    1    2    0    0 -0.43905968612E+02  0.10459368452E+01 -0.97140256045E+02  0.13948990991E+03  0.89957643132E+02 0.  0.
         23    2    1    2    0    0  0.43905968612E+02 -0.10459368452E+01 -0.82069869834E+02  0.15592731971E+03  0.12509611278E+03 0.  0.
          5    1    4    4  502    0  0.30814515282E+02  0.37020860370E+02 -0.10044837595E+03  0.11147837048E+03  0.41800000000E+01 0. -1.
         -5    1    4    4    0  502  0.13091453330E+02 -0.38066797215E+02  0.18378506112E+02  0.44448949228E+02  0.41800000000E+01 0. -1.
        -11    1    3    3    0    0 -0.43774404766E+02 -0.36964108596E+02 -0.36534425735E+02  0.67950777042E+02  0.00000000000E+00 0.  1.
         11    1    3    3    0    0 -0.13156384608E+00  0.38010045441E+02 -0.60605830311E+02  0.71539132865E+02  0.00000000000E+00 0. -1.
</event>
<event>
 8    1  0.9181008E-006  0.8918437E+02  0.7561462E-02  0.1304839E+00
         -1   -1    0    0    0  501 -0.00000000000E+00  0.00000000000E+00  0.93966231232E+02  0.93966231232E+02  0.00000000000E+00 0.  1.
          1   -1    0    0  501    0  0.00000000000E+00 -0.00000000000E+00 -0.18506594635E+03  0.18506594635E+03  0.00000000000E+00 0. -1.
         23    2    1    2    0    0  0.92500285943E+01  0.58934766113E+02  0.68907113866E+01  0.10930062061E+03  0.91325101025E+02 0.  0.
         23    2    1    2    0    0 -0.92500285943E+01 -0.58934766113E+02 -0.97990426502E+02  0.16973155697E+03  0.12509119896E+03 0.  0.
          5    1    4    4  502    0  0.12466381864E+02 -0.30912970394E+02 -0.12211204582E+03  0.12664851579E+03  0.41800000000E+01 0.  1.
         -5    1    4    4    0  502 -0.21716410458E+02 -0.28021795719E+02  0.24121619323E+02  0.43083041179E+02  0.41800000000E+01 0.  1.
        -11    1    3    3    0    0 -0.40603266487E+02  0.17336801745E+02  0.22846307077E+01  0.44208703686E+02  0.00000000000E+00 0.  1.
         11    1    3    3    0    0  0.49853295081E+02  0.41597964368E+02  0.46060806789E+01  0.65091916927E+02  0.00000000000E+00 0. -1.
</event>
<event>
 8    1  0.9181008E-006  0.1021712E+03  0.7561462E-02  0.1275795E+00
          2   -1    0    0  501    0  0.00000000000E+00  0.00000000000E+00  0.28275669189E+03  0.28275669189E+03  0.00000000000E+00 0. -1.
         -2   -1    0    0    0  501 -0.00000000000E+00 -0.00000000000E+00 -0.60748499195E+02  0.60748499195E+02  0.00000000000E+00 0.  1.
         23    2    1    2    0    0 -0.45124914268E+02 -0.13245632087E+02  0.23334330286E+02  0.10406677017E+03  0.89853753553E+02 0.  0.
         23    2    1    2    0    0  0.45124914268E+02  0.13245632087E+02  0.19867386241E+03  0.23943842092E+03  0.12509096349E+03 0.  0.
          5    1    4    4  502    0  0.36952971029E+02 -0.48214972103E+02  0.14521978732E+03  0.15746893228E+03  0.41800000000E+01 0.  1.
         -5    1    4    4    0  502  0.81719432388E+01  0.61460604190E+02  0.53454075091E+02  0.81969488638E+02  0.41800000000E+01 0.  1.
        -11    1    3    3    0    0 -0.24428036427E+02  0.26781024051E+02 -0.20127339907E+02  0.41461572867E+02  0.00000000000E+00 0.  1.
         11    1    3    3    0    0 -0.20696877841E+02 -0.40026656137E+02  0.43461670193E+02  0.62605197307E+02  0.00000000000E+00 0. -1.
</event>
<event>
 8    1  0.9181008E-006  0.1818384E+03  0.7561462E-02  0.1166036E+00
          1   -1    0    0  501    0  0.00000000000E+00  0.00000000000E+00  0.68927485031E+02  0.68927485031E+02  0.00000000000E+00 0. -1.
         -1   -1    0    0    0  501 -0.00000000000E+00 -0.00000000000E+00 -0.53481971913E+03  0.53481971913E+03  0.00000000000E+00 0.  1.
         23    2    1    2    0    0 -0.78992610023E+02 -0.12667871426E+03 -0.30136491702E+03  0.34878517434E+03  0.92428110108E+02 0.  0.
         23    2    1    2    0    0  0.78992610023E+02  0.12667871426E+03 -0.16452731708E+03  0.25496202983E+03  0.12509624097E+03 0.  0.
          5    1    4    4  502    0  0.98951562490E+02  0.43199571860E+02 -0.10294663494E+03  0.14924173938E+03  0.41800000000E+01 0. -1.
         -5    1    4    4    0  502 -0.19958952466E+02  0.83479142402E+02 -0.61580682142E+02  0.10572029045E+03  0.41800000000E+01 0. -1.
        -11    1    3    3    0    0 -0.76865834476E+02 -0.47234182670E+02 -0.20431505086E+03  0.22334740771E+03  0.00000000000E+00 0.  1.
         11    1    3    3    0    0 -0.21267755479E+01 -0.79444531592E+02 -0.97049866166E+02  0.12543776663E+03  0.00000000000E+00 0. -1.
</event>
<event>
 8    1  0.9181008E-006  0.9768557E+02  0.7561462E-02  0.1285240E+00
          2   -1    0    0  501    0  0.00000000000E+00  0.00000000000E+00  0.13019359436E+04  0.13019359436E+04  0.00000000000E+00 0. -1.
         -2   -1    0    0    0  501 -0.00000000000E+00 -0.00000000000E+00 -0.11798125276E+02  0.11798125276E+02  0.00000000000E+00 0.  1.
         23    2    1    2    0    0  0.13729595089E+02 -0.16325170938E+01  0.24449269048E+03  0.26054209538E+03  0.88962581323E+02 0.  0.
         23    2    1    2    0    0 -0.13729595089E+02  0.16325170938E+01  0.10456451279E+04  0.10531919735E+04  0.12509369589E+03 0.  0.
          5    1    4    4  502    0 -0.57813982516E+01  0.53176498617E+02  0.24343270392E+03  0.24927518591E+03  0.41800000000E+01 0.  1.
         -5    1    4    4    0  502 -0.79481968373E+01 -0.51543981524E+02  0.80221242395E+03  0.80391678762E+03  0.41800000000E+01 0.  1.
        -11    1    3    3    0    0  0.18058373507E+02  0.41912933575E+02  0.10936268141E+03  0.11850314316E+03  0.00000000000E+00 0. -1.
         11    1    3    3    0    0 -0.43287784183E+01 -0.43545450669E+02  0.13513000907E+03  0.14203895222E+03  0.00000000000E+00 0.  1.
</event>
<event>
 8    1  0.9181008E-006  0.1239627E+03  0.7561462E-02  0.1236699E+00
          2   -1    0    0  501    0  0.00000000000E+00  0.00000000000E+00  0.28709520243E+03  0.28709520243E+03  0.00000000000E+00 0. -1.
         -2   -1    0    0    0  501 -0.00000000000E+00 -0.00000000000E+00 -0.74563798599E+02  0.74563798599E+02  0.00000000000E+00 0.  1.
         23    2    1    2    0    0 -0.65564746472E+02 -0.23077671405E+02  0.54181757264E+02  0.14822748327E+03  0.11918225153E+03 0.  0.
         23    2    1    2    0    0  0.65564746472E+02  0.23077671405E+02  0.15834964657E+03  0.21343151776E+03  0.12508831803E+03 0.  0.
          5    1    4    4  502    0  0.66954639025E+01  0.57168611953E+02  0.23452619606E+02  0.62294278998E+02  0.41800000000E+01 0.  1.
         -5    1    4    4    0  502  0.58869282569E+02 -0.34090940547E+02  0.13489702696E+03  0.15113723876E+03  0.41800000000E+01 0.  1.
        -11    1    3    3    0    0 -0.85169842156E+02  0.77531857986E+01  0.67901710685E+02  0.10920007425E+03  0.00000000000E+00 0.  1.
         11    1    3    3    0    0  0.19605095684E+02 -0.30830857204E+02 -0.13719953421E+02  0.39027409017E+02  0.00000000000E+00 0. -1.
</event>
<event>
 8    1  0.9181008E-006  0.1452608E+03  0.7561462E-02  0.1206420E+00
         -2   -1    0    0    0  501 -0.00000000000E+00  0.00000000000E+00  0.51327526933E+02  0.51327526933E+02  0.00000000000E+00 0.  1.
          2   -1    0    0  501    0  0.00000000000E+00 -0.00000000000E+00 -0.72555408146E+03  0.72555408146E+03  0.00000000000E+00 0. -1.
         23    2    1    2    0    0 -0.18555115871E+02 -0.11518684315E+03 -0.10303767017E+03  0.18062940885E+03  0.91640169737E+02 0.  0.
         23    2    1    2    0    0  0.18555115871E+02  0.11518684315E+03 -0.57118888437E+03  0.59625219955E+03  0.12509053794E+03 0.  0.
          5    1    4    4  502    0 -0.36840953544E+02  0.97574747902E+02 -0.26995509648E+03  0.28943274487E+03  0.41800000000E+01 0.  1.
         -5    1    4    4    0  502  0.55396069415E+02  0.17612095245E+02 -0.30123378789E+03  0.30681945468E+03  0.41800000000E+01 0.  1.
        -11    1    3    3    0    0  0.12889276111E+02 -0.78463557487E+02 -0.16063750969E+02  0.81121559326E+02  0.00000000000E+00 0.  1.
         11    1    3    3    0    0 -0.31444391982E+02 -0.36723285660E+02 -0.86973919196E+02  0.99507849525E+02  0.00000000000E+00 0. -1.
</event>
<event>
 8    1  0.9181008E-006  0.1285610E+03  0.7561462E-02  0.1229607E+00
         -1   -1    0    0    0  501 -0.00000000000E+00  0.00000000000E+00  0.21733479327E+02  0.21733479327E+02  0.00000000000E+00 0.  1.
          1   -1    0    0  501    0  0.00000000000E+00 -0.00000000000E+00 -0.84331410309E+03  0.84331410309E+03  0.00000000000E+00 0. -1.
         23    2    1    2    0    0 -0.63533402381E+02  0.36996907629E+02 -0.27265640614E+03  0.29727064808E+03  0.92860422185E+02 0.  0.
         23    2    1    2    0    0  0.63533402381E+02 -0.36996907629E+02 -0.54892421762E+03  0.56777693433E+03  0.12509031170E+03 0.  0.
          5    1    4    4  502    0  0.32893506548E+02 -0.81039708215E+02 -0.39878111651E+03  0.40828086946E+03  0.41800000000E+01 0. -1.
         -5    1    4    4    0  502  0.30639895833E+02  0.44042800586E+02 -0.15014310110E+03  0.15949606487E+03  0.41800000000E+01 0. -1.
        -11    1    3    3    0    0 -0.18699310190E+02 -0.29869745540E+02 -0.11454467464E+03  0.11984301561E+03  0.00000000000E+00 0. -1.
         11    1    3    3    0    0 -0.44834092190E+02  0.66866653170E+02 -0.15811173150E+03  0.17742763248E+03  0.00000000000E+00 0.  1.
</event>
<event>
 8    1  0.9181008E-006  0.1232124E+03  0.7561462E-02  0.1237890E+00
          2   -1    0    0  501    0  0.00000000000E+00  0.00000000000E+00  0.24967028860E+03  0.24967028860E+03  0.00000000000E+00 0. -1.
         -2   -1    0    0    0  501 -0.00000000000E+00 -0.00000000000E+00 -0.90773276265E+02  0.90773276265E+02  0.00000000000E+00 0.  1.
         23    2    1    2    0    0 -0.38965747923E+02 -0.88534132076E+02  0.39739544034E+02  0.14247488454E+03  0.96763832665E+02 0.  0.
         23    2    1    2    0    0  0.38965747923E+02  0.88534132076E+02  0.11915746830E+03  0.19796868032E+03  0.12504588791E+03 0.  0.
          5    1    4    4  502    0  0.29382961268E+02  0.10162635478E+03  0.34026944385E+02  0.11120512462E+03  0.41800000000E+01 0.  1.
         -5    1    4    4    0  502  0.95827866549E+01 -0.13092222701E+02  0.85130523915E+02  0.86763555698E+02  0.41800000000E+01 0.  1.
        -11    1    3    3    0    0 -0.52450915563E+02 -0.23663736691E+02 -0.11545075105E+02  0.58688667873E+02  0.00000000000E+00 0. -1.
         11    1    3    3    0    0  0.13485167640E+02 -0.64870395384E+02  0.51284619140E+02  0.83786216670E+02  0.00000000000E+00 0.  1.
</event>
<event>
 8    1  0.9181008E-006  0.1149504E+03  0.7561462E-02  0.1251668E+00
         -1   -1    0    0    0  501 -0.00000000000E+00  0.00000000000E+00  0.26742573008E+03  0.26742573008E+03  0.00000000000E+00 0.  1.
          1   -1    0    0  501    0  0.00000000000E+00 -0.00000000000E+00 -0.62772777842E+02  0.62772777842E+02  0.00000000000E+00 0. -1.
         23    2    1    2    0    0 -0.55371720770E+02  0.11686281312E+02  0.14489874867E+03  0.18046296147E+03  0.91480251774E+02 0.  0.
         23    2    1    2    0    0  0.55371720770E+02 -0.11686281312E+02  0.59754203567E+02  0.14973554645E+03  0.12509025700E+03 0.  0.
          5    1    4    4  502    0 -0.35177118360E+02  0.19252896381E+02  0.88873805242E+01  0.41286336816E+02  0.41800000000E+01 0. -1.
         -5    1    4    4    0  502  0.90548839130E+02 -0.30939177692E+02  0.50866823043E+02  0.10844920964E+03  0.41800000000E+01 0. -1.
        -11    1    3    3    0    0 -0.81046363192E+01 -0.29817774588E+02  0.11487062325E+02  0.32965700540E+02  0.00000000000E+00 0. -1.
         11    1    3    3    0    0 -0.47267084451E+02  0.41504055899E+02  0.13341168635E+03  0.14749726093E+03  0.00000000000E+00 0.  1.
</event>
<event>
 8    1  0.9181008E-006  0.1334135E+03  0.7561462E-02  0.1222477E+00
         -1   -1    0    0    0  501 -0.00000000000E+00  0.00000000000E+00  0.35652002592E+02  0.35652002592E+02  0.00000000000E+00 0.  1.
          1   -1    0    0  501    0  0.00000000000E+00 -0.00000000000E+00 -0.79006853341E+03  0.79006853341E+03  0.00000000000E+00 0. -1.
         23    2    1    2    0    0 -0.18051986123E+02 -0.12075521433E+03 -0.26438678061E+03  0.30544932491E+03  0.92147839564E+02 0.  0.
         23    2    1    2    0    0  0.18051986123E+02  0.12075521433E+03 -0.49002975021E+03  0.52027121109E+03  0.12508109773E+03 0.  0.
          5    1    4    4  502    0 -0.27525217072E+02  0.21883210144E+02 -0.26822978512E+02  0.44423609009E+02  0.41800000000E+01 0. -1.
         -5    1    4    4    0  502  0.45577203195E+02  0.98872004186E+02 -0.46320677169E+03  0.47584760208E+03  0.41800000000E+01 0. -1.
        -11    1    3    3    0    0 -0.40484764271E+01 -0.59096139249E+02 -0.37946356718E+02  0.70346782610E+02  0.00000000000E+00 0.  1.
         11    1    3    3    0    0 -0.14003509696E+02 -0.61659075081E+02 -0.22644042389E+03  0.23510254230E+03  0.00000000000E+00 0. -1.
</event>
<event>
 8    1  0.9181008E-006  0.1137670E+03  0.7561462E-02  0.1253749E+00
         -2   -1    0    0    0  501 -0.00000000000E+00  0.00000000000E+00  0.11951174082E+02  0.11951174082E+02  0.00000000000E+00 0.  1.
          2   -1    0    0  501    0  0.00000000000E+00 -0.00000000000E+00 -0.12101881297E+04  0.12101881297E+04  0.00000000000E+00 0. -1.
         23    2    1    2    0    0  0.39532727891E+02 -0.22165138549E+02 -0.44874418050E+03  0.46092940979E+03  0.95028686928E+02 0.  0.
         23    2    1    2    0    0 -0.39532727891E+02  0.22165138549E+02 -0.74949277510E+03  0.76120989397E+03  0.12508778042E+03 0.  0.
          5    1    4    4  502    0 -0.75863019200E+02  0.42539761064E+02 -0.40992366940E+03  0.41907006107E+03  0.41800000000E+01 0. -1.
         -5    1    4    4    0  502  0.36330291308E+02 -0.20374622515E+02 -0.33956910570E+03  0.34213983290E+03  0.41800000000E+01 0. -1.
        -11    1    3    3    0    0 -0.22168741528E+02 -0.29014680241E+02 -0.94934846533E+02  0.10171494412E+03  0.00000000000E+00 0.  1.
         11    1    3    3    0    0  0.61701469419E+02  0.68495416921E+01 -0.35380933397E+03  0.35921446568E+03  0.00000000000E+00 0. -1.
</event>
<event>
 8    1  0.9181008E-006  0.1317156E+03  0.7561462E-02  0.1224932E+00
          2   -1    0    0  501    0  0.00000000000E+00  0.00000000000E+00  0.12258690906E+03  0.12258690906E+03  0.00000000000E+00 0.  1.
         -2   -1    0    0    0  501 -0.00000000000E+00 -0.00000000000E+00 -0.23255914247E+03  0.23255914247E+03  0.00000000000E+00 0. -1.
         23    2    1    2    0    0  0.10769220443E+02  0.90332402949E+02 -0.14714634040E+03  0.19606469843E+03  0.92268094940E+02 0.  0.
         23    2    1    2    0    0 -0.10769220443E+02 -0.90332402949E+02  0.37174106989E+02  0.15908135310E+03  0.12509613720E+03 0.  0.
          5    1    4    4  502    0  0.38617095348E+02  0.91290729440E+01  0.25477198136E+02  0.47341103185E+02  0.41800000000E+01 0.  1.
         -5    1    4    4    0  502 -0.49386315791E+02 -0.99461475893E+02  0.11696908853E+02  0.11174024991E+03  0.41800000000E+01 0.  1.
        -11    1    3    3    0    0 -0.27143620152E+02  0.25185894303E+02 -0.10126669717E+03  0.10782415937E+03  0.00000000000E+00 0. -1.
         11    1    3    3    0    0  0.37912840596E+02  0.65146508646E+02 -0.45879643229E+02  0.88240539060E+02  0.00000000000E+00 0.  1.
</event>
<event>
 8    1  0.9181008E-006  0.1324786E+03  0.7561462E-02  0.1223824E+00
          2   -1    0    0  501    0  0.00000000000E+00  0.00000000000E+00  0.14945636552E+04  0.14945636552E+04  0.00000000000E+00 0. -1.
         -2   -1    0    0    0  501 -0.00000000000E+00 -0.00000000000E+00 -0.15466404954E+02  0.15466404954E+02  0.00000000000E+00 0.  1.
         23    2    1    2    0    0  0.81444998654E+02  0.50505300559E+02  0.44925439768E+03  0.46820068379E+03  0.90544427088E+02 0.  0.
         23    2    1    2    0    0 -0.81444998654E+02 -0.50505300559E+02  0.10298428526E+04  0.10418293764E+04  0.12509226708E+03 0.  0.
          5    1    4    4  502    0  0.15096939546E+02  0.27898144068E+02  0.26589306832E+03  0.26781116521E+03  0.41800000000E+01 0. -1.
         -5    1    4    4    0  502 -0.96541938199E+02 -0.78403444627E+02  0.76394978426E+03  0.77401821118E+03  0.41800000000E+01 0. -1.
        -11    1    3    3    0    0 -0.58480321888E+01  0.11522418029E+02  0.51290541489E+01  0.13902258600E+02  0.00000000000E+00 0.  1.
         11    1    3    3    0    0  0.87293030842E+02  0.38982882530E+02  0.44412534353E+03  0.45429842519E+03  0.00000000000E+00 0. -1.
</event>
<event>
 8    1  0.9181008E-006  0.8998937E+02  0.7561462E-02  0.1302877E+00
         -1   -1    0    0    0  501 -0.00000000000E+00  0.00000000000E+00  0.73796166565E+03  0.73796166565E+03  0.00000000000E+00 0.  1.
          1   -1    0    0  501    0  0.00000000000E+00 -0.00000000000E+00 -0.22325901295E+02  0.22325901295E+02  0.00000000000E+00 0. -1.
         23    2    1    2    0    0 -0.45847666774E+02 -0.46334615510E+02  0.38312429715E+03  0.39909477268E+03  0.90793751825E+02 0.  0.
         23    2    1    2    0    0  0.45847666774E+02  0.46334615510E+02  0.33251146720E+03  0.36119279426E+03  0.12508978241E+03 0.  0.
          5    1    4    4  502    0  0.85547215833E+01  0.54419691427E+02  0.45346804804E+02  0.71473709728E+02  0.41800000000E+01 0. -1.
         -5    1    4    4    0  502  0.37292945191E+02 -0.80850759176E+01  0.28716466240E+03  0.28971908454E+03  0.41800000000E+01 0. -1.
        -11    1    3    3    0    0 -0.29263457750E+02 -0.58745676934E+02  0.36706077932E+03  0.37288204600E+03  0.00000000000E+00 0.  1.
         11    1    3    3    0    0 -0.16584209024E+02  0.12411061425E+02  0.16063517829E+02  0.26212726674E+02  0.00000000000E+00 0. -1.
</event>
<event>
 7    1  0.9181008E-006  0.1223635E+03  0.7561462E-02  0.1239248E+00
          3   -1    0    0  501    0  0.00000000000E+00  0.00000000000E+00  0.15698032892E+04  0.15698032892E+04  0.00000000000E+00 0. -1.
         -3   -1    0    0    0  501 -0.00000000000E+00 -0.00000000000E+00 -0.21368740627E+02  0.21368740627E+02  0.00000000000E+00 0.  1.
         23    2    1    2    0    0 -0.40525978996E+02  0.84905560774E+02  0.25636698445E+03  0.28758866821E+03  0.90177059977E+02 0.  0.
          5    1    1    2  502    0 -0.21192315343E+02 -0.54372637335E+02  0.10566015870E+04  0.10582201491E+04  0.41800000000E+01 0. -1.
         -5    1    1    2    0  502  0.61718294339E+02 -0.30532923439E+02  0.23546597714E+03  0.24536321252E+03  0.41800000000E+01 0.  1.
        -11    1    3    3    0    0 -0.57493018308E+02  0.42302777455E+02  0.89187177566E+02  0.11423364118E+03  0.00000000000E+00 0. -1.
         11    1    3    3    0    0  0.16967039311E+02  0.42602783318E+02  0.16717980688E+03  0.17335502704E+03  0.00000000000E+00 0.  1.
</event>
<event>
 8    1  0.9181008E-006  0.1724350E+03  0.7561462E-02  0.1175332E+00
          1   -1    0    0  501    0  0.00000000000E+00  0.00000000000E+00  0.14004192733E+04  0.14004192733E+04  0.00000000000E+00 0. -1.
         -1   -1    0    0    0  501 -0.00000000000E+00 -0.00000000000E+00 -0.30244623887E+02  0.30244623887E+02  0.00000000000E+00 0.  1.
         23    2    1    2    0    0  0.47935972920E+02 -0.14481530782E+03  0.35834489173E+03  0.39978344438E+03  0.90257465614E+02 0.  0.
         23    2    1    2    0    0 -0.47935972920E+02  0.14481530782E+03  0.10118297577E+04  0.10308804528E+04  0.12508284676E+03 0.  0.
          5    1    4    4  502    0 -0.78059407572E+02  0.51963416280E+02  0.37340044939E+03  0.38501796808E+03  0.41800000000E+01 0. -1.
         -5    1    4    4    0  502  0.30123434653E+02  0.92851891537E+02  0.63842930827E+03  0.64586248470E+03  0.41800000000E+01 0. -1.
        -11    1    3    3    0    0  0.26194548771E+02 -0.55449034586E+02  0.53551492930E+02  0.81415675498E+02  0.00000000000E+00 0.  1.
         11    1    3    3    0    0  0.21741424149E+02 -0.89366273230E+02  0.30479339880E+03  0.31836776888E+03  0.00000000000E+00 0. -1.
</event>
<event>
 8    1  0.9181008E-006  0.1167417E+03  0.7561462E-02  0.1248571E+00
          1   -1    0    0  501    0  0.00000000000E+00  0.00000000000E+00  0.10484390776E+04  0.10484390776E+04  0.00000000000E+00 0. -1.
         -1   -1    0    0    0  501 -0.00000000000E+00 -0.00000000000E+00 -0.21765536637E+02  0.21765536637E+02  0.00000000000E+00 0.  1.
         23    2    1    2    0    0 -0.71275691194E+02  0.69892440289E+02  0.38873005202E+03  0.41249351190E+03  0.95261044756E+02 0.  0.
         23    2    1    2    0    0  0.71275691194E+02 -0.69892440289E+02  0.63794348898E+03  0.65771110238E+03  0.12508725633E+03 0.  0.
          5    1    4    4  502    0  0.35031455037E+02 -0.15140794721E+02  0.37478180963E+02  0.53651961335E+02  0.41800000000E+01 0.  1.
         -5    1    4    4    0  502  0.36244236157E+02 -0.54751645569E+02  0.60046530802E+03  0.60405914105E+03  0.41800000000E+01 0.  1.
        -11    1    3    3    0    0  0.17574878430E+02  0.22648538907E+02  0.16083501985E+03  0.16336993688E+03  0.00000000000E+00 0. -1.
         11    1    3    3    0    0 -0.88850569624E+02  0.47243901382E+02  0.22789503217E+03  0.24912357502E+03  0.00000000000E+00 0.  1.
</event>
<event>
 8    1  0.9181008E-006  0.1072652E+03  0.7561462E-02  0.1265720E+00
         -2   -1    0    0    0  501 -0.00000000000E+00  0.00000000000E+00  0.24444223118E+02  0.24444223118E+02  0.00000000000E+00 0.  1.
          2   -1    0    0  501    0  0.00000000000E+00 -0.00000000000E+00 -0.99228077320E+03  0.99228077320E+03  0.00000000000E+00 0. -1.
         23    2    1    2    0    0  0.48842743601E+02  0.71920707020E+02 -0.21736954086E+03  0.25095260316E+03  0.90385231308E+02 0.  0.
         23    2    1    2    0    0 -0.48842743601E+02 -0.71920707020E+02 -0.75046700922E+03  0.76577239316E+03  0.12509366288E+03 0.  0.
          5    1    4    4  502    0 -0.60772642221E+01 -0.70260926697E+02 -0.67676978916E+03  0.68044716980E+03  0.41800000000E+01 0.  1.
         -5    1    4    4    0  502 -0.42765479379E+02 -0.16597803225E+01 -0.73697220056E+02  0.85325223359E+02  0.41800000000E+01 0.  1.
        -11    1    3    3    0    0  0.14095571985E+02 -0.61874564025E+01  0.19915012990E+01  0.15522108225E+02  0.00000000000E+00 0.  1.
         11    1    3    3    0    0  0.34747171616E+02  0.78108163422E+02 -0.21936104216E+03  0.23543049494E+03  0.00000000000E+00 0. -1.
</event>
<event>
 8    1  0.9181008E-006  0.9264351E+02  0.7561462E-02  0.1296573E+00
         -2   -1    0    0    0  501 -0.00000000000E+00  0.00000000000E+00  0.49493589828E+02  0.49493589828E+02  0.00000000000E+00 0.  1.
          2   -1    0    0  501    0  0.00000000000E+00 -0.00000000000E+00 -0.24735599390E+03  0.24735599390E+03  0.00000000000E+00 0. -1.
         23    2    1    2    0    0  0.76684971191E+01  0.16339907293E+02 -0.85370306663E+02  0.12765409691E+03  0.93175537458E+02 0.  0.
         23    2    1    2    0    0 -0.76684971191E+01 -0.16339907293E+02 -0.11249209741E+03  0.16919548681E+03  0.12508733893E+03 0.  0.
          5    1    4    4  502    0 -0.37263625510E+01  0.41636890774E+02  0.55847373366E+00  0.42015482196E+02  0.41800000000E+01 0. -1.
         -5    1    4    4    0  502 -0.39421345681E+01 -0.57976798068E+02 -0.11305057114E+03  0.12718000462E+03  0.41800000000E+01 0. -1.
        -11    1    3    3    0    0  0.37714433161E+02  0.33473409329E+02 -0.21090389100E+02  0.54659419254E+02  0.00000000000E+00 0.  1.
         11    1    3    3    0    0 -0.30045936042E+02 -0.17133502036E+02 -0.64279917563E+02  0.72994677660E+02  0.00000000000E+00 0. -1.
</event>
<event>
 8    1  0.9181008E-006  0.9170337E+02  0.7561462E-02  0.1298778E+00
          1   -1    0    0  501    0  0.00000000000E+00  0.00000000000E+00  0.33854223747E+03  0.33854223747E+03  0.00000000000E+00 0. -1.
         -1   -1    0    0    0  501 -0.00000000000E+00 -0.00000000000E+00 -0.58982498127E+02  0.58982498127E+02  0.00000000000E+00 0.  1.
         23    2    1    2    0    0  0.17047861224E+02  0.34591123773E+02  0.11264162412E+02  0.98996669281E+02  0.90478084406E+02 0.  0.
         23    2    1    2    0    0 -0.17047861224E+02 -0.34591123773E+02  0.26829557693E+03  0.29852806632E+03  0.12509721964E+03 0.  0.
          5    1    4    4  502    0 -0.36182624336E+02 -0.51152177201E+02  0.54345377196E+02  0.83045890680E+02  0.41800000000E+01 0.  1.
         -5    1    4    4    0  502  0.19134763112E+02  0.16561053428E+02  0.21395019974E+03  0.21548217564E+03  0.41800000000E+01 0.  1.
        -11    1    3    3    0    0  0.42093934088E+02  0.50152118257E+02 -0.43699776233E+01  0.65621878647E+02  0.00000000000E+00 0. -1.
         11    1    3    3    0    0 -0.25046072864E+02 -0.15560994484E+02  0.15634140035E+02  0.33374790634E+02  0.00000000000E+00 0.  1.
</event>
<event>
 8    1  0.9181008E-006  0.1033648E+03  0.7561462E-02  0.1273375E+00
         -1   -1    0    0    0  501 -0.00000000000E+00  0.00000000000E+00  0.91976269874E+02  0.91976269874E+02  0.00000000000E+00 0.  1.
          1   -1    0    0  501    0  0.00000000000E+00 -0.00000000000E+00 -0.26744553925E+03  0.26744553925E+03  0.00000000000E+00 0. -1.
         23    2    1    2    0    0 -0.93072621094E+02 -0.24520575514E+02 -0.10449623381E+02  0.13108125097E+03  0.88370404011E+02 0.  0.
         23    2    1    2    0    0  0.93072621094E+02  0.24520575514E+02 -0.16501964600E+03  0.22834055816E+03  0.12507659859E+03 0.  0.
          5    1    4    4  502    0  0.47461770166E+02 -0.86082270777E+01 -0.16484993863E+03  0.17181296769E+03  0.41800000000E+01 0.  1.
         -5    1    4    4    0  502  0.45610850927E+02  0.33128802592E+02 -0.16970736461E+00  0.56527590468E+02  0.41800000000E+01 0.  1.
        -11    1    3    3    0    0 -0.47380799717E+02  0.45988647455E+01  0.36024702590E+02  0.59698148509E+02  0.00000000000E+00 0.  1.
         11    1    3    3    0    0 -0.45691821377E+02 -0.29119440259E+02 -0.46474325972E+02  0.71383102456E+02  0.00000000000E+00 0. -1.
</event>
<event>
 8    1  0.9181008E-006  0.1391856E+03  0.7561462E-02  0.1214429E+00
         -2   -1    0    0    0  501 -0.00000000000E+00  0.00000000000E+00  0.29995022137E+02  0.29995022137E+02  0.00000000000E+00 0.  1.
          2   -1    0    0  501    0  0.00000000000E+00 -0.00000000000E+00 -0.10114927723E+04  0.10114927723E+04  0.00000000000E+00 0. -1.
         23    2    1    2    0    0  0.59137159513E+02  0.93862731768E+02 -0.22120601996E+03  0.26302871584E+03  0.89132407348E+02 0.  0.
         23    2    1    2    0    0 -0.59137159513E+02 -0.93862731768E+02 -0.76029173018E+03  0.77845907857E+03  0.12509039124E+03 0.  0.
          5    1    4    4  502    0 -0.98509011861E+02 -0.70525017856E+02 -0.54674094969E+03  0.56001869793E+03  0.41800000000E+01 0.  1.
         -5    1    4    4    0  502  0.39371852348E+02 -0.23337713912E+02 -0.21355078049E+03  0.21844038064E+03  0.41800000000E+01 0.  1.
        -11    1    3    3    0    0  0.40584279679E+02  0.70588272959E+02 -0.21845696081E+03  0.23313779566E+03  0.00000000000E+00 0. -1.
         11    1    3    3    0    0  0.18552879834E+02  0.23274458809E+02 -0.27490591432E+01  0.29890920179E+02  0.00000000000E+00 0.  1.
</event>
<event>
 8    1  0.9181008E-006  0.1338577E+03  0.7561462E-02  0.1221841E+00
          2   -1    0    0  501    0  0.00000000000E+00  0.00000000000E+00  0.14188171036E+03  0.14188171036E+03  0.00000000000E+00 0. -1.
         -2   -1    0    0    0  501 -0.00000000000E+00 -0.00000000000E+00 -0.17011733385E+03  0.17011733385E+03  0.00000000000E+00 0.  1.
         23    2    1    2    0    0 -0.14702791143E+02  0.10889793186E+03 -0.22140994519E+02  0.14538840101E+03  0.92588508348E+02 0.  0.
         23    2    1    2    0    0  0.14702791143E+02 -0.10889793186E+03 -0.60946289731E+01  0.16661064321E+03  0.12508809014E+03 0.  0.
          5    1    4    4  502    0 -0.40527318542E+02 -0.76204427997E+02  0.31661975257E+02  0.92030057437E+02  0.41800000000E+01 0.  1.
         -5    1    4    4    0  502  0.55230109685E+02 -0.32693503866E+02 -0.37756604230E+02  0.74580585770E+02  0.41800000000E+01 0.  1.
        -11    1    3    3    0    0 -0.24751984226E+02  0.10158659676E+03 -0.49242152141E+02  0.11557372933E+03  0.00000000000E+00 0.  1.
         11    1    3    3    0    0  0.10049193083E+02  0.73113351014E+01  0.27101157622E+02  0.29814671674E+02  0.00000000000E+00 0. -1.
</event>
<event>
 8    1  0.9181008E-006  0.1499947E+03  0.7561462E-02  0.1200480E+00
          2   -1    0    0  501    0  0.00000000000E+00  0.00000000000E+00  0.11674975443E+03  0.11674975443E+03  0.00000000000E+00 0. -1.
         -2   -1    0    0    0  501 -0.00000000000E+00 -0.00000000000E+00 -0.38231854343E+03  0.38231854343E+03  0.00000000000E+00 0.  1.
         23    2    1    2    0    0  0.68241709806E+02  0.11713946722E+03 -0.26871034316E+03  0.31458159776E+03  0.91530035465E+02 0.  0.
         23    2    1    2    0    0 -0.68241709806E+02 -0.11713946722E+03  0.31415541651E+01  0.18448670009E+03  0.12508751901E+03 0.  0.
          5    1    4    4  502    0 -0.47616031484E+02 -0.91679221504E+02 -0.55377791831E+02  0.11728827025E+03  0.41800000000E+01 0. -1.
         -5    1    4    4    0  502 -0.20625678322E+02 -0.25460245713E+02  0.58519345996E+02  0.67198429846E+02  0.41800000000E+01 0. -1.
        -11    1    3    3    0    0 -0.17495087776E+02  0.54898506891E+02 -0.93175847233E+02  0.10955210022E+03  0.00000000000E+00 0.  1.
         11    1    3    3    0    0  0.85736797582E+02  0.62240960326E+02 -0.17553449593E+03  0.20502949754E+03  0.00000000000E+00 0. -1.
</event>
<event>
 8    1  0.9181008E-006  0.9914640E+02  0.7561462E-02  0.1282101E+00
          2   -1    0    0  501    0  0.00000000000E+00  0.00000000000E+00  0.27026800970E+03  0.27026800970E+03  0.00000000000E+00 0. -1.
         -2   -1    0    0    0  501 -0.00000000000E+00 -0.00000000000E+00 -0.45647021653E+02  0.45647021653E+02  0.00000000000E+00 0.  1.
         23    2    1    2    0    0 -0.11280910364E+02  0.58701662406E+01  0.65812339592E+02  0.11335780283E+03  0.91416681354E+02 0.  0.
         23    2    1    2    0    0  0.11280910364E+02 -0.58701662406E+01  0.15880864845E+03  0.20255722852E+03  0.12509007240E+03 0.  0.
          5    1    4    4  502    0  0.62519651318E+02  0.43825562370E+01  0.12579895875E+03  0.14060854890E+03  0.41800000000E+01 0. -1.
         -5    1    4    4    0  502 -0.51238740954E+02 -0.10252722478E+02  0.33009689699E+02  0.61948679621E+02  0.41800000000E+01 0. -1.
        -11    1    3    3    0    0  0.22994178773E+02 -0.27072441913E+02  0.45441706678E+01  0.35809200712E+02  0.00000000000E+00 0.  1.
         11    1    3    3    0    0 -0.34275089137E+02  0.32942608154E+02  0.61268168924E+02  0.77548602119E+02  0.00000000000E+00 0. -1.
</event>
<event>
 8    1  0.9181008E-006  0.1006977E+03  0.7561462E-02  0.1278836E+00
         -1   -1    0    0    0  501 -0.00000000000E+00  0.00000000000E+00  0.83538855214E+03  0.83538855214E+03  0.00000000000E+00 0.  1.
          1   -1    0    0  501    0  0.00000000000E+00 -0.00000000000E+00 -0.18858773381E+02  0.18858773381E+02  0.00000000000E+00 0. -1.
         23    2    1    2    0    0  0.16160416022E+02 -0.47272478583E+02  0.49569812383E+03  0.50628717444E+03  0.90079002884E+02 0.  0.
         23    2    1    2    0    0 -0.16160416022E+02  0.47272478583E+02  0.32083165493E+03  0.34796015108E+03  0.12508984633E+03 0.  0.
          5    1    4    4  502    0 -0.37367620043E+02 -0.11052442068E+02  0.26938648169E+02  0.47556899274E+02  0.41800000000E+01 0. -1.
         -5    1    4    4    0  502  0.21207204021E+02  0.58324920652E+02  0.29389300676E+03  0.30040325181E+03  0.41800000000E+01 0. -1.
        -11    1    3    3    0    0  0.14454078668E+02  0.24373075336E+02  0.91583705433E+02  0.95867316080E+02  0.00000000000E+00 0. -1.
         11    1    3    3    0    0  0.17063373536E+01 -0.71645553919E+02  0.40411441840E+03  0.41041985836E+03  0.00000000000E+00 0.  1.
</event>
<event>
 7    1  0.9181008E-006  0.1153164E+03  0.7561462E-02  0.1251030E+00
         -2   -1    0    0    0  501 -0.00000000000E+00  0.00000000000E+00  0.19210816080E+02  0.19210816080E+02  0.00000000000E+00 0.  1.
          2   -1    0    0  501    0  0.00000000000E+00 -0.00000000000E+00 -0.93217542541E+03  0.93217542541E+03  0.00000000000E+00 0. -1.
         23    2    1    2    0    0 -0.10831827023E+02  0.35664058137E+02 -0.19440128650E+03  0.21840402998E+03  0.92299548213E+02 0.  0.
          5    1    1    2  502    0  0.23736219381E+02  0.51067497179E+02 -0.30884181580E+03  0.31396183998E+03  0.41800000000E+01 0. -1.
         -5    1    1    2    0  502 -0.12904392358E+02 -0.86731555317E+02 -0.40972150704E+03  0.41902037153E+03  0.41800000000E+01 0.  1.
        -11    1    3    3    0    0 -0.42702034876E+02  0.33787567290E+02 -0.16915276645E+03  0.17770121520E+03  0.00000000000E+00 0.  1.
         11    1    3    3    0    0  0.31870207853E+02  0.18764908474E+01 -0.25248520050E+02  0.40702814783E+02  0.00000000000E+00 0. -1.
</event>
<event>
 8    1  0.9181008E-006  0.1039023E+03  0.7561462E-02  0.1272298E+00
         -2   -1    0    0    0  501 -0.00000000000E+00  0.00000000000E+00  0.13442487380E+02  0.13442487380E+02  0.00000000000E+00 0.  1.
          2   -1    0    0  501    0  0.00000000000E+00 -0.00000000000E+00 -0.11664360901E+04  0.11664360901E+04  0.00000000000E+00 0. -1.
         23    2    1    2    0    0 -0.10203202109E+02 -0.18534373352E+02 -0.22269819152E+03  0.24097404224E+03  0.89590045197E+02 0.  0.
         23    2    1    2    0    0  0.10203202109E+02  0.18534373352E+02 -0.93029541123E+03  0.93890453527E+03  0.12507815904E+03 0.  0.
          5    1    4    4  502    0 -0.40549130063E+02  0.50399384793E+02 -0.56447277277E+03  0.56818246500E+03  0.41800000000E+01 0. -1.
         -5    1    4    4    0  502  0.50752332172E+02 -0.31865011442E+02 -0.36582263846E+03  0.37072207027E+03  0.41800000000E+01 0. -1.
        -11    1    3    3    0    0  0.31442949473E+02 -0.25754065038E+02 -0.16192261501E+03  0.16694569233E+03  0.00000000000E+00 0. -1.
         11    1    3    3    0    0 -0.41646151582E+02  0.72196916862E+01 -0.60775576516E+02  0.74028349910E+02  0.00000000000E+00 0.  1.
</event>
<event>
 8    1  0.9181008E-006  0.8855279E+02  0.7561462E-02  0.1306395E+00
          4   -1    0    0  501    0  0.00000000000E+00  0.00000000000E+00  0.61184923294E+02  0.61184923294E+02  0.00000000000E+00 0. -1.
         -4   -1    0    0    0  501 -0.00000000000E+00 -0.00000000000E+00 -0.32744367168E+03  0.32744367168E+03  0.00000000000E+00 0.  1.
         23    2    1    2    0    0  0.74876462959E+02  0.33505726213E+02 -0.15955698690E+03  0.20488135728E+03  0.98938466216E+02 0.  0.
         23    2    1    2    0    0 -0.74876462959E+02 -0.33505726213E+02 -0.10670176149E+03  0.18374723770E+03  0.12509461644E+03 0.  0.
          5    1    4    4  502    0 -0.56977383042E+02 -0.18941691511E+02  0.13161891770E+02  0.61611018905E+02  0.41800000000E+01 0. -1.
         -5    1    4    4    0  502 -0.17899079918E+02 -0.14564034701E+02 -0.11986365326E+03  0.12213621879E+03  0.41800000000E+01 0. -1.
        -11    1    3    3    0    0  0.18402532977E+02  0.32068356666E+02 -0.14046591545E+03  0.14525049440E+03  0.00000000000E+00 0.  1.
         11    1    3    3    0    0  0.56473929983E+02  0.14373695464E+01 -0.19091071451E+02  0.59630862882E+02  0.00000000000E+00 0. -1.
</event>
<event>
 8    1  0.9181008E-006  0.1012048E+03  0.7561462E-02  0.1277783E+00
         -1   -1    0    0    0  501 -0.00000000000E+00  0.00000000000E+00  0.30669288946E+02  0.30669288946E+02  0.00000000000E+00 0.  1.
          1   -1    0    0  501    0  0.00000000000E+00 -0.00000000000E+00 -0.44893600111E+03  0.44893600111E+03  0.00000000000E+00 0. -1.
         23    2    1    2    0    0 -0.43299775630E+02 -0.19282982987E+02 -0.17353098217E+03  0.20069997973E+03  0.88998742071E+02 0.  0.
         23    2    1    2    0    0  0.43299775630E+02  0.19282982987E+02 -0.24473572999E+03  0.27890531032E+03  0.12508353444E+03 0.  0.
          5    1    4    4  502    0  0.80554666394E+02 -0.28059870149E+01 -0.20364938510E+03  0.21906043069E+03  0.41800000000E+01 0.  1.
         -5    1    4    4    0  502 -0.37254890764E+02  0.22088970002E+02 -0.41086344888E+02  0.59844879629E+02  0.41800000000E+01 0.  1.
        -11    1    3    3    0    0 -0.17104223849E+02 -0.40829268756E+02 -0.30635510071E+02  0.53834172585E+02  0.00000000000E+00 0.  1.
         11    1    3    3    0    0 -0.26195551781E+02  0.21546285769E+02 -0.14289547210E+03  0.14686580715E+03  0.00000000000E+00 0. -1.
</event>
<event>
 8    1  0.9181008E-006  0.1062408E+03  0.7561462E-02  0.1267694E+00
          2   -1    0    0  501    0  0.00000000000E+00  0.00000000000E+00  0.10375741897E+04  0.10375741897E+04  0.00000000000E+00 0. -1.
         -2   -1    0    0    0  501 -0.00000000000E+00 -0.00000000000E+00 -0.14783423727E+02  0.14783423727E+02  0.00000000000E+00 0.  1.
         23    2    1    2    0    0  0.89445455632E+01 -0.43758493070E+02  0.28647312279E+03  0.30415561841E+03  0.91918330685E+02 0.  0.
         23    2    1    2    0    0 -0.89445455632E+01  0.43758493070E+02  0.73631764320E+03  0.74820199504E+03  0.12509093923E+03 0.  0.
          5    1    4    4  502    0 -0.52038813935E+02 -0.31632344119E+00  0.15384844577E+03  0.16246524207E+03  0.41800000000E+01 0. -1.
         -5    1    4    4    0  502  0.43094268372E+02  0.44074816511E+02  0.58246919743E+03  0.58573675296E+03  0.41800000000E+01 0. -1.
        -11    1    3    3    0    0 -0.37106103492E+02 -0.36171936473E+02  0.10967063417E+03  0.12129682561E+03  0.00000000000E+00 0.  1.
         11    1    3    3    0    0  0.46050649055E+02 -0.75865565970E+01  0.17680248862E+03  0.18285879280E+03  0.00000000000E+00 0. -1.
</event>
<event>
 8    1  0.9181008E-006  0.1108739E+03  0.7561462E-02  0.1258960E+00
         -1   -1    0    0    0  501 -0.00000000000E+00  0.00000000000E+00  0.28247014796E+02  0.28247014796E+02  0.00000000000E+00 0.  1.
          1   -1    0    0  501    0  0.00000000000E+00 -0.00000000000E+00 -0.55088790111E+03  0.55088790111E+03  0.00000000000E+00 0. -1.
         23    2    1    2    0    0 -0.19548042935E+02 -0.58046958155E+02 -0.20039567947E+03  0.23299606384E+03  0.10186835662E+03 0.  0.
         23    2    1    2    0    0  0.19548042935E+02  0.58046958155E+02 -0.32224520685E+03  0.34613885207E+03  0.11053757842E+03 0.  0.
          5    1    4    4  502    0 -0.27904954128E+02 -0.14715790575E+01 -0.20059639711E+03  0.20257650146E+03  0.41800000000E+01 0. -1.
         -5    1    4    4    0  502  0.47452997063E+02  0.59518537213E+02 -0.12164880974E+03  0.14356235061E+03  0.41800000000E+01 0.  1.
        -11    1    3    3    0    0  0.38579537260E+02 -0.41844244567E+02 -0.78270293078E+02  0.96775824858E+02  0.00000000000E+00 0.  1.
         11    1    3    3    0    0 -0.58127580194E+02 -0.16202713589E+02 -0.12212538639E+03  0.13622023898E+03  0.00000000000E+00 0. -1.
</event>
<event>
 8    1  0.9181008E-006  0.1061128E+03  0.7561462E-02  0.1267942E+00
          1   -1    0    0  501    0  0.00000000000E+00  0.00000000000E+00  0.20710982681E+03  0.20710982681E+03  0.00000000000E+00 0. -1.
         -1   -1    0    0    0  501 -0.00000000000E+00 -0.00000000000E+00 -0.64320521487E+02  0.64320521487E+02  0.00000000000E+00 0.  1.
         23    2    1    2    0    0  0.70510320139E+01 -0.19685325425E+02  0.23891377894E+02  0.97581901320E+02  0.92272425123E+02 0.  0.
         23    2    1    2    0    0 -0.70510320139E+01  0.19685325425E+02  0.11889792743E+03  0.17384844698E+03  0.12509730724E+03 0.  0.
          5    1    4    4  502    0 -0.60379492731E+02 -0.30461205689E+01  0.91115999219E+02  0.10942833137E+03  0.41800000000E+01 0. -1.
         -5    1    4    4    0  502  0.53328460717E+02  0.22731445994E+02  0.27781928207E+02  0.64420115604E+02  0.41800000000E+01 0. -1.
        -11    1    3    3    0    0 -0.39794732669E+02 -0.23979793376E+02  0.44264431232E+01  0.46671668465E+02  0.00000000000E+00 0. -1.
         11    1    3    3    0    0  0.46845764683E+02  0.42944679503E+01  0.19464934771E+02  0.50910232855E+02  0.00000000000E+00 0.  1.
</event>
<event>
 8    1  0.9181008E-006  0.9221034E+02  0.7561462E-02  0.1297586E+00
          3   -1    0    0  501    0  0.00000000000E+00  0.00000000000E+00  0.93863077320E+02  0.93863077320E+02  0.00000000000E+00 0. -1.
         -3   -1    0    0    0  501 -0.00000000000E+00 -0.00000000000E+00 -0.14094095856E+03  0.14094095856E+03  0.00000000000E+00 0.  1.
         23    2    1    2    0    0 -0.16380836851E+02  0.28192511793E+02 -0.34794299449E+02  0.10494308271E+03  0.93483997546E+02 0.  0.
         23    2    1    2    0    0  0.16380836851E+02 -0.28192511793E+02 -0.12283581789E+02  0.12986095317E+03  0.12509928553E+03 0.  0.
          5    1    4    4  502    0  0.81302588827E+01 -0.59906104611E+02  0.36649925441E+02  0.70820420177E+02  0.41800000000E+01 0.  1.
         -5    1    4    4    0  502  0.82505779682E+01  0.31713592818E+02 -0.48933507231E+02  0.59040532993E+02  0.41800000000E+01 0.  1.
        -11    1    3    3    0    0 -0.12735086888E+02 -0.29941899170E+02  0.69615226387E+01  0.33274052374E+02  0.00000000000E+00 0.  1.
         11    1    3    3    0    0 -0.36457499624E+01  0.58134410963E+02 -0.41755822088E+02  0.71669030334E+02  0.00000000000E+00 0. -1.
</event>
<event>
 8    1  0.9181008E-006  0.1830333E+03  0.7561462E-02  0.1164899E+00
          1   -1    0    0  501    0  0.00000000000E+00  0.00000000000E+00  0.56972283212E+03  0.56972283212E+03  0.00000000000E+00 0.  1.
         -1   -1    0    0    0  501 -0.00000000000E+00 -0.00000000000E+00 -0.83689968499E+02  0.83689968499E+02  0.00000000000E+00 0. -1.
         23    2    1    2    0    0  0.14421096851E+03  0.92247066030E+02  0.12010034531E+03  0.23049241922E+03  0.96934708673E+02 0.  0.
         23    2    1    2    0    0 -0.14421096851E+03 -0.92247066030E+02  0.36593251831E+03  0.42292038140E+03  0.12509482969E+03 0.  0.
          5    1    4    4  502    0 -0.26944531876E+02 -0.38061931870E+02  0.23244825353E+03  0.23711680967E+03  0.41800000000E+01 0.  1.
         -5    1    4    4    0  502 -0.11726643663E+03 -0.54185134160E+02  0.13348426478E+03  0.18580357173E+03  0.41800000000E+01 0.  1.
        -11    1    3    3    0    0 -0.10828189418E+02  0.86387180949E+01  0.29099745958E+02  0.32228440099E+02  0.00000000000E+00 0.  1.
         11    1    3    3    0    0  0.15503915793E+03  0.83608347935E+02  0.91000599355E+02  0.19826397912E+03  0.00000000000E+00 0. -1.
</event>
<event>
 8    1  0.9181008E-006  0.1440550E+03  0.7561462E-02  0.1207974E+00
          4   -1    0    0  501    0  0.00000000000E+00  0.00000000000E+00  0.12902660887E+04  0.12902660887E+04  0.00000000000E+00 0. -1.
         -4   -1    0    0    0  501 -0.00000000000E+00 -0.00000000000E+00 -0.43268998209E+02  0.43268998209E+02  0.00000000000E+00 0.  1.
         23    2    1    2    0    0 -0.17230344286E+02  0.10829168648E+03  0.99067609671E+02  0.17361572449E+03  0.91126584374E+02 0.  0.
         23    2    1    2    0    0  0.17230344286E+02 -0.10829168648E+03  0.11479294809E+04  0.11599193625E+04  0.12508741043E+03 0.  0.
          5    1    4    4  502    0  0.12407512066E+02 -0.12604465357E+03  0.68609988844E+03  0.69770461541E+03  0.41800000000E+01 0. -1.
         -5    1    4    4    0  502  0.48228322202E+01  0.17752967086E+02  0.46182959242E+03  0.46221474705E+03  0.41800000000E+01 0. -1.
        -11    1    3    3    0    0  0.30390064501E+02  0.78871754893E+01  0.19855485662E+02  0.37148403309E+02  0.00000000000E+00 0.  1.
         11    1    3    3    0    0 -0.47620408787E+02  0.10040451100E+03  0.79212124010E+02  0.13646732118E+03  0.00000000000E+00 0. -1.
</event>
<event>
 8    1  0.9181008E-006  0.1222545E+03  0.7561462E-02  0.1239423E+00
          1   -1    0    0  501    0  0.00000000000E+00  0.00000000000E+00  0.12339942382E+04  0.12339942382E+04  0.00000000000E+00 0. -1.
         -1   -1    0    0    0  501 -0.00000000000E+00 -0.00000000000E+00 -0.17963261769E+02  0.17963261769E+02  0.00000000000E+00 0.  1.
         23    2    1    2    0    0 -0.59317939152E+02 -0.74648456378E+02  0.70620919576E+03  0.71842467761E+03  0.91167863162E+02 0.  0.
         23    2    1    2    0    0  0.59317939152E+02  0.74648456378E+02  0.50982178068E+03  0.53353282237E+03  0.12509202431E+03 0.  0.
          5    1    4    4  502    0 -0.12398437958E+01 -0.88030244605E+01 -0.31251912179E+01  0.10308718273E+02  0.41800000000E+01 0. -1.
         -5    1    4    4    0  502  0.60557782948E+02  0.83451480838E+02  0.51294697190E+03  0.52322410410E+03  0.41800000000E+01 0. -1.
        -11    1    3    3    0    0 -0.31532493884E+01 -0.75258063872E+02  0.37564832072E+03  0.38312580182E+03  0.00000000000E+00 0.  1.
         11    1    3    3    0    0 -0.56164689764E+02  0.60960749412E+00  0.33056087504E+03  0.33529887579E+03  0.00000000000E+00 0. -1.
</event>
<event>
 8    1  0.9181008E-006  0.1143818E+03  0.7561462E-02  0.1252664E+00
          4   -1    0    0  501    0  0.00000000000E+00  0.00000000000E+00  0.18082157646E+03  0.18082157646E+03  0.00000000000E+00 0. -1.
         -4   -1    0    0    0  501 -0.00000000000E+00 -0.00000000000E+00 -0.92348440480E+02  0.92348440480E+02  0.00000000000E+00 0.  1.
         23    2    1    2    0    0  0.18043440121E+02  0.72663252979E+02  0.37187530729E+02  0.11862853969E+03  0.84168307116E+02 0.  0.
         23    2    1    2    0    0 -0.18043440121E+02 -0.72663252979E+02  0.51285605255E+02  0.15454147725E+03  0.12508933136E+03 0.  0.
          5    1    4    4  502    0  0.19408470308E+02  0.22802729328E+02 -0.13561957701E+02  0.33136871928E+02  0.41800000000E+01 0. -1.
         -5    1    4    4    0  502 -0.37451910429E+02 -0.95465982307E+02  0.64847562956E+02  0.12140460532E+03  0.41800000000E+01 0. -1.
        -11    1    3    3    0    0 -0.18868490803E+02  0.47800936838E+02 -0.11504690716E+02  0.52662201020E+02  0.00000000000E+00 0.  1.
         11    1    3    3    0    0  0.36911930925E+02  0.24862316141E+02  0.48692221445E+02  0.65966338672E+02  0.00000000000E+00 0. -1.
</event>
<event>
 8    1  0.9181008E-006  0.3934578E+03  0.7561462E-02  0.1046069E+00
          2   -1    0    0  501    0  0.00000000000E+00  0.00000000000E+00  0.93250949592E+03  0.93250949592E+03  0.00000000000E+00 0. -1.
         -2   -1    0    0    0  501 -0.00000000000E+00 -0.00000000000E+00 -0.17705565770E+03  0.17705565770E+03  0.00000000000E+00 0.  1.
         23    2    1    2    0    0  0.31279309111E+03  0.21544684798E+03  0.25692823259E+03  0.47046896997E+03  0.10522391769E+03 0.  0.
         23    2    1    2    0    0 -0.31279309111E+03 -0.21544684798E+03  0.49852560563E+03  0.63909618364E+03  0.12513708615E+03 0.  0.
          5    1    4    4  502    0 -0.14157202641E+03 -0.37572886116E+02  0.13242589845E+03  0.19750557312E+03  0.41800000000E+01 0. -1.
         -5    1    4    4    0  502 -0.17122106470E+03 -0.17787396187E+03  0.36609970718E+03  0.44159061052E+03  0.41800000000E+01 0. -1.
        -11    1    3    3    0    0  0.14287740714E+03  0.16048718740E+03  0.15384971136E+03  0.26427225445E+03  0.00000000000E+00 0.  1.
         11    1    3    3    0    0  0.16991568397E+03  0.54959660586E+02  0.10307852124E+03  0.20619671552E+03  0.00000000000E+00 0. -1.
</event>
<event>
 8    1  0.9181008E-006  0.7807568E+02  0.7561462E-02  0.1334603E+00
          2   -1    0    0  501    0  0.00000000000E+00  0.00000000000E+00  0.61608692274E+03  0.61608692274E+03  0.00000000000E+00 0. -1.
         -2   -1    0    0    0  501 -0.00000000000E+00 -0.00000000000E+00 -0.34978376394E+02  0.34978376394E+02  0.00000000000E+00 0.  1.
         23    2    1    2    0    0 -0.13935080508E+02 -0.18663081992E+02  0.53935620713E+02  0.10875270315E+03  0.91518315999E+02 0.  0.
         23    2    1    2    0    0  0.13935080508E+02  0.18663081992E+02  0.52717292564E+03  0.54231259599E+03  0.12509660723E+03 0.  0.
          5    1    4    4  502    0  0.47877377972E+02  0.23619686150E+02  0.48427927475E+03  0.48723097320E+03  0.41800000000E+01 0. -1.
         -5    1    4    4    0  502 -0.33942297464E+02 -0.49566041587E+01  0.42893650887E+02  0.55081622782E+02  0.41800000000E+01 0. -1.
        -11    1    3    3    0    0  0.24826139085E+02 -0.15245895788E+02  0.62458155386E+02  0.68918761557E+02  0.00000000000E+00 0. -1.
         11    1    3    3    0    0 -0.38761219593E+02 -0.34171862033E+01 -0.85225346731E+01  0.39833941597E+02  0.00000000000E+00 0.  1.
</event>
<event>
 8    1  0.9181008E-006  0.1722081E+03  0.7561462E-02  0.1175565E+00
          2   -1    0    0  501    0  0.00000000000E+00  0.00000000000E+00  0.24334161764E+04  0.24334161764E+04  0.00000000000E+00 0. -1.
         -2   -1    0    0    0  501 -0.00000000000E+00 -0.00000000000E+00 -0.15340167865E+02  0.15340167865E+02  0.00000000000E+00 0.  1.
         23    2    1    2    0    0  0.13362627857E+03 -0.64302428367E+02  0.77458193341E+03  0.79385126741E+03  0.90729700708E+02 0.  0.
         23    2    1    2    0    0 -0.13362627857E+03  0.64302428367E+02  0.16434940752E+04  0.16549050769E+04  0.12508898352E+03 0.  0.
          5    1    4    4  502    0 -0.11525343422E+03  0.13131705050E+02  0.67736739180E+03  0.68724075232E+03  0.41800000000E+01 0. -1.
         -5    1    4    4    0  502 -0.18372844349E+02  0.51170723317E+02  0.96612668337E+03  0.96766432457E+03  0.41800000000E+01 0. -1.
        -11    1    3    3    0    0  0.10487456108E+03 -0.16612962667E+01  0.45965140324E+03  0.47146669656E+03  0.00000000000E+00 0.  1.
         11    1    3    3    0    0  0.28751717488E+02 -0.62641132101E+02  0.31493053018E+03  0.32238457086E+03  0.00000000000E+00 0. -1.
</event>
<event>
 8    1  0.9181008E-006  0.1331428E+03  0.7561462E-02  0.1222866E+00
          1   -1    0    0  501    0  0.00000000000E+00  0.00000000000E+00  0.38429799895E+03  0.38429799895E+03  0.00000000000E+00 0. -1.
         -1   -1    0    0    0  501 -0.00000000000E+00 -0.00000000000E+00 -0.55270964176E+02  0.55270964176E+02  0.00000000000E+00 0.  1.
         23    2    1    2    0    0  0.70480239557E+02  0.39132533387E+02  0.69435153742E+02  0.14034578930E+03  0.91525300672E+02 0.  0.
         23    2    1    2    0    0 -0.70480239557E+02 -0.39132533387E+02  0.25959188103E+03  0.29922317382E+03  0.12509094179E+03 0.  0.
          5    1    4    4  502    0 -0.67519673626E+02 -0.79962961812E+02  0.21086163483E+03  0.23544231360E+03  0.41800000000E+01 0. -1.
         -5    1    4    4    0  502 -0.29605659314E+01  0.40830428426E+02  0.48730246194E+02  0.63780860218E+02  0.41800000000E+01 0. -1.
        -11    1    3    3    0    0  0.90220761576E+02  0.19000717715E+02  0.62257689962E+02  0.11125121596E+03  0.00000000000E+00 0. -1.
         11    1    3    3    0    0 -0.19740522019E+02  0.20131815671E+02  0.71774637800E+01  0.29094573345E+02  0.00000000000E+00 0.  1.
</event>
<event>
 8    1  0.9181008E-006  0.2443332E+03  0.7561462E-02  0.1116939E+00
         -2   -1    0    0    0  501 -0.00000000000E+00  0.00000000000E+00  0.83295282974E+02  0.83295282974E+02  0.00000000000E+00 0.  1.
          2   -1    0    0  501    0  0.00000000000E+00 -0.00000000000E+00 -0.80710033965E+03  0.80710033965E+03  0.00000000000E+00 0. -1.
         23    2    1    2    0    0  0.23239442331E+03 -0.19774650200E+02 -0.30932275718E+03  0.39861423748E+03  0.93885767998E+02 0.  0.
         23    2    1    2    0    0 -0.23239442331E+03  0.19774650200E+02 -0.41448229950E+03  0.49178138515E+03  0.12512053949E+03 0.  0.
          5    1    4    4  502    0 -0.13155701757E+03  0.62535984241E+02 -0.29866969427E+03  0.33232372301E+03  0.41800000000E+01 0.  1.
         -5    1    4    4    0  502 -0.10083740574E+03 -0.42761334041E+02 -0.11581260523E+03  0.15945766214E+03  0.41800000000E+01 0.  1.
        -11    1    3    3    0    0  0.96960614931E+02 -0.11615888069E+02 -0.59576948261E+02  0.11439275531E+03  0.00000000000E+00 0.  1.
         11    1    3    3    0    0  0.13543380838E+03 -0.81587621311E+01 -0.24974580892E+03  0.28422148217E+03  0.00000000000E+00 0. -1.
</event>
<event>
 8    1  0.9181008E-006  0.1003525E+03  0.7561462E-02  0.1279556E+00
          1   -1    0    0  501    0  0.00000000000E+00  0.00000000000E+00  0.11342582568E+03  0.11342582568E+03  0.00000000000E+00 0. -1.
         -1   -1    0    0    0  501 -0.00000000000E+00 -0.00000000000E+00 -0.18770518582E+03  0.18770518582E+03  0.00000000000E+00 0.  1.
         23    2    1    2    0    0 -0.52751700515E+02 -0.11863096320E+02 -0.11660894030E+03  0.15843488559E+03  0.92630950835E+02 0.  0.
         23    2    1    2    0    0  0.52751700515E+02  0.11863096320E+02  0.42329580157E+02  0.14269612591E+03  0.12508763341E+03 0.  0.
          5    1    4    4  502    0  0.82015220280E+02 -0.26226750879E+02  0.38238943925E+02  0.94308154747E+02  0.41800000000E+01 0. -1.
         -5    1    4    4    0  502 -0.29263519765E+02  0.38089847199E+02  0.40906362325E+01  0.48387971165E+02  0.41800000000E+01 0. -1.
        -11    1    3    3    0    0 -0.47615944430E+02 -0.23840083213E+02 -0.12955125909E+03  0.14006839923E+03  0.00000000000E+00 0.  1.
         11    1    3    3    0    0 -0.51357560855E+01  0.11976986893E+02  0.12942318788E+02  0.18366486360E+02  0.00000000000E+00 0. -1.
</event>
<event>
 8    1  0.9181008E-006  0.7470693E+02  0.7561462E-02  0.1344781E+00
          2   -1    0    0  501    0  0.00000000000E+00  0.00000000000E+00  0.25003654154E+03  0.25003654154E+03  0.00000000000E+00 0. -1.
         -2   -1    0    0    0  501 -0.00000000000E+00 -0.00000000000E+00 -0.61204429500E+02  0.61204429500E+02  0.00000000000E+00 0.  1.
         23    2    1    2    0    0 -0.42623485978E+02  0.14319654033E+02  0.36101597238E+02  0.10875276731E+03  0.92206426163E+02 0.  0.
         23    2    1    2    0    0  0.42623485978E+02 -0.14319654033E+02  0.15273051480E+03  0.20248820373E+03  0.12511214349E+03 0.  0.
          5    1    4    4  502    0  0.57753753639E+02 -0.33242904580E+02  0.23260480269E+02  0.70704378270E+02  0.41800000000E+01 0.  1.
         -5    1    4    4    0  502 -0.15130267661E+02  0.18923250547E+02  0.12947003453E+03  0.13178382546E+03  0.41800000000E+01 0.  1.
        -11    1    3    3    0    0 -0.31014356002E+02 -0.87567331806E+01  0.63430324363E+02  0.71147569903E+02  0.00000000000E+00 0. -1.
         11    1    3    3    0    0 -0.11609129976E+02  0.23076387214E+02 -0.27328727126E+02  0.37605197406E+02  0.00000000000E+00 0.  1.
</event>
<event>
 8    1  0.9181008E-006  0.8228403E+02  0.7561462E-02  0.1322692E+00
          2   -1    0    0  501    0  0.00000000000E+00  0.00000000000E+00  0.20793746717E+03  0.20793746717E+03  0.00000000000E+00 0. -1.
         -2   -1    0    0    0  501 -0.00000000000E+00 -0.00000000000E+00 -0.82680643215E+02  0.82680643215E+02  0.00000000000E+00 0.  1.
         23    2    1    2    0    0 -0.13372904500E+02  0.18046719125E+02 -0.24641649346E+02  0.94094225739E+02  0.87988600335E+02 0.  0.
         23    2    1    2    0    0  0.13372904500E+02 -0.18046719125E+02  0.14989847330E+03  0.19652388465E+03  0.12509023260E+03 0.  0.
          5    1    4    4  502    0  0.48964386944E+02  0.97202418769E+01  0.12205876173E+02  0.51560160047E+02  0.41800000000E+01 0.  1.
         -5    1    4    4    0  502 -0.35591482444E+02 -0.27766961002E+02  0.13769259713E+03  0.14496372460E+03  0.41800000000E+01 0.  1.
        -11    1    3    3    0    0 -0.40008120209E+02  0.12669508052E+02 -0.43943843374E+02  0.60763702054E+02  0.00000000000E+00 0.  1.
         11    1    3    3    0    0  0.26635215709E+02  0.53772110726E+01  0.19302194028E+02  0.33330523684E+02  0.00000000000E+00 0. -1.
</event>
<event>
 7    1  0.9181008E-006  0.1499725E+03  0.7561462E-02  0.1200507E+00
          1   -1    0    0  501    0  0.00000000000E+00  0.00000000000E+00  0.90203884212E+02  0.90203884212E+02  0.00000000000E+00 0. -1.
         -1   -1    0    0    0  501 -0.00000000000E+00 -0.00000000000E+00 -0.44757578162E+03  0.44757578162E+03  0.00000000000E+00 0.  1.
         23    2    1    2    0    0  0.11003452642E+02 -0.84824505467E+02 -0.15693439748E+03  0.20153346738E+03  0.93118530199E+02 0.  0.
          5    1    1    2  502    0  0.49664422190E+02 -0.22543545943E+02  0.38797616173E+02  0.67063355984E+02  0.41800000000E+01 0. -1.
         -5    1    1    2    0  502 -0.60667874832E+02  0.10736805141E+03 -0.23923511610E+03  0.26918284246E+03  0.41800000000E+01 0.  1.
        -11    1    3    3    0    0 -0.28092596883E+02  0.38973861306E+00 -0.62193774012E+02  0.68245230029E+02  0.00000000000E+00 0.  1.
         11    1    3    3    0    0  0.39096049525E+02 -0.85214244080E+02 -0.94740623466E+02  0.13328823736E+03  0.00000000000E+00 0. -1.
</event>
<event>
 6    1  0.9181008E-006  0.3468647E+03  0.7561462E-02  0.1063909E+00
         -2   -1    0    0    0  501 -0.00000000000E+00  0.00000000000E+00  0.13497145180E+03  0.13497145180E+03  0.00000000000E+00 0.  1.
          2   -1    0    0  501    0  0.00000000000E+00 -0.00000000000E+00 -0.23663325253E+04  0.23663325253E+04  0.00000000000E+00 0. -1.
          5    1    1    2  502    0 -0.56577760995E+02  0.30383017723E+03 -0.20404009929E+04  0.20636781493E+04  0.41800000000E+01 0. -1.
         -5    1    1    2    0  502  0.66785440752E+02 -0.33653070219E+03 -0.19120309456E+03  0.39279677237E+03  0.41800000000E+01 0.  1.
        -11    1    1    2    0    0 -0.17765168389E+02  0.25591664960E+02 -0.73050812209E+01  0.31998417694E+02  0.00000000000E+00 0.  1.
         11    1    1    2    0    0  0.75574886317E+01  0.71088599986E+01  0.75480951572E+01  0.12830637763E+02  0.00000000000E+00 0. -1.
</event>
<event>
 8    1  0.9181008E-006  0.1242309E+03  0.7561462E-02  0.1236276E+00
          2   -1    0    0  501    0  0.00000000000E+00  0.00000000000E+00  0.66160907258E+03  0.66160907258E+03  0.00000000000E+00 0.  1.
         -2   -1    0    0    0  501 -0.00000000000E+00 -0.00000000000E+00 -0.23786650569E+02  0.23786650569E+02  0.00000000000E+00 0. -1.
         23    2    1    2    0    0 -0.28580447172E+02 -0.53500834495E+02  0.24133229777E+03  0.26523663158E+03  0.91815094268E+02 0.  0.
         23    2    1    2    0    0  0.28580447172E+02  0.53500834495E+02  0.39649012424E+03  0.42015909157E+03  0.12510020924E+03 0.  0.
          5    1    4    4  502    0  0.76739299697E+02  0.45918215467E+02  0.27411163935E+03  0.28836099919E+03  0.41800000000E+01 0.  1.
         -5    1    4    4    0  502 -0.48158852525E+02  0.75826190282E+01  0.12237848490E+03  0.13179809238E+03  0.41800000000E+01 0.  1.
        -11    1    3    3    0    0 -0.62088569740E+02 -0.29197599916E+02  0.14717451885E+03  0.16238173953E+03  0.00000000000E+00 0.  1.
         11    1    3    3    0    0  0.33508122568E+02 -0.24303234579E+02  0.94157778919E+02  0.10285489206E+03  0.00000000000E+00 0. -1.
</event>
<event>
 8    1  0.9181008E-006  0.9248257E+02  0.7561462E-02  0.1296949E+00
         -2   -1    0    0    0  501 -0.00000000000E+00  0.00000000000E+00  0.37146887509E+02  0.37146887509E+02  0.00000000000E+00 0.  1.
          2   -1    0    0  501    0  0.00000000000E+00 -0.00000000000E+00 -0.37115413550E+03  0.37115413550E+03  0.00000000000E+00 0. -1.
         23    2    1    2    0    0  0.30218986771E+02  0.23155751809E+02 -0.10031222087E+03  0.14051098833E+03  0.90727174431E+02 0.  0.
         23    2    1    2    0    0 -0.30218986771E+02 -0.23155751809E+02 -0.23369502712E+03  0.26779003469E+03  0.12509500779E+03 0.  0.
          5    1    4    4  502    0  0.83749732150E+01 -0.60952339682E+02 -0.60779862741E+02  0.86585171963E+02  0.41800000000E+01 0.  1.
         -5    1    4    4    0  502 -0.38593959986E+02  0.37796587873E+02 -0.17291516438E+03  0.18120486272E+03  0.41800000000E+01 0.  1.
        -11    1    3    3    0    0  0.78549148636E+01  0.40224387262E+02 -0.10433079661E+03  0.11209199856E+03  0.00000000000E+00 0. -1.
         11    1    3    3    0    0  0.22364071908E+02 -0.17068635453E+02  0.40185757408E+01  0.28418989769E+02  0.00000000000E+00 0.  1.
</event>
<event>
 8    1  0.9181008E-006  0.1615106E+03  0.7561462E-02  0.1187002E+00
         -2   -1    0    0    0  501 -0.00000000000E+00  0.00000000000E+00  0.23199711703E+02  0.23199711703E+02  0.00000000000E+00 0.  1.
          2   -1    0    0  501    0  0.00000000000E+00 -0.00000000000E+00 -0.16839306114E+04  0.16839306114E+04  0.00000000000E+00 0. -1.
         23    2    1    2    0    0  0.46948971745E+01  0.12612620888E+03 -0.33859486996E+03  0.37310602050E+03  0.92907233006E+02 0.  0.
         23    2    1    2    0    0 -0.46948971745E+01 -0.12612620888E+03 -0.13221360297E+04  0.13340243026E+04  0.12508915294E+03 0.  0.
          5    1    4    4  502    0 -0.49840094272E+02 -0.10845042052E+03 -0.71161137171E+03  0.72156340362E+03  0.41800000000E+01 0. -1.
         -5    1    4    4    0  502  0.45145197098E+02 -0.17675788355E+02 -0.61052465801E+03  0.61246089895E+03  0.41800000000E+01 0. -1.
        -11    1    3    3    0    0 -0.41598589118E+02  0.43291297005E+02 -0.15948761448E+03  0.17041384388E+03  0.00000000000E+00 0. -1.
         11    1    3    3    0    0  0.46293486292E+02  0.82834911871E+02 -0.17910725548E+03  0.20269217662E+03  0.00000000000E+00 0.  1.
</event>
<event>
 8    1  0.9181008E-006  0.1061781E+03  0.7561462E-02  0.1267816E+00
          2   -1    0    0  501    0  0.00000000000E+00  0.00000000000E+00  0.30563536205E+03  0.30563536205E+03  0.00000000000E+00 0. -1.
         -2   -1    0    0    0  501 -0.00000000000E+00 -0.00000000000E+00 -0.55202320101E+02  0.55202320101E+02  0.00000000000E+00 0.  1.
         23    2    1    2    0    0 -0.22400089735E+02  0.47256343562E+02  0.44694486557E+02  0.11444287209E+03  0.91458448577E+02 0.  0.
         23    2    1    2    0    0  0.22400089735E+02 -0.47256343562E+02  0.20573855539E+03  0.24639481007E+03  0.12508846160E+03 0.  0.
          5    1    4    4  502    0  0.17760339970E+02  0.29506479838E+02  0.10084149413E+02  0.36127890856E+02  0.41800000000E+01 0.  1.
         -5    1    4    4    0  502  0.46397497649E+01 -0.76762823400E+02  0.19565440598E+03  0.21026691921E+03  0.41800000000E+01 0.  1.
        -11    1    3    3    0    0  0.30980223212E+02  0.33280393338E+02  0.35391120991E+01  0.45605746627E+02  0.00000000000E+00 0.  1.
         11    1    3    3    0    0 -0.53380312947E+02  0.13975950224E+02  0.41155374458E+02  0.68837125461E+02  0.00000000000E+00 0. -1.
</event>
<event>
 8    1  0.9181008E-006  0.1211200E+03  0.7561462E-02  0.1241261E+00
         -1   -1    0    0    0  501 -0.00000000000E+00  0.00000000000E+00  0.24127963975E+02  0.24127963975E+02  0.00000000000E+00 0.  1.
          1   -1    0    0  501    0  0.00000000000E+00 -0.00000000000E+00 -0.10221862190E+04  0.10221862190E+04  0.00000000000E+00 0. -1.
         23    2    1    2    0    0  0.41612340334E+02 -0.87622529339E+02 -0.27536429276E+03  0.30648783536E+03  0.93273817215E+02 0.  0.
         23    2    1    2    0    0 -0.41612340334E+02  0.87622529339E+02 -0.72269396226E+03  0.73982634762E+03  0.12508863666E+03 0.  0.
          5    1    4    4  502    0 -0.53433077968E+02  0.20283040564E+02 -0.11709147781E+03  0.13036250278E+03  0.41800000000E+01 0.  1.
         -5    1    4    4    0  502  0.11820737634E+02  0.67339488774E+02 -0.60560248445E+03  0.60946384484E+03  0.41800000000E+01 0.  1.
        -11    1    3    3    0    0  0.51407545321E+02 -0.33326798677E+02 -0.66327112299E+02  0.90292286779E+02  0.00000000000E+00 0.  1.
         11    1    3    3    0    0 -0.97952049867E+01 -0.54295730662E+02 -0.20903718046E+03  0.21619554858E+03  0.00000000000E+00 0. -1.
</event>
<event>
 8    1  0.9181008E-006  0.1320414E+03  0.7561462E-02  0.1224458E+00
         -4   -1    0    0    0  501 -0.00000000000E+00  0.00000000000E+00  0.24347801981E+02  0.24347801981E+02  0.00000000000E+00 0.  1.
          4   -1    0    0  501    0  0.00000000000E+00 -0.00000000000E+00 -0.75580801303E+03  0.75580801303E+03  0.00000000000E+00 0. -1.
         23    2    1    2    0    0  0.82608456116E+02  0.14323152358E+02 -0.34619227120E+03  0.36797723789E+03  0.92351769080E+02 0.  0.
         23    2    1    2    0    0 -0.82608456116E+02 -0.14323152358E+02 -0.38526793985E+03  0.41217857712E+03  0.12012695054E+03 0.  0.
          5    1    4    4  502    0  0.43218288538E+01  0.37823901951E+02 -0.16913482023E+03  0.17341679728E+03  0.41800000000E+01 0. -1.
         -5    1    4    4    0  502 -0.86930284970E+02 -0.52147054308E+02 -0.21613311962E+03  0.23876177985E+03  0.41800000000E+01 0.  1.
        -11    1    3    3    0    0  0.26464903402E+02 -0.38844501075E+02 -0.14554383744E+03  0.15294539873E+03  0.00000000000E+00 0.  1.
         11    1    3    3    0    0  0.56143552714E+02  0.53167653433E+02 -0.20064843376E+03  0.21503183916E+03  0.00000000000E+00 0. -1.
</event>
<event>
 8    1  0.9181008E-006  0.8222989E+02  0.7561462E-02  0.1322840E+00
         -2   -1    0    0    0  501 -0.00000000000E+00  0.00000000000E+00  0.35751382568E+03  0.35751382568E+03  0.00000000000E+00 0.  1.
          2   -1    0    0  501    0  0.00000000000E+00 -0.00000000000E+00 -0.42485915636E+02  0.42485915636E+02  0.00000000000E+00 0. -1.
         23    2    1    2    0    0  0.38604794913E+02 -0.44010869777E+02  0.14820119837E+03  0.18342269865E+03  0.90846047413E+02 0.  0.
         23    2    1    2    0    0 -0.38604794913E+02  0.44010869777E+02  0.16682671167E+03  0.21657704267E+03  0.12508867589E+03 0.  0.
          5    1    4    4  502    0 -0.16465527846E+02 -0.22107498839E+02 -0.74197038683E+01  0.28850988157E+02  0.41800000000E+01 0. -1.
         -5    1    4    4    0  502 -0.22139267068E+02  0.66118368616E+02  0.17424641554E+03  0.18772605451E+03  0.41800000000E+01 0. -1.
        -11    1    3    3    0    0  0.26784738075E+02 -0.67294334452E+01 -0.24991511610E+01  0.27730005856E+02  0.00000000000E+00 0. -1.
         11    1    3    3    0    0  0.11820056839E+02 -0.37281436331E+02  0.15070034953E+03  0.15569269279E+03  0.00000000000E+00 0.  1.
</event>
<event>
 8    1  0.9181008E-006  0.8758043E+02  0.7561462E-02  0.1308819E+00
          1   -1    0    0  501    0  0.00000000000E+00  0.00000000000E+00  0.33472026270E+03  0.33472026270E+03  0.00000000000E+00 0. -1.
         -1   -1    0    0    0  501 -0.00000000000E+00 -0.00000000000E+00 -0.47104609829E+02  0.47104609829E+02  0.00000000000E+00 0.  1.
         23    2    1    2    0    0  0.29237711910E+02 -0.44554920285E+02  0.52679046224E+02  0.11681798283E+03  0.89617936167E+02 0.  0.
         23    2    1    2    0    0 -0.29237711910E+02  0.44554920285E+02  0.23493660665E+03  0.26500688970E+03  0.11042399071E+03 0.  0.
          5    1    4    4  502    0 -0.65010418497E+02  0.48320430785E+02  0.19445119011E+03  0.21068924102E+03  0.41800000000E+01 0. -1.
         -5    1    4    4    0  502  0.35772706588E+02 -0.37655104997E+01  0.40485416535E+02  0.54317648678E+02  0.41800000000E+01 0.  1.
        -11    1    3    3    0    0  0.67313995803E+01 -0.30657960811E+02 -0.21512165482E+02  0.38052536908E+02  0.00000000000E+00 0.  1.
         11    1    3    3    0    0  0.22506312329E+02 -0.13896959474E+02  0.74191211707E+02  0.78765445925E+02  0.00000000000E+00 0. -1.
</event>
<event>
 8    1  0.9181008E-006  0.1081362E+03  0.7561462E-02  0.1264061E+00
         -1   -1    0    0    0  501 -0.00000000000E+00  0.00000000000E+00  0.36151940973E+02  0.36151940973E+02  0.00000000000E+00 0.  1.
          1   -1    0    0  501    0  0.00000000000E+00 -0.00000000000E+00 -0.61552839030E+03  0.61552839030E+03  0.00000000000E+00 0. -1.
         23    2    1    2    0    0 -0.42074447546E+02  0.33068431018E+02 -0.75666117908E+02  0.13040035327E+03  0.91733911221E+02 0.  0.
         23    2    1    2    0    0  0.42074447546E+02 -0.33068431018E+02 -0.50371033142E+03  0.52127997800E+03  0.12306476839E+03 0.  0.
          5    1    4    4  502    0 -0.20657491301E+02 -0.53936452274E+02 -0.33613055673E+03  0.34108224287E+03  0.41800000000E+01 0. -1.
         -5    1    4    4    0  502  0.62731938847E+02  0.20868021256E+02 -0.16757977468E+03  0.18019773513E+03  0.41800000000E+01 0.  1.
        -11    1    3    3    0    0 -0.13000339017E+02  0.54482131370E+02 -0.12114448932E+02  0.57306817449E+02  0.00000000000E+00 0.  1.
         11    1    3    3    0    0 -0.29074108529E+02 -0.21413700352E+02 -0.63551668976E+02  0.73093535823E+02  0.00000000000E+00 0. -1.
</event>
<event>
 8    1  0.1122480E-005  0.1190025E+03  0.7561462E-02  0.1244752E+00
         -1   -1    0    0    0  501 -0.00000000000E+00  0.00000000000E+00  0.19394005240E+02  0.19394005240E+02  0.00000000000E+00 0.  1.
          1   -1    0    0  501    0  0.00000000000E+00 -0.00000000000E+00 -0.99449591116E+03  0.99449591116E+03  0.00000000000E+00 0. -1.
         23    2    1    2    0    0  0.25434150163E+02  0.87648723179E+02 -0.30612770126E+03  0.32722910951E+03  0.70961439948E+02 0.  0.
         23    2    1    2    0    0 -0.25434150163E+02 -0.87648723179E+02 -0.66897420465E+03  0.68666080689E+03  0.12508949818E+03 0.  0.
          5    1    4    4  502    0  0.13269984866E+02  0.14799489111E+02 -0.20028965758E+02  0.28526290429E+02  0.41800000000E+01 0. -1.
         -5    1    4    4    0  502 -0.38704135029E+02 -0.10244821229E+03 -0.64894523889E+03  0.65813451646E+03  0.41800000000E+01 0. -1.
        -11    1    3    3    0    0  0.44237878836E+02  0.57202780006E+02 -0.14325480102E+03  0.16047144911E+03  0.00000000000E+00 0.  1.
         11    1    3    3    0    0 -0.18803728672E+02  0.30445943173E+02 -0.16287290025E+03  0.16675766040E+03  0.00000000000E+00 0. -1.
</event>
<event>
 8    1  0.9181008E-006  0.1024309E+03  0.7561462E-02  0.1275265E+00
         -2   -1    0    0    0  501 -0.00000000000E+00  0.00000000000E+00  0.26432274205E+02  0.26432274205E+02  0.00000000000E+00 0.  1.
          2   -1    0    0  501    0  0.00000000000E+00 -0.00000000000E+00 -0.51165382892E+03  0.51165382892E+03  0.00000000000E+00 0. -1.
         23    2    1    2    0    0  0.20652253851E+02  0.18526688941E+02 -0.12459694163E+03  0.15537806142E+03  0.88590012495E+02 0.  0.
         23    2    1    2    0    0 -0.20652253851E+02 -0.18526688941E+02 -0.36062461308E+03  0.38270804170E+03  0.12508229225E+03 0.  0.
          5    1    4    4  502    0  0.34726380240E+02  0.30619797428E+02 -0.80748222771E+02  0.93173179402E+02  0.41800000000E+01 0. -1.
         -5    1    4    4    0  502 -0.55378634091E+02 -0.49146486369E+02 -0.27987639030E+03  0.28953486230E+03  0.41800000000E+01 0. -1.
        -11    1    3    3    0    0  0.40653739103E+02  0.38470452177E+02 -0.47981908189E+02  0.73722219901E+02  0.00000000000E+00 0.  1.
         11    1    3    3    0    0 -0.20001485252E+02 -0.19943763236E+02 -0.76615033446E+02  0.81655841519E+02  0.00000000000E+00 0. -1.
</event>
<event>
 8    1  0.9181008E-006  0.2232273E+03  0.7561462E-02  0.1131500E+00
         -2   -1    0    0    0  501 -0.00000000000E+00  0.00000000000E+00  0.43734323183E+02  0.43734323183E+02  0.00000000000E+00 0.  1.
          2   -1    0    0  501    0  0.00000000000E+00 -0.00000000000E+00 -0.14375910658E+04  0.14375910658E+04  0.00000000000E+00 0. -1.
         23    2    1    2    0    0 -0.20679894053E+03  0.48912024523E+02 -0.45267566482E+03  0.50837633286E+03  0.91504373367E+02 0.  0.
         23    2    1    2    0    0  0.20679894053E+03 -0.48912024523E+02 -0.94118107777E+03  0.97294905610E+03  0.12509938713E+03 0.  0.
          5    1    4    4  502    0  0.12828251942E+03 -0.11768613610E+02 -0.30882760728E+03  0.33464439107E+03  0.41800000000E+01 0.  1.
         -5    1    4    4    0  502  0.78516421113E+02 -0.37143410913E+02 -0.63235347049E+03  0.63830466503E+03  0.41800000000E+01 0.  1.
        -11    1    3    3    0    0 -0.11202784577E+03 -0.19513543028E+02 -0.20262833073E+03  0.23235588438E+03  0.00000000000E+00 0.  1.
         11    1    3    3    0    0 -0.94771094761E+02  0.68425567551E+02 -0.25004733408E+03  0.27602044848E+03  0.00000000000E+00 0. -1.
</event>
<event>
 8    1  0.9181008E-006  0.6868446E+02  0.7561462E-02  0.1364625E+00
         -1   -1    0    0    0  501 -0.00000000000E+00  0.00000000000E+00  0.37539224408E+02  0.37539224408E+02  0.00000000000E+00 0.  1.
          1   -1    0    0  501    0  0.00000000000E+00 -0.00000000000E+00 -0.44046912306E+03  0.44046912306E+03  0.00000000000E+00 0. -1.
         23    2    1    2    0    0  0.11901568344E+02  0.15198992878E+02 -0.58999603669E+02  0.11152837863E+03  0.92655109376E+02 0.  0.
         23    2    1    2    0    0 -0.11901568344E+02 -0.15198992878E+02 -0.34393029499E+03  0.36647996884E+03  0.12508742159E+03 0.  0.
          5    1    4    4  502    0 -0.45378575926E+02 -0.36387812720E+02 -0.30588004584E+03  0.31138940719E+03  0.41800000000E+01 0. -1.
         -5    1    4    4    0  502  0.33477007582E+02  0.21188819842E+02 -0.38050249150E+02  0.55090561654E+02  0.41800000000E+01 0. -1.
        -11    1    3    3    0    0 -0.38637411430E+01  0.21787328986E+02  0.20529763742E+02  0.30184224344E+02  0.00000000000E+00 0.  1.
         11    1    3    3    0    0  0.15765309487E+02 -0.65883361078E+01 -0.79529367411E+02  0.81344154287E+02  0.00000000000E+00 0. -1.
</event>
<event>
 8    1  0.9181008E-006  0.1054966E+03  0.7561462E-02  0.1269144E+00
          3   -1    0    0  501    0  0.00000000000E+00  0.00000000000E+00  0.26290179486E+02  0.26290179486E+02  0.00000000000E+00 0. -1.
         -3   -1    0    0    0  501 -0.00000000000E+00 -0.00000000000E+00 -0.49659683107E+03  0.49659683107E+03  0.00000000000E+00 0.  1.
         23    2    1    2    0    0 -0.37222246002E+02 -0.88365779568E+01 -0.23175072238E+03  0.25082042829E+03  0.87971070321E+02 0.  0.
         23    2    1    2    0    0  0.37222246002E+02  0.88365779568E+01 -0.23855592920E+03  0.27206658227E+03  0.12509081950E+03 0.  0.
          5    1    4    4  502    0 -0.26351556005E+02 -0.32808552886E+02 -0.14721966037E+03  0.15317279930E+03  0.41800000000E+01 0. -1.
         -5    1    4    4    0  502  0.63573802007E+02  0.41645130843E+02 -0.91336268830E+02  0.11889378297E+03  0.41800000000E+01 0. -1.
        -11    1    3    3    0    0  0.92127129962E+01 -0.37102551508E+02 -0.12939906171E+03  0.13492809411E+03  0.00000000000E+00 0. -1.
         11    1    3    3    0    0 -0.46434958998E+02  0.28265973551E+02 -0.10235166067E+03  0.11589233417E+03  0.00000000000E+00 0.  1.
</event>
<event>
 8    1  0.9181008E-006  0.1277970E+03  0.7561462E-02  0.1230762E+00
          1   -1    0    0  501    0  0.00000000000E+00  0.00000000000E+00  0.52841046956E+03  0.52841046956E+03  0.00000000000E+00 0. -1.
         -1   -1    0    0    0  501 -0.00000000000E+00 -0.00000000000E+00 -0.33490315978E+02  0.33490315978E+02  0.00000000000E+00 0.  1.
         23    2    1    2    0    0 -0.60307459935E+01 -0.76787786717E+02  0.23252617843E+03  0.26118408424E+03  0.90641977701E+02 0.  0.
         23    2    1    2    0    0  0.60307459935E+01  0.76787786717E+02  0.26239397516E+03  0.30071670130E+03  0.12508877709E+03 0.  0.
          5    1    4    4  502    0  0.33196718996E+02 -0.18287055072E+02  0.31332253482E+02  0.49352011545E+02  0.41800000000E+01 0. -1.
         -5    1    4    4    0  502 -0.27165973002E+02  0.95074841789E+02  0.23106172168E+03  0.25136468975E+03  0.41800000000E+01 0. -1.
        -11    1    3    3    0    0 -0.39422786113E+02 -0.55388484140E+01  0.67652814425E+02  0.78496740100E+02  0.00000000000E+00 0.  1.
         11    1    3    3    0    0  0.33392040119E+02 -0.71248938303E+02  0.16487336400E+03  0.18268734414E+03  0.00000000000E+00 0. -1.
</event>
<event>
 8    1  0.9181008E-006  0.6657384E+02  0.7561462E-02  0.1372147E+00
         -2   -1    0    0    0  501 -0.00000000000E+00  0.00000000000E+00  0.13350950437E+03  0.13350950437E+03  0.00000000000E+00 0.  1.
          2   -1    0    0  501    0  0.00000000000E+00 -0.00000000000E+00 -0.11237459486E+03  0.11237459486E+03  0.00000000000E+00 0. -1.
         23    2    1    2    0    0 -0.48910500985E+02 -0.11063692756E+02  0.37257188675E+02  0.11015980314E+03  0.90732803969E+02 0.  0.
         23    2    1    2    0    0  0.48910500985E+02  0.11063692756E+02 -0.16122279168E+02  0.13572429609E+03  0.12508602743E+03 0.  0.
          5    1    4    4  502    0  0.38504522390E+02  0.14311557322E+02  0.52118321990E+02  0.66492186041E+02  0.41800000000E+01 0.  1.
         -5    1    4    4    0  502  0.10405978596E+02 -0.32478645663E+01 -0.68240601159E+02  0.69232110045E+02  0.41800000000E+01 0.  1.
        -11    1    3    3    0    0 -0.50443809474E+02  0.16118902950E+02  0.56024944679E+02  0.77092096695E+02  0.00000000000E+00 0. -1.
         11    1    3    3    0    0  0.15333084883E+01 -0.27182595706E+02 -0.18767756004E+02  0.33067706447E+02  0.00000000000E+00 0.  1.
</event>
<event>
 8    1  0.9181008E-006  0.1233990E+03  0.7561462E-02  0.1237593E+00
          1   -1    0    0  501    0  0.00000000000E+00  0.00000000000E+00  0.98621132244E+02  0.98621132244E+02  0.00000000000E+00 0. -1.
         -1   -1    0    0    0  501 -0.00000000000E+00 -0.00000000000E+00 -0.29614227802E+03  0.29614227802E+03  0.00000000000E+00 0.  1.
         23    2    1    2    0    0  0.53326220060E+02 -0.10312955819E+03 -0.16542809809E+03  0.22110760903E+03  0.89681255642E+02 0.  0.
         23    2    1    2    0    0 -0.53326220060E+02  0.10312955819E+03 -0.32093047686E+02  0.17365580124E+03  0.12508789740E+03 0.  0.
          5    1    4    4  502    0 -0.49243070759E+02  0.31363010452E+02  0.40681086164E+02  0.71280723999E+02  0.41800000000E+01 0. -1.
         -5    1    4    4    0  502 -0.40831493010E+01  0.71766547737E+02 -0.72774133849E+02  0.10237507724E+03  0.41800000000E+01 0. -1.
        -11    1    3    3    0    0  0.45235407987E+02 -0.82229294208E+02 -0.17352469310E+03  0.19727827574E+03  0.00000000000E+00 0.  1.
         11    1    3    3    0    0  0.80908120736E+01 -0.20900263982E+02  0.80965950070E+01  0.23829333294E+02  0.00000000000E+00 0. -1.
</event>
<event>
 8    1  0.9181008E-006  0.1292634E+03  0.7561462E-02  0.1228553E+00
          2   -1    0    0  501    0  0.00000000000E+00  0.00000000000E+00  0.11553642267E+04  0.11553642267E+04  0.00000000000E+00 0. -1.
         -2   -1    0    0    0  501 -0.00000000000E+00 -0.00000000000E+00 -0.18496026537E+02  0.18496026537E+02  0.00000000000E+00 0.  1.
         23    2    1    2    0    0 -0.83849642862E+02  0.72997748526E+01  0.32475865305E+03  0.34787393693E+03  0.92000238836E+02 0.  0.
         23    2    1    2    0    0  0.83849642862E+02 -0.72997748526E+01  0.81210954708E+03  0.82598631627E+03  0.12508968337E+03 0.  0.
          5    1    4    4  502    0  0.98199558128E+02  0.33100013737E+02  0.65137079898E+03  0.65957573810E+03  0.41800000000E+01 0. -1.
         -5    1    4    4    0  502 -0.14349915265E+02 -0.40399788589E+02  0.16073874810E+03  0.16641057817E+03  0.41800000000E+01 0. -1.
        -11    1    3    3    0    0 -0.11406118590E+02  0.32965434518E+02  0.18609029913E+03  0.18933150516E+03  0.00000000000E+00 0. -1.
         11    1    3    3    0    0 -0.72443524272E+02 -0.25665659665E+02  0.13866835391E+03  0.15854243177E+03  0.00000000000E+00 0.  1.
</event>
<event>
 8    1  0.9181008E-006  0.1219602E+03  0.7561462E-02  0.1239898E+00
         -2   -1    0    0    0  501 -0.00000000000E+00  0.00000000000E+00  0.33688933404E+02  0.33688933404E+02  0.00000000000E+00 0.  1.
          2   -1    0    0  501    0  0.00000000000E+00 -0.00000000000E+00 -0.77941096644E+03  0.77941096644E+03  0.00000000000E+00 0. -1.
         23    2    1    2    0    0  0.94186235263E+02  0.53476094134E+02 -0.18589496233E+03  0.22933120863E+03  0.79404827781E+02 0.  0.
         23    2    1    2    0    0 -0.94186235263E+02 -0.53476094134E+02 -0.55982707071E+03  0.58376869122E+03  0.12509514855E+03 0.  0.
          5    1    4    4  502    0 -0.58399965976E+02 -0.19940031026E+02 -0.78538326601E+02  0.99969505394E+02  0.41800000000E+01 0. -1.
         -5    1    4    4    0  502 -0.35786269286E+02 -0.33536063108E+02 -0.48128874411E+03  0.48379918582E+03  0.41800000000E+01 0. -1.
        -11    1    3    3    0    0  0.36691872973E+02 -0.18202446903E+02 -0.42526525323E+02  0.59043441393E+02  0.00000000000E+00 0.  1.
         11    1    3    3    0    0  0.57494362289E+02  0.71678541037E+02 -0.14336843701E+03  0.17028776724E+03  0.00000000000E+00 0. -1.
</event>
<event>
 8    1  0.9181008E-006  0.1215872E+03  0.7561462E-02  0.1240501E+00
          1   -1    0    0  501    0  0.00000000000E+00  0.00000000000E+00  0.10418351209E+03  0.10418351209E+03  0.00000000000E+00 0. -1.
         -1   -1    0    0    0  501 -0.00000000000E+00 -0.00000000000E+00 -0.15729244773E+03  0.15729244773E+03  0.00000000000E+00 0.  1.
         23    2    1    2    0    0  0.55951582627E+01  0.57449536997E+02 -0.60629222940E+02  0.12350495649E+03  0.90806478329E+02 0.  0.
         23    2    1    2    0    0 -0.55951582627E+01 -0.57449536997E+02  0.75202873004E+01  0.13797100332E+03  0.12509071884E+03 0.  0.
          5    1    4    4  502    0 -0.16901287422E+02 -0.94780754053E+02 -0.58030858804E+01  0.96541146984E+02  0.41800000000E+01 0. -1.
         -5    1    4    4    0  502  0.11306129159E+02  0.37331217056E+02  0.13323373181E+02  0.41429856340E+02  0.41800000000E+01 0. -1.
        -11    1    3    3    0    0 -0.22463776767E+02  0.72386297534E+02 -0.43806365876E+02  0.87540819213E+02  0.00000000000E+00 0.  1.
         11    1    3    3    0    0  0.28058935030E+02 -0.14936760537E+02 -0.16822857064E+02  0.35964137278E+02  0.00000000000E+00 0. -1.
</event>
<event>
 8    1  0.9181008E-006  0.8836035E+02  0.7561462E-02  0.1306872E+00
         -2   -1    0    0    0  501 -0.00000000000E+00  0.00000000000E+00  0.37887265436E+02  0.37887265436E+02  0.00000000000E+00 0.  1.
          2   -1    0    0  501    0  0.00000000000E+00 -0.00000000000E+00 -0.31441512619E+03  0.31441512619E+03  0.00000000000E+00 0. -1.
         23    2    1    2    0    0 -0.11651245330E+02 -0.20241083743E+02 -0.10003400073E+03  0.13471915449E+03  0.87160749739E+02 0.  0.
         23    2    1    2    0    0  0.11651245330E+02  0.20241083743E+02 -0.17649386003E+03  0.21758323714E+03  0.12508768712E+03 0.  0.
          5    1    4    4  502    0  0.61704826222E+02  0.18633671872E+02 -0.50670599579E+02  0.82095562415E+02  0.41800000000E+01 0. -1.
         -5    1    4    4    0  502 -0.50053580892E+02  0.16074118708E+01 -0.12582326045E+03  0.13548767473E+03  0.41800000000E+01 0. -1.
        -11    1    3    3    0    0  0.19912151602E+02  0.60339236349E+01  0.54619668412E+01  0.21511278382E+02  0.00000000000E+00 0.  1.
         11    1    3    3    0    0 -0.31563396931E+02 -0.26275007377E+02 -0.10549596757E+03  0.11320787611E+03  0.00000000000E+00 0. -1.
</event>
<event>
 8    1  0.9181008E-006  0.1660651E+03  0.7561462E-02  0.1182015E+00
         -1   -1    0    0    0  501 -0.00000000000E+00  0.00000000000E+00  0.75207492850E+02  0.75207492850E+02  0.00000000000E+00 0.  1.
          1   -1    0    0  501    0  0.00000000000E+00 -0.00000000000E+00 -0.49437763015E+03  0.49437763015E+03  0.00000000000E+00 0. -1.
         23    2    1    2    0    0 -0.14050779151E+03 -0.26356524767E+02 -0.97178946688E+02  0.19573527511E+03  0.91822896774E+02 0.  0.
         23    2    1    2    0    0  0.14050779151E+03  0.26356524767E+02 -0.32199119061E+03  0.37384984789E+03  0.12509306961E+03 0.  0.
          5    1    4    4  502    0  0.13034371122E+03 -0.28224430701E+02 -0.21043246432E+03  0.24916941222E+03  0.41800000000E+01 0. -1.
         -5    1    4    4    0  502  0.10164080281E+02  0.54580955468E+02 -0.11155872629E+03  0.12468043567E+03  0.41800000000E+01 0. -1.
        -11    1    3    3    0    0 -0.91662072208E+02 -0.15096432697E+02 -0.11001603907E+03  0.14399085601E+03  0.00000000000E+00 0. -1.
         11    1    3    3    0    0 -0.48845719298E+02 -0.11260092070E+02  0.12837092384E+02  0.51744419100E+02  0.00000000000E+00 0.  1.
</event>
<event>
 8    1  0.9181008E-006  0.7593573E+02  0.7561462E-02  0.1340998E+00
         -2   -1    0    0    0  501 -0.00000000000E+00  0.00000000000E+00  0.55223654775E+02  0.55223654775E+02  0.00000000000E+00 0.  1.
          2   -1    0    0  501    0  0.00000000000E+00 -0.00000000000E+00 -0.27972361789E+03  0.27972361789E+03  0.00000000000E+00 0. -1.
         23    2    1    2    0    0  0.16863761502E+02 -0.37382496130E+02 -0.43617432054E+02  0.11123997837E+03  0.93755079548E+02 0.  0.
         23    2    1    2    0    0 -0.16863761502E+02  0.37382496130E+02 -0.18088253106E+03  0.22370729429E+03  0.12507847939E+03 0.  0.
          5    1    4    4  502    0 -0.27902169718E+02  0.30359074731E+02 -0.19769793889E+03  0.20199542553E+03  0.41800000000E+01 0. -1.
         -5    1    4    4    0  502  0.11038408216E+02  0.70234213993E+01  0.16815407835E+02  0.21711868753E+02  0.41800000000E+01 0. -1.
        -11    1    3    3    0    0  0.52783536658E+02 -0.17341037044E+02 -0.66850003691E+01  0.55959829680E+02  0.00000000000E+00 0.  1.
         11    1    3    3    0    0 -0.35919775156E+02 -0.20041459086E+02 -0.36932431684E+02  0.55280148695E+02  0.00000000000E+00 0. -1.
</event>
<event>
 8    1  0.9181008E-006  0.1207160E+03  0.7561462E-02  0.1241921E+00
          1   -1    0    0  501    0  0.00000000000E+00  0.00000000000E+00  0.35698426379E+03  0.35698426379E+03  0.00000000000E+00 0. -1.
         -1   -1    0    0    0  501 -0.00000000000E+00 -0.00000000000E+00 -0.51517120405E+02  0.51517120405E+02  0.00000000000E+00 0.  1.
         23    2    1    2    0    0 -0.63127012939E+02  0.44415910861E+02  0.74872311369E+02  0.13504370056E+03  0.81689320903E+02 0.  0.
         23    2    1    2    0    0  0.63127012939E+02 -0.44415910861E+02  0.23059483202E+03  0.27345768364E+03  0.12508930926E+03 0.  0.
          5    1    4    4  502    0 -0.31190581377E+02  0.36646929058E+01  0.19325628698E+02  0.37111112423E+02  0.41800000000E+01 0. -1.
         -5    1    4    4    0  502  0.94317594316E+02 -0.48080603766E+02  0.21126920332E+03  0.23634657122E+03  0.41800000000E+01 0. -1.
        -11    1    3    3    0    0 -0.29849815665E+02 -0.16707052039E+02  0.51116658382E+02  0.61506502479E+02  0.00000000000E+00 0. -1.
         11    1    3    3    0    0 -0.33277197274E+02  0.61122962899E+02  0.23755652987E+02  0.73537198076E+02  0.00000000000E+00 0.  1.
</event>
<event>
 8    1  0.9181008E-006  0.1941993E+03  0.7561462E-02  0.1154727E+00
          3   -1    0    0  501    0  0.00000000000E+00  0.00000000000E+00  0.30564080758E+03  0.30564080758E+03  0.00000000000E+00 0. -1.
         -3   -1    0    0    0  501 -0.00000000000E+00 -0.00000000000E+00 -0.15241278758E+03  0.15241278758E+03  0.00000000000E+00 0.  1.
         23    2    1    2    0    0 -0.14619031090E+03 -0.10300234664E+03  0.22854487126E+02  0.20383765874E+03  0.95112423609E+02 0.  0.
         23    2    1    2    0    0  0.14619031090E+03  0.10300234664E+03  0.13037353287E+03  0.25421593643E+03  0.12508954332E+03 0.  0.
          5    1    4    4  502    0  0.15878744251E+03  0.10218351176E+03  0.85333639856E+02  0.20725400953E+03  0.41800000000E+01 0.  1.
         -5    1    4    4    0  502 -0.12597131615E+02  0.81883487347E+00  0.45039893009E+02  0.46961926896E+02  0.41800000000E+01 0.  1.
        -11    1    3    3    0    0 -0.11174768206E+03 -0.10271982021E+03 -0.15158607428E+02  0.15254077910E+03  0.00000000000E+00 0.  1.
         11    1    3    3    0    0 -0.34442628841E+02 -0.28252642076E+00  0.38013094554E+02  0.51296879634E+02  0.00000000000E+00 0. -1.
</event>
<event>
 8    1  0.9181008E-006  0.8050285E+02  0.7561462E-02  0.1327630E+00
         -2   -1    0    0    0  501 -0.00000000000E+00  0.00000000000E+00  0.10294202004E+03  0.10294202004E+03  0.00000000000E+00 0.  1.
          2   -1    0    0  501    0  0.00000000000E+00 -0.00000000000E+00 -0.13394270311E+03  0.13394270311E+03  0.00000000000E+00 0. -1.
         23    2    1    2    0    0 -0.24166055264E+02 -0.45391437601E+02 -0.67746239874E+01  0.99479688333E+02  0.84887761344E+02 0.  0.
         23    2    1    2    0    0  0.24166055264E+02  0.45391437601E+02 -0.24226059081E+02  0.13740503482E+03  0.12509540687E+03 0.  0.
          5    1    4    4  502    0  0.64150648710E+01  0.47679606044E+02  0.44862406473E+02  0.65913623815E+02  0.41800000000E+01 0. -1.
         -5    1    4    4    0  502  0.17750990393E+02 -0.22881684427E+01 -0.69088465555E+02  0.71491411005E+02  0.41800000000E+01 0. -1.
        -11    1    3    3    0    0  0.14027470872E+02 -0.53485140876E+02  0.11332536141E+02  0.56443392962E+02  0.00000000000E+00 0.  1.
         11    1    3    3    0    0 -0.38193526135E+02  0.80937032749E+01 -0.18107160128E+02  0.43036295371E+02  0.00000000000E+00 0. -1.
</event>
<event>
 8    1  0.9181008E-006  0.8427351E+02  0.7561462E-02  0.1317343E+00
          1   -1    0    0  501    0  0.00000000000E+00  0.00000000000E+00  0.12107184201E+04  0.12107184201E+04  0.00000000000E+00 0. -1.
         -1   -1    0    0    0  501 -0.00000000000E+00 -0.00000000000E+00 -0.18667735149E+02  0.18667735149E+02  0.00000000000E+00 0.  1.
         23    2    1    2    0    0 -0.16160048188E+02 -0.37850641267E+02  0.15731320792E+03  0.18630221360E+03  0.90924425778E+02 0.  0.
         23    2    1    2    0    0  0.16160048188E+02  0.37850641267E+02  0.10347374770E+04  0.10430839416E+04  0.12509454328E+03 0.  0.
          5    1    4    4  502    0  0.17228024315E+02  0.56696905861E+02  0.21325938400E+03  0.22137836665E+03  0.41800000000E+01 0. -1.
         -5    1    4    4    0  502 -0.10679761273E+01 -0.18846264594E+02  0.82147809301E+03  0.82170557498E+03  0.41800000000E+01 0. -1.
        -11    1    3    3    0    0 -0.45312583288E+01 -0.62442495541E+02  0.14175461724E+03  0.15496441223E+03  0.00000000000E+00 0. -1.
         11    1    3    3    0    0 -0.11628789859E+02  0.24591854274E+02  0.15558590687E+02  0.31337801365E+02  0.00000000000E+00 0.  1.
</event>
<event>
 8    1  0.9181008E-006  0.1959070E+03  0.7561462E-02  0.1153239E+00
         -2   -1    0    0    0  501 -0.00000000000E+00  0.00000000000E+00  0.29898039669E+02  0.29898039669E+02  0.00000000000E+00 0.  1.
          2   -1    0    0  501    0  0.00000000000E+00 -0.00000000000E+00 -0.17542301267E+04  0.17542301267E+04  0.00000000000E+00 0. -1.
         23    2    1    2    0    0  0.17825283939E+03  0.52307467963E+02 -0.44884763621E+03  0.48913023306E+03  0.57219213656E+02 0.  0.
         23    2    1    2    0    0 -0.17825283939E+03 -0.52307467963E+02 -0.12754844508E+04  0.12949979333E+04  0.12509563147E+03 0.  0.
          5    1    4    4  502    0  0.55833133059E+01 -0.59410951908E+01 -0.49987783511E+01  0.10436962419E+02  0.41800000000E+01 0. -1.
         -5    1    4    4    0  502 -0.18383615270E+03 -0.46366372772E+02 -0.12704856725E+04  0.12845609709E+04  0.41800000000E+01 0. -1.
        -11    1    3    3    0    0  0.98198065054E+01 -0.94368508079E+01 -0.19247241998E+02  0.23578360365E+02  0.00000000000E+00 0.  1.
         11    1    3    3    0    0  0.16843303289E+03  0.61744318771E+02 -0.42960039421E+03  0.46555187270E+03  0.00000000000E+00 0. -1.
</event>
<event>
 8    1  0.9181008E-006  0.1445427E+03  0.7561462E-02  0.1207344E+00
          1   -1    0    0  501    0  0.00000000000E+00  0.00000000000E+00  0.38594680986E+03  0.38594680986E+03  0.00000000000E+00 0. -1.
         -1   -1    0    0    0  501 -0.00000000000E+00 -0.00000000000E+00 -0.97514811840E+02  0.97514811840E+02  0.00000000000E+00 0.  1.
         23    2    1    2    0    0  0.16995508925E+02 -0.96509374319E+02 -0.22487057479E+02  0.13427729094E+03  0.89004586695E+02 0.  0.
         23    2    1    2    0    0 -0.16995508925E+02  0.96509374319E+02  0.31091905549E+03  0.34918433076E+03  0.12512446252E+03 0.  0.
          5    1    4    4  502    0  0.31838771699E+02 -0.15517730718E+02  0.54978503613E+02  0.65533316790E+02  0.41800000000E+01 0.  1.
         -5    1    4    4    0  502 -0.48834280624E+02  0.11202710504E+03  0.25594055188E+03  0.28365101397E+03  0.41800000000E+01 0.  1.
        -11    1    3    3    0    0  0.46146706127E+02 -0.21981398331E+02 -0.17757760739E+02  0.54111352094E+02  0.00000000000E+00 0. -1.
         11    1    3    3    0    0 -0.29151197202E+02 -0.74527975988E+02 -0.47292967392E+01  0.80165938845E+02  0.00000000000E+00 0.  1.
</event>
<event>
 7    1  0.9181008E-006  0.1252477E+03  0.7561462E-02  0.1234683E+00
          2   -1    0    0  501    0  0.00000000000E+00  0.00000000000E+00  0.14703643289E+03  0.14703643289E+03  0.00000000000E+00 0. -1.
         -2   -1    0    0    0  501 -0.00000000000E+00 -0.00000000000E+00 -0.12618501560E+03  0.12618501560E+03  0.00000000000E+00 0.  1.
         23    2    1    2    0    0  0.42502318321E+01 -0.35944537595E+01 -0.12292792443E+02  0.92959806640E+02  0.91975150645E+02 0.  0.
          5    1    1    2  502    0 -0.81407053822E+02  0.37822021839E+02  0.33060821021E+02  0.95750216890E+02  0.41800000000E+01 0. -1.
         -5    1    1    2    0  502  0.77156821990E+02 -0.34227568080E+02  0.83388711501E-01  0.84511424967E+02  0.41800000000E+01 0.  1.
        -11    1    3    3    0    0  0.36468202781E+02 -0.18189698907E+02 -0.32588682624E+02  0.52180620881E+02  0.00000000000E+00 0. -1.
         11    1    3    3    0    0 -0.32217970949E+02  0.14595245147E+02  0.20295890181E+02  0.40779185759E+02  0.00000000000E+00 0.  1.
</event>
<event>
 8    1  0.9181008E-006  0.1227169E+03  0.7561462E-02  0.1238681E+00
          1   -1    0    0  501    0  0.00000000000E+00  0.00000000000E+00  0.26093957434E+03  0.26093957434E+03  0.00000000000E+00 0. -1.
         -1   -1    0    0    0  501 -0.00000000000E+00 -0.00000000000E+00 -0.60173509119E+02  0.60173509119E+02  0.00000000000E+00 0.  1.
         23    2    1    2    0    0 -0.48220600227E+02  0.16126300790E+02  0.91136074182E+02  0.14722932745E+03  0.10385281403E+03 0.  0.
         23    2    1    2    0    0  0.48220600227E+02 -0.16126300790E+02  0.10962999104E+03  0.17388375601E+03  0.12502616448E+03 0.  0.
          5    1    4    4  502    0  0.84888960675E+02 -0.32167431945E+02  0.93910939908E+02  0.13068135428E+03  0.41800000000E+01 0. -1.
         -5    1    4    4    0  502 -0.36668360448E+02  0.16041131155E+02  0.15719051135E+02  0.43202401730E+02  0.41800000000E+01 0. -1.
        -11    1    3    3    0    0 -0.38128105372E+01  0.55100386505E+02  0.55129656618E+02  0.78037613726E+02  0.00000000000E+00 0. -1.
         11    1    3    3    0    0 -0.44407789690E+02 -0.38974085715E+02  0.36006417564E+02  0.69191713726E+02  0.00000000000E+00 0.  1.
</event>
<event>
 7    1  0.9181008E-006  0.1519161E+03  0.7561462E-02  0.1198138E+00
          1   -1    0    0  501    0  0.00000000000E+00  0.00000000000E+00  0.21005766458E+03  0.21005766458E+03  0.00000000000E+00 0. -1.
         -1   -1    0    0    0  501 -0.00000000000E+00 -0.00000000000E+00 -0.23365618265E+03  0.23365618265E+03  0.00000000000E+00 0.  1.
         23    2    1    2    0    0 -0.14231012293E+01 -0.63653208535E+02 -0.93609073951E+02  0.14501592796E+03  0.90626731496E+02 0.  0.
          5    1    1    2  502    0  0.45543241572E+02 -0.65738100606E+02  0.12731561989E+03  0.15040752705E+03  0.41800000000E+01 0. -1.
         -5    1    1    2    0  502 -0.44120140343E+02  0.12939130914E+03 -0.57305064011E+02  0.14829039223E+03  0.41800000000E+01 0.  1.
        -11    1    3    3    0    0 -0.19874278959E+02 -0.65488104897E+02 -0.10343885037E+03  0.12402932965E+03  0.00000000000E+00 0. -1.
         11    1    3    3    0    0  0.18451177730E+02  0.18348963616E+01  0.98297764170E+01  0.20986598312E+02  0.00000000000E+00 0.  1.
</event>
<event>
 8    1  0.9181008E-006  0.9205226E+02  0.7561462E-02  0.1297957E+00
         -1   -1    0    0    0  501 -0.00000000000E+00  0.00000000000E+00  0.21449376652E+02  0.21449376652E+02  0.00000000000E+00 0.  1.
          1   -1    0    0  501    0  0.00000000000E+00 -0.00000000000E+00 -0.74174526985E+03  0.74174526985E+03  0.00000000000E+00 0. -1.
         23    2    1    2    0    0  0.27867894835E+02  0.37539648655E+02 -0.15553271317E+03  0.18285685234E+03  0.84025941219E+02 0.  0.
         23    2    1    2    0    0 -0.27867894835E+02 -0.37539648655E+02 -0.56476318002E+03  0.58033779416E+03  0.12509460834E+03 0.  0.
          5    1    4    4  502    0 -0.58639512629E+01  0.23080762294E+02 -0.43204919628E+03  0.43272518753E+03  0.41800000000E+01 0.  1.
         -5    1    4    4    0  502 -0.22003943572E+02 -0.60620410949E+02 -0.13271398374E+03  0.14761260663E+03  0.41800000000E+01 0.  1.
        -11    1    3    3    0    0 -0.50863832647E+01  0.56868936396E+02 -0.80970150138E+02  0.99076296030E+02  0.00000000000E+00 0.  1.
         11    1    3    3    0    0  0.32954278100E+02 -0.19329287741E+02 -0.74562563036E+02  0.83780556314E+02  0.00000000000E+00 0. -1.
</event>
<event>
 7    1  0.9181008E-006  0.1859136E+03  0.7561462E-02  0.1162200E+00
         -3   -1    0    0    0  501 -0.00000000000E+00  0.00000000000E+00  0.17034249022E+03  0.17034249022E+03  0.00000000000E+00 0.  1.
          3   -1    0    0  501    0  0.00000000000E+00 -0.00000000000E+00 -0.30820700375E+03  0.30820700375E+03  0.00000000000E+00 0. -1.
         23    2    1    2    0    0  0.16648203369E+03 -0.12364565510E+02 -0.15873662468E+03  0.26212078655E+03  0.12506334676E+03 0.  0.
          5    1    3    3  502    0  0.12688375864E+03 -0.52274129777E+02 -0.15282019743E+03  0.20543504567E+03  0.41800000000E+01 0.  1.
         -5    1    3    3    0  502  0.39598275051E+02  0.39909564267E+02 -0.59164272580E+01  0.56685740875E+02  0.41800000000E+01 0.  1.
        -11    1    1    2    0    0 -0.24124419598E+02  0.25612027855E+02 -0.46554035802E+02  0.58354450056E+02  0.00000000000E+00 0. -1.
         11    1    1    2    0    0 -0.14235761409E+03 -0.13247462346E+02  0.67426146964E+02  0.15807425737E+03  0.00000000000E+00 0.  1.
</event>
<event>
 8    1  0.1179701E-005  0.1773817E+03  0.7561462E-02  0.1170361E+00
          2   -1    0    0  501    0  0.00000000000E+00  0.00000000000E+00  0.66349714214E+02  0.66349714214E+02  0.00000000000E+00 0. -1.
         -2   -1    0    0    0  501 -0.00000000000E+00 -0.00000000000E+00 -0.63378746146E+03  0.63378746146E+03  0.00000000000E+00 0.  1.
         23    2    1    2    0    0 -0.16511150933E+03 -0.15668474945E+02 -0.36065648759E+03  0.40702765674E+03  0.89950540251E+02 0.  0.
         23    2    1    2    0    0  0.16511150933E+03  0.15668474945E+02 -0.20678125965E+03  0.29310951893E+03  0.12508952444E+03 0.  0.
          5    1    4    4  502    0  0.15415271418E+03  0.42121310248E+02 -0.21008012940E+03  0.26398560043E+03  0.41800000000E+01 0. -1.
         -5    1    4    4    0  502  0.10958795147E+02 -0.26452835303E+02  0.32988697563E+01  0.29123918492E+02  0.41800000000E+01 0. -1.
        -11    1    3    3    0    0 -0.19373704464E+02  0.15321245026E+00 -0.18890725036E+01  0.19466188472E+02  0.00000000000E+00 0. -1.
         11    1    3    3    0    0 -0.14573780486E+03 -0.15821687395E+02 -0.35876741509E+03  0.38756146827E+03  0.00000000000E+00 0.  1.
</event>
<event>
 7    1  0.9181008E-006  0.1198115E+03  0.7561462E-02  0.1243408E+00
          1   -1    0    0  501    0  0.00000000000E+00  0.00000000000E+00  0.11634111293E+04  0.11634111293E+04  0.00000000000E+00 0. -1.
         -1   -1    0    0    0  501 -0.00000000000E+00 -0.00000000000E+00 -0.13445426091E+02  0.13445426091E+02  0.00000000000E+00 0.  1.
         23    2    1    2    0    0  0.21699297233E+02 -0.69195165151E+00  0.31575188254E+03  0.32973069744E+03  0.92475635763E+02 0.  0.
          5    1    1    2  502    0  0.23756278817E+02 -0.62741088523E+02  0.31767566566E+03  0.32470926369E+03  0.41800000000E+01 0. -1.
         -5    1    1    2    0  502 -0.45455576050E+02  0.63433040175E+02  0.51653815502E+03  0.52241659427E+03  0.41800000000E+01 0.  1.
        -11    1    3    3    0    0  0.36338866999E+02 -0.38963305356E+02  0.19846489763E+03  0.20549201447E+03  0.00000000000E+00 0. -1.
         11    1    3    3    0    0 -0.14639569766E+02  0.38271353705E+02  0.11728698490E+03  0.12423868297E+03  0.00000000000E+00 0.  1.
</event>
<event>
 8    1  0.9812128E-006  0.9494244E+02  0.7561462E-02  0.1291306E+00
          2   -1    0    0  501    0  0.00000000000E+00  0.00000000000E+00  0.18345916677E+03  0.18345916677E+03  0.00000000000E+00 0. -1.
         -2   -1    0    0    0  501 -0.00000000000E+00 -0.00000000000E+00 -0.95103846187E+02  0.95103846187E+02  0.00000000000E+00 0.  1.
         23    2    1    2    0    0 -0.39319928409E+02 -0.55399431527E+02  0.46108697039E+01  0.11340965355E+03  0.90693636023E+02 0.  0.
         23    2    1    2    0    0  0.39319928409E+02  0.55399431527E+02  0.83744450880E+02  0.16515335941E+03  0.12508934921E+03 0.  0.
          5    1    4    4  502    0 -0.12461099728E+02  0.28597039433E+02 -0.25992067847E+02  0.40818251576E+02  0.41800000000E+01 0.  1.
         -5    1    4    4    0  502  0.51781028137E+02  0.26802392094E+02  0.10973651873E+03  0.12433510783E+03  0.41800000000E+01 0.  1.
        -11    1    3    3    0    0 -0.53472854767E+02 -0.12683668209E+02 -0.24124086171E+02  0.60018273632E+02  0.00000000000E+00 0.  1.
         11    1    3    3    0    0  0.14152926358E+02 -0.42715763319E+02  0.28734955875E+02  0.53391379918E+02  0.00000000000E+00 0. -1.
</event>
<event>
 8    1  0.9181008E-006  0.6700316E+02  0.7561462E-02  0.1370591E+00
         -1   -1    0    0    0  501 -0.00000000000E+00  0.00000000000E+00  0.21014023662E+02  0.21014023662E+02  0.00000000000E+00 0.  1.
          1   -1    0    0  501    0  0.00000000000E+00 -0.00000000000E+00 -0.87141854744E+03  0.87141854744E+03  0.00000000000E+00 0. -1.
         23    2    1    2    0    0  0.84203005720E+01  0.27008503198E+02 -0.13218798269E+03  0.16285606214E+03  0.90818904971E+02 0.  0.
         23    2    1    2    0    0 -0.84203005720E+01 -0.27008503198E+02 -0.71821654109E+03  0.72957650897E+03  0.12508605771E+03 0.  0.
          5    1    4    4  502    0  0.19154981296E+01  0.33203704912E+02 -0.54177138807E+03  0.54280739170E+03  0.41800000000E+01 0. -1.
         -5    1    4    4    0  502 -0.10335798702E+02 -0.60212208110E+02 -0.17644515301E+03  0.18676911726E+03  0.41800000000E+01 0. -1.
        -11    1    3    3    0    0  0.14051916750E+02  0.27142915020E+01  0.10661337162E+02  0.17846227971E+02  0.00000000000E+00 0.  1.
         11    1    3    3    0    0 -0.56316161779E+01  0.24294211696E+02 -0.14284931985E+03  0.14500983416E+03  0.00000000000E+00 0. -1.
</event>
<event>
 8    1  0.9181008E-006  0.6829285E+02  0.7561462E-02  0.1365996E+00
         -3   -1    0    0    0  501 -0.00000000000E+00  0.00000000000E+00  0.32031282763E+02  0.32031282763E+02  0.00000000000E+00 0.  1.
          3   -1    0    0  501    0  0.00000000000E+00 -0.00000000000E+00 -0.43911218147E+03  0.43911218147E+03  0.00000000000E+00 0. -1.
         23    2    1    2    0    0  0.47430114595E+02 -0.10033976004E+02 -0.19961983272E+03  0.22408384408E+03  0.89527622081E+02 0.  0.
         23    2    1    2    0    0 -0.47430114595E+02  0.10033976004E+02 -0.20746106598E+03  0.24705962016E+03  0.12509222824E+03 0.  0.
          5    1    4    4  502    0 -0.57707147413E+02  0.75592613185E+01 -0.22146500156E+03  0.22902287355E+03  0.41800000000E+01 0. -1.
         -5    1    4    4    0  502  0.10277032818E+02  0.24747146857E+01  0.14003935577E+02  0.18036746602E+02  0.41800000000E+01 0. -1.
        -11    1    3    3    0    0  0.68071503788E+01  0.16837952320E+02  0.45315663793E+00  0.18167533832E+02  0.00000000000E+00 0.  1.
         11    1    3    3    0    0  0.40622964216E+02 -0.26871928324E+02 -0.20007298936E+03  0.20591631025E+03  0.00000000000E+00 0. -1.
</event>
<event>
 8    1  0.9181008E-006  0.1042272E+03  0.7561462E-02  0.1271650E+00
          2   -1    0    0  501    0  0.00000000000E+00  0.00000000000E+00  0.53573206878E+03  0.53573206878E+03  0.00000000000E+00 0. -1.
         -2   -1    0    0    0  501 -0.00000000000E+00 -0.00000000000E+00 -0.30678202885E+02  0.30678202885E+02  0.00000000000E+00 0.  1.
         23    2    1    2    0    0 -0.55644005246E+02 -0.14445092770E+02  0.14545355446E+03  0.18135644177E+03  0.91806897573E+02 0.  0.
         23    2    1    2    0    0  0.55644005246E+02  0.14445092770E+02  0.35960031144E+03  0.38505382990E+03  0.12509657032E+03 0.  0.
          5    1    4    4  502    0  0.39505674559E+02  0.63899199216E+02  0.27951354766E+03  0.28946347215E+03  0.41800000000E+01 0. -1.
         -5    1    4    4    0  502  0.16138330687E+02 -0.49454106446E+02  0.80086763778E+02  0.95590357747E+02  0.41800000000E+01 0. -1.
        -11    1    3    3    0    0 -0.15842327687E+02  0.21964463816E+02  0.93398019214E+00  0.27097773640E+02  0.00000000000E+00 0.  1.
         11    1    3    3    0    0 -0.39801677559E+02 -0.36409556585E+02  0.14451957426E+03  0.15425866813E+03  0.00000000000E+00 0. -1.
</event>
<event>
 8    1  0.9181008E-006  0.1074586E+03  0.7561462E-02  0.1265350E+00
         -3   -1    0    0    0  501 -0.00000000000E+00  0.00000000000E+00  0.42338444045E+02  0.42338444045E+02  0.00000000000E+00 0.  1.
          3   -1    0    0  501    0  0.00000000000E+00 -0.00000000000E+00 -0.37210241109E+03  0.37210241109E+03  0.00000000000E+00 0. -1.
         23    2    1    2    0    0  0.54275670193E+02  0.41053907152E+02 -0.15196639369E+03  0.18665012680E+03  0.84339868111E+02 0.  0.
         23    2    1    2    0    0 -0.54275670193E+02 -0.41053907152E+02 -0.17779757335E+03  0.22779072834E+03  0.12508144211E+03 0.  0.
          5    1    4    4  502    0 -0.77143517178E+02 -0.27717943427E+02 -0.18293302012E+03  0.20050279020E+03  0.41800000000E+01 0. -1.
         -5    1    4    4    0  502  0.22867846985E+02 -0.13335963725E+02  0.51354467674E+01  0.27287938136E+02  0.41800000000E+01 0. -1.
        -11    1    3    3    0    0  0.75592019777E+02  0.37659248965E+02 -0.13480340559E+03  0.15907334989E+03  0.00000000000E+00 0. -1.
         11    1    3    3    0    0 -0.21316349584E+02  0.33946581869E+01 -0.17162988101E+02  0.27576776903E+02  0.00000000000E+00 0.  1.
</event>
<event>
 8    1  0.9181008E-006  0.1541897E+03  0.7561462E-02  0.1195417E+00
         -2   -1    0    0    0  501 -0.00000000000E+00  0.00000000000E+00  0.41989094466E+03  0.41989094466E+03  0.00000000000E+00 0.  1.
          2   -1    0    0  501    0  0.00000000000E+00 -0.00000000000E+00 -0.94328493421E+02  0.94328493421E+02  0.00000000000E+00 0. -1.
         23    2    1    2    0    0  0.14560396432E+03 -0.15878100149E+02  0.25324361515E+03  0.30847567193E+03  0.97838045075E+02 0.  0.
         23    2    1    2    0    0 -0.14560396432E+03  0.15878100149E+02  0.72318836085E+02  0.20574376615E+03  0.12509138566E+03 0.  0.
          5    1    4    4  502    0 -0.68034059583E+02  0.32697510755E+02 -0.25427129825E+02  0.79760715920E+02  0.41800000000E+01 0.  1.
         -5    1    4    4    0  502 -0.77569904741E+02 -0.16819410606E+02  0.97745965909E+02  0.12598305023E+03  0.41800000000E+01 0.  1.
        -11    1    3    3    0    0  0.52962921917E+02 -0.27930092442E+02  0.18020265799E+03  0.18988986047E+03  0.00000000000E+00 0. -1.
         11    1    3    3    0    0  0.92641042406E+02  0.12051992292E+02  0.73040957165E+02  0.11858581146E+03  0.00000000000E+00 0.  1.
</event>
<event>
 8    1  0.9181008E-006  0.1572886E+03  0.7561462E-02  0.1191792E+00
          1   -1    0    0  501    0  0.00000000000E+00  0.00000000000E+00  0.18212307801E+03  0.18212307801E+03  0.00000000000E+00 0. -1.
         -1   -1    0    0    0  501 -0.00000000000E+00 -0.00000000000E+00 -0.17925066299E+03  0.17925066299E+03  0.00000000000E+00 0.  1.
         23    2    1    2    0    0 -0.13556549442E+03  0.42345052168E+02 -0.50834254315E+01  0.17194272871E+03  0.96785091944E+02 0.  0.
         23    2    1    2    0    0  0.13556549442E+03 -0.42345052168E+02  0.79558404427E+01  0.18943101229E+03  0.12509878616E+03 0.  0.
          5    1    4    4  502    0  0.29286318132E+02  0.64495241837E+01  0.55419934032E+02  0.63151613440E+02  0.41800000000E+01 0. -1.
         -5    1    4    4    0  502  0.10627917629E+03 -0.48794576351E+02 -0.47464093589E+02  0.12627939885E+03  0.41800000000E+01 0. -1.
        -11    1    3    3    0    0 -0.67212595751E+02  0.66724895645E+02 -0.22428179025E+02  0.97328145676E+02  0.00000000000E+00 0.  1.
         11    1    3    3    0    0 -0.68352898668E+02 -0.24379843478E+02  0.17344753593E+02  0.74614583035E+02  0.00000000000E+00 0. -1.
</event>
<event>
 8    1  0.9181008E-006  0.1044939E+03  0.7561462E-02  0.1271120E+00
          2   -1    0    0  501    0  0.00000000000E+00  0.00000000000E+00  0.79473956950E+03  0.79473956950E+03  0.00000000000E+00 0. -1.
         -2   -1    0    0    0  501 -0.00000000000E+00 -0.00000000000E+00 -0.21843081800E+02  0.21843081800E+02  0.00000000000E+00 0.  1.
         23    2    1    2    0    0  0.16605032743E+02 -0.42799495952E+02  0.12504491511E+03  0.15517069586E+03  0.79587625250E+02 0.  0.
         23    2    1    2    0    0 -0.16605032743E+02  0.42799495952E+02  0.64785157259E+03  0.66141195544E+03  0.12508633308E+03 0.  0.
          5    1    4    4  502    0 -0.55466440116E+02 -0.15604967009E+02  0.38576749365E+03  0.39006931759E+03  0.41800000000E+01 0.  1.
         -5    1    4    4    0  502  0.38861407373E+02  0.58404462961E+02  0.26208407894E+03  0.27134263784E+03  0.41800000000E+01 0.  1.
        -11    1    3    3    0    0 -0.13065673655E+02 -0.48928584201E+02  0.38915973029E+02  0.63868389183E+02  0.00000000000E+00 0.  1.
         11    1    3    3    0    0  0.29670706399E+02  0.61290882485E+01  0.86128942079E+02  0.91302306677E+02  0.00000000000E+00 0. -1.
</event>
<event>
 8    1  0.9181008E-006  0.1130779E+03  0.7561462E-02  0.1254974E+00
          1   -1    0    0  501    0  0.00000000000E+00  0.00000000000E+00  0.17521939698E+04  0.17521939698E+04  0.00000000000E+00 0. -1.
         -1   -1    0    0    0  501 -0.00000000000E+00 -0.00000000000E+00 -0.10179873452E+02  0.10179873452E+02  0.00000000000E+00 0.  1.
         23    2    1    2    0    0 -0.46098524800E+02  0.16615312625E+02  0.39616031700E+03  0.40983821441E+03  0.92861308535E+02 0.  0.
         23    2    1    2    0    0  0.46098524800E+02 -0.16615312625E+02  0.13458537794E+04  0.13525356289E+04  0.12501635612E+03 0.  0.
          5    1    4    4  502    0 -0.77413214907E+01  0.48547610617E+02  0.54058533209E+03  0.54283217686E+03  0.41800000000E+01 0. -1.
         -5    1    4    4    0  502  0.53839846290E+02 -0.65162923242E+02  0.80526844729E+03  0.80970345202E+03  0.41800000000E+01 0. -1.
        -11    1    3    3    0    0 -0.45956547460E+01 -0.29667080570E+02  0.51457064609E+02  0.59574199199E+02  0.00000000000E+00 0.  1.
         11    1    3    3    0    0 -0.41502870054E+02  0.46282393195E+02  0.34470325239E+03  0.35026401521E+03  0.00000000000E+00 0. -1.
</event>
<event>
 8    1  0.9181008E-006  0.9797001E+02  0.7561462E-02  0.1284624E+00
          2   -1    0    0  501    0  0.00000000000E+00  0.00000000000E+00  0.47193766791E+03  0.47193766791E+03  0.00000000000E+00 0. -1.
         -2   -1    0    0    0  501 -0.00000000000E+00 -0.00000000000E+00 -0.33485939406E+02  0.33485939406E+02  0.00000000000E+00 0.  1.
         23    2    1    2    0    0  0.57636990504E+02  0.12788441762E+02  0.16736889467E+03  0.20108954159E+03  0.94546760477E+02 0.  0.
         23    2    1    2    0    0 -0.57636990504E+02 -0.12788441762E+02  0.27108283383E+03  0.30433406573E+03  0.12509098227E+03 0.  0.
          5    1    4    4  502    0 -0.61813797664E+02  0.12226167634E+02  0.46844970261E+02  0.78627911046E+02  0.41800000000E+01 0.  1.
         -5    1    4    4    0  502  0.41768071603E+01 -0.25014609395E+02  0.22423786357E+03  0.22570615468E+03  0.41800000000E+01 0.  1.
        -11    1    3    3    0    0 -0.16436895799E+02 -0.20163756730E+02  0.68235271667E+02  0.73026029116E+02  0.00000000000E+00 0.  1.
         11    1    3    3    0    0  0.74073886302E+02  0.32952198492E+02  0.99133623001E+02  0.12806351247E+03  0.00000000000E+00 0. -1.
</event>
<event>
 8    1  0.1278261E-005  0.2582262E+03  0.7561462E-02  0.1108214E+00
         -2   -1    0    0    0  501 -0.00000000000E+00  0.00000000000E+00  0.21970813173E+03  0.21970813173E+03  0.00000000000E+00 0. -1.
          2   -1    0    0  501    0  0.00000000000E+00 -0.00000000000E+00 -0.34846887279E+03  0.34846887279E+03  0.00000000000E+00 0.  1.
         23    2    1    2    0    0 -0.18149001935E+03  0.14845559998E+03  0.38116513011E+02  0.25437263157E+03  0.90966339048E+02 0.  0.
         23    2    1    2    0    0  0.18149001935E+03 -0.14845559998E+03 -0.16687725407E+03  0.31380437294E+03  0.12508986475E+03 0.  0.
          5    1    4    4  502    0 -0.14585872860E+02  0.49752855737E+01 -0.47138692150E+01  0.16649147624E+02  0.41800000000E+01 0. -1.
         -5    1    4    4    0  502  0.19607589221E+03 -0.15343088556E+03 -0.16216338485E+03  0.29715522532E+03  0.41800000000E+01 0. -1.
        -11    1    3    3    0    0 -0.94798498336E+01  0.54819575469E+02  0.70193597507E+01  0.56074279476E+02  0.00000000000E+00 0. -1.
         11    1    3    3    0    0 -0.17201016952E+03  0.93636024514E+02  0.31097153260E+02  0.19829835210E+03  0.00000000000E+00 0.  1.
</event>
<event>
 8    1  0.9181008E-006  0.1441665E+03  0.7561462E-02  0.1207830E+00
         -2   -1    0    0    0  501 -0.00000000000E+00  0.00000000000E+00  0.43313387644E+03  0.43313387644E+03  0.00000000000E+00 0.  1.
          2   -1    0    0  501    0  0.00000000000E+00 -0.00000000000E+00 -0.63809264110E+02  0.63809264110E+02  0.00000000000E+00 0. -1.
         23    2    1    2    0    0  0.12064204688E+03 -0.28410980782E+02  0.20168173321E+03  0.25380998778E+03  0.91554907460E+02 0.  0.
         23    2    1    2    0    0 -0.12064204688E+03  0.28410980782E+02  0.16764287912E+03  0.24313315277E+03  0.12509159745E+03 0.  0.
          5    1    4    4  502    0  0.36229778267E+01 -0.37555251056E+01  0.95687147342E+02  0.95920448829E+02  0.41800000000E+01 0. -1.
         -5    1    4    4    0  502 -0.12426502471E+03  0.32166505888E+02  0.71955731781E+02  0.14721270395E+03  0.41800000000E+01 0. -1.
        -11    1    3    3    0    0  0.11021399332E+03 -0.56071454341E+02  0.15139107713E+03  0.19547478240E+03  0.00000000000E+00 0. -1.
         11    1    3    3    0    0  0.10428053558E+02  0.27660473559E+02  0.50290656076E+02  0.58335205383E+02  0.00000000000E+00 0.  1.
</event>
<event>
 8    1  0.9181008E-006  0.8894358E+02  0.7561462E-02  0.1305430E+00
          1   -1    0    0  501    0  0.00000000000E+00  0.00000000000E+00  0.43465689469E+03  0.43465689469E+03  0.00000000000E+00 0. -1.
         -1   -1    0    0    0  501 -0.00000000000E+00 -0.00000000000E+00 -0.38429426587E+02  0.38429426587E+02  0.00000000000E+00 0.  1.
         23    2    1    2    0    0 -0.31614574983E+02  0.20124191383E+02  0.53000147862E+02  0.11047362884E+03  0.89392072162E+02 0.  0.
         23    2    1    2    0    0  0.31614574983E+02 -0.20124191383E+02  0.34322732024E+03  0.36261269243E+03  0.11080842444E+03 0.  0.
          5    1    4    4  502    0  0.41858656747E+00 -0.42962505880E+02  0.30514670532E+03  0.30818490601E+03  0.41800000000E+01 0. -1.
         -5    1    4    4    0  502  0.31195988416E+02  0.22838314497E+02  0.38080614919E+02  0.54427786423E+02  0.41800000000E+01 0.  1.
        -11    1    3    3    0    0 -0.43652088968E+02 -0.24193826173E+02  0.19294316246E+02  0.53508099720E+02  0.00000000000E+00 0. -1.
         11    1    3    3    0    0  0.12037513985E+02  0.44318017556E+02  0.33705831616E+02  0.56965529121E+02  0.00000000000E+00 0.  1.
</event>
<event>
 7    1  0.9181008E-006  0.1684529E+03  0.7561462E-02  0.1179471E+00
          3   -1    0    0  501    0  0.00000000000E+00  0.00000000000E+00  0.14834258528E+03  0.14834258528E+03  0.00000000000E+00 0. -1.
         -3   -1    0    0    0  501 -0.00000000000E+00 -0.00000000000E+00 -0.38085283024E+03  0.38085283024E+03  0.00000000000E+00 0.  1.
         23    2    1    2    0    0  0.94606917043E+02  0.56768398225E+02 -0.15859448141E+03  0.21337667534E+03  0.90577459973E+02 0.  0.
          5    1    1    2  502    0  0.36134916077E+01 -0.10611977997E+03  0.75445068282E+02  0.13032227649E+03  0.41800000000E+01 0. -1.
         -5    1    1    2    0  502 -0.98220408651E+02  0.49351381742E+02 -0.14936083183E+03  0.18549646369E+03  0.41800000000E+01 0.  1.
        -11    1    3    3    0    0  0.73865103101E+02  0.64935059560E+02 -0.16326665361E+03  0.19060067051E+03  0.00000000000E+00 0.  1.
         11    1    3    3    0    0  0.20741813942E+02 -0.81666613353E+01  0.46721722017E+01  0.22776004831E+02  0.00000000000E+00 0. -1.
</event>
<event>
 8    1  0.9181008E-006  0.8626702E+02  0.7561462E-02  0.1312152E+00
          2   -1    0    0  501    0  0.00000000000E+00  0.00000000000E+00  0.82299066866E+02  0.82299066866E+02  0.00000000000E+00 0. -1.
         -2   -1    0    0    0  501 -0.00000000000E+00 -0.00000000000E+00 -0.16466637799E+03  0.16466637799E+03  0.00000000000E+00 0.  1.
         23    2    1    2    0    0  0.69225908322E+01  0.19574497118E+01 -0.74465530302E+02  0.12141882416E+03  0.95632953445E+02 0.  0.
         23    2    1    2    0    0 -0.69225908322E+01 -0.19574497118E+01 -0.79017808261E+01  0.12554662070E+03  0.12509101469E+03 0.  0.
          5    1    4    4  502    0  0.28510593226E+02 -0.51887488190E+02  0.12921860931E+02  0.60742178482E+02  0.41800000000E+01 0.  1.
         -5    1    4    4    0  502 -0.35433184058E+02  0.49930038478E+02 -0.20823641757E+02  0.64804442216E+02  0.41800000000E+01 0.  1.
        -11    1    3    3    0    0 -0.20490518678E+02  0.10601852303E+02  0.14953798316E+02  0.27493212108E+02  0.00000000000E+00 0. -1.
         11    1    3    3    0    0  0.27413109511E+02 -0.86444025910E+01 -0.89419328618E+02  0.93925612054E+02  0.00000000000E+00 0.  1.
</event>
<event>
 8    1  0.9181008E-006  0.1353880E+03  0.7561462E-02  0.1219673E+00
         -1   -1    0    0    0  501 -0.00000000000E+00  0.00000000000E+00  0.23795047156E+02  0.23795047156E+02  0.00000000000E+00 0.  1.
          1   -1    0    0  501    0  0.00000000000E+00 -0.00000000000E+00 -0.93209547598E+03  0.93209547598E+03  0.00000000000E+00 0. -1.
         23    2    1    2    0    0  0.83501289832E+02 -0.38752834851E+02 -0.55194618754E+03  0.56716161345E+03  0.92484886462E+02 0.  0.
         23    2    1    2    0    0 -0.83501289832E+02  0.38752834851E+02 -0.35635424128E+03  0.38872890968E+03  0.12509025673E+03 0.  0.
          5    1    4    4  502    0 -0.55502807555E+02  0.76328810029E+02 -0.30401152088E+03  0.31835063391E+03  0.41800000000E+01 0. -1.
         -5    1    4    4    0  502 -0.27998482278E+02 -0.37575975178E+02 -0.52342720407E+02  0.70378275767E+02  0.41800000000E+01 0. -1.
        -11    1    3    3    0    0  0.22317178327E+02  0.29894509004E+02 -0.19672600957E+03  0.20023201781E+03  0.00000000000E+00 0.  1.
         11    1    3    3    0    0  0.61184111505E+02 -0.68647343855E+02 -0.35522017797E+03  0.36692959564E+03  0.00000000000E+00 0. -1.
</event>
<event>
 8    1  0.9181008E-006  0.8539544E+02  0.7561462E-02  0.1314402E+00
         -2   -1    0    0    0  501 -0.00000000000E+00  0.00000000000E+00  0.48041842081E+03  0.48041842081E+03  0.00000000000E+00 0.  1.
          2   -1    0    0  501    0  0.00000000000E+00 -0.00000000000E+00 -0.40648214145E+02  0.40648214145E+02  0.00000000000E+00 0. -1.
         23    2    1    2    0    0  0.77318467012E+02  0.24899416852E+02  0.25892352779E+03  0.28664942259E+03  0.92349184754E+02 0.  0.
         23    2    1    2    0    0 -0.77318467012E+02 -0.24899416852E+02  0.18084667887E+03  0.23441721236E+03  0.12509109438E+03 0.  0.
          5    1    4    4  502    0 -0.34494205818E+02 -0.24943880913E+02  0.18620732590E+03  0.19105676656E+03  0.41800000000E+01 0. -1.
         -5    1    4    4    0  502 -0.42824261194E+02  0.44464060831E-01 -0.53606470289E+01  0.43360445805E+02  0.41800000000E+01 0. -1.
        -11    1    3    3    0    0  0.53084311211E+02  0.28879259204E+02  0.25464908495E+03  0.26172144004E+03  0.00000000000E+00 0.  1.
         11    1    3    3    0    0  0.24234155801E+02 -0.39798423516E+01  0.42744428440E+01  0.24927982553E+02  0.00000000000E+00 0. -1.
</event>
<event>
 8    1  0.9181008E-006  0.8545587E+02  0.7561462E-02  0.1314245E+00
          2   -1    0    0  501    0  0.00000000000E+00  0.00000000000E+00  0.10032725511E+03  0.10032725511E+03  0.00000000000E+00 0. -1.
         -2   -1    0    0    0  501 -0.00000000000E+00 -0.00000000000E+00 -0.14567035852E+03  0.14567035852E+03  0.00000000000E+00 0.  1.
         23    2    1    2    0    0 -0.16131345589E+02  0.46776502560E+02 -0.44086257698E+02  0.11147177937E+03  0.89633129903E+02 0.  0.
         23    2    1    2    0    0  0.16131345589E+02 -0.46776502560E+02 -0.12568457144E+01  0.13452583426E+03  0.12508940370E+03 0.  0.
          5    1    4    4  502    0  0.47429768924E+02 -0.62550643421E+02  0.33075567697E+02  0.85285588179E+02  0.41800000000E+01 0.  1.
         -5    1    4    4    0  502 -0.31298423335E+02  0.15774140861E+02 -0.34332413411E+02  0.49240246078E+02  0.41800000000E+01 0.  1.
        -11    1    3    3    0    0  0.20018461833E+01  0.35698495215E+02  0.22049068330E+02  0.42006563332E+02  0.00000000000E+00 0. -1.
         11    1    3    3    0    0 -0.18133191773E+02  0.11078007345E+02 -0.66135326028E+02  0.69465216040E+02  0.00000000000E+00 0.  1.
</event>
<event>
 8    1  0.9181008E-006  0.9820345E+02  0.7561462E-02  0.1284120E+00
         -3   -1    0    0    0  501 -0.00000000000E+00  0.00000000000E+00  0.39160385802E+02  0.39160385802E+02  0.00000000000E+00 0.  1.
          3   -1    0    0  501    0  0.00000000000E+00 -0.00000000000E+00 -0.32183924234E+03  0.32183924234E+03  0.00000000000E+00 0. -1.
         23    2    1    2    0    0 -0.11753664769E+00 -0.28846985636E+02 -0.76716184824E+02  0.12366716023E+03  0.92606863196E+02 0.  0.
         23    2    1    2    0    0  0.11753664769E+00  0.28846985636E+02 -0.20596267172E+03  0.23733246791E+03  0.11434122524E+03 0.  0.
          5    1    4    4  502    0  0.38329125735E+02  0.52951830142E+02 -0.15933123025E+03  0.17226993797E+03  0.41800000000E+01 0. -1.
         -5    1    4    4    0  502 -0.38211589088E+02 -0.24104844506E+02 -0.46631441465E+02  0.65062529941E+02  0.41800000000E+01 0.  1.
        -11    1    3    3    0    0 -0.64207537774E+01 -0.56655858707E+02 -0.20425855624E+02  0.60566723395E+02  0.00000000000E+00 0. -1.
         11    1    3    3    0    0  0.63032171297E+01  0.27808873070E+02 -0.56290329200E+02  0.63100436838E+02  0.00000000000E+00 0.  1.
</event>
<event>
 8    1  0.9181008E-006  0.8030122E+02  0.7561462E-02  0.1328199E+00
          1   -1    0    0  501    0  0.00000000000E+00  0.00000000000E+00  0.16151758538E+03  0.16151758538E+03  0.00000000000E+00 0. -1.
         -1   -1    0    0    0  501 -0.00000000000E+00 -0.00000000000E+00 -0.90155212224E+02  0.90155212224E+02  0.00000000000E+00 0.  1.
         23    2    1    2    0    0 -0.29244543788E+02 -0.43216118587E+02  0.46063126452E+02  0.11379513246E+03  0.90025798001E+02 0.  0.
         23    2    1    2    0    0  0.29244543788E+02  0.43216118587E+02  0.25299246701E+02  0.13787766514E+03  0.12508925779E+03 0.  0.
          5    1    4    4  502    0  0.32092216022E+02  0.20811543027E+02 -0.47737971400E+02  0.61314084563E+02  0.41800000000E+01 0.  1.
         -5    1    4    4    0  502 -0.28476722343E+01  0.22404575560E+02  0.73037218101E+02  0.76563580579E+02  0.41800000000E+01 0.  1.
        -11    1    3    3    0    0 -0.32298883646E+02  0.18595692025E+02  0.10769200390E+01  0.37285082854E+02  0.00000000000E+00 0.  1.
         11    1    3    3    0    0  0.30543398580E+01 -0.61811810612E+02  0.44986206413E+02  0.76510049605E+02  0.00000000000E+00 0. -1.
</event>
<event>
 8    1  0.9181008E-006  0.1032913E+03  0.7561462E-02  0.1273523E+00
         -2   -1    0    0    0  501 -0.00000000000E+00  0.00000000000E+00  0.18877081047E+02  0.18877081047E+02  0.00000000000E+00 0.  1.
          2   -1    0    0  501    0  0.00000000000E+00 -0.00000000000E+00 -0.11437592171E+04  0.11437592171E+04  0.00000000000E+00 0. -1.
         23    2    1    2    0    0 -0.21704559169E+01  0.71880685861E+02 -0.23862019078E+03  0.26470615750E+03  0.89208802760E+02 0.  0.
         23    2    1    2    0    0  0.21704559169E+01 -0.71880685861E+02 -0.88626194526E+03  0.89793014063E+03  0.12508700160E+03 0.  0.
          5    1    4    4  502    0 -0.20199223627E+02 -0.85624241370E+02 -0.34664442041E+03  0.35765814117E+03  0.41800000000E+01 0.  1.
         -5    1    4    4    0  502  0.22369679544E+02  0.13743555509E+02 -0.53961752485E+03  0.54027199946E+03  0.41800000000E+01 0.  1.
        -11    1    3    3    0    0 -0.23725317475E+02  0.88713957305E+01 -0.11126450658E+02  0.27665687335E+02  0.00000000000E+00 0.  1.
         11    1    3    3    0    0  0.21554861558E+02  0.63009290131E+02 -0.22749374012E+03  0.23704047016E+03  0.00000000000E+00 0. -1.
</event>
<event>
 6    1  0.9181008E-006  0.1535928E+03  0.7561462E-02  0.1196126E+00
          1   -1    0    0  501    0  0.00000000000E+00  0.00000000000E+00  0.98147890151E+03  0.98147890151E+03  0.00000000000E+00 0. -1.
         -1   -1    0    0    0  501 -0.00000000000E+00 -0.00000000000E+00 -0.38786794565E+02  0.38786794565E+02  0.00000000000E+00 0.  1.
          5    1    1    2  502    0  0.12876634516E+03  0.50988916721E+02  0.71205387213E+03  0.72540942267E+03  0.41800000000E+01 0. -1.
         -5    1    1    2    0  502 -0.13219681549E+03 -0.18913911923E+02  0.22122070411E+03  0.25843723884E+03  0.41800000000E+01 0.  1.
        -11    1    1    2    0    0 -0.43872339706E+01 -0.21062829528E+02  0.74675771191E+01  0.22774005306E+02  0.00000000000E+00 0. -1.
         11    1    1    2    0    0  0.78177043032E+01 -0.11012175270E+02  0.19499535848E+01  0.13645029268E+02  0.00000000000E+00 0.  1.
</event>
<event>
 8    1  0.9181008E-006  0.8457845E+02  0.7561462E-02  0.1316539E+00
         -1   -1    0    0    0  501 -0.00000000000E+00  0.00000000000E+00  0.56856687749E+02  0.56856687749E+02  0.00000000000E+00 0.  1.
          1   -1    0    0  501    0  0.00000000000E+00 -0.00000000000E+00 -0.27259945032E+03  0.27259945032E+03  0.00000000000E+00 0. -1.
         23    2    1    2    0    0 -0.40899561439E+02  0.37739918383E+02 -0.62504899521E+02  0.12396586732E+03  0.91452710349E+02 0.  0.
         23    2    1    2    0    0  0.40899561439E+02 -0.37739918383E+02 -0.15323786305E+03  0.20549027075E+03  0.12508930064E+03 0.  0.
          5    1    4    4  502    0  0.50579361146E+02  0.22315215953E+01 -0.15599630289E+03  0.16405965494E+03  0.41800000000E+01 0. -1.
         -5    1    4    4    0  502 -0.96797997078E+01 -0.39971439979E+02  0.27584398409E+01  0.41430615814E+02  0.41800000000E+01 0. -1.
        -11    1    3    3    0    0  0.12027105640E+02  0.15472725529E+02  0.16966345414E+02  0.25921292061E+02  0.00000000000E+00 0.  1.
         11    1    3    3    0    0 -0.52926667079E+02  0.22267192854E+02 -0.79471244935E+02  0.98044575257E+02  0.00000000000E+00 0. -1.
</event>
<event>
 8    1  0.9181008E-006  0.1036140E+03  0.7561462E-02  0.1272875E+00
         -2   -1    0    0    0  501 -0.00000000000E+00  0.00000000000E+00  0.47520781718E+02  0.47520781718E+02  0.00000000000E+00 0.  1.
          2   -1    0    0  501    0  0.00000000000E+00 -0.00000000000E+00 -0.33840086503E+03  0.33840086503E+03  0.00000000000E+00 0. -1.
         23    2    1    2    0    0  0.42800730315E+02 -0.20347788363E+02 -0.43801931918E+02  0.10495592526E+03  0.82771988017E+02 0.  0.
         23    2    1    2    0    0 -0.42800730315E+02  0.20347788363E+02 -0.24707815139E+03  0.28096572149E+03  0.12509272061E+03 0.  0.
          5    1    4    4  502    0  0.30129826848E+02  0.46834799763E+02 -0.11131271528E+03  0.12453633172E+03  0.41800000000E+01 0. -1.
         -5    1    4    4    0  502 -0.72930557163E+02 -0.26487011400E+02 -0.13576543611E+03  0.15642938977E+03  0.41800000000E+01 0. -1.
        -11    1    3    3    0    0  0.56550267211E+02 -0.19803945253E+02 -0.92472485310E+00  0.59924820277E+02  0.00000000000E+00 0.  1.
         11    1    3    3    0    0 -0.13749536895E+02 -0.54384310935E+00 -0.42877207065E+02  0.45031104981E+02  0.00000000000E+00 0. -1.
</event>
<event>
 7    1  0.9181008E-006  0.1363597E+03  0.7561462E-02  0.1218313E+00
          1   -1    0    0  501    0  0.00000000000E+00  0.00000000000E+00  0.17140029465E+04  0.17140029465E+04  0.00000000000E+00 0. -1.
         -1   -1    0    0    0  501 -0.00000000000E+00 -0.00000000000E+00 -0.23501023516E+02  0.23501023516E+02  0.00000000000E+00 0.  1.
         23    2    1    2    0    0 -0.56818468462E+02  0.99493292575E+02  0.14995211074E+04  0.15090853146E+04  0.12509069402E+03 0.  0.
          5    1    3    3  502    0 -0.83642569845E+02  0.79870193317E+02  0.75565320994E+03  0.76446358538E+03  0.41800000000E+01 0.  1.
         -5    1    3    3    0  502  0.26824101383E+02  0.19623099258E+02  0.74386789742E+03  0.74462172924E+03  0.41800000000E+01 0.  1.
        -11    1    1    2    0    0 -0.73393920937E+01 -0.20227960744E+02  0.20232604017E+02  0.29536339270E+02  0.00000000000E+00 0.  1.
         11    1    1    2    0    0  0.64157860556E+02 -0.79265331830E+02  0.17074821155E+03  0.19888231608E+03  0.00000000000E+00 0. -1.
</event>
<event>
 8    1  0.9181008E-006  0.2231850E+03  0.7561462E-02  0.1131531E+00
          1   -1    0    0  501    0  0.00000000000E+00  0.00000000000E+00  0.11975144161E+03  0.11975144161E+03  0.00000000000E+00 0. -1.
         -1   -1    0    0    0  501 -0.00000000000E+00 -0.00000000000E+00 -0.60565522794E+03  0.60565522794E+03  0.00000000000E+00 0.  1.
         23    2    1    2    0    0 -0.19531492254E+03  0.37636858835E+02 -0.43233154979E+03  0.48440292755E+03  0.90394552717E+02 0.  0.
         23    2    1    2    0    0  0.19531492254E+03 -0.37636858835E+02 -0.53572236540E+02  0.24100374201E+03  0.12509343318E+03 0.  0.
          5    1    4    4  502    0  0.13904217692E+03 -0.83342897208E+02 -0.41541429380E+02  0.16739751561E+03  0.41800000000E+01 0. -1.
         -5    1    4    4    0  502  0.56272745617E+02  0.45706038373E+02 -0.12030807160E+02  0.73606226394E+02  0.41800000000E+01 0. -1.
        -11    1    3    3    0    0 -0.12848629461E+03  0.59065560825E+02 -0.34147551432E+03  0.36959842432E+03  0.00000000000E+00 0.  1.
         11    1    3    3    0    0 -0.66828627932E+02 -0.21428701990E+02 -0.90856035473E+02  0.11480450323E+03  0.00000000000E+00 0. -1.
</event>
<event>
 8    1  0.9181008E-006  0.1968340E+03  0.7561462E-02  0.1152438E+00
         -1   -1    0    0    0  501 -0.00000000000E+00  0.00000000000E+00  0.61740051781E+03  0.61740051781E+03  0.00000000000E+00 0.  1.
          1   -1    0    0  501    0  0.00000000000E+00 -0.00000000000E+00 -0.14142045386E+03  0.14142045386E+03  0.00000000000E+00 0. -1.
         23    2    1    2    0    0  0.12879185330E+03  0.11633684381E+03  0.50597564502E+03  0.54279094811E+03  0.92136080281E+02 0.  0.
         23    2    1    2    0    0 -0.12879185330E+03 -0.11633684381E+03 -0.29995581065E+02  0.21603002356E+03  0.12509050120E+03 0.  0.
          5    1    4    4  502    0 -0.23576809797E+01  0.14653434909E+02  0.21801965407E+02  0.26703556128E+02  0.41800000000E+01 0.  1.
         -5    1    4    4    0  502 -0.12643417232E+03 -0.13099027872E+03 -0.51797546472E+02  0.18932646743E+03  0.41800000000E+01 0.  1.
        -11    1    3    3    0    0 -0.11500457639E+02  0.28226095947E+02  0.67489992104E+02  0.74053170442E+02  0.00000000000E+00 0. -1.
         11    1    3    3    0    0  0.14029231094E+03  0.88110747867E+02  0.43848565291E+03  0.46873777766E+03  0.00000000000E+00 0.  1.
</event>
<event>
 8    1  0.9181008E-006  0.1095611E+03  0.7561462E-02  0.1261385E+00
          2   -1    0    0  501    0  0.00000000000E+00  0.00000000000E+00  0.25933513171E+02  0.25933513171E+02  0.00000000000E+00 0. -1.
         -2   -1    0    0    0  501 -0.00000000000E+00 -0.00000000000E+00 -0.54147710288E+03  0.54147710288E+03  0.00000000000E+00 0.  1.
         23    2    1    2    0    0  0.29604390481E+02 -0.37608145609E+02 -0.25614181947E+03  0.27547309837E+03  0.89364443119E+02 0.  0.
         23    2    1    2    0    0 -0.29604390481E+02  0.37608145609E+02 -0.25940177024E+03  0.29193751768E+03  0.12508974088E+03 0.  0.
          5    1    4    4  502    0 -0.62888517027E+02 -0.55824510170E+01 -0.20601123281E+03  0.21550923362E+03  0.41800000000E+01 0. -1.
         -5    1    4    4    0  502  0.33284126546E+02  0.43190596626E+02 -0.53390537436E+02  0.76428284061E+02  0.41800000000E+01 0. -1.
        -11    1    3    3    0    0  0.39171794039E+02  0.19149656001E+02 -0.10161728011E+03  0.11057671721E+03  0.00000000000E+00 0.  1.
         11    1    3    3    0    0 -0.95674035576E+01 -0.56757801610E+02 -0.15452453936E+03  0.16489638116E+03  0.00000000000E+00 0. -1.
</event>
<event>
 8    1  0.9181008E-006  0.1083407E+03  0.7561462E-02  0.1263674E+00
         -1   -1    0    0    0  501 -0.00000000000E+00  0.00000000000E+00  0.14443569060E+02  0.14443569060E+02  0.00000000000E+00 0.  1.
          1   -1    0    0  501    0  0.00000000000E+00 -0.00000000000E+00 -0.21876442254E+04  0.21876442254E+04  0.00000000000E+00 0. -1.
         23    2    1    2    0    0 -0.49730066259E+02  0.18063576816E+02 -0.25898973523E+03  0.28306464255E+03  0.10124493373E+03 0.  0.
         23    2    1    2    0    0  0.49730066259E+02 -0.18063576816E+02 -0.19142109211E+04  0.19190231519E+04  0.12508810811E+03 0.  0.
          5    1    4    4  502    0 -0.37100634052E+02  0.54308267730E+01 -0.31010547029E+03  0.31239210302E+03  0.41800000000E+01 0. -1.
         -5    1    4    4    0  502  0.86830700311E+02 -0.23494403589E+02 -0.16041054508E+04  0.16066310489E+04  0.41800000000E+01 0. -1.
        -11    1    3    3    0    0 -0.41953018491E+02 -0.22496420623E+02 -0.46314655372E+02  0.66416805129E+02  0.00000000000E+00 0.  1.
         11    1    3    3    0    0 -0.77770477680E+01  0.40559997439E+02 -0.21267507986E+03  0.21664783742E+03  0.00000000000E+00 0. -1.
</event>
<event>
 8    1  0.9181008E-006  0.1912810E+03  0.7561462E-02  0.1157311E+00
          2   -1    0    0  501    0  0.00000000000E+00  0.00000000000E+00  0.53720722811E+03  0.53720722811E+03  0.00000000000E+00 0.  1.
         -2   -1    0    0    0  501 -0.00000000000E+00 -0.00000000000E+00 -0.10453342059E+03  0.10453342059E+03  0.00000000000E+00 0. -1.
         23    2    1    2    0    0  0.34627180469E+02 -0.15798458260E+03  0.27398627616E+02  0.18780969909E+03  0.91452874813E+02 0.  0.
         23    2    1    2    0    0 -0.34627180469E+02  0.15798458260E+03  0.40527517990E+03  0.45393094960E+03  0.12508863093E+03 0.  0.
          5    1    4    4  502    0  0.39271532088E+02  0.32620507654E+02  0.16720600977E+03  0.17487616434E+03  0.41800000000E+01 0.  1.
         -5    1    4    4    0  502 -0.73898712558E+02  0.12536407495E+03  0.23806917014E+03  0.27905478526E+03  0.41800000000E+01 0.  1.
        -11    1    3    3    0    0 -0.30968965510E+02 -0.64534798654E+02  0.85364411788E+01  0.72088056501E+02  0.00000000000E+00 0.  1.
         11    1    3    3    0    0  0.65596145980E+02 -0.93449783947E+02  0.18862186437E+02  0.11572164259E+03  0.00000000000E+00 0. -1.
</event>
<event>
 8    1  0.9181008E-006  0.9805485E+02  0.7561462E-02  0.1284440E+00
          2   -1    0    0  501    0  0.00000000000E+00  0.00000000000E+00  0.95303813391E+02  0.95303813391E+02  0.00000000000E+00 0. -1.
         -2   -1    0    0    0  501 -0.00000000000E+00 -0.00000000000E+00 -0.18641962970E+03  0.18641962970E+03  0.00000000000E+00 0.  1.
         23    2    1    2    0    0 -0.79627393466E+01  0.28175264604E+02 -0.11654338261E+03  0.15076042184E+03  0.91044461729E+02 0.  0.
         23    2    1    2    0    0  0.79627393466E+01 -0.28175264604E+02  0.25427566293E+02  0.13096302125E+03  0.12508997184E+03 0.  0.
          5    1    4    4  502    0 -0.15191113065E+02  0.45948068564E+02  0.21432630953E+02  0.53092607682E+02  0.41800000000E+01 0. -1.
         -5    1    4    4    0  502  0.23153852411E+02 -0.74123333168E+02  0.39949353400E+01  0.77870413571E+02  0.41800000000E+01 0. -1.
        -11    1    3    3    0    0  0.23562237374E+02  0.30050794173E+02 -0.97730904166E+01  0.39417541232E+02  0.00000000000E+00 0. -1.
         11    1    3    3    0    0 -0.31524976721E+02 -0.18755295692E+01 -0.10677029219E+03  0.11134288061E+03  0.00000000000E+00 0.  1.
</event>
<event>
 8    1  0.9181008E-006  0.9309778E+02  0.7561462E-02  0.1295519E+00
          1   -1    0    0  501    0  0.00000000000E+00  0.00000000000E+00  0.12022915452E+03  0.12022915452E+03  0.00000000000E+00 0. -1.
         -1   -1    0    0    0  501 -0.00000000000E+00 -0.00000000000E+00 -0.18463462418E+03  0.18463462418E+03  0.00000000000E+00 0.  1.
         23    2    1    2    0    0  0.68771831877E+02  0.14149621865E+02 -0.10569807800E+03  0.15558924890E+03  0.90034182522E+02 0.  0.
         23    2    1    2    0    0 -0.68771831877E+02 -0.14149621865E+02  0.41292608339E+02  0.14927452980E+03  0.12509208242E+03 0.  0.
          5    1    4    4  502    0  0.41894420996E+01 -0.35005148235E+02 -0.28932555801E+02  0.45798220634E+02  0.41800000000E+01 0. -1.
         -5    1    4    4    0  502 -0.72961273976E+02  0.20855526370E+02  0.70225164140E+02  0.10347630917E+03  0.41800000000E+01 0. -1.
        -11    1    3    3    0    0  0.38901363155E+02 -0.49880952443E+01 -0.11278797107E+03  0.11941240961E+03  0.00000000000E+00 0.  1.
         11    1    3    3    0    0  0.29870468721E+02  0.19137717109E+02  0.70898930700E+01  0.36176839297E+02  0.00000000000E+00 0. -1.
</event>
<event>
 6    1  0.9181008E-006  0.9581368E+02  0.7561462E-02  0.1289354E+00
         -2   -1    0    0    0  501 -0.00000000000E+00  0.00000000000E+00  0.83860830642E+01  0.83860830642E+01  0.00000000000E+00 0.  1.
          2   -1    0    0  501    0  0.00000000000E+00 -0.00000000000E+00 -0.11248713253E+04  0.11248713253E+04  0.00000000000E+00 0. -1.
          5    1    1    2  502    0 -0.69105244338E+02  0.19354897610E+02 -0.49495192036E+03  0.50014500170E+03  0.41800000000E+01 0. -1.
         -5    1    1    2    0  502  0.47099567461E+02 -0.47948313413E+02 -0.38386526947E+03  0.38972737589E+03  0.41800000000E+01 0.  1.
        -11    1    1    2    0    0 -0.89528431376E+01  0.17238040183E+02 -0.83425597005E+02  0.85657070142E+02  0.00000000000E+00 0. -1.
         11    1    1    2    0    0  0.30958520014E+02  0.11355375620E+02 -0.15424245540E+03  0.15772796064E+03  0.00000000000E+00 0.  1.
</event>
<event>
 8    1  0.9181008E-006  0.9450857E+02  0.7561462E-02  0.1292287E+00
         -2   -1    0    0    0  501 -0.00000000000E+00  0.00000000000E+00  0.17273715940E+02  0.17273715940E+02  0.00000000000E+00 0.  1.
          2   -1    0    0  501    0  0.00000000000E+00 -0.00000000000E+00 -0.10125276680E+04  0.10125276680E+04  0.00000000000E+00 0. -1.
         23    2    1    2    0    0  0.29154195076E+02 -0.32647786719E+02 -0.19785100750E+03  0.22146090597E+03  0.89353604504E+02 0.  0.
         23    2    1    2    0    0 -0.29154195076E+02  0.32647786719E+02 -0.79740294458E+03  0.80834047799E+03  0.12508807800E+03 0.  0.
          5    1    4    4  502    0 -0.47800961394E+02  0.55113449471E+02 -0.74187951563E+03  0.74546972596E+03  0.41800000000E+01 0.  1.
         -5    1    4    4    0  502  0.18646766318E+02 -0.22465662752E+02 -0.55523428953E+02  0.62870752021E+02  0.41800000000E+01 0.  1.
        -11    1    3    3    0    0  0.43801514151E+02  0.68396362169E+01 -0.15564648763E+03  0.16183690054E+03  0.00000000000E+00 0. -1.
         11    1    3    3    0    0 -0.14647319075E+02 -0.39487422936E+02 -0.42204519866E+02  0.59624005428E+02  0.00000000000E+00 0.  1.
</event>
<event>
 8    1  0.9181008E-006  0.1591776E+03  0.7561462E-02  0.1189628E+00
         -2   -1    0    0    0  501 -0.00000000000E+00  0.00000000000E+00  0.60235338205E+02  0.60235338205E+02  0.00000000000E+00 0.  1.
          2   -1    0    0  501    0  0.00000000000E+00 -0.00000000000E+00 -0.44036547884E+03  0.44036547884E+03  0.00000000000E+00 0. -1.
         23    2    1    2    0    0 -0.11849668579E+03 -0.10364641701E+02 -0.12810808629E+03  0.19512981008E+03  0.86689507263E+02 0.  0.
         23    2    1    2    0    0  0.11849668579E+03  0.10364641701E+02 -0.25202205435E+03  0.30547100697E+03  0.12509408409E+03 0.  0.
          5    1    4    4  502    0  0.31818451085E+02 -0.54878335259E+02 -0.10421314572E+03  0.12207332900E+03  0.41800000000E+01 0.  1.
         -5    1    4    4    0  502  0.86678234709E+02  0.65242976960E+02 -0.14780890863E+03  0.18339767797E+03  0.41800000000E+01 0.  1.
        -11    1    3    3    0    0 -0.62722778441E+02  0.37188923752E+02 -0.52688827989E+02  0.89962634354E+02  0.00000000000E+00 0. -1.
         11    1    3    3    0    0 -0.55773907353E+02 -0.47553565453E+02 -0.75419258296E+02  0.10516717573E+03  0.00000000000E+00 0.  1.
</event>
<event>
 8    1  0.9181008E-006  0.1189438E+03  0.7561462E-02  0.1244850E+00
          2   -1    0    0  501    0  0.00000000000E+00  0.00000000000E+00  0.33957941906E+03  0.33957941906E+03  0.00000000000E+00 0. -1.
         -2   -1    0    0    0  501 -0.00000000000E+00 -0.00000000000E+00 -0.54690786453E+02  0.54690786453E+02  0.00000000000E+00 0.  1.
         23    2    1    2    0    0  0.79714683100E+02  0.31297899378E+02  0.10771386311E+03  0.16108642837E+03  0.83741100368E+02 0.  0.
         23    2    1    2    0    0 -0.79714683100E+02 -0.31297899378E+02  0.17717476950E+03  0.23318377715E+03  0.12509910379E+03 0.  0.
          5    1    4    4  502    0 -0.67035783653E+02 -0.64924000174E+02  0.17320134477E+03  0.19678694143E+03  0.41800000000E+01 0. -1.
         -5    1    4    4    0  502 -0.12678899447E+02  0.33626100796E+02  0.39734247297E+01  0.36396835714E+02  0.41800000000E+01 0. -1.
        -11    1    3    3    0    0  0.25693920017E+02 -0.20940173855E+02  0.45533276992E+01  0.33457453580E+02  0.00000000000E+00 0. -1.
         11    1    3    3    0    0  0.54020763084E+02  0.52238073233E+02  0.10316053541E+03  0.12762897479E+03  0.00000000000E+00 0.  1.
</event>
<event>
 8    1  0.9181008E-006  0.1572121E+03  0.7561462E-02  0.1191881E+00
          1   -1    0    0  501    0  0.00000000000E+00  0.00000000000E+00  0.30294952129E+03  0.30294952129E+03  0.00000000000E+00 0. -1.
         -1   -1    0    0    0  501 -0.00000000000E+00 -0.00000000000E+00 -0.10276990472E+03  0.10276990472E+03  0.00000000000E+00 0.  1.
         23    2    1    2    0    0  0.98735655687E+02 -0.89671163775E+02  0.49409726414E+02  0.16872099532E+03  0.90751340938E+02 0.  0.
         23    2    1    2    0    0 -0.98735655687E+02  0.89671163775E+02  0.15076989015E+03  0.23699843069E+03  0.12508816513E+03 0.  0.
          5    1    4    4  502    0 -0.51630581684E+02  0.10535742906E+03  0.14540734616E+03  0.18688679338E+03  0.41800000000E+01 0.  1.
         -5    1    4    4    0  502 -0.47105074002E+02 -0.15686265284E+02  0.53625439861E+01  0.50111637305E+02  0.41800000000E+01 0.  1.
        -11    1    3    3    0    0  0.10736233660E+03 -0.78096549175E+02  0.64703891130E+02  0.14768999912E+03  0.00000000000E+00 0. -1.
         11    1    3    3    0    0 -0.86266809169E+01 -0.11574614600E+02 -0.15294164716E+02  0.21030996199E+02  0.00000000000E+00 0.  1.
</event>
<event>
 7    1  0.9181008E-006  0.1462008E+03  0.7561462E-02  0.1205221E+00
          1   -1    0    0  501    0  0.00000000000E+00  0.00000000000E+00  0.34702172664E+04  0.34702172664E+04  0.00000000000E+00 0. -1.
         -1   -1    0    0    0  501 -0.00000000000E+00 -0.00000000000E+00 -0.19856821887E+02  0.19856821887E+02  0.00000000000E+00 0.  1.
         23    2    1    2    0    0  0.13752179702E+01  0.86596281081E+02  0.20541325325E+03  0.24079880148E+03  0.91042029087E+02 0.  0.
          5    1    1    2  502    0  0.56015043371E+02 -0.94002866038E+02  0.21811767272E+04  0.21839239024E+04  0.41800000000E+01 0. -1.
         -5    1    1    2    0  502 -0.57390261341E+02  0.74065849567E+01  0.10637704641E+04  0.10653513844E+04  0.41800000000E+01 0.  1.
        -11    1    3    3    0    0 -0.29849467131E+02 -0.29968470828E+01  0.38547954880E+02  0.48845845329E+02  0.00000000000E+00 0. -1.
         11    1    3    3    0    0  0.31224685101E+02  0.89593128164E+02  0.16686529837E+03  0.19195295615E+03  0.00000000000E+00 0.  1.
</event>
<event>
 8    1  0.9181008E-006  0.8265452E+02  0.7561462E-02  0.1321683E+00
          2   -1    0    0  501    0  0.00000000000E+00  0.00000000000E+00  0.13769931783E+04  0.13769931783E+04  0.00000000000E+00 0. -1.
         -2   -1    0    0    0  501 -0.00000000000E+00 -0.00000000000E+00 -0.11333576671E+02  0.11333576671E+02  0.00000000000E+00 0.  1.
         23    2    1    2    0    0  0.23276123863E+02  0.14451016040E+02  0.29411739570E+03  0.30916012703E+03  0.91237776616E+02 0.  0.
         23    2    1    2    0    0 -0.23276123863E+02 -0.14451016040E+02  0.10715422059E+04  0.10791666279E+04  0.12508917610E+03 0.  0.
          5    1    4    4  502    0  0.70257124467E+01  0.26623935663E+02  0.89274581869E+03  0.89318014072E+03  0.41800000000E+01 0.  1.
         -5    1    4    4    0  502 -0.30301836310E+02 -0.41074951703E+02  0.17879638722E+03  0.18598648721E+03  0.41800000000E+01 0.  1.
        -11    1    3    3    0    0  0.51253709305E+02  0.24117223864E+02  0.24780311923E+03  0.25419474641E+03  0.00000000000E+00 0. -1.
         11    1    3    3    0    0 -0.27977585441E+02 -0.96662078237E+01  0.46314276477E+02  0.54965380618E+02  0.00000000000E+00 0.  1.
</event>
<event>
 8    1  0.9181008E-006  0.1300640E+03  0.7561462E-02  0.1227361E+00
          3   -1    0    0  501    0  0.00000000000E+00  0.00000000000E+00  0.13235854740E+03  0.13235854740E+03  0.00000000000E+00 0. -1.
         -3   -1    0    0    0  501 -0.00000000000E+00 -0.00000000000E+00 -0.14517023477E+03  0.14517023477E+03  0.00000000000E+00 0.  1.
         23    2    1    2    0    0  0.80848656809E+02 -0.30946382861E+02 -0.64697646921E+01  0.12527406177E+03  0.90319149563E+02 0.  0.
         23    2    1    2    0    0 -0.80848656809E+02  0.30946382861E+02 -0.63419226759E+01  0.15225472040E+03  0.12508835270E+03 0.  0.
          5    1    4    4  502    0 -0.29487821674E+02  0.76179727199E+02  0.80619303001E+01  0.82190933705E+02  0.41800000000E+01 0. -1.
         -5    1    4    4    0  502 -0.51360835135E+02 -0.45233344338E+02 -0.14403852976E+02  0.70063786697E+02  0.41800000000E+01 0. -1.
        -11    1    3    3    0    0  0.29802924414E+02  0.21369963092E+02 -0.31159948888E+02  0.48123092594E+02  0.00000000000E+00 0.  1.
         11    1    3    3    0    0  0.51045732395E+02 -0.52316345952E+02  0.24690184196E+02  0.77150969178E+02  0.00000000000E+00 0. -1.
</event>
<event>
 8    1  0.9181008E-006  0.1336876E+03  0.7561462E-02  0.1222084E+00
         -1   -1    0    0    0  501 -0.00000000000E+00  0.00000000000E+00  0.22887953921E+03  0.22887953921E+03  0.00000000000E+00 0.  1.
          1   -1    0    0  501    0  0.00000000000E+00 -0.00000000000E+00 -0.10440278589E+03  0.10440278589E+03  0.00000000000E+00 0. -1.
         23    2    1    2    0    0  0.89684262976E+02 -0.36135833222E+02  0.11896283617E+03  0.17508297814E+03  0.84574389601E+02 0.  0.
         23    2    1    2    0    0 -0.89684262976E+02  0.36135833222E+02  0.55139171492E+01  0.15819934696E+03  0.12509022595E+03 0.  0.
          5    1    4    4  502    0 -0.10800938355E+03 -0.87035561382E+01 -0.46058999620E+01  0.10853785302E+03  0.41800000000E+01 0.  1.
         -5    1    4    4    0  502  0.18325120569E+02  0.44839389360E+02  0.10119817111E+02  0.49661493941E+02  0.41800000000E+01 0.  1.
        -11    1    3    3    0    0  0.39206547382E+02  0.11553052034E+02  0.43898502234E+01  0.41108358687E+02  0.00000000000E+00 0.  1.
         11    1    3    3    0    0  0.50477715594E+02 -0.47688885256E+02  0.11457298595E+03  0.13397461946E+03  0.00000000000E+00 0. -1.
</event>
<event>
 7    1  0.9181008E-006  0.2030383E+03  0.7561462E-02  0.1147201E+00
         -1   -1    0    0    0  501 -0.00000000000E+00  0.00000000000E+00  0.13177777224E+03  0.13177777224E+03  0.00000000000E+00 0.  1.
          1   -1    0    0  501    0  0.00000000000E+00 -0.00000000000E+00 -0.53637432879E+03  0.53637432879E+03  0.00000000000E+00 0. -1.
         23    2    1    2    0    0 -0.11928144438E+03 -0.59113570198E+02  0.14853619216E+02  0.16219032183E+03  0.91447216124E+02 0.  0.
          5    1    1    2  502    0  0.18063625355E+03  0.42902140159E+02 -0.39739870752E+03  0.43864935298E+03  0.41800000000E+01 0. -1.
         -5    1    1    2    0  502 -0.61354809174E+02  0.16211430039E+02 -0.22051468240E+02  0.67312426224E+02  0.41800000000E+01 0.  1.
        -11    1    3    3    0    0 -0.19076304979E+02 -0.53057447024E+02 -0.13298426618E+02  0.57929666380E+02  0.00000000000E+00 0. -1.
         11    1    3    3    0    0 -0.10020513940E+03 -0.60561231731E+01  0.28152045835E+02  0.10426065545E+03  0.00000000000E+00 0.  1.
</event>
<event>
 8    1  0.9181008E-006  0.1030937E+03  0.7561462E-02  0.1273922E+00
         -1   -1    0    0    0  501 -0.00000000000E+00  0.00000000000E+00  0.32740849714E+03  0.32740849714E+03  0.00000000000E+00 0.  1.
          1   -1    0    0  501    0  0.00000000000E+00 -0.00000000000E+00 -0.39958849215E+02  0.39958849215E+02  0.00000000000E+00 0. -1.
         23    2    1    2    0    0 -0.38875508643E+02  0.55179108511E+01  0.10641192198E+03  0.14384129808E+03  0.88459422233E+02 0.  0.
         23    2    1    2    0    0  0.38875508643E+02 -0.55179108511E+01  0.18103772595E+03  0.22352604828E+03  0.12508990179E+03 0.  0.
          5    1    4    4  502    0  0.29693479332E+02  0.51792837673E+02  0.42909327699E+02  0.73640230531E+02  0.41800000000E+01 0.  1.
         -5    1    4    4    0  502  0.91820293109E+01 -0.57310748524E+02  0.13812839825E+03  0.14988581775E+03  0.41800000000E+01 0.  1.
        -11    1    3    3    0    0 -0.19215717785E+02 -0.36784332077E+02  0.80280836298E+02  0.90373356544E+02  0.00000000000E+00 0.  1.
         11    1    3    3    0    0 -0.19659790858E+02  0.42302242928E+02  0.26131085683E+02  0.53467941538E+02  0.00000000000E+00 0. -1.
</event>
<event>
 7    1  0.9181008E-006  0.1440390E+03  0.7561462E-02  0.1207995E+00
          1   -1    0    0  501    0  0.00000000000E+00  0.00000000000E+00  0.54491947155E+03  0.54491947155E+03  0.00000000000E+00 0. -1.
         -1   -1    0    0    0  501 -0.00000000000E+00 -0.00000000000E+00 -0.48753610982E+02  0.48753610982E+02  0.00000000000E+00 0.  1.
         23    2    1    2    0    0 -0.13680882670E+02  0.47756570210E+02  0.82506137713E+02  0.13469932468E+03  0.94174246802E+02 0.  0.
          5    1    1    2  502    0 -0.21612909854E+02  0.69002886904E+02  0.10999571078E+03  0.13170058870E+03  0.41800000000E+01 0.  1.
         -5    1    1    2    0  502  0.35293792524E+02 -0.11675945711E+03  0.30366401207E+03  0.32727316915E+03  0.41800000000E+01 0. -1.
        -11    1    3    3    0    0 -0.41654129502E+02  0.42417369140E+01  0.69858948591E+02  0.81445267112E+02  0.00000000000E+00 0. -1.
         11    1    3    3    0    0  0.27973246832E+02  0.43514833296E+02  0.12647189122E+02  0.53254057571E+02  0.00000000000E+00 0.  1.
</event>
<event>
 8    1  0.9181008E-006  0.1030523E+03  0.7561462E-02  0.1274005E+00
         -2   -1    0    0    0  501 -0.00000000000E+00  0.00000000000E+00  0.12274816271E+02  0.12274816271E+02  0.00000000000E+00 0.  1.
          2   -1    0    0  501    0  0.00000000000E+00 -0.00000000000E+00 -0.10129288577E+04  0.10129288577E+04  0.00000000000E+00 0. -1.
         23    2    1    2    0    0 -0.24504480905E+01  0.11976448452E+02 -0.33269901141E+03  0.34552437463E+03  0.92460917458E+02 0.  0.
         23    2    1    2    0    0  0.24504480905E+01 -0.11976448452E+02 -0.66795503000E+03  0.67967929932E+03  0.12510230937E+03 0.  0.
          5    1    4    4  502    0 -0.55143699422E+02 -0.60515214124E+01 -0.18318871091E+03  0.19144979682E+03  0.41800000000E+01 0.  1.
         -5    1    4    4    0  502  0.57594147513E+02 -0.59249270391E+01 -0.48476631909E+03  0.48822950250E+03  0.41800000000E+01 0.  1.
        -11    1    3    3    0    0  0.21879659115E+02 -0.33985515578E+02 -0.16885118284E+03  0.17362159053E+03  0.00000000000E+00 0.  1.
         11    1    3    3    0    0 -0.24330107205E+02  0.45961964029E+02 -0.16384782857E+03  0.17190278410E+03  0.00000000000E+00 0. -1.
</event>
<event>
 8    1  0.9181008E-006  0.8599166E+02  0.7561462E-02  0.1312859E+00
          2   -1    0    0  501    0  0.00000000000E+00  0.00000000000E+00  0.21598576065E+03  0.21598576065E+03  0.00000000000E+00 0. -1.
         -2   -1    0    0    0  501 -0.00000000000E+00 -0.00000000000E+00 -0.52877289331E+02  0.52877289331E+02  0.00000000000E+00 0.  1.
         23    2    1    2    0    0  0.71691777169E+01  0.19364907063E+02  0.41457483697E+02  0.10247564799E+03  0.91411917947E+02 0.  0.
         23    2    1    2    0    0 -0.71691777169E+01 -0.19364907063E+02  0.12165098762E+03  0.16638740199E+03  0.11162171839E+03 0.  0.
          5    1    4    4  502    0  0.46387518846E+02 -0.14563487503E+02  0.22982340985E+02  0.53940313960E+02  0.41800000000E+01 0. -1.
         -5    1    4    4    0  502 -0.53556696563E+02 -0.48014195598E+01  0.98668646635E+02  0.11244708803E+03  0.41800000000E+01 0.  1.
        -11    1    3    3    0    0  0.32839371661E+02  0.26950958202E+02  0.57330775776E+02  0.71355422570E+02  0.00000000000E+00 0. -1.
         11    1    3    3    0    0 -0.25670193945E+02 -0.75860511388E+01 -0.15873292079E+02  0.31120225424E+02  0.00000000000E+00 0.  1.
</event>
<event>
 8    1  0.9181008E-006  0.2008120E+03  0.7561462E-02  0.1149056E+00
          2   -1    0    0  501    0  0.00000000000E+00  0.00000000000E+00  0.90264230425E+03  0.90264230425E+03  0.00000000000E+00 0. -1.
         -2   -1    0    0    0  501 -0.00000000000E+00 -0.00000000000E+00 -0.51198251328E+02  0.51198251328E+02  0.00000000000E+00 0.  1.
         23    2    1    2    0    0 -0.18569816651E+03  0.60611205787E+01  0.41460645538E+03  0.46292809580E+03  0.88788303344E+02 0.  0.
         23    2    1    2    0    0  0.18569816651E+03 -0.60611205787E+01  0.43683759755E+03  0.49091245978E+03  0.12508960912E+03 0.  0.
          5    1    4    4  502    0  0.51355927753E+02 -0.51377539245E+02  0.87023848387E+02  0.11343590896E+03  0.41800000000E+01 0. -1.
         -5    1    4    4    0  502  0.13434223876E+03  0.45316418667E+02  0.34981374916E+03  0.37747655082E+03  0.41800000000E+01 0. -1.
        -11    1    3    3    0    0 -0.15787764451E+03 -0.25446642547E+01  0.24944969213E+03  0.29522360146E+03  0.00000000000E+00 0.  1.
         11    1    3    3    0    0 -0.27820522003E+02  0.86057848334E+01  0.16515676324E+03  0.16770449434E+03  0.00000000000E+00 0. -1.
</event>
<event>
 8    1  0.9181008E-006  0.8461219E+02  0.7561462E-02  0.1316450E+00
          2   -1    0    0  501    0  0.00000000000E+00  0.00000000000E+00  0.27010035765E+02  0.27010035765E+02  0.00000000000E+00 0. -1.
         -2   -1    0    0    0  501 -0.00000000000E+00 -0.00000000000E+00 -0.42920417539E+03  0.42920417539E+03  0.00000000000E+00 0.  1.
         23    2    1    2    0    0 -0.28459593140E+02 -0.33388077037E+01 -0.20741047827E+03  0.22615001056E+03  0.85461246783E+02 0.  0.
         23    2    1    2    0    0  0.28459593140E+02  0.33388077037E+01 -0.19478366135E+03  0.23006420059E+03  0.11902842344E+03 0.  0.
          5    1    4    4  502    0  0.16978310594E+02  0.42690556060E+02 -0.19640868235E+02  0.50139632152E+02  0.41800000000E+01 0. -1.
         -5    1    4    4    0  502  0.11481282546E+02 -0.39351748356E+02 -0.17514279311E+03  0.17992456844E+03  0.41800000000E+01 0.  1.
        -11    1    3    3    0    0 -0.54237104978E+02  0.57792091942E+01 -0.87079752671E+02  0.10275186685E+03  0.00000000000E+00 0.  1.
         11    1    3    3    0    0  0.25777511838E+02 -0.91180168980E+01 -0.12033072560E+03  0.12339814371E+03  0.00000000000E+00 0. -1.
</event>
<event>
 7    1  0.9181008E-006  0.1375065E+03  0.7561462E-02  0.1216724E+00
         -2   -1    0    0    0  501 -0.00000000000E+00  0.00000000000E+00  0.39236669899E+03  0.39236669899E+03  0.00000000000E+00 0.  1.
          2   -1    0    0  501    0  0.00000000000E+00 -0.00000000000E+00 -0.82001132966E+02  0.82001132966E+02  0.00000000000E+00 0. -1.
         23    2    1    2    0    0 -0.13637047213E+02 -0.36821943001E+02  0.53615278746E+01  0.13121291902E+03  0.12508500947E+03 0.  0.
          5    1    3    3  502    0  0.36223161405E+02  0.30278587666E+02  0.25157529370E+01  0.47462740187E+02  0.41800000000E+01 0.  1.
         -5    1    3    3    0  502 -0.49860208618E+02 -0.67100530666E+02  0.28457749376E+01  0.83750178830E+02  0.41800000000E+01 0.  1.
        -11    1    1    2    0    0 -0.87185485646E+01  0.87809913549E+02  0.11375982223E+03  0.14397184155E+03  0.00000000000E+00 0. -1.
         11    1    1    2    0    0  0.22355595778E+02 -0.50987970548E+02  0.19124421592E+03  0.19918307138E+03  0.00000000000E+00 0.  1.
</event>
<event>
 8    1  0.9181008E-006  0.1205199E+03  0.7561462E-02  0.1242242E+00
          2   -1    0    0  501    0  0.00000000000E+00  0.00000000000E+00  0.72370315290E+03  0.72370315290E+03  0.00000000000E+00 0. -1.
         -2   -1    0    0    0  501 -0.00000000000E+00 -0.00000000000E+00 -0.29141876269E+02  0.29141876269E+02  0.00000000000E+00 0.  1.
         23    2    1    2    0    0 -0.28632871323E+02 -0.92523575744E+02  0.30395265789E+03  0.33141539931E+03  0.89824803208E+02 0.  0.
         23    2    1    2    0    0  0.28632871323E+02  0.92523575744E+02  0.39060861874E+03  0.42142962986E+03  0.12508951395E+03 0.  0.
          5    1    4    4  502    0  0.43216441249E+02  0.69570179372E+02  0.38462807336E+03  0.39327331192E+03  0.41800000000E+01 0. -1.
         -5    1    4    4    0  502 -0.14583569926E+02  0.22953396372E+02  0.59805453772E+01  0.28156317937E+02  0.41800000000E+01 0. -1.
        -11    1    3    3    0    0  0.29359407682E+02 -0.10742209937E+02  0.86119617447E+02  0.91618548357E+02  0.00000000000E+00 0. -1.
         11    1    3    3    0    0 -0.57992279005E+02 -0.81781365807E+02  0.21783304044E+03  0.23979685095E+03  0.00000000000E+00 0.  1.
</event>
<event>
 7    1  0.9181008E-006  0.1677668E+03  0.7561462E-02  0.1180197E+00
         -2   -1    0    0    0  501 -0.00000000000E+00  0.00000000000E+00  0.63223734117E+02  0.63223734117E+02  0.00000000000E+00 0.  1.
          2   -1    0    0  501    0  0.00000000000E+00 -0.00000000000E+00 -0.96377351643E+03  0.96377351643E+03  0.00000000000E+00 0. -1.
         23    2    1    2    0    0  0.71536129501E+02 -0.11548551276E+03 -0.16674488921E+03  0.23629400522E+03  0.97860499400E+02 0.  0.
          5    1    1    2  502    0 -0.63239252083E+02 -0.24197851486E+01 -0.63046055540E+03  0.63364267745E+03  0.41800000000E+01 0. -1.
         -5    1    1    2    0  502 -0.82968774185E+01  0.11790529790E+03 -0.10334433770E+03  0.15706056788E+03  0.41800000000E+01 0.  1.
        -11    1    3    3    0    0  0.93216002359E+01 -0.83248892878E+02 -0.13610363924E+03  0.15981699225E+03  0.00000000000E+00 0. -1.
         11    1    3    3    0    0  0.62214529265E+02 -0.32236619878E+02 -0.30641249968E+02  0.76477012968E+02  0.00000000000E+00 0.  1.
</event>
<event>
 8    1  0.9181008E-006  0.1625631E+03  0.7561462E-02  0.1185833E+00
          1   -1    0    0  501    0  0.00000000000E+00  0.00000000000E+00  0.24289558946E+03  0.24289558946E+03  0.00000000000E+00 0.  1.
         -1   -1    0    0    0  501 -0.00000000000E+00 -0.00000000000E+00 -0.15628573445E+03  0.15628573445E+03  0.00000000000E+00 0. -1.
         23    2    1    2    0    0 -0.12038988755E+03 -0.93864310428E+02 -0.96413375533E+01  0.17960546618E+03  0.94132535788E+02 0.  0.
         23    2    1    2    0    0  0.12038988755E+03  0.93864310428E+02  0.96251192567E+02  0.21957585774E+03  0.12508010007E+03 0.  0.
          5    1    4    4  502    0  0.53253695266E+01  0.47016940742E+02 -0.17944463951E+02  0.50778228246E+02  0.41800000000E+01 0. -1.
         -5    1    4    4    0  502  0.11506451803E+03  0.46847369686E+02  0.11419565652E+03  0.16879762949E+03  0.41800000000E+01 0. -1.
        -11    1    3    3    0    0 -0.68596249091E+02 -0.62298471321E+02  0.40288951944E+02  0.10104328066E+03  0.00000000000E+00 0.  1.
         11    1    3    3    0    0 -0.51793638461E+02 -0.31565839107E+02 -0.49930289497E+02  0.78562185515E+02  0.00000000000E+00 0. -1.
</event>
<event>
 8    1  0.9181008E-006  0.1004545E+03  0.7561462E-02  0.1279343E+00
         -1   -1    0    0    0  501 -0.00000000000E+00  0.00000000000E+00  0.35969461975E+02  0.35969461975E+02  0.00000000000E+00 0.  1.
          1   -1    0    0  501    0  0.00000000000E+00 -0.00000000000E+00 -0.55792572245E+03  0.55792572245E+03  0.00000000000E+00 0. -1.
         23    2    1    2    0    0 -0.30165776344E+02 -0.21728011526E+02 -0.63069118385E+02  0.11681200852E+03  0.91023354659E+02 0.  0.
         23    2    1    2    0    0  0.30165776344E+02  0.21728011526E+02 -0.45888714209E+03  0.47708317591E+03  0.12509543161E+03 0.  0.
          5    1    4    4  502    0  0.61732284316E+02 -0.28850191860E+02 -0.19804772866E+03  0.20948408943E+03  0.41800000000E+01 0.  1.
         -5    1    4    4    0  502 -0.31566507972E+02  0.50578203387E+02 -0.26083941343E+03  0.26759908648E+03  0.41800000000E+01 0.  1.
        -11    1    3    3    0    0 -0.38771224745E+02  0.99658660712E+01  0.58607818571E+01  0.40458313346E+02  0.00000000000E+00 0.  1.
         11    1    3    3    0    0  0.86054484015E+01 -0.31693877597E+02 -0.68929900243E+02  0.76353695174E+02  0.00000000000E+00 0. -1.
</event>
<event>
 8    1  0.9181008E-006  0.1580929E+03  0.7561462E-02  0.1190867E+00
         -1   -1    0    0    0  501 -0.00000000000E+00  0.00000000000E+00  0.37096319349E+03  0.37096319349E+03  0.00000000000E+00 0.  1.
          1   -1    0    0  501    0  0.00000000000E+00 -0.00000000000E+00 -0.11369772524E+03  0.11369772524E+03  0.00000000000E+00 0. -1.
         23    2    1    2    0    0 -0.13990927412E+03 -0.60059430568E+01  0.24525650389E+03  0.29650507599E+03  0.90298566178E+02 0.  0.
         23    2    1    2    0    0  0.13990927412E+03  0.60059430568E+01  0.12008964362E+02  0.18815584273E+03  0.12509088533E+03 0.  0.
          5    1    4    4  502    0  0.28660579704E+02  0.46103051200E+02 -0.30520285576E+02  0.62416987996E+02  0.41800000000E+01 0.  1.
         -5    1    4    4    0  502  0.11124869441E+03 -0.40097108143E+02  0.42529249938E+02  0.12573885474E+03  0.41800000000E+01 0.  1.
        -11    1    3    3    0    0 -0.92336878831E+02  0.10781175144E+02  0.22254365821E+03  0.24118045679E+03  0.00000000000E+00 0.  1.
         11    1    3    3    0    0 -0.47572395286E+02 -0.16787118201E+02  0.22712845679E+02  0.55324619199E+02  0.00000000000E+00 0. -1.
</event>
<event>
 8    1  0.9181008E-006  0.1148650E+03  0.7561462E-02  0.1251817E+00
          4   -1    0    0  501    0  0.00000000000E+00  0.00000000000E+00  0.13793021381E+03  0.13793021381E+03  0.00000000000E+00 0. -1.
         -4   -1    0    0    0  501 -0.00000000000E+00 -0.00000000000E+00 -0.24321226534E+03  0.24321226534E+03  0.00000000000E+00 0.  1.
         23    2    1    2    0    0  0.78604964890E+02  0.25487402818E+02 -0.17634380932E+03  0.21523803549E+03  0.91662013019E+02 0.  0.
         23    2    1    2    0    0 -0.78604964890E+02 -0.25487402818E+02  0.71061757792E+02  0.16590444366E+03  0.12508462254E+03 0.  0.
          5    1    4    4  502    0  0.13829790020E+02 -0.27317632751E+02 -0.19401164614E+02  0.36488268519E+02  0.41800000000E+01 0. -1.
         -5    1    4    4    0  502 -0.92434754910E+02  0.18302299333E+01  0.90462922406E+02  0.12941617514E+03  0.41800000000E+01 0. -1.
        -11    1    3    3    0    0  0.46779891627E+02 -0.19908181062E+02 -0.14000507825E+03  0.14895004488E+03  0.00000000000E+00 0.  1.
         11    1    3    3    0    0  0.31825073263E+02  0.45395583880E+02 -0.36338731067E+02  0.66287990614E+02  0.00000000000E+00 0. -1.
</event>
<event>
 8    1  0.9181008E-006  0.9279517E+02  0.7561462E-02  0.1296221E+00
         -3   -1    0    0    0  501 -0.00000000000E+00  0.00000000000E+00  0.31578363100E+03  0.31578363100E+03  0.00000000000E+00 0.  1.
          3   -1    0    0  501    0  0.00000000000E+00 -0.00000000000E+00 -0.97309215404E+02  0.97309215404E+02  0.00000000000E+00 0. -1.
         23    2    1    2    0    0  0.20935666434E+02 -0.10925791123E+01  0.26426385202E+03  0.27824895747E+03  0.84543497607E+02 0.  0.
         23    2    1    2    0    0 -0.20935666434E+02  0.10925791123E+01 -0.45789436427E+02  0.13484388894E+03  0.12508679402E+03 0.  0.
          5    1    4    4  502    0 -0.56446823129E+02  0.26376873766E+02  0.10712347004E+02  0.63357794227E+02  0.41800000000E+01 0.  1.
         -5    1    4    4    0  502  0.35511156695E+02 -0.25284294653E+02 -0.56501783431E+02  0.71486094710E+02  0.41800000000E+01 0.  1.
        -11    1    3    3    0    0 -0.29175398253E+02  0.10597309630E+01  0.15885161598E+03  0.16151211345E+03  0.00000000000E+00 0.  1.
         11    1    3    3    0    0  0.50111064687E+02 -0.21523100753E+01  0.10541223604E+03  0.11673684402E+03  0.00000000000E+00 0. -1.
</event>
<event>
 8    1  0.9181008E-006  0.1108514E+03  0.7561462E-02  0.1259001E+00
         -2   -1    0    0    0  501 -0.00000000000E+00  0.00000000000E+00  0.26278435946E+02  0.26278435946E+02  0.00000000000E+00 0.  1.
          2   -1    0    0  501    0  0.00000000000E+00 -0.00000000000E+00 -0.50674631376E+03  0.50674631376E+03  0.00000000000E+00 0. -1.
         23    2    1    2    0    0  0.35002453324E+02  0.18313794109E+02 -0.20692545879E+03  0.22965409221E+03  0.91445556376E+02 0.  0.
         23    2    1    2    0    0 -0.35002453324E+02 -0.18313794109E+02 -0.27354241903E+03  0.30337065750E+03  0.12509090307E+03 0.  0.
          5    1    4    4  502    0 -0.72781731204E+02 -0.40328851641E+02 -0.21180799503E+03  0.22760425266E+03  0.41800000000E+01 0. -1.
         -5    1    4    4    0  502  0.37779277880E+02  0.22015057531E+02 -0.61734423997E+02  0.75766404834E+02  0.41800000000E+01 0. -1.
        -11    1    3    3    0    0  0.78681842367E+01 -0.34340326931E+02 -0.44454112971E+02  0.56721552667E+02  0.00000000000E+00 0.  1.
         11    1    3    3    0    0  0.27134269087E+02  0.52654121040E+02 -0.16247134582E+03  0.17293253954E+03  0.00000000000E+00 0. -1.
</event>
<event>
 8    1  0.9181008E-006  0.1151411E+03  0.7561462E-02  0.1251335E+00
          1   -1    0    0  501    0  0.00000000000E+00  0.00000000000E+00  0.56924612297E+03  0.56924612297E+03  0.00000000000E+00 0. -1.
         -1   -1    0    0    0  501 -0.00000000000E+00 -0.00000000000E+00 -0.29191581873E+02  0.29191581873E+02  0.00000000000E+00 0.  1.
         23    2    1    2    0    0  0.13868083263E+02  0.54339132319E+02  0.14362151657E+03  0.17897804400E+03  0.90889686862E+02 0.  0.
         23    2    1    2    0    0 -0.13868083263E+02 -0.54339132319E+02  0.39643302453E+03  0.41945966084E+03  0.12506877749E+03 0.  0.
          5    1    4    4  502    0  0.40077628434E+02 -0.69334071133E+02  0.21156864450E+03  0.22625691914E+03  0.41800000000E+01 0.  1.
         -5    1    4    4    0  502 -0.53945711697E+02  0.14994938815E+02  0.18486438003E+03  0.19320274171E+03  0.41800000000E+01 0.  1.
        -11    1    3    3    0    0 -0.19256317467E+00  0.71644605093E+02  0.13874851960E+03  0.15615421291E+03  0.00000000000E+00 0. -1.
         11    1    3    3    0    0  0.14060646438E+02 -0.17305472774E+02  0.48729969749E+01  0.22823831091E+02  0.00000000000E+00 0.  1.
</event>
<event>
 8    1  0.9181008E-006  0.1177673E+03  0.7561462E-02  0.1246826E+00
          2   -1    0    0  501    0  0.00000000000E+00  0.00000000000E+00  0.13001105334E+04  0.13001105334E+04  0.00000000000E+00 0. -1.
         -2   -1    0    0    0  501 -0.00000000000E+00 -0.00000000000E+00 -0.20645391249E+02  0.20645391249E+02  0.00000000000E+00 0.  1.
         23    2    1    2    0    0 -0.27916561869E+02 -0.42826743464E+02  0.15177598201E+03  0.18499862339E+03  0.92601714674E+02 0.  0.
         23    2    1    2    0    0  0.27916561869E+02  0.42826743464E+02  0.11276891601E+04  0.11357573012E+04  0.12509332943E+03 0.  0.
          5    1    4    4  502    0 -0.45211159607E+02 -0.87500207312E+00  0.26510632001E+03  0.26896774508E+03  0.41800000000E+01 0. -1.
         -5    1    4    4    0  502  0.73127721477E+02  0.43701745537E+02  0.86258284010E+03  0.86678955615E+03  0.41800000000E+01 0. -1.
        -11    1    3    3    0    0 -0.60952004596E+02 -0.36942264500E+02  0.91166761559E+02  0.11572059533E+03  0.00000000000E+00 0.  1.
         11    1    3    3    0    0  0.33035442726E+02 -0.58844789644E+01  0.60609220447E+02  0.69278028060E+02  0.00000000000E+00 0. -1.
</event>
<event>
 8    1  0.9181008E-006  0.1575965E+03  0.7561462E-02  0.1191437E+00
         -1   -1    0    0    0  501 -0.00000000000E+00  0.00000000000E+00  0.11303709782E+03  0.11303709782E+03  0.00000000000E+00 0.  1.
          1   -1    0    0  501    0  0.00000000000E+00 -0.00000000000E+00 -0.38476355785E+03  0.38476355785E+03  0.00000000000E+00 0. -1.
         23    2    1    2    0    0  0.13424092304E+03 -0.81842818109E+02 -0.23330212880E+02  0.18349410513E+03  0.91689233219E+02 0.  0.
         23    2    1    2    0    0 -0.13424092304E+03  0.81842818109E+02 -0.24839624716E+03  0.31430655054E+03  0.11121618505E+03 0.  0.
          5    1    4    4  502    0 -0.69214363740E+02  0.45005434551E+02 -0.21865866478E+03  0.23376313090E+03  0.41800000000E+01 0. -1.
         -5    1    4    4    0  502 -0.65026559301E+02  0.36837383557E+02 -0.29737582383E+02  0.80543419644E+02  0.41800000000E+01 0.  1.
        -11    1    3    3    0    0  0.91584202387E+02 -0.49213559244E+02 -0.58500205767E+02  0.11929758847E+03  0.00000000000E+00 0. -1.
         11    1    3    3    0    0  0.42656720654E+02 -0.32629258865E+02  0.35169992887E+02  0.64196516655E+02  0.00000000000E+00 0.  1.
</event>
<event>
 8    1  0.9181008E-006  0.9089879E+02  0.7561462E-02  0.1300690E+00
         -2   -1    0    0    0  501 -0.00000000000E+00  0.00000000000E+00  0.59174976014E+02  0.59174976014E+02  0.00000000000E+00 0. -1.
          2   -1    0    0  501    0  0.00000000000E+00 -0.00000000000E+00 -0.28773999717E+03  0.28773999717E+03  0.00000000000E+00 0.  1.
         23    2    1    2    0    0  0.28112345054E+02  0.26255936229E+02 -0.34735602195E+02  0.11304094085E+03  0.10045901710E+03 0.  0.
         23    2    1    2    0    0 -0.28112345054E+02 -0.26255936229E+02 -0.19382941896E+03  0.23387403233E+03  0.12509013235E+03 0.  0.
          5    1    4    4  502    0 -0.26931926191E+02  0.29049136043E+02 -0.16804110587E+03  0.17269761613E+03  0.41800000000E+01 0. -1.
         -5    1    4    4    0  502 -0.11804188633E+01 -0.55305072272E+02 -0.25788313092E+02  0.61176416207E+02  0.41800000000E+01 0. -1.
        -11    1    3    3    0    0  0.16670771757E+02  0.53980826610E+02 -0.53379774876E+02  0.77725443956E+02  0.00000000000E+00 0.  1.
         11    1    3    3    0    0  0.11441573297E+02 -0.27724890381E+02  0.18644172680E+02  0.35315496897E+02  0.00000000000E+00 0. -1.
</event>
<event>
 7    1  0.9181008E-006  0.2655120E+03  0.7561462E-02  0.1103876E+00
         -2   -1    0    0    0  501 -0.00000000000E+00  0.00000000000E+00  0.48700599782E+02  0.48700599782E+02  0.00000000000E+00 0.  1.
          2   -1    0    0  501    0  0.00000000000E+00 -0.00000000000E+00 -0.16907608785E+04  0.16907608785E+04  0.00000000000E+00 0. -1.
         23    2    1    2    0    0  0.42598500281E+02 -0.54291108290E+02 -0.35152010307E+03  0.36983095950E+03  0.91904293017E+02 0.  0.
          5    1    1    2  502    0  0.19115697186E+03  0.10043052171E+02 -0.82356512876E+03  0.84552873665E+03  0.41800000000E+01 0. -1.
         -5    1    1    2    0  502 -0.23375547214E+03  0.44248056119E+02 -0.46697504689E+03  0.52410178214E+03  0.41800000000E+01 0.  1.
        -11    1    3    3    0    0  0.59188121156E+02 -0.59795844083E+02 -0.33626572851E+03  0.34663152890E+03  0.00000000000E+00 0. -1.
         11    1    3    3    0    0 -0.16589620875E+02  0.55047357928E+01 -0.15254374560E+02  0.23199430600E+02  0.00000000000E+00 0.  1.
</event>
<event>
 8    1  0.9181008E-006  0.1805371E+03  0.7561462E-02  0.1167284E+00
         -1   -1    0    0    0  501 -0.00000000000E+00  0.00000000000E+00  0.40528453302E+02  0.40528453302E+02  0.00000000000E+00 0.  1.
          1   -1    0    0  501    0  0.00000000000E+00 -0.00000000000E+00 -0.86074941416E+03  0.86074941416E+03  0.00000000000E+00 0. -1.
         23    2    1    2    0    0  0.10754518427E+03  0.10483710980E+03 -0.31700373730E+03  0.36143326371E+03  0.87096776092E+02 0.  0.
         23    2    1    2    0    0 -0.10754518427E+03 -0.10483710980E+03 -0.50321722356E+03  0.53984460375E+03  0.12509131009E+03 0.  0.
          5    1    4    4  502    0 -0.11956375353E+03 -0.44761019737E+02 -0.39824982016E+03  0.41823370465E+03  0.41800000000E+01 0. -1.
         -5    1    4    4    0  502  0.12018569258E+02 -0.60076090060E+02 -0.10496740339E+03  0.12161089910E+03  0.41800000000E+01 0. -1.
        -11    1    3    3    0    0  0.48802733895E+01  0.59499229987E+02 -0.87055446092E+02  0.10555863836E+03  0.00000000000E+00 0. -1.
         11    1    3    3    0    0  0.10266491088E+03  0.45337879811E+02 -0.22994829121E+03  0.25587462536E+03  0.00000000000E+00 0.  1.
</event>
<event>
 8    1  0.9181008E-006  0.1089889E+03  0.7561462E-02  0.1262454E+00
         -2   -1    0    0    0  501 -0.00000000000E+00  0.00000000000E+00  0.80105932375E+02  0.80105932375E+02  0.00000000000E+00 0.  1.
          2   -1    0    0  501    0  0.00000000000E+00 -0.00000000000E+00 -0.19142582390E+03  0.19142582390E+03  0.00000000000E+00 0. -1.
         23    2    1    2    0    0  0.74957001458E+01 -0.58993193954E+02 -0.51565960970E+02  0.12068615648E+03  0.91486160605E+02 0.  0.
         23    2    1    2    0    0 -0.74957001458E+01  0.58993193954E+02 -0.59753930558E+02  0.15084559980E+03  0.12508988891E+03 0.  0.
          5    1    4    4  502    0 -0.48717033772E+02  0.22480501942E+02 -0.76141418977E+02  0.93240068806E+02  0.41800000000E+01 0.  1.
         -5    1    4    4    0  502  0.41221333626E+02  0.36512692012E+02  0.16387488419E+02  0.57605530990E+02  0.41800000000E+01 0.  1.
        -11    1    3    3    0    0  0.34179919989E+02  0.94606459665E+01 -0.13577745590E+02  0.37975333150E+02  0.00000000000E+00 0.  1.
         11    1    3    3    0    0 -0.26684219843E+02 -0.68453839921E+02 -0.37988215380E+02  0.82710823332E+02  0.00000000000E+00 0. -1.
</event>
<event>
 8    1  0.9181008E-006  0.1545166E+03  0.7561462E-02  0.1195030E+00
         -1   -1    0    0    0  501 -0.00000000000E+00  0.00000000000E+00  0.11983858943E+03  0.11983858943E+03  0.00000000000E+00 0.  1.
          1   -1    0    0  501    0  0.00000000000E+00 -0.00000000000E+00 -0.24254568797E+03  0.24254568797E+03  0.00000000000E+00 0. -1.
         23    2    1    2    0    0 -0.11616384258E+03 -0.31103461830E+02 -0.10987852940E+02  0.15416685526E+03  0.95839567443E+02 0.  0.
         23    2    1    2    0    0  0.11616384258E+03  0.31103461830E+02 -0.11171924560E+03  0.20821742214E+03  0.12810870924E+03 0.  0.
          5    1    4    4  502    0  0.94812207366E+02 -0.36581323176E+02 -0.83986209967E+02  0.13190414601E+03  0.41800000000E+01 0. -1.
         -5    1    4    4    0  502  0.21351635213E+02  0.67684785006E+02 -0.27733035637E+02  0.76313276127E+02  0.41800000000E+01 0.  1.
        -11    1    3    3    0    0 -0.40921238156E+02  0.19722977015E+02  0.30109192256E+02  0.54498688175E+02  0.00000000000E+00 0.  1.
         11    1    3    3    0    0 -0.75242604423E+02 -0.50826438844E+02 -0.41097045196E+02  0.99668167084E+02  0.00000000000E+00 0. -1.
</event>
<event>
 8    1  0.9181008E-006  0.1284965E+03  0.7561462E-02  0.1229704E+00
          1   -1    0    0  501    0  0.00000000000E+00  0.00000000000E+00  0.76811744385E+03  0.76811744385E+03  0.00000000000E+00 0.  1.
         -1   -1    0    0    0  501 -0.00000000000E+00 -0.00000000000E+00 -0.41565735832E+02  0.41565735832E+02  0.00000000000E+00 0. -1.
         23    2    1    2    0    0  0.11372570377E+03 -0.37975520496E+02  0.17501385101E+03  0.23156636852E+03  0.92830270549E+02 0.  0.
         23    2    1    2    0    0 -0.11372570377E+03  0.37975520496E+02  0.55153785702E+03  0.57811681117E+03  0.12509741714E+03 0.  0.
          5    1    4    4  502    0 -0.10522722641E+03  0.28579705443E+02  0.21307272426E+03  0.23938886140E+03  0.41800000000E+01 0.  1.
         -5    1    4    4    0  502 -0.84984773654E+01  0.93958150521E+01  0.33846513276E+03  0.33872794977E+03  0.41800000000E+01 0.  1.
        -11    1    3    3    0    0  0.76177551705E+02 -0.54340832194E+02  0.16454387194E+03  0.18928980749E+03  0.00000000000E+00 0.  1.
         11    1    3    3    0    0  0.37548152069E+02  0.16365311698E+02  0.10469979066E+02  0.42276561029E+02  0.00000000000E+00 0. -1.
</event>
<event>
 8    1  0.9181008E-006  0.7241232E+02  0.7561462E-02  0.1352077E+00
          2   -1    0    0  501    0  0.00000000000E+00  0.00000000000E+00  0.63452022888E+03  0.63452022888E+03  0.00000000000E+00 0. -1.
         -2   -1    0    0    0  501 -0.00000000000E+00 -0.00000000000E+00 -0.34248602794E+02  0.34248602794E+02  0.00000000000E+00 0.  1.
         23    2    1    2    0    0 -0.35892901890E+02  0.28761593850E+02  0.76359555456E+02  0.12817247346E+03  0.92097076804E+02 0.  0.
         23    2    1    2    0    0  0.35892901890E+02 -0.28761593850E+02  0.52391207063E+03  0.54059635822E+03  0.12508011464E+03 0.  0.
          5    1    4    4  502    0  0.49347071471E+02 -0.34620294968E+02  0.52168945265E+03  0.52517716600E+03  0.41800000000E+01 0.  1.
         -5    1    4    4    0  502 -0.13454169580E+02  0.58587011180E+01  0.22226179828E+01  0.15419192216E+02  0.41800000000E+01 0.  1.
        -11    1    3    3    0    0 -0.36696333534E+02 -0.35064887533E+01 -0.81106702333E+01  0.37745189492E+02  0.00000000000E+00 0.  1.
         11    1    3    3    0    0  0.80343164331E+00  0.32268082603E+02  0.84470225689E+02  0.90427283965E+02  0.00000000000E+00 0. -1.
</event>
<event>
 7    1  0.9181008E-006  0.9324796E+02  0.7561462E-02  0.1295172E+00
         -2   -1    0    0    0  501 -0.00000000000E+00  0.00000000000E+00  0.31395297480E+02  0.31395297480E+02  0.00000000000E+00 0.  1.
          2   -1    0    0  501    0  0.00000000000E+00 -0.00000000000E+00 -0.56532216611E+03  0.56532216611E+03  0.00000000000E+00 0. -1.
         23    2    1    2    0    0 -0.23747789934E+02  0.62750371868E+01 -0.77045054123E+02  0.12130752820E+03  0.90422576906E+02 0.  0.
          5    1    1    2  502    0 -0.42547889468E+02 -0.89157787178E+01 -0.67516005660E+02  0.80409560555E+02  0.41800000000E+01 0. -1.
         -5    1    1    2    0  502  0.66295679402E+02  0.26407415310E+01 -0.38936580885E+03  0.39500037484E+03  0.41800000000E+01 0.  1.
        -11    1    3    3    0    0  0.26159924093E+02  0.29400832245E+01  0.34375218576E+01  0.26548112446E+02  0.00000000000E+00 0.  1.
         11    1    3    3    0    0 -0.49907714026E+02  0.33349539623E+01 -0.80482575981E+02  0.94759415752E+02  0.00000000000E+00 0. -1.
</event>
<event>
 8    1  0.9181008E-006  0.8172752E+02  0.7561462E-02  0.1324219E+00
          2   -1    0    0  501    0  0.00000000000E+00  0.00000000000E+00  0.31040658580E+02  0.31040658580E+02  0.00000000000E+00 0.  1.
         -2   -1    0    0    0  501 -0.00000000000E+00 -0.00000000000E+00 -0.51753385364E+03  0.51753385364E+03  0.00000000000E+00 0. -1.
         23    2    1    2    0    0 -0.43480921112E+02  0.18496786187E+02 -0.30752514726E+03  0.32517622158E+03  0.94525855089E+02 0.  0.
         23    2    1    2    0    0  0.43480921112E+02 -0.18496786187E+02 -0.17896804780E+03  0.22339829064E+03  0.12507802577E+03 0.  0.
          5    1    4    4  502    0  0.36365874062E+02  0.22007362864E+02 -0.17692946948E+03  0.18201184133E+03  0.41800000000E+01 0.  1.
         -5    1    4    4    0  502  0.71150470494E+01 -0.40504149051E+02 -0.20385783219E+01  0.41386449309E+02  0.41800000000E+01 0.  1.
        -11    1    3    3    0    0  0.21638090877E+01  0.31792131354E+02 -0.30528979579E+02  0.44129811692E+02  0.00000000000E+00 0.  1.
         11    1    3    3    0    0 -0.45644730199E+02 -0.13295345167E+02 -0.27699616769E+03  0.28104640989E+03  0.00000000000E+00 0. -1.
</event>
<event>
 8    1  0.9181008E-006  0.2066421E+03  0.7561462E-02  0.1144253E+00
         -2   -1    0    0    0  501 -0.00000000000E+00  0.00000000000E+00  0.86233740305E+02  0.86233740305E+02  0.00000000000E+00 0. -1.
          2   -1    0    0  501    0  0.00000000000E+00 -0.00000000000E+00 -0.54787740100E+03  0.54787740100E+03  0.00000000000E+00 0.  1.
         23    2    1    2    0    0 -0.16730629307E+03 -0.82028077930E+02 -0.18437885031E+03  0.27739778960E+03  0.90741236306E+02 0.  0.
         23    2    1    2    0    0  0.16730629307E+03  0.82028077930E+02 -0.27726481038E+03  0.35671335170E+03  0.12509452001E+03 0.  0.
          5    1    4    4  502    0  0.11198231764E+03  0.11302363805E+03 -0.21716063584E+03  0.26924077770E+03  0.41800000000E+01 0. -1.
         -5    1    4    4    0  502  0.55323975430E+02 -0.30995560115E+02 -0.60104174545E+02  0.87472573998E+02  0.41800000000E+01 0. -1.
        -11    1    3    3    0    0 -0.11166829074E+03 -0.74941361746E+02 -0.17472145700E+03  0.22048492555E+03  0.00000000000E+00 0.  1.
         11    1    3    3    0    0 -0.55638002328E+02 -0.70867161839E+01 -0.96573933059E+01  0.56912864054E+02  0.00000000000E+00 0. -1.
</event>
<event>
 8    1  0.9181008E-006  0.7517191E+02  0.7561462E-02  0.1343339E+00
         -2   -1    0    0    0  501 -0.00000000000E+00  0.00000000000E+00  0.24471124341E+03  0.24471124341E+03  0.00000000000E+00 0.  1.
          2   -1    0    0  501    0  0.00000000000E+00 -0.00000000000E+00 -0.38838612980E+02  0.38838612980E+02  0.00000000000E+00 0. -1.
         23    2    1    2    0    0  0.67368513587E+01 -0.18899429561E+02  0.88012531379E+02  0.11052316201E+03  0.63769820893E+02 0.  0.
         23    2    1    2    0    0 -0.67368513587E+01  0.18899429561E+02  0.11786009905E+03  0.17302669438E+03  0.12507861694E+03 0.  0.
          5    1    4    4  502    0  0.23345489174E+02 -0.37587415463E+02  0.70567691296E+01  0.45001067282E+02  0.41800000000E+01 0.  1.
         -5    1    4    4    0  502 -0.30082340533E+02  0.56486845024E+02  0.11080332992E+03  0.12802562710E+03  0.41800000000E+01 0.  1.
        -11    1    3    3    0    0  0.18193857539E+02 -0.23239193171E+02  0.92791892055E+02  0.97372541215E+02  0.00000000000E+00 0.  1.
         11    1    3    3    0    0 -0.11457006180E+02  0.43397636102E+01 -0.47793606758E+01  0.13150620794E+02  0.00000000000E+00 0. -1.
</event>
<event>
 8    1  0.9181008E-006  0.1726161E+03  0.7561462E-02  0.1175147E+00
          2   -1    0    0  501    0  0.00000000000E+00  0.00000000000E+00  0.15479225930E+04  0.15479225930E+04  0.00000000000E+00 0. -1.
         -2   -1    0    0    0  501 -0.00000000000E+00 -0.00000000000E+00 -0.43895341139E+02  0.43895341139E+02  0.00000000000E+00 0.  1.
         23    2    1    2    0    0  0.58130864285E+02  0.15994060225E+03  0.23111594970E+03  0.30150371213E+03  0.92356443169E+02 0.  0.
         23    2    1    2    0    0 -0.58130864285E+02 -0.15994060225E+03  0.12729113021E+04  0.12903142220E+04  0.12508962666E+03 0.  0.
          5    1    4    4  502    0 -0.47687570980E+02 -0.72400691039E+02  0.27184985212E+03  0.28536954810E+03  0.41800000000E+01 0.  1.
         -5    1    4    4    0  502 -0.10443293305E+02 -0.87539911214E+02  0.10010614500E+04  0.10049446739E+04  0.41800000000E+01 0.  1.
        -11    1    3    3    0    0  0.38562037538E+02  0.10570809318E+03  0.75379024109E+02  0.13543717724E+03  0.00000000000E+00 0.  1.
         11    1    3    3    0    0  0.19568826747E+02  0.54232509073E+02  0.15573692559E+03  0.16606653489E+03  0.00000000000E+00 0. -1.
</event>
<event>
 8    1  0.9181008E-006  0.1136596E+03  0.7561462E-02  0.1253939E+00
          1   -1    0    0  501    0  0.00000000000E+00  0.00000000000E+00  0.77079452351E+02  0.77079452351E+02  0.00000000000E+00 0. -1.
         -1   -1    0    0    0  501 -0.00000000000E+00 -0.00000000000E+00 -0.28848253736E+03  0.28848253736E+03  0.00000000000E+00 0.  1.
         23    2    1    2    0    0 -0.47105547044E+02 -0.51730057408E+02 -0.19209570891E+03  0.22096962232E+03  0.83856312855E+02 0.  0.
         23    2    1    2    0    0  0.47105547044E+02  0.51730057408E+02 -0.19307376101E+02  0.14459236739E+03  0.12505697315E+03 0.  0.
          5    1    4    4  502    0  0.70619156321E+02  0.11585989305E+02 -0.51147728088E+02  0.88061699258E+02  0.41800000000E+01 0.  1.
         -5    1    4    4    0  502 -0.23513609277E+02  0.40144068103E+02  0.31840351987E+02  0.56530668135E+02  0.41800000000E+01 0.  1.
        -11    1    3    3    0    0 -0.56517144532E+02 -0.69038224436E+02 -0.15085546008E+03  0.17526503900E+03  0.00000000000E+00 0.  1.
         11    1    3    3    0    0  0.94115974876E+01  0.17308167028E+02 -0.41240248834E+02  0.45704583326E+02  0.00000000000E+00 0. -1.
</event>
<event>
 8    1  0.9181008E-006  0.9298253E+02  0.7561462E-02  0.1295786E+00
         -2   -1    0    0    0  501 -0.00000000000E+00  0.00000000000E+00  0.14425029433E+03  0.14425029433E+03  0.00000000000E+00 0.  1.
          2   -1    0    0  501    0  0.00000000000E+00 -0.00000000000E+00 -0.11311000222E+03  0.11311000222E+03  0.00000000000E+00 0. -1.
         23    2    1    2    0    0  0.51218726133E+02  0.61134343890E+01  0.57961622349E+02  0.11941498495E+03  0.90772556312E+02 0.  0.
         23    2    1    2    0    0 -0.51218726133E+02 -0.61134343890E+01 -0.26821330240E+02  0.13794531159E+03  0.12509513679E+03 0.  0.
          5    1    4    4  502    0 -0.14999907304E+02 -0.63646709966E+02 -0.23369642396E+01  0.65565499392E+02  0.41800000000E+01 0. -1.
         -5    1    4    4    0  502 -0.36218818829E+02  0.57533275577E+02 -0.24484366000E+02  0.72379812202E+02  0.41800000000E+01 0. -1.
        -11    1    3    3    0    0  0.36319930371E+02  0.83372924256E+01  0.82554455763E+02  0.90575305429E+02  0.00000000000E+00 0.  1.
         11    1    3    3    0    0  0.14898795762E+02 -0.22238580366E+01 -0.24592833414E+02  0.28839679525E+02  0.00000000000E+00 0. -1.
</event>
<event>
 8    1  0.9181008E-006  0.1149760E+03  0.7561462E-02  0.1251623E+00
         -1   -1    0    0    0  501 -0.00000000000E+00  0.00000000000E+00  0.72858057741E+02  0.72858057741E+02  0.00000000000E+00 0.  1.
          1   -1    0    0  501    0  0.00000000000E+00 -0.00000000000E+00 -0.37007258675E+03  0.37007258675E+03  0.00000000000E+00 0. -1.
         23    2    1    2    0    0  0.48755326242E+02 -0.95633267902E+02 -0.59782874795E+02  0.15389108845E+03  0.92658897137E+02 0.  0.
         23    2    1    2    0    0 -0.48755326242E+02  0.95633267902E+02 -0.23743165421E+03  0.28903955604E+03  0.12508905135E+03 0.  0.
          5    1    4    4  502    0 -0.23928914597E+02  0.90892885858E+02 -0.64144038810E+02  0.11386851965E+03  0.41800000000E+01 0.  1.
         -5    1    4    4    0  502 -0.24826411646E+02  0.47403820442E+01 -0.17328761540E+03  0.17517103639E+03  0.41800000000E+01 0.  1.
        -11    1    3    3    0    0  0.22972319692E+02 -0.70876616166E+02  0.10303992176E+02  0.75215652932E+02  0.00000000000E+00 0.  1.
         11    1    3    3    0    0  0.25783006551E+02 -0.24756651736E+02 -0.70086866971E+02  0.78675435517E+02  0.00000000000E+00 0. -1.
</event>
<event>
 8    1  0.9181008E-006  0.1202529E+03  0.7561462E-02  0.1242680E+00
          2   -1    0    0  501    0  0.00000000000E+00  0.00000000000E+00  0.78314239454E+03  0.78314239454E+03  0.00000000000E+00 0. -1.
         -2   -1    0    0    0  501 -0.00000000000E+00 -0.00000000000E+00 -0.21213636643E+02  0.21213636643E+02  0.00000000000E+00 0.  1.
         23    2    1    2    0    0 -0.41900746193E+02 -0.43419007853E+02  0.23640082846E+03  0.26077606553E+03  0.92075631335E+02 0.  0.
         23    2    1    2    0    0  0.41900746193E+02  0.43419007853E+02  0.52552792944E+03  0.54357996564E+03  0.12513469406E+03 0.  0.
          5    1    4    4  502    0  0.85767217098E+02  0.20924405431E+02  0.36805743384E+03  0.37852026799E+03  0.41800000000E+01 0. -1.
         -5    1    4    4    0  502 -0.43866470905E+02  0.22494602421E+02  0.15747049560E+03  0.16505969766E+03  0.41800000000E+01 0. -1.
        -11    1    3    3    0    0 -0.60148536855E+02 -0.52923346054E+01  0.18280072066E+03  0.19251482739E+03  0.00000000000E+00 0. -1.
         11    1    3    3    0    0  0.18247790662E+02 -0.38126673247E+02  0.53600107794E+02  0.68261238141E+02  0.00000000000E+00 0.  1.
</event>
<event>
 8    1  0.9181008E-006  0.1552422E+03  0.7561462E-02  0.1194175E+00
          3   -1    0    0  501    0  0.00000000000E+00  0.00000000000E+00  0.13790865822E+03  0.13790865822E+03  0.00000000000E+00 0. -1.
         -3   -1    0    0    0  501 -0.00000000000E+00 -0.00000000000E+00 -0.29136612303E+03  0.29136612303E+03  0.00000000000E+00 0.  1.
         23    2    1    2    0    0 -0.23531736806E+02 -0.13828274255E+03 -0.17231184447E+03  0.24038523803E+03  0.91748740554E+02 0.  0.
         23    2    1    2    0    0  0.23531736806E+02  0.13828274255E+03  0.18854379667E+02  0.18888954322E+03  0.12509161595E+03 0.  0.
          5    1    4    4  502    0  0.58671147373E+02  0.11015951257E+03  0.49442632975E+02  0.13431108703E+03  0.41800000000E+01 0. -1.
         -5    1    4    4    0  502 -0.35139410567E+02  0.28123229988E+02 -0.30588253308E+02  0.54578456193E+02  0.41800000000E+01 0. -1.
        -11    1    3    3    0    0 -0.54792045103E+01 -0.49618524996E+02 -0.13238504456E+03  0.14148434446E+03  0.00000000000E+00 0.  1.
         11    1    3    3    0    0 -0.18052532295E+02 -0.88664217559E+02 -0.39926799910E+02  0.98900893568E+02  0.00000000000E+00 0. -1.
</event>
<event>
 8    1  0.9181008E-006  0.1000390E+03  0.7561462E-02  0.1280214E+00
         -2   -1    0    0    0  501 -0.00000000000E+00  0.00000000000E+00  0.13523244206E+03  0.13523244206E+03  0.00000000000E+00 0.  1.
          2   -1    0    0  501    0  0.00000000000E+00 -0.00000000000E+00 -0.14784997413E+03  0.14784997413E+03  0.00000000000E+00 0. -1.
         23    2    1    2    0    0  0.34970345813E+01  0.58273663343E+02  0.74612961227E+02  0.13046172295E+03  0.89694582225E+02 0.  0.
         23    2    1    2    0    0 -0.34970345813E+01 -0.58273663343E+02 -0.87230493294E+02  0.15262069325E+03  0.11079651600E+03 0.  0.
          5    1    4    4  502    0 -0.25716209288E+02 -0.78155921590E+02 -0.29491962433E+02  0.87503827048E+02  0.41800000000E+01 0. -1.
         -5    1    4    4    0  502  0.22219174707E+02  0.19882258248E+02 -0.57738530860E+02  0.65116866199E+02  0.41800000000E+01 0.  1.
        -11    1    3    3    0    0  0.94116982022E-01  0.72732408340E+02  0.22290260666E+02  0.76071465094E+02  0.00000000000E+00 0. -1.
         11    1    3    3    0    0  0.34029175993E+01 -0.14458744998E+02  0.52322700561E+02  0.54390257851E+02  0.00000000000E+00 0.  1.
</event>
<event>
 8    1  0.9181008E-006  0.1793520E+03  0.7561462E-02  0.1168432E+00
         -2   -1    0    0    0  501 -0.00000000000E+00  0.00000000000E+00  0.21316837762E+02  0.21316837762E+02  0.00000000000E+00 0. -1.
          2   -1    0    0  501    0  0.00000000000E+00 -0.00000000000E+00 -0.15720896474E+04  0.15720896474E+04  0.00000000000E+00 0.  1.
         23    2    1    2    0    0 -0.14554073429E+03  0.27895248360E+02 -0.69444956552E+03  0.71540094028E+03  0.87052030874E+02 0.  0.
         23    2    1    2    0    0  0.14554073429E+03 -0.27895248360E+02 -0.85632324407E+03  0.87800554484E+03  0.12507592978E+03 0.  0.
          5    1    4    4  502    0  0.71941673924E+01  0.38301363561E+02 -0.21861910802E+03  0.22210478898E+03  0.41800000000E+01 0.  1.
         -5    1    4    4    0  502  0.13834656690E+03 -0.66196611921E+02 -0.63770413605E+03  0.65590075586E+03  0.41800000000E+01 0.  1.
        -11    1    3    3    0    0 -0.10443333945E+03 -0.16332618836E+02 -0.34695564106E+03  0.36270000509E+03  0.00000000000E+00 0.  1.
         11    1    3    3    0    0 -0.41107394841E+02  0.44227867196E+02 -0.34749392446E+03  0.35270093519E+03  0.00000000000E+00 0. -1.
</event>
<event>
 7    1  0.9181008E-006  0.1243740E+03  0.7561462E-02  0.1236051E+00
          2   -1    0    0  501    0  0.00000000000E+00  0.00000000000E+00  0.30163486715E+03  0.30163486715E+03  0.00000000000E+00 0. -1.
         -2   -1    0    0    0  501 -0.00000000000E+00 -0.00000000000E+00 -0.10903945896E+03  0.10903945896E+03  0.00000000000E+00 0.  1.
         23    2    1    2    0    0 -0.50803507849E+02 -0.69896244483E+02 -0.33844383941E+02  0.13057917220E+03  0.91864010836E+02 0.  0.
          5    1    1    2  502    0  0.73005878698E+02  0.19719600915E+02  0.20910899862E+03  0.22240226323E+03  0.41800000000E+01 0. -1.
         -5    1    1    2    0  502 -0.22202370849E+02  0.50176643568E+02  0.17330793506E+02  0.57692890677E+02  0.41800000000E+01 0.  1.
        -11    1    3    3    0    0 -0.58614183441E+02 -0.12341162241E+02  0.59165177892E+01  0.60190796379E+02  0.00000000000E+00 0.  1.
         11    1    3    3    0    0  0.78106755928E+01 -0.57555082242E+02 -0.39760901730E+02  0.70388375826E+02  0.00000000000E+00 0. -1.
</event>
<event>
 8    1  0.9181008E-006  0.1087757E+03  0.7561462E-02  0.1262854E+00
          3   -1    0    0  501    0  0.00000000000E+00  0.00000000000E+00  0.50538308373E+03  0.50538308373E+03  0.00000000000E+00 0. -1.
         -3   -1    0    0    0  501 -0.00000000000E+00 -0.00000000000E+00 -0.23825540181E+02  0.23825540181E+02  0.00000000000E+00 0.  1.
         23    2    1    2    0    0  0.15137495385E+02 -0.13512731076E+01  0.21320611013E+03  0.23274311372E+03  0.92095286963E+02 0.  0.
         23    2    1    2    0    0 -0.15137495385E+02  0.13512731076E+01  0.26835143342E+03  0.29646551019E+03  0.12509331401E+03 0.  0.
          5    1    4    4  502    0  0.24139856356E+02 -0.52343487351E+02  0.14806165017E+03  0.15894117775E+03  0.41800000000E+01 0.  1.
         -5    1    4    4    0  502 -0.39277351741E+02  0.53694760458E+02  0.12028978325E+03  0.13752433244E+03  0.41800000000E+01 0.  1.
        -11    1    3    3    0    0  0.46164345525E+02  0.24905718063E+02  0.12833864993E+03  0.13864433150E+03  0.00000000000E+00 0. -1.
         11    1    3    3    0    0 -0.31026850140E+02 -0.26256991171E+02  0.84867460201E+02  0.94098782223E+02  0.00000000000E+00 0.  1.
</event>
<event>
 8    1  0.9181008E-006  0.1359826E+03  0.7561462E-02  0.1218839E+00
          2   -1    0    0  501    0  0.00000000000E+00  0.00000000000E+00  0.37716471105E+03  0.37716471105E+03  0.00000000000E+00 0.  1.
         -2   -1    0    0    0  501 -0.00000000000E+00 -0.00000000000E+00 -0.73735952648E+02  0.73735952648E+02  0.00000000000E+00 0. -1.
         23    2    1    2    0    0 -0.21456056115E+02  0.10134665600E+03  0.45511244463E+02  0.14610750014E+03  0.92437120248E+02 0.  0.
         23    2    1    2    0    0  0.21456056115E+02 -0.10134665600E+03  0.25791751394E+03  0.30479316356E+03  0.12508365812E+03 0.  0.
          5    1    4    4  502    0 -0.35524338864E+02 -0.25820221105E+02  0.16979751378E+03  0.17543469028E+03  0.41800000000E+01 0.  1.
         -5    1    4    4    0  502  0.56980394979E+02 -0.75526434890E+02  0.88120000163E+02  0.12935847327E+03  0.41800000000E+01 0.  1.
        -11    1    3    3    0    0  0.26209654344E+02  0.65089632790E+01 -0.66916147420E+01  0.27822478172E+02  0.00000000000E+00 0. -1.
         11    1    3    3    0    0 -0.47665710459E+02  0.94837692716E+02  0.52202859205E+02  0.11828502197E+03  0.00000000000E+00 0.  1.
</event>
<event>
 8    1  0.9181008E-006  0.1204816E+03  0.7561462E-02  0.1242305E+00
          1   -1    0    0  501    0  0.00000000000E+00  0.00000000000E+00  0.15764999007E+03  0.15764999007E+03  0.00000000000E+00 0. -1.
         -1   -1    0    0    0  501 -0.00000000000E+00 -0.00000000000E+00 -0.12116257870E+03  0.12116257870E+03  0.00000000000E+00 0.  1.
         23    2    1    2    0    0 -0.59189865114E+02 -0.26019608289E+02 -0.40889701480E+02  0.11814151030E+03  0.90027710296E+02 0.  0.
         23    2    1    2    0    0  0.59189865114E+02  0.26019608289E+02  0.77377112849E+02  0.16067105847E+03  0.12509001275E+03 0.  0.
          5    1    4    4  502    0 -0.30792271926E+02  0.25270826460E+02  0.54667914114E+02  0.67770435396E+02  0.41800000000E+01 0.  1.
         -5    1    4    4    0  502  0.89982137040E+02  0.74878182917E+00  0.22709198736E+02  0.92900623075E+02  0.41800000000E+01 0.  1.
        -11    1    3    3    0    0 -0.83311474417E+02 -0.16701843337E+02 -0.32079173602E+02  0.90823051696E+02  0.00000000000E+00 0. -1.
         11    1    3    3    0    0  0.24121609303E+02 -0.93177649515E+01 -0.88105278777E+01  0.27318458604E+02  0.00000000000E+00 0.  1.
</event>
<event>
 8    1  0.9181008E-006  0.1321119E+03  0.7561462E-02  0.1224355E+00
          2   -1    0    0  501    0  0.00000000000E+00  0.00000000000E+00  0.38756014034E+03  0.38756014034E+03  0.00000000000E+00 0. -1.
         -2   -1    0    0    0  501 -0.00000000000E+00 -0.00000000000E+00 -0.54503310854E+02  0.54503310854E+02  0.00000000000E+00 0.  1.
         23    2    1    2    0    0 -0.43767245234E+02  0.69442507946E+02  0.74412326355E+02  0.14325936899E+03  0.90819705046E+02 0.  0.
         23    2    1    2    0    0  0.43767245234E+02 -0.69442507946E+02  0.25864450313E+03  0.29880408220E+03  0.12509623047E+03 0.  0.
          5    1    4    4  502    0 -0.17192877627E+02  0.28205169313E+02  0.43690896457E+02  0.54931716251E+02  0.41800000000E+01 0. -1.
         -5    1    4    4    0  502  0.60960122861E+02 -0.97647677259E+02  0.21495360667E+03  0.24387236595E+03  0.41800000000E+01 0. -1.
        -11    1    3    3    0    0  0.79519281460E+00  0.71139338618E+02  0.22053802514E+02  0.74483609176E+02  0.00000000000E+00 0. -1.
         11    1    3    3    0    0 -0.44562438048E+02 -0.16968306719E+01  0.52358523841E+02  0.68775759814E+02  0.00000000000E+00 0.  1.
</event>
<event>
 8    1  0.9181008E-006  0.1199967E+03  0.7561462E-02  0.1243102E+00
         -2   -1    0    0    0  501 -0.00000000000E+00  0.00000000000E+00  0.33851991636E+02  0.33851991636E+02  0.00000000000E+00 0.  1.
          2   -1    0    0  501    0  0.00000000000E+00 -0.00000000000E+00 -0.52405948099E+03  0.52405948099E+03  0.00000000000E+00 0. -1.
         23    2    1    2    0    0 -0.64281268362E+02 -0.12300771031E+02 -0.15848521592E+03  0.19739357125E+03  0.97791962236E+02 0.  0.
         23    2    1    2    0    0  0.64281268362E+02  0.12300771031E+02 -0.33172227344E+03  0.36051790138E+03  0.12510036006E+03 0.  0.
          5    1    4    4  502    0  0.28127934809E+02  0.67364807068E+02 -0.14345319802E+03  0.16101394465E+03  0.41800000000E+01 0. -1.
         -5    1    4    4    0  502  0.36153333553E+02 -0.55064036037E+02 -0.18826907542E+03  0.19950395673E+03  0.41800000000E+01 0. -1.
        -11    1    3    3    0    0 -0.70378760746E+02  0.15785665453E+02 -0.57041282892E+02  0.91956865714E+02  0.00000000000E+00 0.  1.
         11    1    3    3    0    0  0.60974923835E+01 -0.28086436483E+02 -0.10144393303E+03  0.10543670554E+03  0.00000000000E+00 0. -1.
</event>
<event>
 8    1  0.9181008E-006  0.1113187E+03  0.7561462E-02  0.1258147E+00
          1   -1    0    0  501    0  0.00000000000E+00  0.00000000000E+00  0.73851133354E+03  0.73851133354E+03  0.00000000000E+00 0. -1.
         -1   -1    0    0    0  501 -0.00000000000E+00 -0.00000000000E+00 -0.18227928228E+02  0.18227928228E+02  0.00000000000E+00 0.  1.
         23    2    1    2    0    0  0.19115461195E+02  0.33482908607E+02  0.28554711601E+03  0.30272763889E+03  0.92845903828E+02 0.  0.
         23    2    1    2    0    0 -0.19115461195E+02 -0.33482908607E+02  0.43473628930E+03  0.45401162288E+03  0.12507760172E+03 0.  0.
          5    1    4    4  502    0  0.33368436465E+02 -0.56745984462E+02  0.15562966540E+03  0.16903143038E+03  0.41800000000E+01 0.  1.
         -5    1    4    4    0  502 -0.52483897660E+02  0.23263075855E+02  0.27910662390E+03  0.28498019249E+03  0.41800000000E+01 0.  1.
        -11    1    3    3    0    0 -0.31107295178E+02  0.37510122773E+02  0.16579109387E+03  0.17280439789E+03  0.00000000000E+00 0. -1.
         11    1    3    3    0    0  0.50222756373E+02 -0.40272141657E+01  0.11975602215E+03  0.12992324100E+03  0.00000000000E+00 0.  1.
</event>
<event>
 8    1  0.9181008E-006  0.1057196E+03  0.7561462E-02  0.1268708E+00
          1   -1    0    0  501    0  0.00000000000E+00  0.00000000000E+00  0.46086984200E+03  0.46086984200E+03  0.00000000000E+00 0. -1.
         -1   -1    0    0    0  501 -0.00000000000E+00 -0.00000000000E+00 -0.29707412136E+02  0.29707412136E+02  0.00000000000E+00 0.  1.
         23    2    1    2    0    0  0.80100719731E+01  0.40387874842E+02  0.18962006136E+03  0.21553543185E+03  0.93831833753E+02 0.  0.
         23    2    1    2    0    0 -0.80100719731E+01 -0.40387874842E+02  0.24154236851E+03  0.27504182229E+03  0.12493977164E+03 0.  0.
          5    1    4    4  502    0  0.45372529974E+02 -0.27285167276E+01  0.32620894217E+02  0.56104424240E+02  0.41800000000E+01 0.  1.
         -5    1    4    4    0  502 -0.53382601948E+02 -0.37659358114E+02  0.20892147430E+03  0.21893739805E+03  0.41800000000E+01 0.  1.
        -11    1    3    3    0    0  0.24303980600E+02 -0.23853799126E+02  0.86408874803E+02  0.92877235372E+02  0.00000000000E+00 0. -1.
         11    1    3    3    0    0 -0.16293908627E+02  0.64241673968E+02  0.10321118655E+03  0.12265819647E+03  0.00000000000E+00 0.  1.
</event>
<event>
 7    1  0.9181008E-006  0.1520549E+03  0.7561462E-02  0.1197970E+00
          2   -1    0    0  501    0  0.00000000000E+00  0.00000000000E+00  0.32352235154E+03  0.32352235154E+03  0.00000000000E+00 0. -1.
         -2   -1    0    0    0  501 -0.00000000000E+00 -0.00000000000E+00 -0.12264627290E+03  0.12264627290E+03  0.00000000000E+00 0.  1.
         23    2    1    2    0    0  0.77195448841E+02 -0.72013254715E+02 -0.40048126283E+02  0.14418036580E+03  0.89660912820E+02 0.  0.
          5    1    1    2  502    0 -0.99758006560E+02  0.91884014448E+02  0.23455062754E+03  0.27097195660E+03  0.41800000000E+01 0. -1.
         -5    1    1    2    0  502  0.22562557719E+02 -0.19870759733E+02  0.63735773858E+01  0.31016302034E+02  0.41800000000E+01 0.  1.
        -11    1    3    3    0    0  0.18283634789E+02 -0.76812265479E+02 -0.17192815953E+02  0.80808467066E+02  0.00000000000E+00 0. -1.
         11    1    3    3    0    0  0.58911814052E+02  0.47990107640E+01 -0.22855310330E+02  0.63371898737E+02  0.00000000000E+00 0.  1.
</event>
<event>
 8    1  0.9181008E-006  0.1522081E+03  0.7561462E-02  0.1197786E+00
          1   -1    0    0  501    0  0.00000000000E+00  0.00000000000E+00  0.49105422764E+02  0.49105422764E+02  0.00000000000E+00 0. -1.
         -1   -1    0    0    0  501 -0.00000000000E+00 -0.00000000000E+00 -0.66522103878E+03  0.66522103878E+03  0.00000000000E+00 0.  1.
         23    2    1    2    0    0 -0.30301829788E+02  0.13655017125E+03 -0.35737583725E+03  0.39470654741E+03  0.92258437917E+02 0.  0.
         23    2    1    2    0    0  0.30301829788E+02 -0.13655017125E+03 -0.25873977877E+03  0.31961991413E+03  0.12508583547E+03 0.  0.
          5    1    4    4  502    0  0.51735150997E+02 -0.92565744946E+02 -0.24742839353E+03  0.26922708874E+03  0.41800000000E+01 0.  1.
         -5    1    4    4    0  502 -0.21433321210E+02 -0.43984426301E+02 -0.11311385243E+02  0.50392825395E+02  0.41800000000E+01 0.  1.
        -11    1    3    3    0    0 -0.19362392291E+02  0.13687763663E+03 -0.35798075760E+03  0.38374550481E+03  0.00000000000E+00 0.  1.
         11    1    3    3    0    0 -0.10939437497E+02 -0.32746538738E+00  0.60492035798E+00  0.10961042604E+02  0.00000000000E+00 0. -1.
</event>
<event>
 8    1  0.9181008E-006  0.1124481E+03  0.7561462E-02  0.1256102E+00
          2   -1    0    0  501    0  0.00000000000E+00  0.00000000000E+00  0.15408345875E+04  0.15408345875E+04  0.00000000000E+00 0. -1.
         -2   -1    0    0    0  501 -0.00000000000E+00 -0.00000000000E+00 -0.22257914121E+02  0.22257914121E+02  0.00000000000E+00 0.  1.
         23    2    1    2    0    0  0.32643610043E+02 -0.18667176958E+02  0.10793217585E+03  0.14641333377E+03  0.91506507695E+02 0.  0.
         23    2    1    2    0    0 -0.32643610043E+02  0.18667176958E+02  0.14106444975E+04  0.14166791678E+04  0.12509155621E+03 0.  0.
          5    1    4    4  502    0  0.24209257129E+02  0.53714592065E+02  0.47770663536E+03  0.48134441660E+03  0.41800000000E+01 0. -1.
         -5    1    4    4    0  502 -0.56852867173E+02 -0.35047415107E+02  0.93293786217E+03  0.93533475124E+03  0.41800000000E+01 0. -1.
        -11    1    3    3    0    0  0.63027105653E+02  0.42355775741E+00  0.67355344337E+02  0.92246072322E+02  0.00000000000E+00 0. -1.
         11    1    3    3    0    0 -0.30383495609E+02 -0.19090734716E+02  0.40576831512E+02  0.54167261450E+02  0.00000000000E+00 0.  1.
</event>
<event>
 8    1  0.9181008E-006  0.1259065E+03  0.7561462E-02  0.1233659E+00
         -2   -1    0    0    0  501 -0.00000000000E+00  0.00000000000E+00  0.21819149206E+02  0.21819149206E+02  0.00000000000E+00 0.  1.
          2   -1    0    0  501    0  0.00000000000E+00 -0.00000000000E+00 -0.12375216232E+04  0.12375216232E+04  0.00000000000E+00 0. -1.
         23    2    1    2    0    0  0.65111788283E+02 -0.76586906499E+02 -0.29761267884E+03  0.32733158669E+03  0.92019355676E+02 0.  0.
         23    2    1    2    0    0 -0.65111788283E+02  0.76586906499E+02 -0.91808979518E+03  0.93200918574E+03  0.12508857290E+03 0.  0.
          5    1    4    4  502    0  0.19513251907E+02 -0.16034161482E+02 -0.67219831921E+02  0.71929406629E+02  0.41800000000E+01 0.  1.
         -5    1    4    4    0  502 -0.84625040190E+02  0.92621067981E+02 -0.85086996326E+03  0.86007977912E+03  0.41800000000E+01 0.  1.
        -11    1    3    3    0    0  0.12898227790E+02 -0.18841699689E+02 -0.35128217143E+01  0.23102247590E+02  0.00000000000E+00 0.  1.
         11    1    3    3    0    0  0.52213560493E+02 -0.57745206810E+02 -0.29409985713E+03  0.30422933910E+03  0.00000000000E+00 0. -1.
</event>
<event>
 8    1  0.9181008E-006  0.9250340E+02  0.7561462E-02  0.1296900E+00
         -3   -1    0    0    0  501 -0.00000000000E+00  0.00000000000E+00  0.75360237127E+02  0.75360237127E+02  0.00000000000E+00 0.  1.
          3   -1    0    0  501    0  0.00000000000E+00 -0.00000000000E+00 -0.17450046708E+03  0.17450046708E+03  0.00000000000E+00 0. -1.
         23    2    1    2    0    0  0.37907934602E+02 -0.18650138295E+02 -0.19970222718E+02  0.95912191146E+02  0.83758578371E+02 0.  0.
         23    2    1    2    0    0 -0.37907934602E+02  0.18650138295E+02 -0.79170007239E+02  0.15394851307E+03  0.12508962972E+03 0.  0.
          5    1    4    4  502    0  0.28349218884E+02  0.47502849564E+02 -0.53702491008E+02  0.77211585066E+02  0.41800000000E+01 0. -1.
         -5    1    4    4    0  502 -0.66257153487E+02 -0.28852711269E+02 -0.25467516231E+02  0.76736927999E+02  0.41800000000E+01 0. -1.
        -11    1    3    3    0    0 -0.44162397974E+01 -0.13861795747E+02  0.28126404356E+02  0.31666183497E+02  0.00000000000E+00 0.  1.
         11    1    3    3    0    0  0.42324174400E+02 -0.47883425475E+01 -0.48096627074E+02  0.64246007649E+02  0.00000000000E+00 0. -1.
</event>
<event>
 8    1  0.9181008E-006  0.1591081E+03  0.7561462E-02  0.1189707E+00
         -1   -1    0    0    0  501 -0.00000000000E+00  0.00000000000E+00  0.26819717102E+03  0.26819717102E+03  0.00000000000E+00 0.  1.
          1   -1    0    0  501    0  0.00000000000E+00 -0.00000000000E+00 -0.11426225768E+03  0.11426225768E+03  0.00000000000E+00 0. -1.
         23    2    1    2    0    0  0.11847146869E+02 -0.13377712355E+03  0.10811436317E+03  0.19451878920E+03  0.90067586596E+02 0.  0.
         23    2    1    2    0    0 -0.11847146869E+02  0.13377712355E+03  0.45820550172E+02  0.18794063950E+03  0.12322940998E+03 0.  0.
          5    1    4    4  502    0 -0.22591585385E+02 -0.78271610874E+01 -0.19915903060E+02  0.31396811551E+02  0.41800000000E+01 0. -1.
         -5    1    4    4    0  502  0.10744438516E+02  0.14160428463E+03  0.65736453232E+02  0.15654382795E+03  0.41800000000E+01 0.  1.
        -11    1    3    3    0    0  0.39867622500E+02 -0.52645638883E+02  0.80990967191E+02  0.10450132719E+03  0.00000000000E+00 0.  1.
         11    1    3    3    0    0 -0.28020475631E+02 -0.81131484663E+02  0.27123395983E+02  0.90017462016E+02  0.00000000000E+00 0. -1.
</event>
<event>
 8    1  0.9181008E-006  0.1746531E+03  0.7561462E-02  0.1173080E+00
         -2   -1    0    0    0  501 -0.00000000000E+00  0.00000000000E+00  0.57926166221E+02  0.57926166221E+02  0.00000000000E+00 0.  1.
          2   -1    0    0  501    0  0.00000000000E+00 -0.00000000000E+00 -0.57249431053E+03  0.57249431053E+03  0.00000000000E+00 0. -1.
         23    2    1    2    0    0 -0.77251957865E+02 -0.11601255121E+03 -0.16502467245E+03  0.23386670415E+03  0.89630997774E+02 0.  0.
         23    2    1    2    0    0  0.77251957865E+02  0.11601255121E+03 -0.34954347186E+03  0.39655377260E+03  0.12508988292E+03 0.  0.
          5    1    4    4  502    0  0.66823262320E+02 -0.29410405276E+01 -0.14336657828E+03  0.15825753150E+03  0.41800000000E+01 0. -1.
         -5    1    4    4    0  502  0.10428695545E+02  0.11895359174E+03 -0.20617689358E+03  0.23829624110E+03  0.41800000000E+01 0. -1.
        -11    1    3    3    0    0 -0.62806983863E+02 -0.20296674426E+02 -0.46020288502E+02  0.80464521179E+02  0.00000000000E+00 0.  1.
         11    1    3    3    0    0 -0.14444974002E+02 -0.95715876786E+02 -0.11900438395E+03  0.15340218297E+03  0.00000000000E+00 0. -1.
</event>
<event>
 8    1  0.9181008E-006  0.1236000E+03  0.7561462E-02  0.1237274E+00
         -2   -1    0    0    0  501 -0.00000000000E+00  0.00000000000E+00  0.25610813627E+03  0.25610813627E+03  0.00000000000E+00 0.  1.
          2   -1    0    0  501    0  0.00000000000E+00 -0.00000000000E+00 -0.87391545933E+02  0.87391545933E+02  0.00000000000E+00 0. -1.
         23    2    1    2    0    0  0.61144704359E+02  0.94252151902E+02  0.87980821010E+02  0.15698354556E+03  0.65429853295E+02 0.  0.
         23    2    1    2    0    0 -0.61144704359E+02 -0.94252151902E+02  0.80735769326E+02  0.18651613664E+03  0.12509141365E+03 0.  0.
          5    1    4    4  502    0 -0.59479232665E+01 -0.40638689554E+02 -0.30405384892E+02  0.51272221624E+02  0.41800000000E+01 0.  1.
         -5    1    4    4    0  502 -0.55196781093E+02 -0.53613462349E+02  0.11114115422E+03  0.13524391502E+03  0.41800000000E+01 0.  1.
        -11    1    3    3    0    0  0.74414432163E+02  0.76904719422E+02  0.64653875561E+02  0.12502786573E+03  0.00000000000E+00 0.  1.
         11    1    3    3    0    0 -0.13269727804E+02  0.17347432480E+02  0.23326945448E+02  0.31955679833E+02  0.00000000000E+00 0. -1.
</event>
<event>
 8    1  0.9181008E-006  0.1068580E+03  0.7561462E-02  0.1266501E+00
         -1   -1    0    0    0  501 -0.00000000000E+00  0.00000000000E+00  0.29867175770E+03  0.29867175770E+03  0.00000000000E+00 0.  1.
          1   -1    0    0  501    0  0.00000000000E+00 -0.00000000000E+00 -0.55318502075E+02  0.55318502075E+02  0.00000000000E+00 0. -1.
         23    2    1    2    0    0  0.67741009779E+02  0.27683448427E+02  0.12252105129E+03  0.16530244650E+03  0.83416263924E+02 0.  0.
         23    2    1    2    0    0 -0.67741009779E+02 -0.27683448427E+02  0.12083220434E+03  0.18868781328E+03  0.12508977397E+03 0.  0.
          5    1    4    4  502    0 -0.99171835462E+02 -0.36559928275E+01  0.60127658183E+02  0.11610868577E+03  0.41800000000E+01 0.  1.
         -5    1    4    4    0  502  0.31430825684E+02 -0.24027455599E+02  0.60704546154E+02  0.72579127506E+02  0.41800000000E+01 0.  1.
        -11    1    3    3    0    0  0.19538613162E+02  0.15359371436E+02  0.11164088631E+03  0.11437375220E+03  0.00000000000E+00 0.  1.
         11    1    3    3    0    0  0.48202396617E+02  0.12324076991E+02  0.10880164975E+02  0.50928694301E+02  0.00000000000E+00 0. -1.
</event>
<event>
 8    1  0.9181008E-006  0.1014512E+03  0.7561462E-02  0.1277274E+00
          1   -1    0    0  501    0  0.00000000000E+00  0.00000000000E+00  0.18586704615E+03  0.18586704615E+03  0.00000000000E+00 0. -1.
         -1   -1    0    0    0  501 -0.00000000000E+00 -0.00000000000E+00 -0.91549975923E+02  0.91549975923E+02  0.00000000000E+00 0.  1.
         23    2    1    2    0    0  0.60972444703E+02 -0.17807000143E+02  0.31646153190E+01  0.11011342544E+03  0.89890062880E+02 0.  0.
         23    2    1    2    0    0 -0.60972444703E+02  0.17807000143E+02  0.91152454908E+02  0.16730359664E+03  0.12508794964E+03 0.  0.
          5    1    4    4  502    0 -0.20180014261E+02 -0.37563834623E+02  0.88529046549E+02  0.98352118076E+02  0.41800000000E+01 0.  1.
         -5    1    4    4    0  502 -0.40792430442E+02  0.55370834766E+02  0.26234083594E+01  0.68951478559E+02  0.41800000000E+01 0.  1.
        -11    1    3    3    0    0  0.45741535820E+02  0.20354943875E+02 -0.29065878163E+02  0.57891597946E+02  0.00000000000E+00 0.  1.
         11    1    3    3    0    0  0.15230908883E+02 -0.38161944018E+02  0.32230493482E+02  0.52221827494E+02  0.00000000000E+00 0. -1.
</event>
<event>
 8    1  0.9181008E-006  0.1048068E+03  0.7561462E-02  0.1270501E+00
          2   -1    0    0  501    0  0.00000000000E+00  0.00000000000E+00  0.21280893818E+03  0.21280893818E+03  0.00000000000E+00 0. -1.
         -2   -1    0    0    0  501 -0.00000000000E+00 -0.00000000000E+00 -0.69055642856E+02  0.69055642856E+02  0.00000000000E+00 0.  1.
         23    2    1    2    0    0 -0.48782369542E+02  0.22721992290E+02  0.56044030941E+02  0.11987875236E+03  0.91290598374E+02 0.  0.
         23    2    1    2    0    0  0.48782369542E+02 -0.22721992290E+02  0.87709264384E+02  0.16198582868E+03  0.12510189895E+03 0.  0.
          5    1    4    4  502    0  0.89654025413E+02 -0.18747687022E+01  0.63333475632E+02  0.10986337227E+03  0.41800000000E+01 0. -1.
         -5    1    4    4    0  502 -0.40871655870E+02 -0.20847223588E+02  0.24375788751E+02  0.52122456409E+02  0.41800000000E+01 0. -1.
        -11    1    3    3    0    0 -0.22431079357E+02 -0.15557745673E+02 -0.17828165997E+02  0.32604298403E+02  0.00000000000E+00 0.  1.
         11    1    3    3    0    0 -0.26351290185E+02  0.38279737962E+02  0.73872196938E+02  0.87274453956E+02  0.00000000000E+00 0. -1.
</event>
<event>
 8    1  0.9181008E-006  0.3106279E+03  0.7561462E-02  0.1080045E+00
         -2   -1    0    0    0  501 -0.00000000000E+00  0.00000000000E+00  0.21227869763E+03  0.21227869763E+03  0.00000000000E+00 0.  1.
          2   -1    0    0  501    0  0.00000000000E+00 -0.00000000000E+00 -0.46883814774E+03  0.46883814774E+03  0.00000000000E+00 0. -1.
         23    2    1    2    0    0  0.77741422058E+02  0.28105392303E+03 -0.70510406189E+02  0.31328304108E+03  0.90219233499E+02 0.  0.
         23    2    1    2    0    0 -0.77741422058E+02 -0.28105392303E+03 -0.18604904392E+03  0.36783380429E+03  0.12510964984E+03 0.  0.
          5    1    4    4  502    0  0.32421347013E+02 -0.85306954360E+02 -0.69206153710E+02  0.11460970428E+03  0.41800000000E+01 0. -1.
         -5    1    4    4    0  502 -0.11016276907E+03 -0.19574696867E+03 -0.11684289021E+03  0.25322410001E+03  0.41800000000E+01 0. -1.
        -11    1    3    3    0    0  0.53854255916E+02  0.51712733658E+02 -0.16949728224E+02  0.76562268707E+02  0.00000000000E+00 0.  1.
         11    1    3    3    0    0  0.23887166142E+02  0.22934118937E+03 -0.53560677965E+02  0.23672077237E+03  0.00000000000E+00 0. -1.
</event>
<event>
 8    1  0.9181008E-006  0.1118281E+03  0.7561462E-02  0.1257221E+00
          1   -1    0    0  501    0  0.00000000000E+00  0.00000000000E+00  0.79329294283E+03  0.79329294283E+03  0.00000000000E+00 0. -1.
         -1   -1    0    0    0  501 -0.00000000000E+00 -0.00000000000E+00 -0.17921320653E+02  0.17921320653E+02  0.00000000000E+00 0.  1.
         23    2    1    2    0    0  0.42572102922E+02 -0.39018695668E+02  0.31521148463E+03  0.33087108363E+03  0.82356246747E+02 0.  0.
         23    2    1    2    0    0 -0.42572102922E+02  0.39018695668E+02  0.46016013755E+03  0.48034317986E+03  0.12508947074E+03 0.  0.
          5    1    4    4  502    0 -0.22226616555E+02 -0.37726479041E+02  0.27980332877E+03  0.28323962452E+03  0.41800000000E+01 0. -1.
         -5    1    4    4    0  502 -0.20345486367E+02  0.76745174709E+02  0.18035680877E+03  0.19710355534E+03  0.41800000000E+01 0. -1.
        -11    1    3    3    0    0  0.19785239559E+02 -0.63623162032E+02  0.22352628560E+03  0.23324528464E+03  0.00000000000E+00 0. -1.
         11    1    3    3    0    0  0.22786863363E+02  0.24604466364E+02  0.91685199034E+02  0.97625798992E+02  0.00000000000E+00 0.  1.
</event>
<event>
 7    1  0.9181008E-006  0.4759690E+03  0.7561462E-02  0.1020249E+00
          2   -1    0    0  501    0  0.00000000000E+00  0.00000000000E+00  0.75354660495E+03  0.75354660495E+03  0.00000000000E+00 0. -1.
         -2   -1    0    0    0  501 -0.00000000000E+00 -0.00000000000E+00 -0.43108080152E+03  0.43108080152E+03  0.00000000000E+00 0.  1.
         23    2    1    2    0    0 -0.33475931482E+02 -0.43319577949E+03 -0.17069532098E+03  0.47577758434E+03  0.91914067456E+02 0.  0.
          5    1    1    2  502    0  0.13760000648E+03  0.34543547110E+03  0.33998259790E+03  0.50385024139E+03  0.41800000000E+01 0. -1.
         -5    1    1    2    0  502 -0.10412407500E+03  0.87760308394E+02  0.15317852650E+03  0.20499958074E+03  0.41800000000E+01 0.  1.
        -11    1    3    3    0    0  0.29970234929E+02 -0.19731118641E+03 -0.84867049501E+02  0.21686939700E+03  0.00000000000E+00 0. -1.
         11    1    3    3    0    0 -0.63446166411E+02 -0.23588459308E+03 -0.85828271477E+02  0.25890818734E+03  0.00000000000E+00 0.  1.
</event>
<event>
 8    1  0.9181008E-006  0.1132167E+03  0.7561462E-02  0.1254726E+00
         -1   -1    0    0    0  501 -0.00000000000E+00  0.00000000000E+00  0.46086722660E+02  0.46086722660E+02  0.00000000000E+00 0.  1.
          1   -1    0    0  501    0  0.00000000000E+00 -0.00000000000E+00 -0.42732805778E+03  0.42732805778E+03  0.00000000000E+00 0. -1.
         23    2    1    2    0    0  0.53441226462E+02  0.74152144411E+02 -0.13706748390E+03  0.18842735804E+03  0.91448722839E+02 0.  0.
         23    2    1    2    0    0 -0.53441226462E+02 -0.74152144411E+02 -0.24417385122E+03  0.28498742240E+03  0.11507587106E+03 0.  0.
          5    1    4    4  502    0  0.25708208035E+02 -0.11776555983E+02 -0.10458873282E+02  0.30437799880E+02  0.41800000000E+01 0. -1.
         -5    1    4    4    0  502 -0.79149434497E+02 -0.62375588428E+02 -0.23371497794E+03  0.25454962252E+03  0.41800000000E+01 0.  1.
        -11    1    3    3    0    0  0.49722606844E+02  0.43360993703E+02 -0.22451463362E+02  0.69689178595E+02  0.00000000000E+00 0.  1.
         11    1    3    3    0    0  0.37186196182E+01  0.30791150708E+02 -0.11461602054E+03  0.11873817944E+03  0.00000000000E+00 0. -1.
</event>
<event>
 8    1  0.9181008E-006  0.8299871E+02  0.7561462E-02  0.1320751E+00
          2   -1    0    0  501    0  0.00000000000E+00  0.00000000000E+00  0.56342848149E+02  0.56342848149E+02  0.00000000000E+00 0. -1.
         -2   -1    0    0    0  501 -0.00000000000E+00 -0.00000000000E+00 -0.31141473782E+03  0.31141473782E+03  0.00000000000E+00 0.  1.
         23    2    1    2    0    0 -0.39600289871E+02 -0.52656326678E+02 -0.16866706577E+03  0.20206471697E+03  0.89669945191E+02 0.  0.
         23    2    1    2    0    0  0.39600289871E+02  0.52656326678E+02 -0.86404823906E+02  0.16569286901E+03  0.12508981393E+03 0.  0.
          5    1    4    4  502    0 -0.20682802148E+02  0.65427121917E+01  0.23376618068E+02  0.32164018092E+02  0.41800000000E+01 0. -1.
         -5    1    4    4    0  502  0.60283092019E+02  0.46113614487E+02 -0.10978144197E+03  0.13352885091E+03  0.41800000000E+01 0. -1.
        -11    1    3    3    0    0 -0.26151628755E+02 -0.21143331568E+02 -0.16408638174E+03  0.16749713081E+03  0.00000000000E+00 0.  1.
         11    1    3    3    0    0 -0.13448661116E+02 -0.31512995111E+02 -0.45806840287E+01  0.34567586159E+02  0.00000000000E+00 0. -1.
</event>
<event>
 8    1  0.9181008E-006  0.1121802E+03  0.7561462E-02  0.1256585E+00
         -1   -1    0    0    0  501 -0.00000000000E+00  0.00000000000E+00  0.44273494164E+02  0.44273494164E+02  0.00000000000E+00 0.  1.
          1   -1    0    0  501    0  0.00000000000E+00 -0.00000000000E+00 -0.34834899215E+03  0.34834899215E+03  0.00000000000E+00 0. -1.
         23    2    1    2    0    0  0.10226492929E+02 -0.59435087717E+02 -0.12737920187E+03  0.16762537353E+03  0.90750724368E+02 0.  0.
         23    2    1    2    0    0 -0.10226492929E+02  0.59435087717E+02 -0.17669629612E+03  0.22499711278E+03  0.12555878659E+03 0.  0.
          5    1    4    4  502    0 -0.51905770084E+02  0.53159625863E+02 -0.16507973148E+03  0.18107717950E+03  0.41800000000E+01 0. -1.
         -5    1    4    4    0  502  0.41679277155E+02  0.62754618538E+01 -0.11616564640E+02  0.43919933284E+02  0.41800000000E+01 0.  1.
        -11    1    3    3    0    0 -0.24856200972E+02  0.12301390365E+02 -0.45255748586E+02  0.53077657369E+02  0.00000000000E+00 0. -1.
         11    1    3    3    0    0  0.35082693901E+02 -0.71736478083E+02 -0.82123453281E+02  0.11454771616E+03  0.00000000000E+00 0.  1.
</event>
<event>
 8    1  0.9181008E-006  0.1555711E+03  0.7561462E-02  0.1193790E+00
         -1   -1    0    0    0  501 -0.00000000000E+00  0.00000000000E+00  0.80365577069E+02  0.80365577069E+02  0.00000000000E+00 0.  1.
          1   -1    0    0  501    0  0.00000000000E+00 -0.00000000000E+00 -0.42105186904E+03  0.42105186904E+03  0.00000000000E+00 0. -1.
         23    2    1    2    0    0 -0.54329360769E+02  0.11675573422E+03 -0.60876731566E+02  0.16896544939E+03  0.90883253282E+02 0.  0.
         23    2    1    2    0    0  0.54329360769E+02 -0.11675573422E+03 -0.27980956041E+03  0.33245199672E+03  0.12508940447E+03 0.  0.
          5    1    4    4  502    0  0.88064442341E+02 -0.80841957861E+02 -0.24286717138E+03  0.27072625194E+03  0.41800000000E+01 0.  1.
         -5    1    4    4    0  502 -0.33735081572E+02 -0.35913776360E+02 -0.36942389022E+02  0.61725744773E+02  0.41800000000E+01 0.  1.
        -11    1    3    3    0    0 -0.57195213068E+02  0.52135785709E+02 -0.69113245994E+02  0.10375969025E+03  0.00000000000E+00 0.  1.
         11    1    3    3    0    0  0.28658522990E+01  0.64619948512E+02  0.82365144279E+01  0.65205759140E+02  0.00000000000E+00 0. -1.
</event>
<event>
 8    1  0.9181008E-006  0.1142451E+03  0.7561462E-02  0.1252905E+00
          2   -1    0    0  501    0  0.00000000000E+00  0.00000000000E+00  0.84591445345E+03  0.84591445345E+03  0.00000000000E+00 0. -1.
         -2   -1    0    0    0  501 -0.00000000000E+00 -0.00000000000E+00 -0.35892059845E+02  0.35892059845E+02  0.00000000000E+00 0.  1.
         23    2    1    2    0    0  0.86936139479E+02 -0.70681295641E+02  0.16787580485E+03  0.21806477134E+03  0.82560406629E+02 0.  0.
         23    2    1    2    0    0 -0.86936139479E+02  0.70681295641E+02  0.64214658875E+03  0.66374174196E+03  0.12508845138E+03 0.  0.
          5    1    4    4  502    0 -0.15090984504E+02  0.21430891963E+02  0.47017044609E+03  0.47091903945E+03  0.41800000000E+01 0. -1.
         -5    1    4    4    0  502 -0.71845154974E+02  0.49250403677E+02  0.17197614266E+03  0.19282270250E+03  0.41800000000E+01 0. -1.
        -11    1    3    3    0    0  0.33799960097E+02 -0.12729428735E+02  0.40440357568E+01  0.36343223352E+02  0.00000000000E+00 0.  1.
         11    1    3    3    0    0  0.53136179382E+02 -0.57951866906E+02  0.16383176909E+03  0.18172154798E+03  0.00000000000E+00 0. -1.
</event>
<event>
 8    1  0.9181008E-006  0.1744420E+03  0.7561462E-02  0.1173293E+00
          2   -1    0    0  501    0  0.00000000000E+00  0.00000000000E+00  0.10818405704E+04  0.10818405704E+04  0.00000000000E+00 0.  1.
         -2   -1    0    0    0  501 -0.00000000000E+00 -0.00000000000E+00 -0.33799540502E+02  0.33799540502E+02  0.00000000000E+00 0. -1.
         23    2    1    2    0    0 -0.15283467822E+03 -0.58518735289E+02  0.51960246567E+03  0.54847322753E+03  0.63665357473E+02 0.  0.
         23    2    1    2    0    0  0.15283467822E+03  0.58518735289E+02  0.52843856425E+03  0.56716688339E+03  0.12509227067E+03 0.  0.
          5    1    4    4  502    0  0.65173114090E+02 -0.13463379975E+02  0.77855633820E+02  0.10250741202E+03  0.41800000000E+01 0. -1.
         -5    1    4    4    0  502  0.87661564133E+02  0.71982115263E+02  0.45058293043E+03  0.46465947137E+03  0.41800000000E+01 0. -1.
        -11    1    3    3    0    0 -0.84657130691E+02 -0.53910789665E+02  0.23046739534E+03  0.25137307599E+03  0.00000000000E+00 0. -1.
         11    1    3    3    0    0 -0.68177547532E+02 -0.46079456242E+01  0.28913507033E+03  0.29710015154E+03  0.00000000000E+00 0.  1.
</event>
<event>
 8    1  0.9181008E-006  0.9653404E+02  0.7561462E-02  0.1287758E+00
         -3   -1    0    0    0  501 -0.00000000000E+00  0.00000000000E+00  0.41686220605E+02  0.41686220605E+02  0.00000000000E+00 0.  1.
          3   -1    0    0  501    0  0.00000000000E+00 -0.00000000000E+00 -0.34495450833E+03  0.34495450833E+03  0.00000000000E+00 0. -1.
         23    2    1    2    0    0 -0.20725567186E+02 -0.24357802754E+02 -0.68957872298E+02  0.11911113643E+03  0.91702906061E+02 0.  0.
         23    2    1    2    0    0  0.20725567186E+02  0.24357802754E+02 -0.23431041543E+03  0.26752959250E+03  0.12509140817E+03 0.  0.
          5    1    4    4  502    0  0.32392475080E+02 -0.29733928206E+02 -0.19393868249E+03  0.19890466031E+03  0.41800000000E+01 0.  1.
         -5    1    4    4    0  502 -0.11666907894E+02  0.54091730961E+02 -0.40371732942E+02  0.68624932196E+02  0.41800000000E+01 0.  1.
        -11    1    3    3    0    0  0.33953711398E+02 -0.10590964262E+01 -0.10043387559E+02  0.35423803249E+02  0.00000000000E+00 0.  1.
         11    1    3    3    0    0 -0.54679278585E+02 -0.23298706328E+02 -0.58914484739E+02  0.83687333183E+02  0.00000000000E+00 0. -1.
</event>
<event>
 8    1  0.9181008E-006  0.1088479E+03  0.7561462E-02  0.1262718E+00
          1   -1    0    0  501    0  0.00000000000E+00  0.00000000000E+00  0.94291916276E+03  0.94291916276E+03  0.00000000000E+00 0. -1.
         -1   -1    0    0    0  501 -0.00000000000E+00 -0.00000000000E+00 -0.13231749029E+02  0.13231749029E+02  0.00000000000E+00 0.  1.
         23    2    1    2    0    0 -0.18443731499E+01  0.27461776760E+02  0.33720431826E+03  0.34998005416E+03  0.89564139928E+02 0.  0.
         23    2    1    2    0    0  0.18443731499E+01 -0.27461776760E+02  0.59248309548E+03  0.60617085763E+03  0.12509731942E+03 0.  0.
          5    1    4    4  502    0  0.49472657528E+02  0.24313904878E+02  0.20457957341E+03  0.21191739916E+03  0.41800000000E+01 0.  1.
         -5    1    4    4    0  502 -0.47628284378E+02 -0.51775681638E+02  0.38790352207E+03  0.39425345847E+03  0.41800000000E+01 0.  1.
        -11    1    3    3    0    0  0.91790893493E+01  0.58388760520E+02  0.18259538481E+03  0.19192336384E+03  0.00000000000E+00 0.  1.
         11    1    3    3    0    0 -0.11023462499E+02 -0.30926983760E+02  0.15460893345E+03  0.15805669031E+03  0.00000000000E+00 0. -1.
</event>
<event>
 7    1  0.9181008E-006  0.1705170E+03  0.7561462E-02  0.1177310E+00
         -1   -1    0    0    0  501 -0.00000000000E+00  0.00000000000E+00  0.15419385275E+03  0.15419385275E+03  0.00000000000E+00 0.  1.
          1   -1    0    0  501    0  0.00000000000E+00 -0.00000000000E+00 -0.17331187373E+04  0.17331187373E+04  0.00000000000E+00 0. -1.
         23    2    1    2    0    0 -0.10384216122E+03 -0.75732938326E+02  0.10609443618E+03  0.19003489763E+03  0.91315718986E+02 0.  0.
          5    1    1    2  502    0  0.14006200885E+03  0.26983339511E+02 -0.11975402960E+04  0.12060123133E+04  0.41800000000E+01 0. -1.
         -5    1    1    2    0  502 -0.36219847624E+02  0.48749598815E+02 -0.48747902476E+03  0.49126537913E+03  0.41800000000E+01 0.  1.
        -11    1    3    3    0    0 -0.96410890188E+02 -0.46020114464E+02  0.34662869310E+02  0.11231395813E+03  0.00000000000E+00 0. -1.
         11    1    3    3    0    0 -0.74312710344E+01 -0.29712823862E+02  0.71431566871E+02  0.77720939500E+02  0.00000000000E+00 0.  1.
</event>
<event>
 8    1  0.9181008E-006  0.1027518E+03  0.7561462E-02  0.1274613E+00
          2   -1    0    0  501    0  0.00000000000E+00  0.00000000000E+00  0.56806293879E+03  0.56806293879E+03  0.00000000000E+00 0. -1.
         -2   -1    0    0    0  501 -0.00000000000E+00 -0.00000000000E+00 -0.23554024092E+02  0.23554024092E+02  0.00000000000E+00 0.  1.
         23    2    1    2    0    0  0.19503670062E+02  0.59543293102E+01  0.14511365244E+03  0.17259506210E+03  0.91187916702E+02 0.  0.
         23    2    1    2    0    0 -0.19503670062E+02 -0.59543293102E+01  0.39939526226E+03  0.41902190078E+03  0.12508769179E+03 0.  0.
          5    1    4    4  502    0  0.14541587231E+02 -0.52654835688E+02  0.99552400995E+02  0.11363160839E+03  0.41800000000E+01 0. -1.
         -5    1    4    4    0  502 -0.34045257292E+02  0.46700506378E+02  0.29984286126E+03  0.30539029240E+03  0.41800000000E+01 0. -1.
        -11    1    3    3    0    0 -0.16434396955E+02 -0.34771073590E+02  0.50195788885E+02  0.63235545255E+02  0.00000000000E+00 0.  1.
         11    1    3    3    0    0  0.35938067016E+02  0.40725402900E+02  0.94917863552E+02  0.10935951684E+03  0.00000000000E+00 0. -1.
</event>
<event>
 8    1  0.9181008E-006  0.2052458E+03  0.7561462E-02  0.1145387E+00
          2   -1    0    0  501    0  0.00000000000E+00  0.00000000000E+00  0.31969752205E+04  0.31969752205E+04  0.00000000000E+00 0. -1.
         -2   -1    0    0    0  501 -0.00000000000E+00 -0.00000000000E+00 -0.80606893957E+02  0.80606893957E+02  0.00000000000E+00 0.  1.
         23    2    1    2    0    0 -0.74680408702E+02 -0.16105005974E+03  0.59089013638E+02  0.21259947686E+03  0.10095910480E+03 0.  0.
         23    2    1    2    0    0  0.74680408702E+02  0.16105005974E+03  0.30572793129E+04  0.30649826376E+04  0.12508991352E+03 0.  0.
          5    1    4    4  502    0  0.52390259555E+02  0.17757915966E+03  0.24148943171E+04  0.24219849571E+04  0.41800000000E+01 0.  1.
         -5    1    4    4    0  502  0.22290149148E+02 -0.16529099915E+02  0.64238499576E+03  0.64299768046E+03  0.41800000000E+01 0.  1.
        -11    1    3    3    0    0 -0.35297216174E+02 -0.42349507257E+01 -0.97605659174E+01  0.36865931757E+02  0.00000000000E+00 0.  1.
         11    1    3    3    0    0 -0.39383192528E+02 -0.15681510902E+03  0.68849579556E+02  0.17573354510E+03  0.00000000000E+00 0. -1.
</event>
<event>
 8    1  0.9181008E-006  0.1280162E+03  0.7561462E-02  0.1230429E+00
          2   -1    0    0  501    0  0.00000000000E+00  0.00000000000E+00  0.14691037088E+04  0.14691037088E+04  0.00000000000E+00 0. -1.
         -2   -1    0    0    0  501 -0.00000000000E+00 -0.00000000000E+00 -0.20420618674E+02  0.20420618674E+02  0.00000000000E+00 0.  1.
         23    2    1    2    0    0  0.94211011331E+02 -0.22527267291E+02  0.27812322242E+03  0.30832110924E+03  0.91247943142E+02 0.  0.
         23    2    1    2    0    0 -0.94211011331E+02  0.22527267291E+02  0.11705598677E+04  0.11812032182E+04  0.12508975357E+03 0.  0.
          5    1    4    4  502    0  0.27510804640E+02 -0.29519153825E+01  0.11598076887E+03  0.11930871437E+03  0.41800000000E+01 0.  1.
         -5    1    4    4    0  502 -0.12172181597E+03  0.25479182674E+02  0.10545790988E+04  0.10618945039E+04  0.41800000000E+01 0.  1.
        -11    1    3    3    0    0  0.13280488546E+02  0.97652619748E+01 -0.39677182244E+00  0.16489061384E+02  0.00000000000E+00 0.  1.
         11    1    3    3    0    0  0.80930522785E+02 -0.32292529266E+02  0.27851999424E+03  0.29183204785E+03  0.00000000000E+00 0. -1.
</event>
<event>
 8    1  0.9181008E-006  0.1096714E+03  0.7561462E-02  0.1261180E+00
          2   -1    0    0  501    0  0.00000000000E+00  0.00000000000E+00  0.51322854415E+02  0.51322854415E+02  0.00000000000E+00 0.  1.
         -2   -1    0    0    0  501 -0.00000000000E+00 -0.00000000000E+00 -0.29832812750E+03  0.29832812750E+03  0.00000000000E+00 0. -1.
         23    2    1    2    0    0  0.50694935828E+02  0.26995404889E+01 -0.15169135874E+03  0.18439584318E+03  0.91729464341E+02 0.  0.
         23    2    1    2    0    0 -0.50694935828E+02 -0.26995404889E+01 -0.95313914347E+02  0.16525513874E+03  0.12508898662E+03 0.  0.
          5    1    4    4  502    0  0.59100771281E+01 -0.50906682190E+02 -0.69471643635E+02  0.86430324381E+02  0.41800000000E+01 0. -1.
         -5    1    4    4    0  502 -0.56605012956E+02  0.48207141701E+02 -0.25842270713E+02  0.78824814356E+02  0.41800000000E+01 0. -1.
        -11    1    3    3    0    0  0.38549195506E+02 -0.36091513265E+02 -0.42184502984E+02  0.67588239332E+02  0.00000000000E+00 0.  1.
         11    1    3    3    0    0  0.12145740321E+02  0.38791053754E+02 -0.10950685575E+03  0.11680760385E+03  0.00000000000E+00 0. -1.
</event>
<event>
 7    1  0.9181008E-006  0.9137111E+02  0.7561462E-02  0.1299565E+00
         -2   -1    0    0    0  501 -0.00000000000E+00  0.00000000000E+00  0.29446480895E+02  0.29446480895E+02  0.00000000000E+00 0.  1.
          2   -1    0    0  501    0  0.00000000000E+00 -0.00000000000E+00 -0.14415354503E+04  0.14415354503E+04  0.00000000000E+00 0. -1.
         23    2    1    2    0    0  0.47929014147E+02  0.27440267258E+02 -0.85093663324E+02  0.13615752610E+03  0.90817298522E+02 0.  0.
          5    1    1    2  502    0 -0.74718963172E+02  0.53002254143E+01 -0.11627225626E+04  0.11651404404E+04  0.41800000000E+01 0. -1.
         -5    1    1    2    0  502  0.26789949025E+02 -0.32740492672E+02 -0.16427274349E+03  0.16968396472E+03  0.41800000000E+01 0.  1.
        -11    1    3    3    0    0  0.39194867604E+02  0.30633296564E+01 -0.99174183432E+02  0.10668242730E+03  0.00000000000E+00 0. -1.
         11    1    3    3    0    0  0.87341465433E+01  0.24376937601E+02  0.14080520108E+02  0.29475098798E+02  0.00000000000E+00 0.  1.
</event>
<event>
 8    1  0.9181008E-006  0.8623918E+02  0.7561462E-02  0.1312223E+00
         -1   -1    0    0    0  501 -0.00000000000E+00  0.00000000000E+00  0.65937004562E+02  0.65937004562E+02  0.00000000000E+00 0.  1.
          1   -1    0    0  501    0  0.00000000000E+00 -0.00000000000E+00 -0.74963497504E+03  0.74963497504E+03  0.00000000000E+00 0. -1.
         23    2    1    2    0    0  0.79585018647E+01  0.74802686041E+02 -0.32589322951E+01  0.11965276312E+03  0.92991308694E+02 0.  0.
         23    2    1    2    0    0 -0.79585018647E+01 -0.74802686041E+02 -0.68043903819E+03  0.69591921648E+03  0.12508993400E+03 0.  0.
          5    1    4    4  502    0  0.29374587495E+01 -0.73890024932E+02 -0.68019000812E+03  0.68421070146E+03  0.41800000000E+01 0.  1.
         -5    1    4    4    0  502 -0.10895960614E+02 -0.91266110871E+00 -0.24903006752E+00  0.11708515020E+02  0.41800000000E+01 0.  1.
        -11    1    3    3    0    0 -0.15290052397E+02  0.51766875444E+02 -0.42394375180E+02  0.68635837158E+02  0.00000000000E+00 0. -1.
         11    1    3    3    0    0  0.23248554262E+02  0.23035810597E+02  0.39135442885E+02  0.51016925965E+02  0.00000000000E+00 0.  1.
</event>
<event>
 8    1  0.9181008E-006  0.2253176E+03  0.7561462E-02  0.1129980E+00
          1   -1    0    0  501    0  0.00000000000E+00  0.00000000000E+00  0.65423654417E+03  0.65423654417E+03  0.00000000000E+00 0. -1.
         -1   -1    0    0    0  501 -0.00000000000E+00 -0.00000000000E+00 -0.10249865985E+03  0.10249865985E+03  0.00000000000E+00 0.  1.
         23    2    1    2    0    0  0.12416772651E+03  0.17105157093E+03  0.12109369392E+03  0.26097429908E+03  0.93635665472E+02 0.  0.
         23    2    1    2    0    0 -0.12416772651E+03 -0.17105157093E+03  0.43064419039E+03  0.49576090493E+03  0.12509273325E+03 0.  0.
          5    1    4    4  502    0 -0.59140987143E+02 -0.14221498053E+03  0.37478023789E+03  0.40521655465E+03  0.41800000000E+01 0. -1.
         -5    1    4    4    0  502 -0.65026739368E+02 -0.28836590401E+02  0.55863952503E+02  0.90544350283E+02  0.41800000000E+01 0. -1.
        -11    1    3    3    0    0  0.94654589106E+02  0.64014626671E+02  0.32135035326E+02  0.11870140758E+03  0.00000000000E+00 0.  1.
         11    1    3    3    0    0  0.29513137404E+02  0.10703694426E+03  0.88958658597E+02  0.14227289150E+03  0.00000000000E+00 0. -1.
</event>
<event>
 8    1  0.9181008E-006  0.1076096E+03  0.7561462E-02  0.1265062E+00
          1   -1    0    0  501    0  0.00000000000E+00  0.00000000000E+00  0.75450497422E+03  0.75450497422E+03  0.00000000000E+00 0. -1.
         -1   -1    0    0    0  501 -0.00000000000E+00 -0.00000000000E+00 -0.22460176601E+02  0.22460176601E+02  0.00000000000E+00 0.  1.
         23    2    1    2    0    0 -0.38274689490E+02  0.45464207480E+02  0.19914844343E+03  0.22636776380E+03  0.89723552935E+02 0.  0.
         23    2    1    2    0    0  0.38274689490E+02 -0.45464207480E+02  0.53289635419E+03  0.55059738702E+03  0.12508801808E+03 0.  0.
          5    1    4    4  502    0 -0.29258776595E+02 -0.23507463151E+02  0.38102117939E+03  0.38288808858E+03  0.41800000000E+01 0.  1.
         -5    1    4    4    0  502  0.67533466085E+02 -0.21956744328E+02  0.15187517480E+03  0.16770929844E+03  0.41800000000E+01 0.  1.
        -11    1    3    3    0    0 -0.87423038455E+01 -0.26833621009E+02  0.38431947335E+02  0.47681082926E+02  0.00000000000E+00 0.  1.
         11    1    3    3    0    0 -0.29532385645E+02  0.72297828489E+02  0.16071649610E+03  0.17868668088E+03  0.00000000000E+00 0. -1.
</event>
<event>
 7    1  0.9181008E-006  0.1964780E+03  0.7561462E-02  0.1152745E+00
          1   -1    0    0  501    0  0.00000000000E+00  0.00000000000E+00  0.16316344073E+04  0.16316344073E+04  0.00000000000E+00 0. -1.
         -1   -1    0    0    0  501 -0.00000000000E+00 -0.00000000000E+00 -0.38323949888E+02  0.38323949888E+02  0.00000000000E+00 0.  1.
         23    2    1    2    0    0  0.48038146470E+02  0.17387484014E+03  0.63532489782E+03  0.66711259047E+03  0.94134791797E+02 0.  0.
          5    1    1    2  502    0 -0.13685189696E+02 -0.15571217421E+03  0.95021837030E+03  0.96299843679E+03  0.41800000000E+01 0. -1.
         -5    1    1    2    0  502 -0.34352956774E+02 -0.18162665930E+02  0.77671892987E+01  0.39847329928E+02  0.41800000000E+01 0.  1.
        -11    1    3    3    0    0 -0.46958769335E+01  0.12658613157E+03  0.32516567597E+03  0.34896821746E+03  0.00000000000E+00 0.  1.
         11    1    3    3    0    0  0.52734023404E+02  0.47288708568E+02  0.31015922185E+03  0.31814437301E+03  0.00000000000E+00 0. -1.
</event>
<event>
 8    1  0.9181008E-006  0.2083442E+03  0.7561462E-02  0.1142884E+00
          1   -1    0    0  501    0  0.00000000000E+00  0.00000000000E+00  0.44557294334E+03  0.44557294334E+03  0.00000000000E+00 0. -1.
         -1   -1    0    0    0  501 -0.00000000000E+00 -0.00000000000E+00 -0.14247951827E+03  0.14247951827E+03  0.00000000000E+00 0.  1.
         23    2    1    2    0    0 -0.16295809390E+03 -0.87667993521E+02 -0.60656335490E+01  0.20663961164E+03  0.91772107587E+02 0.  0.
         23    2    1    2    0    0  0.16295809390E+03  0.87667993521E+02  0.30915905863E+03  0.38141284997E+03  0.12512162538E+03 0.  0.
          5    1    4    4  502    0  0.11181307650E+02 -0.25773054906E+02  0.16820353682E+02  0.33010130232E+02  0.41800000000E+01 0. -1.
         -5    1    4    4    0  502  0.15177678625E+03  0.11344104843E+03  0.29233870494E+03  0.34840271974E+03  0.41800000000E+01 0. -1.
        -11    1    3    3    0    0 -0.29913520211E+02  0.12292438974E+02  0.20253477442E+02  0.38159220325E+02  0.00000000000E+00 0. -1.
         11    1    3    3    0    0 -0.13304457369E+03 -0.99960432495E+02 -0.26319110991E+02  0.16848039131E+03  0.00000000000E+00 0.  1.
</event>
<event>
 8    1  0.9181008E-006  0.8366582E+02  0.7561462E-02  0.1318959E+00
          4   -1    0    0  501    0  0.00000000000E+00  0.00000000000E+00  0.17829110994E+03  0.17829110994E+03  0.00000000000E+00 0. -1.
         -4   -1    0    0    0  501 -0.00000000000E+00 -0.00000000000E+00 -0.78964831077E+02  0.78964831077E+02  0.00000000000E+00 0.  1.
         23    2    1    2    0    0 -0.52388786501E+02 -0.78680520507E+01  0.25260032460E+02  0.10253198642E+03  0.84072871995E+02 0.  0.
         23    2    1    2    0    0  0.52388786501E+02  0.78680520507E+01  0.74066246398E+02  0.15472395459E+03  0.12508877677E+03 0.  0.
          5    1    4    4  502    0  0.52673061182E+02  0.25964832489E+02  0.10399262581E+03  0.11950130763E+03  0.41800000000E+01 0.  1.
         -5    1    4    4    0  502 -0.28427468109E+00 -0.18096780439E+02 -0.29926379416E+02  0.35222646966E+02  0.41800000000E+01 0.  1.
        -11    1    3    3    0    0 -0.70191466261E+02 -0.12934055961E+02  0.19502876429E+00  0.71373452878E+02  0.00000000000E+00 0. -1.
         11    1    3    3    0    0  0.17802679760E+02  0.50660039106E+01  0.25065003696E+02  0.31158533543E+02  0.00000000000E+00 0.  1.
</event>
<event>
 8    1  0.9181008E-006  0.1274122E+03  0.7561462E-02  0.1231347E+00
         -4   -1    0    0    0  501 -0.00000000000E+00  0.00000000000E+00  0.50826752222E+02  0.50826752222E+02  0.00000000000E+00 0.  1.
          4   -1    0    0  501    0  0.00000000000E+00 -0.00000000000E+00 -0.39390615788E+03  0.39390615788E+03  0.00000000000E+00 0. -1.
         23    2    1    2    0    0  0.72414290296E+02 -0.79616598413E+00 -0.68089834484E+02  0.13407160397E+03  0.89969473214E+02 0.  0.
         23    2    1    2    0    0 -0.72414290296E+02  0.79616598413E+00 -0.27498957118E+03  0.31066130614E+03  0.12508684806E+03 0.  0.
          5    1    4    4  502    0  0.24343877278E+02  0.34071302812E+02 -0.76424700123E+02  0.87244972492E+02  0.41800000000E+01 0. -1.
         -5    1    4    4    0  502 -0.96758167575E+02 -0.33275136828E+02 -0.19856487106E+03  0.22341633365E+03  0.41800000000E+01 0. -1.
        -11    1    3    3    0    0  0.11061857855E+02 -0.37327152613E+02 -0.58896300757E+01  0.39374722396E+02  0.00000000000E+00 0.  1.
         11    1    3    3    0    0  0.61352432441E+02  0.36530986628E+02 -0.62200204408E+02  0.94696881569E+02  0.00000000000E+00 0. -1.
</event>
<event>
 8    1  0.9181008E-006  0.2387580E+03  0.7561462E-02  0.1120623E+00
          1   -1    0    0  501    0  0.00000000000E+00  0.00000000000E+00  0.41465038547E+03  0.41465038547E+03  0.00000000000E+00 0. -1.
         -1   -1    0    0    0  501 -0.00000000000E+00 -0.00000000000E+00 -0.16578667839E+03  0.16578667839E+03  0.00000000000E+00 0.  1.
         23    2    1    2    0    0  0.10389580934E+03  0.19523741568E+03  0.22581341770E+02  0.24019582325E+03  0.90951244261E+02 0.  0.
         23    2    1    2    0    0 -0.10389580934E+03 -0.19523741568E+03  0.22628236531E+03  0.34024124061E+03  0.12509358610E+03 0.  0.
          5    1    4    4  502    0  0.22170328678E+02 -0.79771978130E+02  0.67894684569E+02  0.10715527314E+03  0.41800000000E+01 0. -1.
         -5    1    4    4    0  502 -0.12606613802E+03 -0.11546543755E+03  0.15838768074E+03  0.23308596748E+03  0.41800000000E+01 0. -1.
        -11    1    3    3    0    0  0.10519161931E+03  0.18124919275E+03 -0.45841991305E+01  0.20961288493E+03  0.00000000000E+00 0.  1.
         11    1    3    3    0    0 -0.12958099682E+01  0.13988222924E+02  0.27165540900E+02  0.30582938323E+02  0.00000000000E+00 0. -1.
</event>
<event>
 8    1  0.9181008E-006  0.3482697E+03  0.7561462E-02  0.1063327E+00
          1   -1    0    0  501    0  0.00000000000E+00  0.00000000000E+00  0.57195677287E+03  0.57195677287E+03  0.00000000000E+00 0. -1.
         -1   -1    0    0    0  501 -0.00000000000E+00 -0.00000000000E+00 -0.24283572866E+03  0.24283572866E+03  0.00000000000E+00 0.  1.
         23    2    1    2    0    0  0.71159470540E+02  0.32395956856E+03  0.19926459043E+02  0.34440761987E+03  0.90587375197E+02 0.  0.
         23    2    1    2    0    0 -0.71159470540E+02 -0.32395956856E+03  0.30919458516E+03  0.47038488166E+03  0.12508866093E+03 0.  0.
          5    1    4    4  502    0  0.24112564457E+01 -0.24464561883E+03  0.23398975885E+03  0.33856457673E+03  0.41800000000E+01 0.  1.
         -5    1    4    4    0  502 -0.73570726985E+02 -0.79313949729E+02  0.75204826309E+02  0.13182030493E+03  0.41800000000E+01 0.  1.
        -11    1    3    3    0    0  0.22986495377E+02  0.27107274616E+03  0.21074199885E+02  0.27286065048E+03  0.00000000000E+00 0. -1.
         11    1    3    3    0    0  0.48172975163E+02  0.52886822402E+02 -0.11477408418E+01  0.71546969390E+02  0.00000000000E+00 0.  1.
</event>
<event>
 8    1  0.9181008E-006  0.1254445E+03  0.7561462E-02  0.1234376E+00
          3   -1    0    0  501    0  0.00000000000E+00  0.00000000000E+00  0.78931166276E+02  0.78931166276E+02  0.00000000000E+00 0. -1.
         -3   -1    0    0    0  501 -0.00000000000E+00 -0.00000000000E+00 -0.33348229710E+03  0.33348229710E+03  0.00000000000E+00 0.  1.
         23    2    1    2    0    0 -0.11001718829E+03  0.29321957428E+02 -0.17098604555E+03  0.22374780009E+03  0.88675201506E+02 0.  0.
         23    2    1    2    0    0  0.11001718829E+03 -0.29321957428E+02 -0.83565085273E+02  0.18866566329E+03  0.12509216650E+03 0.  0.
          5    1    4    4  502    0  0.10362545071E+03  0.17958464910E+01 -0.10695837603E+03  0.14899337469E+03  0.41800000000E+01 0.  1.
         -5    1    4    4    0  502  0.63917375835E+01 -0.31117803919E+02  0.23393290758E+02  0.39672288597E+02  0.41800000000E+01 0.  1.
        -11    1    3    3    0    0 -0.66760699152E+02  0.26320987055E+02 -0.16505908983E+03  0.17998413388E+03  0.00000000000E+00 0.  1.
         11    1    3    3    0    0 -0.43256489143E+02  0.30009703727E+01 -0.59269557217E+01  0.43763666212E+02  0.00000000000E+00 0. -1.
</event>
<event>
 7    1  0.9181008E-006  0.3449518E+03  0.7561462E-02  0.1064706E+00
         -2   -1    0    0    0  501 -0.00000000000E+00  0.00000000000E+00  0.20604707082E+03  0.20604707082E+03  0.00000000000E+00 0.  1.
          2   -1    0    0  501    0  0.00000000000E+00 -0.00000000000E+00 -0.11251784392E+04  0.11251784392E+04  0.00000000000E+00 0. -1.
         23    2    1    2    0    0 -0.18194192317E+03  0.12399528010E+02  0.47035927006E+02  0.21846555266E+03  0.11071678990E+03 0.  0.
          5    1    1    2  502    0 -0.56186651455E+01 -0.20937545159E+03 -0.70572332457E+03  0.73616067021E+03  0.41800000000E+01 0. -1.
         -5    1    1    2    0  502  0.18756058832E+03  0.19697592358E+03 -0.26044397084E+03  0.37659928719E+03  0.41800000000E+01 0.  1.
        -11    1    3    3    0    0 -0.38028467815E+02  0.46917631300E+02  0.35422023004E+02  0.70015342639E+02  0.00000000000E+00 0.  1.
         11    1    3    3    0    0 -0.14391345536E+03 -0.34518103290E+02  0.11613904002E+02  0.14845021002E+03  0.00000000000E+00 0. -1.
</event>
<event>
 8    1  0.9181008E-006  0.1151839E+03  0.7561462E-02  0.1251260E+00
          2   -1    0    0  501    0  0.00000000000E+00  0.00000000000E+00  0.97097521018E+02  0.97097521018E+02  0.00000000000E+00 0. -1.
         -2   -1    0    0    0  501 -0.00000000000E+00 -0.00000000000E+00 -0.18193234461E+03  0.18193234461E+03  0.00000000000E+00 0.  1.
         23    2    1    2    0    0  0.37488620435E+02 -0.40558107100E+02 -0.99978159260E+02  0.14145712239E+03  0.83451353692E+02 0.  0.
         23    2    1    2    0    0 -0.37488620435E+02  0.40558107100E+02  0.15143335665E+02  0.13757274324E+03  0.12508629962E+03 0.  0.
          5    1    4    4  502    0 -0.80515047935E+02  0.18039071751E+02 -0.91311462158E+01  0.83119981261E+02  0.41800000000E+01 0.  1.
         -5    1    4    4    0  502  0.43026427500E+02  0.22519035349E+02  0.24274481881E+02  0.54452761978E+02  0.41800000000E+01 0.  1.
        -11    1    3    3    0    0  0.48746436813E+02  0.77915817705E+01 -0.60138947778E+02  0.77804992695E+02  0.00000000000E+00 0. -1.
         11    1    3    3    0    0 -0.11257816378E+02 -0.48349688871E+02 -0.39839211483E+02  0.63652129698E+02  0.00000000000E+00 0.  1.
</event>
<event>
 8    1  0.9181008E-006  0.8341403E+02  0.7561462E-02  0.1319633E+00
          2   -1    0    0  501    0  0.00000000000E+00  0.00000000000E+00  0.60830519198E+03  0.60830519198E+03  0.00000000000E+00 0. -1.
         -2   -1    0    0    0  501 -0.00000000000E+00 -0.00000000000E+00 -0.30486023999E+02  0.30486023999E+02  0.00000000000E+00 0.  1.
         23    2    1    2    0    0 -0.27381813061E+02 -0.69012539391E+02  0.17534117137E+03  0.21082956877E+03  0.90510145353E+02 0.  0.
         23    2    1    2    0    0  0.27381813061E+02  0.69012539391E+02  0.40247799661E+03  0.42796164720E+03  0.12510051736E+03 0.  0.
          5    1    4    4  502    0 -0.33941148780E+01 -0.56975506114E+01  0.28618305492E+03  0.28629040400E+03  0.41800000000E+01 0.  1.
         -5    1    4    4    0  502  0.30775927939E+02  0.74710090003E+02  0.11629494169E+03  0.14167124321E+03  0.41800000000E+01 0.  1.
        -11    1    3    3    0    0 -0.18039652969E+02 -0.15577897007E+02 -0.33656144588E+01  0.24071296498E+02  0.00000000000E+00 0.  1.
         11    1    3    3    0    0 -0.93421600921E+01 -0.53434642384E+02  0.17870678583E+03  0.18675827228E+03  0.00000000000E+00 0. -1.
</event>
<event>
 8    1  0.9181008E-006  0.1103890E+03  0.7561462E-02  0.1259851E+00
          1   -1    0    0  501    0  0.00000000000E+00  0.00000000000E+00  0.29375315869E+02  0.29375315869E+02  0.00000000000E+00 0. -1.
         -1   -1    0    0    0  501 -0.00000000000E+00 -0.00000000000E+00 -0.47210257274E+03  0.47210257274E+03  0.00000000000E+00 0.  1.
         23    2    1    2    0    0 -0.29424854888E+02 -0.13039886967E+02 -0.26398245484E+03  0.28094905864E+03  0.90607816173E+02 0.  0.
         23    2    1    2    0    0  0.29424854888E+02  0.13039886967E+02 -0.17874480204E+03  0.22052882997E+03  0.12508956733E+03 0.  0.
          5    1    4    4  502    0  0.77079637618E+02  0.20917900716E+02 -0.99890353561E+02  0.12796243293E+03  0.41800000000E+01 0. -1.
         -5    1    4    4    0  502 -0.47654782730E+02 -0.78780137488E+01 -0.78854448477E+02  0.92566397047E+02  0.41800000000E+01 0. -1.
        -11    1    3    3    0    0  0.16057815328E+02  0.27202959064E+02 -0.13101476463E+03  0.13476914693E+03  0.00000000000E+00 0.  1.
         11    1    3    3    0    0 -0.45482670216E+02 -0.40242846031E+02 -0.13296769021E+03  0.14617991170E+03  0.00000000000E+00 0. -1.
</event>
<event>
 6    1  0.9181008E-006  0.1151705E+03  0.7561462E-02  0.1251284E+00
         -2   -1    0    0    0  501 -0.00000000000E+00  0.00000000000E+00  0.34491073544E+02  0.34491073544E+02  0.00000000000E+00 0.  1.
          2   -1    0    0  501    0  0.00000000000E+00 -0.00000000000E+00 -0.46871717820E+03  0.46871717820E+03  0.00000000000E+00 0. -1.
          5    1    1    2  502    0 -0.65527627794E+02 -0.28935312193E+02 -0.23229844000E+03  0.24312786743E+03  0.41800000000E+01 0. -1.
         -5    1    1    2    0  502  0.96805418562E+02 -0.20386205552E+02 -0.15558529282E+03  0.18442110015E+03  0.41800000000E+01 0.  1.
        -11    1    1    2    0    0 -0.23206538776E+02  0.25794033549E+02 -0.23655521033E+02  0.41993562412E+02  0.00000000000E+00 0. -1.
         11    1    1    2    0    0 -0.80712519914E+01  0.23527484196E+02 -0.22686850803E+02  0.33665721745E+02  0.00000000000E+00 0.  1.
</event>
<event>
 7    1  0.9181008E-006  0.1519227E+03  0.7561462E-02  0.1198130E+00
          2   -1    0    0  501    0  0.00000000000E+00  0.00000000000E+00  0.36890117121E+03  0.36890117121E+03  0.00000000000E+00 0. -1.
         -2   -1    0    0    0  501 -0.00000000000E+00 -0.00000000000E+00 -0.92440311002E+02  0.92440311002E+02  0.00000000000E+00 0.  1.
         23    2    1    2    0    0 -0.65248532418E+02  0.12401205491E+03  0.10183710098E+03  0.19437039876E+03  0.88162894888E+02 0.  0.
          5    1    1    2  502    0  0.10118909036E+02 -0.30627352541E+02  0.15286549455E+03  0.15628742389E+03  0.41800000000E+01 0. -1.
         -5    1    1    2    0  502  0.55129623381E+02 -0.93384702367E+02  0.21758264683E+02  0.11068365955E+03  0.41800000000E+01 0.  1.
        -11    1    3    3    0    0 -0.38640695641E+02  0.12991630449E+03  0.70298087994E+02  0.15268651122E+03  0.00000000000E+00 0. -1.
         11    1    3    3    0    0 -0.26607836776E+02 -0.59042495826E+01  0.31539012983E+02  0.41683887546E+02  0.00000000000E+00 0.  1.
</event>
<event>
 8    1  0.9181008E-006  0.1141537E+03  0.7561462E-02  0.1253066E+00
          1   -1    0    0  501    0  0.00000000000E+00  0.00000000000E+00  0.36748688401E+03  0.36748688401E+03  0.00000000000E+00 0. -1.
         -1   -1    0    0    0  501 -0.00000000000E+00 -0.00000000000E+00 -0.42258788963E+02  0.42258788963E+02  0.00000000000E+00 0.  1.
         23    2    1    2    0    0  0.18087468884E+02  0.47897923084E+02  0.84462448645E+02  0.13363603100E+03  0.90018420244E+02 0.  0.
         23    2    1    2    0    0 -0.18087468884E+02 -0.47897923084E+02  0.24076564640E+03  0.27610964197E+03  0.12508825020E+03 0.  0.
          5    1    4    4  502    0  0.18837056600E+01 -0.87890602646E+02  0.18193629885E+03  0.20210540720E+03  0.41800000000E+01 0.  1.
         -5    1    4    4    0  502 -0.19971174544E+02  0.39992679562E+02  0.58829347552E+02  0.74004234774E+02  0.41800000000E+01 0.  1.
        -11    1    3    3    0    0 -0.13964312403E+02  0.59649470157E+02  0.27331477712E+02  0.67082568413E+02  0.00000000000E+00 0. -1.
         11    1    3    3    0    0  0.32051781287E+02 -0.11751547073E+02  0.57130970933E+02  0.66553462584E+02  0.00000000000E+00 0.  1.
</event>
<event>
 8    1  0.9181008E-006  0.1118107E+03  0.7561462E-02  0.1257253E+00
         -2   -1    0    0    0  501 -0.00000000000E+00  0.00000000000E+00  0.81170145769E+02  0.81170145769E+02  0.00000000000E+00 0.  1.
          2   -1    0    0  501    0  0.00000000000E+00 -0.00000000000E+00 -0.18619809576E+03  0.18619809576E+03  0.00000000000E+00 0. -1.
         23    2    1    2    0    0 -0.33506711842E+02  0.48607185080E+02 -0.32873960370E+02  0.11134183933E+03  0.88492653563E+02 0.  0.
         23    2    1    2    0    0  0.33506711842E+02 -0.48607185080E+02 -0.72153989623E+02  0.15602640220E+03  0.12511067815E+03 0.  0.
          5    1    4    4  502    0  0.23272068177E+02 -0.80616601187E+02 -0.91647402441E+01  0.84510889286E+02  0.41800000000E+01 0. -1.
         -5    1    4    4    0  502  0.10234643666E+02  0.32009416107E+02 -0.62989249378E+02  0.71515512917E+02  0.41800000000E+01 0. -1.
        -11    1    3    3    0    0 -0.24692030030E+02  0.74450804781E+02 -0.18968890931E+02  0.80699674737E+02  0.00000000000E+00 0.  1.
         11    1    3    3    0    0 -0.88146818124E+01 -0.25843619701E+02 -0.13905069439E+02  0.30642164591E+02  0.00000000000E+00 0. -1.
</event>
<event>
 8    1  0.9181008E-006  0.9251095E+02  0.7561462E-02  0.1296883E+00
         -3   -1    0    0    0  501 -0.00000000000E+00  0.00000000000E+00  0.10593632324E+03  0.10593632324E+03  0.00000000000E+00 0.  1.
          3   -1    0    0  501    0  0.00000000000E+00 -0.00000000000E+00 -0.15785953521E+03  0.15785953521E+03  0.00000000000E+00 0. -1.
         23    2    1    2    0    0  0.31528886420E+02  0.55936532882E+02 -0.19486258681E+01  0.11216827860E+03  0.91950852040E+02 0.  0.
         23    2    1    2    0    0 -0.31528886420E+02 -0.55936532882E+02 -0.49974586106E+02  0.15162757985E+03  0.12794724431E+03 0.  0.
          5    1    4    4  502    0  0.12021528784E+01 -0.62123252863E+02 -0.83511317603E+02  0.10417464320E+03  0.41800000000E+01 0. -1.
         -5    1    4    4    0  502 -0.32731039298E+02  0.61867199808E+01  0.33536731496E+02  0.47452936654E+02  0.41800000000E+01 0.  1.
        -11    1    3    3    0    0  0.13951249166E+02  0.66978887846E+02  0.29484545464E+02  0.74499310007E+02  0.00000000000E+00 0.  1.
         11    1    3    3    0    0  0.17577637254E+02 -0.11042354964E+02 -0.31433171332E+02  0.37668968589E+02  0.00000000000E+00 0. -1.
</event>
<event>
 8    1  0.9181008E-006  0.1149045E+03  0.7561462E-02  0.1251748E+00
          3   -1    0    0  501    0  0.00000000000E+00  0.00000000000E+00  0.83558236624E+02  0.83558236624E+02  0.00000000000E+00 0. -1.
         -3   -1    0    0    0  501 -0.00000000000E+00 -0.00000000000E+00 -0.23235252100E+03  0.23235252100E+03  0.00000000000E+00 0.  1.
         23    2    1    2    0    0 -0.81824894171E+02 -0.69080379102E+00 -0.32312992318E+02  0.12640812060E+03  0.90769449514E+02 0.  0.
         23    2    1    2    0    0  0.81824894171E+02  0.69080379102E+00 -0.11648129206E+03  0.18950263703E+03  0.12509023753E+03 0.  0.
          5    1    4    4  502    0  0.10599621697E+03  0.14261316569E+02 -0.12051209963E+03  0.16118071138E+03  0.41800000000E+01 0.  1.
         -5    1    4    4    0  502 -0.24171322800E+02 -0.13570512778E+02  0.40308075695E+01  0.28321925651E+02  0.41800000000E+01 0.  1.
        -11    1    3    3    0    0 -0.41804272059E+02 -0.24223933630E+02 -0.56268133630E+02  0.74165348951E+02  0.00000000000E+00 0.  1.
         11    1    3    3    0    0 -0.40020622111E+02  0.23533129839E+02  0.23955141312E+02  0.52242771648E+02  0.00000000000E+00 0. -1.
</event>
<event>
 8    1  0.9181008E-006  0.1843816E+03  0.7561462E-02  0.1163629E+00
         -2   -1    0    0    0  501 -0.00000000000E+00  0.00000000000E+00  0.86025368469E+02  0.86025368469E+02  0.00000000000E+00 0.  1.
          2   -1    0    0  501    0  0.00000000000E+00 -0.00000000000E+00 -0.49584604299E+03  0.49584604299E+03  0.00000000000E+00 0. -1.
         23    2    1    2    0    0 -0.14909376099E+03  0.87285078700E+02 -0.14549108199E+03  0.24221716061E+03  0.87486361352E+02 0.  0.
         23    2    1    2    0    0  0.14909376099E+03 -0.87285078700E+02 -0.26432959252E+03  0.33965425085E+03  0.12508893678E+03 0.  0.
          5    1    4    4  502    0  0.47303838754E+02 -0.99537746989E+00 -0.47274215889E+01  0.47733267771E+02  0.41800000000E+01 0. -1.
         -5    1    4    4    0  502  0.10178992224E+03 -0.86289701230E+02 -0.25960217094E+03  0.29192098308E+03  0.41800000000E+01 0. -1.
        -11    1    3    3    0    0 -0.22481422907E+02 -0.13239311653E+02 -0.21891482562E+01  0.26181789837E+02  0.00000000000E+00 0.  1.
         11    1    3    3    0    0 -0.12661233808E+03  0.10052439035E+03 -0.14330193374E+03  0.21603537077E+03  0.00000000000E+00 0. -1.
</event>
<event>
 8    1  0.9181008E-006  0.1063109E+03  0.7561462E-02  0.1267558E+00
          1   -1    0    0  501    0  0.00000000000E+00  0.00000000000E+00  0.22244780212E+03  0.22244780212E+03  0.00000000000E+00 0. -1.
         -1   -1    0    0    0  501 -0.00000000000E+00 -0.00000000000E+00 -0.16549262499E+03  0.16549262499E+03  0.00000000000E+00 0.  1.
         23    2    1    2    0    0 -0.66534137120E+02 -0.10696571544E+02 -0.11805321986E+03  0.16251576032E+03  0.89070767306E+02 0.  0.
         23    2    1    2    0    0  0.66534137120E+02  0.10696571544E+02  0.17500839699E+03  0.22542466680E+03  0.12508850202E+03 0.  0.
          5    1    4    4  502    0  0.85917578129E+02  0.84402627606E+01  0.52129617774E+02  0.10093580988E+03  0.41800000000E+01 0. -1.
         -5    1    4    4    0  502 -0.19383441009E+02  0.22563087830E+01  0.12287877921E+03  0.12448885691E+03  0.41800000000E+01 0. -1.
        -11    1    3    3    0    0 -0.67305032944E+01  0.32032857911E+02 -0.61894555331E+02  0.70016709721E+02  0.00000000000E+00 0. -1.
         11    1    3    3    0    0 -0.59803633826E+02 -0.42729429455E+02 -0.56158664525E+02  0.92499050598E+02  0.00000000000E+00 0.  1.
</event>
<event>
 8    1  0.9181008E-006  0.9691340E+02  0.7561462E-02  0.1286924E+00
         -2   -1    0    0    0  501 -0.00000000000E+00  0.00000000000E+00  0.34554512113E+02  0.34554512113E+02  0.00000000000E+00 0.  1.
          2   -1    0    0  501    0  0.00000000000E+00 -0.00000000000E+00 -0.43257961231E+03  0.43257961231E+03  0.00000000000E+00 0. -1.
         23    2    1    2    0    0 -0.45540810243E+02 -0.28848013277E+02 -0.19844794865E+03  0.22550704569E+03  0.92550883665E+02 0.  0.
         23    2    1    2    0    0  0.45540810243E+02  0.28848013277E+02 -0.19957715155E+03  0.24162707873E+03  0.12508570057E+03 0.  0.
          5    1    4    4  502    0 -0.17267365089E+02  0.25674405049E+02 -0.16847513315E+03  0.17134374766E+03  0.41800000000E+01 0. -1.
         -5    1    4    4    0  502  0.62808175332E+02  0.31736082275E+01 -0.31102018397E+02  0.70283331068E+02  0.41800000000E+01 0. -1.
        -11    1    3    3    0    0  0.21283760427E+02 -0.24728109582E+02 -0.10899725697E+03  0.11377556806E+03  0.00000000000E+00 0. -1.
         11    1    3    3    0    0 -0.66824570670E+02 -0.41199036953E+01 -0.89450691681E+02  0.11173147763E+03  0.00000000000E+00 0.  1.
</event>
<event>
 8    1  0.9181008E-006  0.8071488E+02  0.7561462E-02  0.1327035E+00
          1   -1    0    0  501    0  0.00000000000E+00  0.00000000000E+00  0.11485867326E+04  0.11485867326E+04  0.00000000000E+00 0. -1.
         -1   -1    0    0    0  501 -0.00000000000E+00 -0.00000000000E+00 -0.12361816633E+02  0.12361816633E+02  0.00000000000E+00 0.  1.
         23    2    1    2    0    0  0.84479471380E+01  0.40203749484E+02  0.35029869875E+03  0.36406959102E+03  0.90276129055E+02 0.  0.
         23    2    1    2    0    0 -0.84479471380E+01 -0.40203749484E+02  0.78592621726E+03  0.79687895825E+03  0.12509334854E+03 0.  0.
          5    1    4    4  502    0 -0.20086795849E+01 -0.50610921352E+02  0.11385507317E+03  0.12468340002E+03  0.41800000000E+01 0. -1.
         -5    1    4    4    0  502 -0.64392675531E+01  0.10407171868E+02  0.67207114409E+03  0.67219555823E+03  0.41800000000E+01 0. -1.
        -11    1    3    3    0    0 -0.35603160239E+01 -0.28099254007E+02  0.74997302927E+02  0.80167570578E+02  0.00000000000E+00 0. -1.
         11    1    3    3    0    0  0.12008263162E+02  0.68303003491E+02  0.27530139582E+03  0.28390202044E+03  0.00000000000E+00 0.  1.
</event>
<event>
 8    1  0.9181008E-006  0.1052953E+03  0.7561462E-02  0.1269539E+00
          3   -1    0    0  501    0  0.00000000000E+00  0.00000000000E+00  0.34720039699E+02  0.34720039699E+02  0.00000000000E+00 0. -1.
         -3   -1    0    0    0  501 -0.00000000000E+00 -0.00000000000E+00 -0.39029285693E+03  0.39029285693E+03  0.00000000000E+00 0.  1.
         23    2    1    2    0    0 -0.37515804988E+02  0.18050040418E+02 -0.21309231151E+03  0.23614066266E+03  0.92848477400E+02 0.  0.
         23    2    1    2    0    0  0.37515804988E+02 -0.18050040418E+02 -0.14248050572E+03  0.18887223397E+03  0.11678521597E+03 0.  0.
          5    1    4    4  502    0  0.35223967992E+02 -0.58381849325E+02 -0.41255193216E+02  0.79803706800E+02  0.41800000000E+01 0. -1.
         -5    1    4    4    0  502  0.22918369960E+01  0.40331808907E+02 -0.10122531251E+03  0.10906852717E+03  0.41800000000E+01 0.  1.
        -11    1    3    3    0    0  0.29858214690E+02  0.16841128956E+02 -0.76604666419E+02  0.83925035158E+02  0.00000000000E+00 0.  1.
         11    1    3    3    0    0 -0.67374019679E+02  0.12089114617E+01 -0.13648764509E+03  0.15221562751E+03  0.00000000000E+00 0. -1.
</event>
<event>
 7    1  0.9181008E-006  0.1079907E+03  0.7561462E-02  0.1264337E+00
          1   -1    0    0  501    0  0.00000000000E+00  0.00000000000E+00  0.61333635001E+03  0.61333635001E+03  0.00000000000E+00 0. -1.
         -1   -1    0    0    0  501 -0.00000000000E+00 -0.00000000000E+00 -0.56985107447E+02  0.56985107447E+02  0.00000000000E+00 0.  1.
         23    2    1    2    0    0  0.57220385239E+02  0.15478372897E+02  0.16178759442E+02  0.11106812722E+03  0.92523640829E+02 0.  0.
          5    1    1    2  502    0 -0.79349618773E+01 -0.47120369683E+02  0.44392481121E+03  0.44650868218E+03  0.41800000000E+01 0. -1.
         -5    1    1    2    0  502 -0.49285423361E+02  0.31641996786E+02  0.96247671915E+02  0.11274464806E+03  0.41800000000E+01 0.  1.
        -11    1    3    3    0    0  0.78848187240E+02  0.28745824164E+02  0.17222761976E+02  0.85673698227E+02  0.00000000000E+00 0.  1.
         11    1    3    3    0    0 -0.21627802001E+02 -0.13267451266E+02 -0.10440025345E+01  0.25394428991E+02  0.00000000000E+00 0. -1.
</event>
<event>
 8    1  0.9181008E-006  0.1317596E+03  0.7561462E-02  0.1224868E+00
          1   -1    0    0  501    0  0.00000000000E+00  0.00000000000E+00  0.74734053411E+02  0.74734053411E+02  0.00000000000E+00 0. -1.
         -1   -1    0    0    0  501 -0.00000000000E+00 -0.00000000000E+00 -0.30282713555E+03  0.30282713555E+03  0.00000000000E+00 0.  1.
         23    2    1    2    0    0  0.68900702828E+01  0.80351701746E+02 -0.18767758254E+03  0.22333883566E+03  0.90296685878E+02 0.  0.
         23    2    1    2    0    0 -0.68900702828E+01 -0.80351701746E+02 -0.40415499593E+02  0.15422235330E+03  0.12508897877E+03 0.  0.
          5    1    4    4  502    0 -0.61101755581E+02 -0.29123659966E+02  0.28822520399E+01  0.67877771632E+02  0.41800000000E+01 0.  1.
         -5    1    4    4    0  502  0.54211685298E+02 -0.51228041779E+02 -0.43297751633E+02  0.86344581671E+02  0.41800000000E+01 0.  1.
        -11    1    3    3    0    0 -0.41679576025E+02  0.32940732968E+02 -0.78673135420E+02  0.94930191103E+02  0.00000000000E+00 0.  1.
         11    1    3    3    0    0  0.48569646308E+02  0.47410968778E+02 -0.10900444712E+03  0.12840864455E+03  0.00000000000E+00 0. -1.
</event>
<event>
 8    1  0.9181008E-006  0.8783187E+02  0.7561462E-02  0.1308189E+00
         -1   -1    0    0    0  501 -0.00000000000E+00  0.00000000000E+00  0.83632404137E+02  0.83632404137E+02  0.00000000000E+00 0.  1.
          1   -1    0    0  501    0  0.00000000000E+00 -0.00000000000E+00 -0.15813979070E+03  0.15813979070E+03  0.00000000000E+00 0. -1.
         23    2    1    2    0    0 -0.33565425445E+02  0.97633328222E+01 -0.21148241151E+02  0.10135680124E+03  0.92757709122E+02 0.  0.
         23    2    1    2    0    0  0.33565425445E+02 -0.97633328222E+01 -0.53359145417E+02  0.14041539360E+03  0.12508926375E+03 0.  0.
          5    1    4    4  502    0  0.48405068924E+02  0.43729448928E+02 -0.53930258189E+02  0.84742318528E+02  0.41800000000E+01 0. -1.
         -5    1    4    4    0  502 -0.14839643479E+02 -0.53492781750E+02  0.57111277198E+00  0.55673075070E+02  0.41800000000E+01 0. -1.
        -11    1    3    3    0    0 -0.16468864418E+02  0.26177082660E+02  0.31177015711E+02  0.43914342310E+02  0.00000000000E+00 0.  1.
         11    1    3    3    0    0 -0.17096561027E+02 -0.16413749838E+02 -0.52325256862E+02  0.57442458934E+02  0.00000000000E+00 0. -1.
</event>
<event>
 8    1  0.9181008E-006  0.1225852E+03  0.7561462E-02  0.1238892E+00
         -1   -1    0    0    0  501 -0.00000000000E+00  0.00000000000E+00  0.11350270576E+03  0.11350270576E+03  0.00000000000E+00 0.  1.
          1   -1    0    0  501    0  0.00000000000E+00 -0.00000000000E+00 -0.14781921603E+03  0.14781921603E+03  0.00000000000E+00 0. -1.
         23    2    1    2    0    0  0.65736244265E+02 -0.34695482445E+01  0.66828813253E+01  0.11413955963E+03  0.93004766513E+02 0.  0.
         23    2    1    2    0    0 -0.65736244265E+02  0.34695482445E+01 -0.40999391595E+02  0.14718236217E+03  0.12509358915E+03 0.  0.
          5    1    4    4  502    0  0.95698830124E+01 -0.48378568345E+02 -0.19285022894E+02  0.53117351628E+02  0.41800000000E+01 0.  1.
         -5    1    4    4    0  502 -0.75306127277E+02  0.51848116590E+02 -0.21714368700E+02  0.94065010537E+02  0.41800000000E+01 0.  1.
        -11    1    3    3    0    0  0.57991455321E+02  0.33099779367E+02  0.26490320212E+02  0.71835515932E+02  0.00000000000E+00 0.  1.
         11    1    3    3    0    0  0.77447889440E+01 -0.36569327611E+02 -0.19807438887E+02  0.42304043695E+02  0.00000000000E+00 0. -1.
</event>
<event>
 8    1  0.9181008E-006  0.1071789E+03  0.7561462E-02  0.1265885E+00
          2   -1    0    0  501    0  0.00000000000E+00  0.00000000000E+00  0.17733016979E+04  0.17733016979E+04  0.00000000000E+00 0. -1.
         -2   -1    0    0    0  501 -0.00000000000E+00 -0.00000000000E+00 -0.11967946498E+02  0.11967946498E+02  0.00000000000E+00 0.  1.
         23    2    1    2    0    0 -0.32738046248E+02 -0.36125078591E+02  0.29897822943E+03  0.31676295161E+03  0.92595814521E+02 0.  0.
         23    2    1    2    0    0  0.32738046248E+02  0.36125078591E+02  0.14623555220E+04  0.14685066928E+04  0.12510568785E+03 0.  0.
          5    1    4    4  502    0  0.58312335916E+02  0.53173921803E+02  0.55256732991E+03  0.55818986103E+03  0.41800000000E+01 0.  1.
         -5    1    4    4    0  502 -0.25574289668E+02 -0.17048843212E+02  0.90978819204E+03  0.91031683173E+03  0.41800000000E+01 0.  1.
        -11    1    3    3    0    0 -0.48675843140E+02  0.14860072993E+02  0.15853912689E+03  0.16650770021E+03  0.00000000000E+00 0.  1.
         11    1    3    3    0    0  0.15937796891E+02 -0.50985151584E+02  0.14043910254E+03  0.15025525140E+03  0.00000000000E+00 0. -1.
</event>
<event>
 8    1  0.9181008E-006  0.1959384E+03  0.7561462E-02  0.1153212E+00
          1   -1    0    0  501    0  0.00000000000E+00  0.00000000000E+00  0.12080130313E+04  0.12080130313E+04  0.00000000000E+00 0. -1.
         -1   -1    0    0    0  501 -0.00000000000E+00 -0.00000000000E+00 -0.42750405687E+02  0.42750405687E+02  0.00000000000E+00 0.  1.
         23    2    1    2    0    0 -0.92836131021E+02 -0.16909725105E+03  0.42299922574E+03  0.47370826907E+03  0.90877674201E+02 0.  0.
         23    2    1    2    0    0  0.92836131021E+02  0.16909725105E+03  0.74226339987E+03  0.77705516792E+03  0.12508937474E+03 0.  0.
          5    1    4    4  502    0 -0.26873485882E+01  0.12637977066E+02  0.11873432937E+01  0.13631672342E+02  0.41800000000E+01 0. -1.
         -5    1    4    4    0  502  0.95523479609E+02  0.15645927398E+03  0.74107605657E+03  0.76342349558E+03  0.41800000000E+01 0. -1.
        -11    1    3    3    0    0 -0.40632883475E+02 -0.10288689424E+03  0.14007249115E+03  0.17848542518E+03  0.00000000000E+00 0.  1.
         11    1    3    3    0    0 -0.52203247546E+02 -0.66210356806E+02  0.28292673459E+03  0.29522284388E+03  0.00000000000E+00 0. -1.
</event>
<event>
 8    1  0.9181008E-006  0.1751975E+03  0.7561462E-02  0.1172534E+00
         -2   -1    0    0    0  501 -0.00000000000E+00  0.00000000000E+00  0.30075183029E+02  0.30075183029E+02  0.00000000000E+00 0.  1.
          2   -1    0    0  501    0  0.00000000000E+00 -0.00000000000E+00 -0.10823541507E+04  0.10823541507E+04  0.00000000000E+00 0. -1.
         23    2    1    2    0    0  0.12133626266E+03  0.77524755751E+02 -0.46772853658E+03  0.49754813081E+03  0.89730608765E+02 0.  0.
         23    2    1    2    0    0 -0.12133626266E+03 -0.77524755751E+02 -0.58455043109E+03  0.61488120292E+03  0.12508841203E+03 0.  0.
          5    1    4    4  502    0 -0.90464201157E+02  0.14072729992E+02 -0.23659425971E+03  0.25372451507E+03  0.41800000000E+01 0. -1.
         -5    1    4    4    0  502 -0.30872061505E+02 -0.91597485743E+02 -0.34795617138E+03  0.36115668785E+03  0.41800000000E+01 0. -1.
        -11    1    3    3    0    0  0.68013510449E+02  0.84221940728E+02 -0.37561190872E+03  0.39090085556E+03  0.00000000000E+00 0. -1.
         11    1    3    3    0    0  0.53322752213E+02 -0.66971849771E+01 -0.92116627859E+02  0.10664727525E+03  0.00000000000E+00 0.  1.
</event>
<event>
 8    1  0.9181008E-006  0.9763840E+02  0.7561462E-02  0.1285342E+00
          2   -1    0    0  501    0  0.00000000000E+00  0.00000000000E+00  0.10733245870E+04  0.10733245870E+04  0.00000000000E+00 0. -1.
         -2   -1    0    0    0  501 -0.00000000000E+00 -0.00000000000E+00 -0.38214143645E+02  0.38214143645E+02  0.00000000000E+00 0.  1.
         23    2    1    2    0    0 -0.44635310795E+02 -0.73372932365E+02  0.95049446802E+02  0.15931069123E+03  0.94707976592E+02 0.  0.
         23    2    1    2    0    0  0.44635310795E+02  0.73372932365E+02  0.94006099656E+03  0.95222803941E+03  0.12509062166E+03 0.  0.
          5    1    4    4  502    0 -0.74944192698E+01  0.40380179820E+02  0.80706081255E+02  0.90651360685E+02  0.41800000000E+01 0. -1.
         -5    1    4    4    0  502  0.52129730065E+02  0.32992752545E+02  0.85935491530E+03  0.86157667873E+03  0.41800000000E+01 0. -1.
        -11    1    3    3    0    0  0.53160898493E+01 -0.11274673261E+02 -0.17448950930E+02  0.21443995826E+02  0.00000000000E+00 0.  1.
         11    1    3    3    0    0 -0.49951400645E+02 -0.62098259104E+02  0.11249839773E+03  0.13786669541E+03  0.00000000000E+00 0. -1.
</event>
<event>
 8    1  0.9181008E-006  0.1748894E+03  0.7561462E-02  0.1172843E+00
         -1   -1    0    0    0  501 -0.00000000000E+00  0.00000000000E+00  0.77282715081E+03  0.77282715081E+03  0.00000000000E+00 0.  1.
          1   -1    0    0  501    0  0.00000000000E+00 -0.00000000000E+00 -0.50132647747E+02  0.50132647747E+02  0.00000000000E+00 0. -1.
         23    2    1    2    0    0  0.10333980395E+03  0.88092712494E+02  0.53379400545E+03  0.55877730013E+03  0.94109456489E+02 0.  0.
         23    2    1    2    0    0 -0.10333980395E+03 -0.88092712494E+02  0.18890049761E+03  0.26418249843E+03  0.12517808676E+03 0.  0.
          5    1    4    4  502    0 -0.23915931150E+02 -0.10110399672E+03  0.11106574214E+03  0.15214158338E+03  0.41800000000E+01 0.  1.
         -5    1    4    4    0  502 -0.79423872802E+02  0.13011284223E+02  0.77834755471E+02  0.11204091506E+03  0.41800000000E+01 0.  1.
        -11    1    3    3    0    0  0.44774763288E+02  0.96177581877E+02  0.34495519749E+03  0.36090025625E+03  0.00000000000E+00 0.  1.
         11    1    3    3    0    0  0.58565040664E+02 -0.80848693826E+01  0.18883880796E+03  0.19787704388E+03  0.00000000000E+00 0. -1.
</event>
<event>
 8    1  0.9181008E-006  0.1048303E+03  0.7561462E-02  0.1270454E+00
         -3   -1    0    0    0  501 -0.00000000000E+00  0.00000000000E+00  0.13798104396E+03  0.13798104396E+03  0.00000000000E+00 0.  1.
          3   -1    0    0  501    0  0.00000000000E+00 -0.00000000000E+00 -0.12612546360E+03  0.12612546360E+03  0.00000000000E+00 0. -1.
         23    2    1    2    0    0  0.73886423155E+02  0.59001325315E+01  0.12848750800E+02  0.11869677226E+03  0.91814041720E+02 0.  0.
         23    2    1    2    0    0 -0.73886423155E+02 -0.59001325315E+01 -0.99317043751E+00  0.14540973531E+03  0.12509592177E+03 0.  0.
          5    1    4    4  502    0  0.65949068781E+01  0.79180099527E+01 -0.49233703852E+02  0.50473930631E+02  0.41800000000E+01 0. -1.
         -5    1    4    4    0  502 -0.80481330033E+02 -0.13818142484E+02  0.48240533415E+02  0.94935804677E+02  0.41800000000E+01 0. -1.
        -11    1    3    3    0    0  0.37139184332E+02 -0.42218398668E+02 -0.23310164011E+01  0.56277400761E+02  0.00000000000E+00 0. -1.
         11    1    3    3    0    0  0.36747238823E+02  0.48118531199E+02  0.15179767201E+02  0.62419371498E+02  0.00000000000E+00 0.  1.
</event>
<event>
 8    1  0.9181008E-006  0.8708883E+02  0.7561462E-02  0.1310059E+00
         -1   -1    0    0    0  501 -0.00000000000E+00  0.00000000000E+00  0.53971037947E+02  0.53971037947E+02  0.00000000000E+00 0.  1.
          1   -1    0    0  501    0  0.00000000000E+00 -0.00000000000E+00 -0.29875189551E+03  0.29875189551E+03  0.00000000000E+00 0. -1.
         23    2    1    2    0    0 -0.29392708187E+02 -0.13763096365E+02 -0.26437037368E+02  0.99000227698E+02  0.89714959864E+02 0.  0.
         23    2    1    2    0    0  0.29392708187E+02  0.13763096365E+02 -0.21834382019E+03  0.25372270576E+03  0.12509130059E+03 0.  0.
          5    1    4    4  502    0  0.33314212789E+02 -0.32608904403E+02 -0.21675017433E+02  0.51579610321E+02  0.41800000000E+01 0.  1.
         -5    1    4    4    0  502 -0.39215046018E+01  0.46372000768E+02 -0.19666880276E+03  0.20214309544E+03  0.41800000000E+01 0.  1.
        -11    1    3    3    0    0  0.22829825267E+02 -0.16788642845E+02  0.15186147492E+02  0.32150871309E+02  0.00000000000E+00 0.  1.
         11    1    3    3    0    0 -0.52222533454E+02  0.30255464800E+01 -0.41623184859E+02  0.66849356389E+02  0.00000000000E+00 0. -1.
</event>
<event>
 7    1  0.9181008E-006  0.1356231E+03  0.7561462E-02  0.1219343E+00
          4   -1    0    0  501    0  0.00000000000E+00  0.00000000000E+00  0.34525690088E+03  0.34525690088E+03  0.00000000000E+00 0. -1.
         -4   -1    0    0    0  501 -0.00000000000E+00 -0.00000000000E+00 -0.13836048147E+03  0.13836048147E+03  0.00000000000E+00 0.  1.
         23    2    1    2    0    0  0.61777007835E+02  0.64930912350E+02 -0.65324025876E+02  0.14346950766E+03  0.91015653569E+02 0.  0.
          5    1    1    2  502    0  0.40699246019E+02 -0.44269268318E+02  0.20987061553E+03  0.21835600383E+03  0.41800000000E+01 0. -1.
         -5    1    1    2    0  502 -0.10247625385E+03 -0.20661644032E+02  0.62349829758E+02  0.12179187086E+03  0.41800000000E+01 0.  1.
        -11    1    3    3    0    0  0.29856226886E+02  0.68010407855E+02 -0.79153818126E+02  0.10854555166E+03  0.00000000000E+00 0.  1.
         11    1    3    3    0    0  0.31920780948E+02 -0.30794955050E+01  0.13829792250E+02  0.34923955999E+02  0.00000000000E+00 0. -1.
</event>
<event>
 8    1  0.9181008E-006  0.8867512E+02  0.7561462E-02  0.1306092E+00
         -2   -1    0    0    0  501 -0.00000000000E+00  0.00000000000E+00  0.26264706406E+02  0.26264706406E+02  0.00000000000E+00 0.  1.
          2   -1    0    0  501    0  0.00000000000E+00 -0.00000000000E+00 -0.54643664506E+03  0.54643664506E+03  0.00000000000E+00 0. -1.
         23    2    1    2    0    0 -0.47703266314E+02  0.73033526878E+01 -0.17918883990E+03  0.20629560722E+03  0.90112688530E+02 0.  0.
         23    2    1    2    0    0  0.47703266314E+02 -0.73033526878E+01 -0.34098309875E+03  0.36640574425E+03  0.12511896422E+03 0.  0.
          5    1    4    4  502    0  0.45982190051E+02  0.27777017507E+02 -0.50732687744E+02  0.74008124616E+02  0.41800000000E+01 0. -1.
         -5    1    4    4    0  502  0.17210762628E+01 -0.35080370195E+02 -0.29025041101E+03  0.29239761963E+03  0.41800000000E+01 0. -1.
        -11    1    3    3    0    0 -0.12993498076E+02  0.38990358718E+02 -0.32907258928E+02  0.52649470609E+02  0.00000000000E+00 0.  1.
         11    1    3    3    0    0 -0.34709768238E+02 -0.31687006031E+02 -0.14628158097E+03  0.15364613661E+03  0.00000000000E+00 0. -1.
</event>
<event>
 8    1  0.9181008E-006  0.1017032E+03  0.7561462E-02  0.1276755E+00
         -1   -1    0    0    0  501 -0.00000000000E+00  0.00000000000E+00  0.28832330624E+02  0.28832330624E+02  0.00000000000E+00 0.  1.
          1   -1    0    0  501    0  0.00000000000E+00 -0.00000000000E+00 -0.55987064440E+03  0.55987064440E+03  0.00000000000E+00 0. -1.
         23    2    1    2    0    0  0.61997627096E+02  0.20684456018E+02 -0.22398599147E+03  0.25077258021E+03  0.91900000664E+02 0.  0.
         23    2    1    2    0    0 -0.61997627096E+02 -0.20684456018E+02 -0.30705232230E+03  0.33793039481E+03  0.12507705873E+03 0.  0.
          5    1    4    4  502    0  0.18740931444E+02 -0.11059014936E+02 -0.20555838781E+01  0.22253587302E+02  0.41800000000E+01 0. -1.
         -5    1    4    4    0  502 -0.80738558541E+02 -0.96254410819E+01 -0.30499673842E+03  0.31567680751E+03  0.41800000000E+01 0. -1.
        -11    1    3    3    0    0  0.58447353007E+02 -0.17865765522E+02 -0.74533034128E+02  0.96386989928E+02  0.00000000000E+00 0.  1.
         11    1    3    3    0    0  0.35502740895E+01  0.38550221539E+02 -0.14945295735E+03  0.15438559028E+03  0.00000000000E+00 0. -1.
</event>
<event>
 8    1  0.9181008E-006  0.8842338E+02  0.7561462E-02  0.1306715E+00
         -2   -1    0    0    0  501 -0.00000000000E+00  0.00000000000E+00  0.32444239742E+02  0.32444239742E+02  0.00000000000E+00 0.  1.
          2   -1    0    0  501    0  0.00000000000E+00 -0.00000000000E+00 -0.51789141309E+03  0.51789141309E+03  0.00000000000E+00 0. -1.
         23    2    1    2    0    0 -0.30797506821E+02  0.41496231822E+02 -0.11019075113E+03  0.15142111637E+03  0.90088451898E+02 0.  0.
         23    2    1    2    0    0  0.30797506821E+02 -0.41496231822E+02 -0.37525642222E+03  0.39891453647E+03  0.12507997963E+03 0.  0.
          5    1    4    4  502    0  0.67755615228E+02 -0.52650848672E+02 -0.17525720184E+03  0.19518067132E+03  0.41800000000E+01 0. -1.
         -5    1    4    4    0  502 -0.36958108407E+02  0.11154616849E+02 -0.19999922038E+03  0.20373386515E+03  0.41800000000E+01 0. -1.
        -11    1    3    3    0    0 -0.15986886467E+02  0.27029519787E+02 -0.12308672590E+03  0.12702959329E+03  0.00000000000E+00 0. -1.
         11    1    3    3    0    0 -0.14810620354E+02  0.14466712035E+02  0.12895974775E+02  0.24391523072E+02  0.00000000000E+00 0.  1.
</event>
<event>
 7    1  0.9181008E-006  0.3760963E+03  0.7561462E-02  0.1052386E+00
         -1   -1    0    0    0  501 -0.00000000000E+00  0.00000000000E+00  0.15522679419E+03  0.15522679419E+03  0.00000000000E+00 0.  1.
          1   -1    0    0  501    0  0.00000000000E+00 -0.00000000000E+00 -0.10120319619E+04  0.10120319619E+04  0.00000000000E+00 0. -1.
         23    2    1    2    0    0 -0.28002228415E+03  0.24026589484E+03 -0.40554457202E+03  0.55604547661E+03  0.92628247916E+02 0.  0.
          5    1    1    2  502    0  0.25566368691E+03 -0.17139643656E+03 -0.44028719771E+03  0.53722523036E+03  0.41800000000E+01 0. -1.
         -5    1    1    2    0  502  0.24358597247E+02 -0.68869458280E+02 -0.10973397932E+02  0.73988049074E+02  0.41800000000E+01 0.  1.
        -11    1    3    3    0    0 -0.47307352247E+01  0.14230161020E+02  0.15981105193E+01  0.15080825430E+02  0.00000000000E+00 0. -1.
         11    1    3    3    0    0 -0.27529154893E+03  0.22603573382E+03 -0.40714268254E+03  0.54096465118E+03  0.00000000000E+00 0.  1.
</event>
<event>
 8    1  0.9181008E-006  0.8413043E+02  0.7561462E-02  0.1317722E+00
         -2   -1    0    0    0  501 -0.00000000000E+00  0.00000000000E+00  0.91731447829E+01  0.91731447829E+01  0.00000000000E+00 0.  1.
          2   -1    0    0  501    0  0.00000000000E+00 -0.00000000000E+00 -0.19994417729E+04  0.19994417729E+04  0.00000000000E+00 0. -1.
         23    2    1    2    0    0 -0.32334593558E+02 -0.17094712950E+02 -0.33891410583E+03  0.35212523182E+03  0.88270338203E+02 0.  0.
         23    2    1    2    0    0  0.32334593558E+02  0.17094712950E+02 -0.16513545223E+04  0.16564896859E+04  0.12509422817E+03 0.  0.
          5    1    4    4  502    0  0.48573291480E+02  0.24313447029E+02 -0.29355514009E+03  0.29856758200E+03  0.41800000000E+01 0.  1.
         -5    1    4    4    0  502 -0.16238697922E+02 -0.72187340793E+01 -0.13577993822E+04  0.13579221038E+04  0.41800000000E+01 0.  1.
        -11    1    3    3    0    0 -0.62361356842E+02 -0.32092696886E+01 -0.22512707107E+03  0.23362670303E+03  0.00000000000E+00 0. -1.
         11    1    3    3    0    0  0.30026763283E+02 -0.13885443261E+02 -0.11378703476E+03  0.11849852879E+03  0.00000000000E+00 0.  1.
</event>
<event>
 8    1  0.9181008E-006  0.9869954E+02  0.7561462E-02  0.1283055E+00
         -1   -1    0    0    0  501 -0.00000000000E+00  0.00000000000E+00  0.80893847404E+02  0.80893847404E+02  0.00000000000E+00 0.  1.
          1   -1    0    0  501    0  0.00000000000E+00 -0.00000000000E+00 -0.17760540821E+03  0.17760540821E+03  0.00000000000E+00 0. -1.
         23    2    1    2    0    0  0.16935067648E+02  0.44756572532E+02 -0.38193860445E+02  0.11233783811E+03  0.94186366283E+02 0.  0.
         23    2    1    2    0    0 -0.16935067648E+02 -0.44756572532E+02 -0.58517700364E+02  0.14616141751E+03  0.12509552914E+03 0.  0.
          5    1    4    4  502    0  0.13146154838E+02 -0.61276586219E+02  0.15301734568E+02  0.64647172301E+02  0.41800000000E+01 0.  1.
         -5    1    4    4    0  502 -0.30081222485E+02  0.16520013687E+02 -0.73819434932E+02  0.81514245209E+02  0.41800000000E+01 0.  1.
        -11    1    3    3    0    0  0.39281938863E+02 -0.10289471554E+02 -0.33681018932E+02  0.52757511143E+02  0.00000000000E+00 0. -1.
         11    1    3    3    0    0 -0.22346871215E+02  0.55046044085E+02 -0.45128415123E+01  0.59580326963E+02  0.00000000000E+00 0.  1.
</event>
<event>
 8    1  0.9181008E-006  0.1563388E+03  0.7561462E-02  0.1192893E+00
         -1   -1    0    0    0  501 -0.00000000000E+00  0.00000000000E+00  0.50078768949E+02  0.50078768949E+02  0.00000000000E+00 0.  1.
          1   -1    0    0  501    0  0.00000000000E+00 -0.00000000000E+00 -0.51400751751E+03  0.51400751751E+03  0.00000000000E+00 0. -1.
         23    2    1    2    0    0  0.49758479366E+02  0.99691253937E+02 -0.27559958490E+03  0.31203449654E+03  0.94848001821E+02 0.  0.
         23    2    1    2    0    0 -0.49758479366E+02 -0.99691253937E+02 -0.18832916366E+03  0.25205178992E+03  0.12509188039E+03 0.  0.
          5    1    4    4  502    0 -0.33668676338E+00  0.28550086355E+02 -0.44802970773E+02  0.53291644551E+02  0.41800000000E+01 0.  1.
         -5    1    4    4    0  502 -0.49421792603E+02 -0.12824134029E+03 -0.14352619288E+03  0.19876014537E+03  0.41800000000E+01 0.  1.
        -11    1    3    3    0    0 -0.13520463828E+02  0.78400915942E+02 -0.15009545822E+03  0.16987687641E+03  0.00000000000E+00 0. -1.
         11    1    3    3    0    0  0.63278943194E+02  0.21290337995E+02 -0.12550412669E+03  0.14215762012E+03  0.00000000000E+00 0.  1.
</event>
<event>
 8    1  0.9181008E-006  0.8200286E+02  0.7561462E-02  0.1323462E+00
          1   -1    0    0  501    0  0.00000000000E+00  0.00000000000E+00  0.85024151969E+03  0.85024151969E+03  0.00000000000E+00 0. -1.
         -1   -1    0    0    0  501 -0.00000000000E+00 -0.00000000000E+00 -0.18636331006E+02  0.18636331006E+02  0.00000000000E+00 0.  1.
         23    2    1    2    0    0  0.57254090827E+02 -0.13832685976E+02  0.23383805080E+03  0.25533027112E+03  0.83928179012E+02 0.  0.
         23    2    1    2    0    0 -0.57254090827E+02  0.13832685976E+02  0.59776713789E+03  0.61354757958E+03  0.12508280117E+03 0.  0.
          5    1    4    4  502    0 -0.20415837350E+01 -0.27945176295E+02  0.28908332632E+02  0.40475486877E+02  0.41800000000E+01 0. -1.
         -5    1    4    4    0  502 -0.55212507092E+02  0.41777862271E+02  0.56885880526E+03  0.57307209270E+03  0.41800000000E+01 0. -1.
        -11    1    3    3    0    0  0.55181260690E+02 -0.29777969559E+01  0.23737842435E+03  0.24372598375E+03  0.00000000000E+00 0. -1.
         11    1    3    3    0    0  0.20728301367E+01 -0.10854889020E+02 -0.35403735586E+01  0.11604287369E+02  0.00000000000E+00 0.  1.
</event>
<event>
 8    1  0.9181008E-006  0.1150693E+03  0.7561462E-02  0.1251460E+00
          2   -1    0    0  501    0  0.00000000000E+00  0.00000000000E+00  0.12144212407E+04  0.12144212407E+04  0.00000000000E+00 0. -1.
         -2   -1    0    0    0  501 -0.00000000000E+00 -0.00000000000E+00 -0.18657800878E+02  0.18657800878E+02  0.00000000000E+00 0.  1.
         23    2    1    2    0    0 -0.21247274415E+02  0.37414109645E+02  0.15222219214E+03  0.18103596154E+03  0.88040679925E+02 0.  0.
         23    2    1    2    0    0  0.21247274415E+02 -0.37414109645E+02  0.10435412477E+04  0.10520430801E+04  0.12635285657E+03 0.  0.
          5    1    4    4  502    0  0.43924038217E+01 -0.83283616466E+02  0.71532224665E+03  0.72017972960E+03  0.41800000000E+01 0. -1.
         -5    1    4    4    0  502  0.16854870593E+02  0.45869506821E+02  0.32821900107E+03  0.33186335047E+03  0.41800000000E+01 0.  1.
        -11    1    3    3    0    0  0.20887438212E+02  0.49523110612E+02  0.75605791445E+02  0.92763458645E+02  0.00000000000E+00 0.  1.
         11    1    3    3    0    0 -0.42134712627E+02 -0.12109000967E+02  0.76616400691E+02  0.88272502895E+02  0.00000000000E+00 0. -1.
</event>
<event>
 8    1  0.9181008E-006  0.8973966E+02  0.7561462E-02  0.1303483E+00
         -2   -1    0    0    0  501 -0.00000000000E+00  0.00000000000E+00  0.30815170976E+02  0.30815170976E+02  0.00000000000E+00 0.  1.
          2   -1    0    0  501    0  0.00000000000E+00 -0.00000000000E+00 -0.48416130340E+03  0.48416130340E+03  0.00000000000E+00 0. -1.
         23    2    1    2    0    0 -0.52364860036E+02  0.18860086347E+02 -0.18810906070E+03  0.21648720062E+03  0.91563682166E+02 0.  0.
         23    2    1    2    0    0  0.52364860036E+02 -0.18860086347E+02 -0.26523707172E+03  0.29848927375E+03  0.12508941165E+03 0.  0.
          5    1    4    4  502    0  0.37500593422E+01 -0.26066435373E+02 -0.24287331631E+03  0.24433264656E+03  0.41800000000E+01 0. -1.
         -5    1    4    4    0  502  0.48614800694E+02  0.72063490256E+01 -0.22363755408E+02  0.54156627191E+02  0.41800000000E+01 0. -1.
        -11    1    3    3    0    0  0.15457320357E+02  0.30954514552E+02 -0.38403993675E+02  0.51691173850E+02  0.00000000000E+00 0.  1.
         11    1    3    3    0    0 -0.67822180393E+02 -0.12094428204E+02 -0.14970506702E+03  0.16479602677E+03  0.00000000000E+00 0. -1.
</event>
<event>
 8    1  0.9181008E-006  0.1344592E+03  0.7561462E-02  0.1220985E+00
         -4   -1    0    0    0  501 -0.00000000000E+00  0.00000000000E+00  0.86179896359E+02  0.86179896359E+02  0.00000000000E+00 0.  1.
          4   -1    0    0  501    0  0.00000000000E+00 -0.00000000000E+00 -0.28166864544E+03  0.28166864544E+03  0.00000000000E+00 0. -1.
         23    2    1    2    0    0  0.51563543722E+02  0.86654877956E+02 -0.35267265822E+02  0.14094004959E+03  0.91937210228E+02 0.  0.
         23    2    1    2    0    0 -0.51563543722E+02 -0.86654877956E+02 -0.16022148326E+03  0.22690849221E+03  0.12509465706E+03 0.  0.
          5    1    4    4  502    0 -0.50376242210E+02 -0.11291266339E+03 -0.93486443714E+02  0.15506199693E+03  0.41800000000E+01 0.  1.
         -5    1    4    4    0  502 -0.11873015124E+01  0.26257785438E+02 -0.66735039543E+02  0.71846495279E+02  0.41800000000E+01 0.  1.
        -11    1    3    3    0    0  0.52924229928E+02  0.27911972264E+02  0.17103383927E+02  0.62230041386E+02  0.00000000000E+00 0.  1.
         11    1    3    3    0    0 -0.13606862054E+01  0.58742905691E+02 -0.52370649749E+02  0.78710008202E+02  0.00000000000E+00 0. -1.
</event>
<event>
 8    1  0.9181008E-006  0.2395309E+03  0.7561462E-02  0.1120106E+00
         -2   -1    0    0    0  501 -0.00000000000E+00  0.00000000000E+00  0.17548525559E+03  0.17548525559E+03  0.00000000000E+00 0. -1.
          2   -1    0    0  501    0  0.00000000000E+00 -0.00000000000E+00 -0.33744187975E+03  0.33744187975E+03  0.00000000000E+00 0.  1.
         23    2    1    2    0    0 -0.62801514896E+02 -0.20766211000E+03 -0.74077020896E+02  0.24752764515E+03  0.93353885227E+02 0.  0.
         23    2    1    2    0    0  0.62801514896E+02  0.20766211000E+03 -0.87879603265E+02  0.26539949019E+03  0.12508590057E+03 0.  0.
          5    1    4    4  502    0  0.74777411992E+02  0.62149945913E+02 -0.49805321958E+01  0.97450270509E+02  0.41800000000E+01 0.  1.
         -5    1    4    4    0  502 -0.11975897097E+02  0.14551216408E+03 -0.82899071069E+02  0.16794921968E+03  0.41800000000E+01 0.  1.
        -11    1    3    3    0    0 -0.55901938992E+02 -0.42131760526E+02 -0.29487531528E+02  0.75958057793E+02  0.00000000000E+00 0. -1.
         11    1    3    3    0    0 -0.68995759040E+01 -0.16553034947E+03 -0.44589489367E+02  0.17156958736E+03  0.00000000000E+00 0.  1.
</event>
<event>
 8    1  0.9181008E-006  0.1148257E+03  0.7561462E-02  0.1251886E+00
         -1   -1    0    0    0  501 -0.00000000000E+00  0.00000000000E+00  0.19783581807E+03  0.19783581807E+03  0.00000000000E+00 0.  1.
          1   -1    0    0  501    0  0.00000000000E+00 -0.00000000000E+00 -0.91276468533E+02  0.91276468533E+02  0.00000000000E+00 0. -1.
         23    2    1    2    0    0 -0.10421060643E+02 -0.64145255320E+02  0.96538607704E+02  0.14779348612E+03  0.91104332929E+02 0.  0.
         23    2    1    2    0    0  0.10421060643E+02  0.64145255320E+02  0.10020741834E+02  0.14131880048E+03  0.12508947125E+03 0.  0.
          5    1    4    4  502    0  0.57108356865E+02  0.38152078068E+02  0.40318422848E+02  0.79749564925E+02  0.41800000000E+01 0. -1.
         -5    1    4    4    0  502 -0.46687296222E+02  0.25993177252E+02 -0.30297681013E+02  0.61569235556E+02  0.41800000000E+01 0. -1.
        -11    1    3    3    0    0 -0.43818505831E+01 -0.85214872260E+02  0.57089555741E+02  0.10266446534E+03  0.00000000000E+00 0. -1.
         11    1    3    3    0    0 -0.60392100598E+01  0.21069616940E+02  0.39449051963E+02  0.45129020784E+02  0.00000000000E+00 0.  1.
</event>
<event>
 8    1  0.9181008E-006  0.1681954E+03  0.7561462E-02  0.1179743E+00
         -2   -1    0    0    0  501 -0.00000000000E+00  0.00000000000E+00  0.22009712081E+03  0.22009712081E+03  0.00000000000E+00 0.  1.
          2   -1    0    0  501    0  0.00000000000E+00 -0.00000000000E+00 -0.24594204761E+03  0.24594204761E+03  0.00000000000E+00 0. -1.
         23    2    1    2    0    0 -0.23436149423E+02 -0.14198211183E+03  0.13501981722E+03  0.21657386688E+03  0.89250857654E+02 0.  0.
         23    2    1    2    0    0  0.23436149423E+02  0.14198211183E+03 -0.16086474401E+03  0.24946530155E+03  0.12508915872E+03 0.  0.
          5    1    4    4  502    0 -0.40580805709E+02  0.32100444981E+02 -0.11347490297E+02  0.53136412149E+02  0.41800000000E+01 0. -1.
         -5    1    4    4    0  502  0.64016955132E+02  0.10988166685E+03 -0.14951725372E+03  0.19632888940E+03  0.41800000000E+01 0. -1.
        -11    1    3    3    0    0  0.81533990952E+01 -0.11614767479E+03  0.13146252836E+03  0.17561081014E+03  0.00000000000E+00 0.  1.
         11    1    3    3    0    0 -0.31589548518E+02 -0.25834437040E+02  0.35572888556E+01  0.40963056731E+02  0.00000000000E+00 0. -1.
</event>
<event>
 7    1  0.9181008E-006  0.1168795E+03  0.7561462E-02  0.1248336E+00
         -2   -1    0    0    0  501 -0.00000000000E+00  0.00000000000E+00  0.16328891180E+02  0.16328891180E+02  0.00000000000E+00 0.  1.
          2   -1    0    0  501    0  0.00000000000E+00 -0.00000000000E+00 -0.89907453008E+03  0.89907453008E+03  0.00000000000E+00 0. -1.
         23    2    1    2    0    0 -0.57733898962E+01 -0.84292032764E+02 -0.63561056964E+03  0.65329075849E+03  0.12509812177E+03 0.  0.
          5    1    3    3  502    0  0.44259733017E+02 -0.88293077829E+02 -0.37192247968E+03  0.38483554261E+03  0.41800000000E+01 0.  1.
         -5    1    3    3    0  502 -0.50033122913E+02  0.40010450647E+01 -0.26368808995E+03  0.26845521588E+03  0.41800000000E+01 0.  1.
        -11    1    1    2    0    0  0.42292963902E+00  0.25534977556E+02 -0.10812370545E+03  0.11109882820E+03  0.00000000000E+00 0. -1.
         11    1    1    2    0    0  0.53504602572E+01  0.58757055208E+02 -0.13901136381E+03  0.15101383457E+03  0.00000000000E+00 0.  1.
</event>
<event>
 8    1  0.9181008E-006  0.2060966E+03  0.7561462E-02  0.1144695E+00
          3   -1    0    0  501    0  0.00000000000E+00  0.00000000000E+00  0.24534362504E+04  0.24534362504E+04  0.00000000000E+00 0. -1.
         -3   -1    0    0    0  501 -0.00000000000E+00 -0.00000000000E+00 -0.29803753823E+02  0.29803753823E+02  0.00000000000E+00 0.  1.
         23    2    1    2    0    0  0.19786207863E+03  0.46131588895E+02  0.52657797545E+03  0.57124077687E+03  0.88057567975E+02 0.  0.
         23    2    1    2    0    0 -0.19786207863E+03 -0.46131588895E+02  0.18970545211E+04  0.19119992274E+04  0.12509062160E+03 0.  0.
          5    1    4    4  502    0 -0.17102687558E+03 -0.35436244649E+02  0.10495201354E+04  0.10639623614E+04  0.41800000000E+01 0.  1.
         -5    1    4    4    0  502 -0.26835203047E+02 -0.10695344246E+02  0.84753438575E+03  0.84803686591E+03  0.41800000000E+01 0.  1.
        -11    1    3    3    0    0  0.13222133971E+03  0.81835521133E+01  0.42034259204E+03  0.44072366385E+03  0.00000000000E+00 0. -1.
         11    1    3    3    0    0  0.65640738919E+02  0.37948036782E+02  0.10623538341E+03  0.13051711301E+03  0.00000000000E+00 0.  1.
</event>
<event>
 8    1  0.9181008E-006  0.9996276E+02  0.7561462E-02  0.1280374E+00
         -1   -1    0    0    0  501 -0.00000000000E+00  0.00000000000E+00  0.23749943905E+03  0.23749943905E+03  0.00000000000E+00 0.  1.
          1   -1    0    0  501    0  0.00000000000E+00 -0.00000000000E+00 -0.67307085817E+02  0.67307085817E+02  0.00000000000E+00 0. -1.
         23    2    1    2    0    0 -0.53330233889E+02  0.34503580439E+02  0.75441959590E+02  0.13551425735E+03  0.92940915464E+02 0.  0.
         23    2    1    2    0    0  0.53330233889E+02 -0.34503580439E+02  0.94750393643E+02  0.16929226752E+03  0.12509046261E+03 0.  0.
          5    1    4    4  502    0 -0.23139917894E+02 -0.23560225673E+02 -0.13767565870E+02  0.36021636607E+02  0.41800000000E+01 0.  1.
         -5    1    4    4    0  502  0.76470151783E+02 -0.10943354767E+02  0.10851795951E+03  0.13327063091E+03  0.41800000000E+01 0.  1.
        -11    1    3    3    0    0 -0.26869521508E+02 -0.16702468176E+02  0.70969665524E+02  0.77702233262E+02  0.00000000000E+00 0.  1.
         11    1    3    3    0    0 -0.26460712381E+02  0.51206048615E+02  0.44722940656E+01  0.57812024084E+02  0.00000000000E+00 0. -1.
</event>
<event>
 8    1  0.9181008E-006  0.1024498E+03  0.7561462E-02  0.1275227E+00
          1   -1    0    0  501    0  0.00000000000E+00  0.00000000000E+00  0.35684635345E+03  0.35684635345E+03  0.00000000000E+00 0. -1.
         -1   -1    0    0    0  501 -0.00000000000E+00 -0.00000000000E+00 -0.44646282542E+02  0.44646282542E+02  0.00000000000E+00 0.  1.
         23    2    1    2    0    0  0.18213063798E+02  0.59222144962E+02  0.10954372766E+03  0.15539969292E+03  0.91160617290E+02 0.  0.
         23    2    1    2    0    0 -0.18213063798E+02 -0.59222144962E+02  0.20265634325E+03  0.24609294307E+03  0.12511260936E+03 0.  0.
          5    1    4    4  502    0 -0.29289914467E+00 -0.85932780932E+02  0.74221965458E+02  0.11362614657E+03  0.41800000000E+01 0.  1.
         -5    1    4    4    0  502 -0.17920164654E+02  0.26710635970E+02  0.12843437779E+03  0.13246679649E+03  0.41800000000E+01 0.  1.
        -11    1    3    3    0    0  0.38300869213E+02  0.22097314645E+02  0.10376653125E+03  0.11279512802E+03  0.00000000000E+00 0. -1.
         11    1    3    3    0    0 -0.20087805415E+02  0.37124830317E+02  0.57771964092E+01  0.42604564906E+02  0.00000000000E+00 0.  1.
</event>
<event>
 8    1  0.9181008E-006  0.9770852E+02  0.7561462E-02  0.1285190E+00
         -1   -1    0    0    0  501 -0.00000000000E+00  0.00000000000E+00  0.12820635839E+02  0.12820635839E+02  0.00000000000E+00 0.  1.
          1   -1    0    0  501    0  0.00000000000E+00 -0.00000000000E+00 -0.14433364713E+04  0.14433364713E+04  0.00000000000E+00 0. -1.
         23    2    1    2    0    0 -0.94782392098E+01 -0.58119850092E+02 -0.35701456124E+03  0.37378906483E+03  0.93760940996E+02 0.  0.
         23    2    1    2    0    0  0.94782392098E+01  0.58119850092E+02 -0.10735012743E+04  0.10823680423E+04  0.12509132369E+03 0.  0.
          5    1    4    4  502    0  0.37892062937E+02 -0.44704884018E+01 -0.77809338523E+03  0.77903952547E+03  0.41800000000E+01 0. -1.
         -5    1    4    4    0  502 -0.28413823727E+02  0.62590338494E+02 -0.29540788903E+03  0.30332851688E+03  0.41800000000E+01 0. -1.
        -11    1    3    3    0    0 -0.39951408273E+00 -0.71772368373E+02 -0.34749588830E+03  0.35483069887E+03  0.00000000000E+00 0. -1.
         11    1    3    3    0    0 -0.90787251271E+01  0.13652518281E+02 -0.95186729331E+01  0.18958365957E+02  0.00000000000E+00 0.  1.
</event>
<event>
 7    1  0.9181008E-006  0.2125822E+03  0.7561462E-02  0.1139537E+00
         -2   -1    0    0    0  501 -0.00000000000E+00  0.00000000000E+00  0.12595135993E+03  0.12595135993E+03  0.00000000000E+00 0.  1.
          2   -1    0    0  501    0  0.00000000000E+00 -0.00000000000E+00 -0.46013050953E+03  0.46013050953E+03  0.00000000000E+00 0. -1.
         23    2    1    2    0    0 -0.14310200874E+03 -0.64730940387E+02 -0.93058230606E+02  0.20492451296E+03  0.93091042422E+02 0.  0.
          5    1    1    2  502    0  0.11641751393E+03 -0.51699131515E+02 -0.22762441636E+03  0.26087580392E+03  0.41800000000E+01 0. -1.
         -5    1    1    2    0  502  0.26684494815E+02  0.11643007190E+03 -0.13496502627E+02  0.12028155257E+03  0.41800000000E+01 0.  1.
        -11    1    3    3    0    0 -0.14015597008E+03 -0.29991260189E+02 -0.55555311624E+02  0.15371910840E+03  0.00000000000E+00 0.  1.
         11    1    3    3    0    0 -0.29460386585E+01 -0.34739680198E+02 -0.37502918982E+02  0.51205404560E+02  0.00000000000E+00 0. -1.
</event>
<event>
 8    1  0.9181008E-006  0.1541284E+03  0.7561462E-02  0.1195490E+00
          2   -1    0    0  501    0  0.00000000000E+00  0.00000000000E+00  0.61124459932E+03  0.61124459932E+03  0.00000000000E+00 0. -1.
         -2   -1    0    0    0  501 -0.00000000000E+00 -0.00000000000E+00 -0.46753966638E+02  0.46753966638E+02  0.00000000000E+00 0.  1.
         23    2    1    2    0    0 -0.63028167437E+02  0.97210616545E+02  0.15230763326E+03  0.21194632823E+03  0.91110795410E+02 0.  0.
         23    2    1    2    0    0  0.63028167437E+02 -0.97210616545E+02  0.41218299943E+03  0.44605223773E+03  0.12508125325E+03 0.  0.
          5    1    4    4  502    0  0.94969964227E+02 -0.54195599607E+02  0.33164184462E+03  0.34922806677E+03  0.41800000000E+01 0.  1.
         -5    1    4    4    0  502 -0.31941796790E+02 -0.43015016937E+02  0.80541154810E+02  0.96824170962E+02  0.41800000000E+01 0.  1.
        -11    1    3    3    0    0 -0.81263873204E+02  0.97407194640E+02  0.11879828812E+03  0.17379589154E+03  0.00000000000E+00 0.  1.
         11    1    3    3    0    0  0.18235705767E+02 -0.19657809519E+00  0.33509345136E+02  0.38150436685E+02  0.00000000000E+00 0. -1.
</event>
<event>
 8    1  0.9181008E-006  0.1317129E+03  0.7561462E-02  0.1224936E+00
         -2   -1    0    0    0  501 -0.00000000000E+00  0.00000000000E+00  0.11524012899E+03  0.11524012899E+03  0.00000000000E+00 0.  1.
          2   -1    0    0  501    0  0.00000000000E+00 -0.00000000000E+00 -0.20215879404E+03  0.20215879404E+03  0.00000000000E+00 0. -1.
         23    2    1    2    0    0 -0.69247788238E+02  0.76203105997E+02 -0.13188339944E+02  0.13939328480E+03  0.93028952465E+02 0.  0.
         23    2    1    2    0    0  0.69247788238E+02 -0.76203105997E+02 -0.73730325104E+02  0.17800563823E+03  0.12509067456E+03 0.  0.
          5    1    4    4  502    0  0.56262785153E+02  0.22081992154E+02 -0.42405324913E+02  0.73951330966E+02  0.41800000000E+01 0. -1.
         -5    1    4    4    0  502  0.12985003085E+02 -0.98285098151E+02 -0.31325000191E+02  0.10405430727E+03  0.41800000000E+01 0. -1.
        -11    1    3    3    0    0 -0.43426247032E+02  0.39271242277E+02  0.39070100396E+02  0.70388508623E+02  0.00000000000E+00 0.  1.
         11    1    3    3    0    0 -0.25821541206E+02  0.36931863720E+02 -0.52258440340E+02  0.69004776174E+02  0.00000000000E+00 0. -1.
</event>
<event>
 8    1  0.1218329E-005  0.1824538E+03  0.7561462E-02  0.1165449E+00
         -1   -1    0    0    0  501 -0.00000000000E+00  0.00000000000E+00  0.29008468098E+03  0.29008468098E+03  0.00000000000E+00 0.  1.
          1   -1    0    0  501    0  0.00000000000E+00 -0.00000000000E+00 -0.15554280786E+03  0.15554280786E+03  0.00000000000E+00 0. -1.
         23    2    1    2    0    0 -0.74804594743E+02  0.15860527723E+03  0.11694493201E+03  0.22950664016E+03  0.90806494226E+02 0.  0.
         23    2    1    2    0    0  0.74804594743E+02 -0.15860527723E+03  0.17596941120E+02  0.21612084868E+03  0.12508879861E+03 0.  0.
          5    1    4    4  502    0  0.67659641111E+02 -0.16536524000E+03  0.47032344316E+02  0.18480531228E+03  0.41800000000E+01 0.  1.
         -5    1    4    4    0  502  0.71449536321E+01  0.67599627618E+01 -0.29435403196E+02  0.31315536404E+02  0.41800000000E+01 0.  1.
        -11    1    3    3    0    0 -0.29693721922E+02  0.55110015654E+02  0.96112237667E+02  0.11470132160E+03  0.00000000000E+00 0.  1.
         11    1    3    3    0    0 -0.45110872821E+02  0.10349526158E+03  0.20832694338E+02  0.11480531856E+03  0.00000000000E+00 0. -1.
</event>
<event>
 8    1  0.9181008E-006  0.1076483E+03  0.7561462E-02  0.1264988E+00
         -1   -1    0    0    0  501 -0.00000000000E+00  0.00000000000E+00  0.26656729830E+03  0.26656729830E+03  0.00000000000E+00 0.  1.
          1   -1    0    0  501    0  0.00000000000E+00 -0.00000000000E+00 -0.50120781751E+02  0.50120781751E+02  0.00000000000E+00 0. -1.
         23    2    1    2    0    0 -0.12165886534E+02 -0.32540271571E+02  0.11955852993E+03  0.15469641899E+03  0.91814279387E+02 0.  0.
         23    2    1    2    0    0  0.12165886534E+02  0.32540271571E+02  0.96887986614E+02  0.16199166106E+03  0.12508852159E+03 0.  0.
          5    1    4    4  502    0  0.68351574404E+02  0.17705200435E+02  0.43962085092E+02  0.83279944595E+02  0.41800000000E+01 0. -1.
         -5    1    4    4    0  502 -0.56185687871E+02  0.14835071136E+02  0.52925901522E+02  0.78711716466E+02  0.41800000000E+01 0. -1.
        -11    1    3    3    0    0 -0.44467303317E+02 -0.30532373541E+02  0.35373203242E+02  0.64504499114E+02  0.00000000000E+00 0. -1.
         11    1    3    3    0    0  0.32301416784E+02 -0.20078980305E+01  0.84185326691E+02  0.90191919876E+02  0.00000000000E+00 0.  1.
</event>
<event>
 8    1  0.9181008E-006  0.1283484E+03  0.7561462E-02  0.1229927E+00
         -1   -1    0    0    0  501 -0.00000000000E+00  0.00000000000E+00  0.22730498071E+02  0.22730498071E+02  0.00000000000E+00 0.  1.
          1   -1    0    0  501    0  0.00000000000E+00 -0.00000000000E+00 -0.82867802694E+03  0.82867802694E+03  0.00000000000E+00 0. -1.
         23    2    1    2    0    0  0.22967171714E+02 -0.71500705113E+02 -0.25706308411E+03  0.28346312279E+03  0.92898175229E+02 0.  0.
         23    2    1    2    0    0 -0.22967171714E+02  0.71500705113E+02 -0.54888444475E+03  0.56794540222E+03  0.12509198375E+03 0.  0.
          5    1    4    4  502    0 -0.69559725093E+02  0.70437592218E+02 -0.37802979221E+03  0.39079918878E+03  0.41800000000E+01 0. -1.
         -5    1    4    4    0  502  0.46592553379E+02  0.10631128945E+01 -0.17085465254E+03  0.17714621343E+03  0.41800000000E+01 0. -1.
        -11    1    3    3    0    0 -0.26661342527E+02 -0.38779153165E+01 -0.11820708400E+03  0.12123852573E+03  0.00000000000E+00 0. -1.
         11    1    3    3    0    0  0.49628514240E+02 -0.67622789796E+02 -0.13885600011E+03  0.16222459706E+03  0.00000000000E+00 0.  1.
</event>
<event>
 8    1  0.9181008E-006  0.1947340E+03  0.7561462E-02  0.1154260E+00
          2   -1    0    0  501    0  0.00000000000E+00  0.00000000000E+00  0.46080541763E+03  0.46080541763E+03  0.00000000000E+00 0. -1.
         -2   -1    0    0    0  501 -0.00000000000E+00 -0.00000000000E+00 -0.10463802371E+03  0.10463802371E+03  0.00000000000E+00 0.  1.
         23    2    1    2    0    0  0.84544690865E+02  0.15110815432E+03  0.71376708697E+02  0.20944506246E+03  0.93760975826E+02 0.  0.
         23    2    1    2    0    0 -0.84544690865E+02 -0.15110815432E+03  0.28479068522E+03  0.35599837888E+03  0.12509049653E+03 0.  0.
          5    1    4    4  502    0 -0.42238909744E+02 -0.16366970953E+03  0.21927860898E+03  0.27689795967E+03  0.41800000000E+01 0.  1.
         -5    1    4    4    0  502 -0.42305781121E+02  0.12561555210E+02  0.65512076246E+02  0.79100419213E+02  0.41800000000E+01 0.  1.
        -11    1    3    3    0    0  0.31368494519E+02  0.88596605740E+02 -0.91961459893E+01  0.94434686943E+02  0.00000000000E+00 0.  1.
         11    1    3    3    0    0  0.53176196345E+02  0.62511548582E+02  0.80572854686E+02  0.11501037552E+03  0.00000000000E+00 0. -1.
</event>
<event>
 8    1  0.9181008E-006  0.1188155E+03  0.7561462E-02  0.1245064E+00
          3   -1    0    0  501    0  0.00000000000E+00  0.00000000000E+00  0.26833581627E+02  0.26833581627E+02  0.00000000000E+00 0. -1.
         -3   -1    0    0    0  501 -0.00000000000E+00 -0.00000000000E+00 -0.53791050398E+03  0.53791050398E+03  0.00000000000E+00 0.  1.
         23    2    1    2    0    0 -0.41743109283E+02 -0.24282944554E+02 -0.26486400791E+03  0.28438944299E+03  0.91609300978E+02 0.  0.
         23    2    1    2    0    0  0.41743109283E+02  0.24282944554E+02 -0.24621291444E+03  0.28035464262E+03  0.12508308372E+03 0.  0.
          5    1    4    4  502    0 -0.10232033267E+02  0.66238325134E+02 -0.12271553122E+03  0.13988847066E+03  0.41800000000E+01 0.  1.
         -5    1    4    4    0  502  0.51975142551E+02 -0.41955380579E+02 -0.12349738322E+03  0.14046617196E+03  0.41800000000E+01 0.  1.
        -11    1    3    3    0    0 -0.11028040734E+02  0.35047064881E+02 -0.92252236699E+02  0.99299494537E+02  0.00000000000E+00 0.  1.
         11    1    3    3    0    0 -0.30715068550E+02 -0.59330009436E+02 -0.17261177121E+03  0.18508994845E+03  0.00000000000E+00 0. -1.
</event>
<event>
 8    1  0.9181008E-006  0.1168202E+03  0.7561462E-02  0.1248437E+00
         -1   -1    0    0    0  501 -0.00000000000E+00  0.00000000000E+00  0.58533798516E+02  0.58533798516E+02  0.00000000000E+00 0.  1.
          1   -1    0    0  501    0  0.00000000000E+00 -0.00000000000E+00 -0.33314350710E+03  0.33314350710E+03  0.00000000000E+00 0. -1.
         23    2    1    2    0    0 -0.61272404600E+02  0.42060460107E+02 -0.57898463612E+02  0.13065011614E+03  0.90519781761E+02 0.  0.
         23    2    1    2    0    0  0.61272404600E+02 -0.42060460107E+02 -0.21671124498E+03  0.26102718947E+03  0.12509212636E+03 0.  0.
          5    1    4    4  502    0  0.51693606903E+02  0.18532954495E+02 -0.26487736765E+02  0.61112780954E+02  0.41800000000E+01 0.  1.
         -5    1    4    4    0  502  0.95787976973E+01 -0.60593414602E+02 -0.19022350821E+03  0.19991440852E+03  0.41800000000E+01 0.  1.
        -11    1    3    3    0    0  0.17677112796E+02 -0.12024797844E+02 -0.11946057807E+02  0.24490495648E+02  0.00000000000E+00 0.  1.
         11    1    3    3    0    0 -0.78949517396E+02  0.54085257950E+02 -0.45952405805E+02  0.10615962050E+03  0.00000000000E+00 0. -1.
</event>
<event>
 8    1  0.9181008E-006  0.7123090E+02  0.7561462E-02  0.1355957E+00
         -2   -1    0    0    0  501 -0.00000000000E+00  0.00000000000E+00  0.53765620602E+02  0.53765620602E+02  0.00000000000E+00 0.  1.
          2   -1    0    0  501    0  0.00000000000E+00 -0.00000000000E+00 -0.24888473912E+03  0.24888473912E+03  0.00000000000E+00 0. -1.
         23    2    1    2    0    0 -0.11785303496E+01  0.34467827690E+02 -0.50140273516E+02  0.10808573842E+03  0.89325582802E+02 0.  0.
         23    2    1    2    0    0  0.11785303496E+01 -0.34467827690E+02 -0.14497884500E+03  0.19456462130E+03  0.12508839388E+03 0.  0.
          5    1    4    4  502    0  0.30663488582E+02 -0.25916879388E+02  0.56704708131E+01  0.40762247344E+02  0.41800000000E+01 0.  1.
         -5    1    4    4    0  502 -0.29484958233E+02 -0.85509483016E+01 -0.15064931581E+03  0.15380237395E+03  0.41800000000E+01 0.  1.
        -11    1    3    3    0    0  0.27854844746E+02  0.25589331092E+01 -0.57853552647E+02  0.64260984029E+02  0.00000000000E+00 0. -1.
         11    1    3    3    0    0 -0.29033375095E+02  0.31908894581E+02  0.77132791311E+01  0.43824754395E+02  0.00000000000E+00 0.  1.
</event>
<event>
 8    1  0.9181008E-006  0.1422172E+03  0.7561462E-02  0.1210376E+00
         -2   -1    0    0    0  501 -0.00000000000E+00  0.00000000000E+00  0.68372429904E+02  0.68372429904E+02  0.00000000000E+00 0.  1.
          2   -1    0    0  501    0  0.00000000000E+00 -0.00000000000E+00 -0.29777702028E+03  0.29777702028E+03  0.00000000000E+00 0. -1.
         23    2    1    2    0    0 -0.88545370414E+02  0.23770248872E+02 -0.10714689702E+03  0.16866479570E+03  0.92531337467E+02 0.  0.
         23    2    1    2    0    0  0.88545370414E+02 -0.23770248872E+02 -0.12225769336E+03  0.19748465449E+03  0.12509171763E+03 0.  0.
          5    1    4    4  502    0  0.88087332353E+02  0.35506858172E+02 -0.66685616552E+02  0.11612303369E+03  0.41800000000E+01 0.  1.
         -5    1    4    4    0  502  0.45803806088E+00 -0.59277107045E+02 -0.55572076809E+02  0.81361620801E+02  0.41800000000E+01 0.  1.
        -11    1    3    3    0    0 -0.92300092557E+01 -0.31789868730E+02 -0.32549516163E+02  0.46424776005E+02  0.00000000000E+00 0. -1.
         11    1    3    3    0    0 -0.79315361158E+02  0.55560117602E+02 -0.74597380854E+02  0.12224001969E+03  0.00000000000E+00 0.  1.
</event>
<event>
 7    1  0.9181008E-006  0.9816720E+02  0.7561462E-02  0.1284198E+00
          2   -1    0    0  501    0  0.00000000000E+00  0.00000000000E+00  0.85148752990E+03  0.85148752990E+03  0.00000000000E+00 0. -1.
         -2   -1    0    0    0  501 -0.00000000000E+00 -0.00000000000E+00 -0.14593531509E+03  0.14593531509E+03  0.00000000000E+00 0.  1.
         23    2    1    2    0    0  0.53697128838E+01  0.30488735737E+02 -0.11749059579E+03  0.15208046128E+03  0.91466003422E+02 0.  0.
          5    1    1    2  502    0 -0.61585905585E+01  0.34225640869E+02  0.73580793444E+03  0.73664110089E+03  0.41800000000E+01 0. -1.
         -5    1    1    2    0  502  0.78887767469E+00 -0.64714376607E+02  0.87234876164E+02  0.10870128282E+03  0.41800000000E+01 0.  1.
        -11    1    3    3    0    0 -0.42601168369E+02  0.21231881967E+02 -0.54380670900E+02  0.72269701299E+02  0.00000000000E+00 0. -1.
         11    1    3    3    0    0  0.47970881253E+02  0.92568537704E+01 -0.63109924888E+02  0.79810759984E+02  0.00000000000E+00 0.  1.
</event>
<event>
 8    1  0.9181008E-006  0.1168509E+03  0.7561462E-02  0.1248384E+00
         -1   -1    0    0    0  501 -0.00000000000E+00  0.00000000000E+00  0.61176319722E+02  0.61176319722E+02  0.00000000000E+00 0.  1.
          1   -1    0    0  501    0  0.00000000000E+00 -0.00000000000E+00 -0.45275492286E+03  0.45275492286E+03  0.00000000000E+00 0. -1.
         23    2    1    2    0    0  0.49542316401E+02  0.76938636598E+02 -0.49795067246E+02  0.13864791103E+03  0.91486062299E+02 0.  0.
         23    2    1    2    0    0 -0.49542316401E+02 -0.76938636598E+02 -0.34178353589E+03  0.37528333155E+03  0.12509036181E+03 0.  0.
          5    1    4    4  502    0 -0.67853637005E+02 -0.27307029812E+02 -0.29682453906E+03  0.30573202207E+03  0.41800000000E+01 0.  1.
         -5    1    4    4    0  502  0.18311320603E+02 -0.49631606786E+02 -0.44958996834E+02  0.69551309482E+02  0.41800000000E+01 0.  1.
        -11    1    3    3    0    0 -0.26085971197E+01  0.47333690320E+02 -0.61396308272E+02  0.77567968181E+02  0.00000000000E+00 0. -1.
         11    1    3    3    0    0  0.52150913521E+02  0.29604946278E+02  0.11601241025E+02  0.61079942850E+02  0.00000000000E+00 0.  1.
</event>
<event>
 8    1  0.9181008E-006  0.1179205E+03  0.7561462E-02  0.1246568E+00
          2   -1    0    0  501    0  0.00000000000E+00  0.00000000000E+00  0.46159443853E+03  0.46159443853E+03  0.00000000000E+00 0. -1.
         -2   -1    0    0    0  501 -0.00000000000E+00 -0.00000000000E+00 -0.40890129441E+02  0.40890129441E+02  0.00000000000E+00 0.  1.
         23    2    1    2    0    0 -0.54568637735E+02  0.31292477120E+01  0.72533318590E+02  0.12850946096E+03  0.90917934614E+02 0.  0.
         23    2    1    2    0    0  0.54568637735E+02 -0.31292477120E+01  0.34817099050E+03  0.37397510701E+03  0.12508722406E+03 0.  0.
          5    1    4    4  502    0 -0.38180402005E+02 -0.17158423527E+02  0.12367276750E+03  0.13063146794E+03  0.41800000000E+01 0.  1.
         -5    1    4    4    0  502  0.92749039740E+02  0.14029175815E+02  0.22449822300E+03  0.24334363907E+03  0.41800000000E+01 0.  1.
        -11    1    3    3    0    0 -0.60685620741E+02 -0.28937514792E+02  0.67871005941E+02  0.95533228641E+02  0.00000000000E+00 0. -1.
         11    1    3    3    0    0  0.61169830056E+01  0.32066762504E+02  0.46623126480E+01  0.32976232317E+02  0.00000000000E+00 0.  1.
</event>
<event>
 8    1  0.9181008E-006  0.1116606E+03  0.7561462E-02  0.1257525E+00
         -1   -1    0    0    0  501 -0.00000000000E+00  0.00000000000E+00  0.49931337949E+02  0.49931337949E+02  0.00000000000E+00 0.  1.
          1   -1    0    0  501    0  0.00000000000E+00 -0.00000000000E+00 -0.26203668858E+03  0.26203668858E+03  0.00000000000E+00 0. -1.
         23    2    1    2    0    0 -0.24453433988E+02 -0.21670947418E+02 -0.68140757254E+02  0.11847160612E+03  0.91240113230E+02 0.  0.
         23    2    1    2    0    0  0.24453433988E+02  0.21670947418E+02 -0.14396459338E+03  0.19349642041E+03  0.12508980841E+03 0.  0.
          5    1    4    4  502    0 -0.32072626478E+02 -0.35983907804E+02 -0.51231687176E+02  0.70467390763E+02  0.41800000000E+01 0. -1.
         -5    1    4    4    0  502  0.56526060467E+02  0.57654855222E+02 -0.92732906203E+02  0.12302902965E+03  0.41800000000E+01 0. -1.
        -11    1    3    3    0    0 -0.22652526414E+02  0.32648983128E+02 -0.43122933253E+02  0.58640262829E+02  0.00000000000E+00 0.  1.
         11    1    3    3    0    0 -0.18009075739E+01 -0.54319930546E+02 -0.25017824001E+02  0.59831343294E+02  0.00000000000E+00 0. -1.
</event>
<event>
 8    1  0.9181008E-006  0.1902561E+03  0.7561462E-02  0.1158231E+00
          1   -1    0    0  501    0  0.00000000000E+00  0.00000000000E+00  0.40425351758E+03  0.40425351758E+03  0.00000000000E+00 0. -1.
         -1   -1    0    0    0  501 -0.00000000000E+00 -0.00000000000E+00 -0.10745717783E+03  0.10745717783E+03  0.00000000000E+00 0.  1.
         23    2    1    2    0    0  0.16388264717E+03  0.45211037022E+01  0.59361479962E+02  0.19722842533E+03  0.92180822476E+02 0.  0.
         23    2    1    2    0    0 -0.16388264717E+03 -0.45211037022E+01  0.23743485978E+03  0.31448227008E+03  0.12508326479E+03 0.  0.
          5    1    4    4  502    0 -0.16171778669E+03  0.29621064632E+02  0.22307292932E+03  0.27714446449E+03  0.41800000000E+01 0. -1.
         -5    1    4    4    0  502 -0.21648604800E+01 -0.34142168334E+02  0.14361930463E+02  0.37337805588E+02  0.41800000000E+01 0. -1.
        -11    1    3    3    0    0  0.14966468656E+03  0.29781307377E+02  0.67880824204E+02  0.16701572072E+03  0.00000000000E+00 0. -1.
         11    1    3    3    0    0  0.14217960608E+02 -0.25260203675E+02 -0.85193442419E+01  0.30212704610E+02  0.00000000000E+00 0.  1.
</event>
<event>
 8    1  0.9181008E-006  0.7967133E+02  0.7561462E-02  0.1329987E+00
          2   -1    0    0  501    0  0.00000000000E+00  0.00000000000E+00  0.59423862092E+02  0.59423862092E+02  0.00000000000E+00 0. -1.
         -2   -1    0    0    0  501 -0.00000000000E+00 -0.00000000000E+00 -0.37701170177E+03  0.37701170177E+03  0.00000000000E+00 0.  1.
         23    2    1    2    0    0 -0.50391447435E+02  0.53611626123E+02 -0.25083150784E+03  0.27669325299E+03  0.90714973931E+02 0.  0.
         23    2    1    2    0    0  0.50391447435E+02 -0.53611626123E+02 -0.66756331846E+02  0.15974231088E+03  0.12509074152E+03 0.  0.
          5    1    4    4  502    0  0.28438674896E+02 -0.20896327438E+01  0.33890256187E+02  0.44487601186E+02  0.41800000000E+01 0.  1.
         -5    1    4    4    0  502  0.21952772539E+02 -0.51521993379E+02 -0.10064658803E+03  0.11525470969E+03  0.41800000000E+01 0.  1.
        -11    1    3    3    0    0 -0.31927996110E+02  0.26142802870E+02 -0.23742393298E+03  0.24098333351E+03  0.00000000000E+00 0.  1.
         11    1    3    3    0    0 -0.18463451325E+02  0.27468823253E+02 -0.13407574858E+02  0.35709919481E+02  0.00000000000E+00 0. -1.
</event>
<event>
 8    1  0.9181008E-006  0.9156073E+02  0.7561462E-02  0.1299116E+00
         -2   -1    0    0    0  501 -0.00000000000E+00  0.00000000000E+00  0.23154631850E+02  0.23154631850E+02  0.00000000000E+00 0.  1.
          2   -1    0    0  501    0  0.00000000000E+00 -0.00000000000E+00 -0.83795367575E+03  0.83795367575E+03  0.00000000000E+00 0. -1.
         23    2    1    2    0    0  0.77991948217E+02 -0.81659197412E+01 -0.20581566236E+03  0.23448472528E+03  0.80458519017E+02 0.  0.
         23    2    1    2    0    0 -0.77991948217E+02  0.81659197412E+01 -0.60898338154E+03  0.62662358233E+03  0.12508768406E+03 0.  0.
          5    1    4    4  502    0  0.20172080787E+01  0.36597859100E+00  0.53194615618E+01  0.70690975428E+01  0.41800000000E+01 0.  1.
         -5    1    4    4    0  502 -0.80009156295E+02  0.77999411502E+01 -0.61430284310E+03  0.61955448478E+03  0.41800000000E+01 0.  1.
        -11    1    3    3    0    0  0.60740758922E+02 -0.31915295466E+02 -0.80488439651E+02  0.10576584891E+03  0.00000000000E+00 0.  1.
         11    1    3    3    0    0  0.17251189295E+02  0.23749375725E+02 -0.12532722271E+03  0.12871887636E+03  0.00000000000E+00 0. -1.
</event>
<event>
 8    1  0.9181008E-006  0.6846906E+02  0.7561462E-02  0.1365378E+00
          4   -1    0    0  501    0  0.00000000000E+00  0.00000000000E+00  0.91739154117E+02  0.91739154117E+02  0.00000000000E+00 0. -1.
         -4   -1    0    0    0  501 -0.00000000000E+00 -0.00000000000E+00 -0.13022488431E+03  0.13022488431E+03  0.00000000000E+00 0.  1.
         23    2    1    2    0    0  0.14919396663E+02  0.75782760957E+01 -0.25331395953E+02  0.95062041708E+02  0.90083813681E+02 0.  0.
         23    2    1    2    0    0 -0.14919396663E+02 -0.75782760957E+01 -0.13154334242E+02  0.12690199672E+03  0.12510420296E+03 0.  0.
          5    1    4    4  502    0 -0.16486686212E+02 -0.23812647724E+02  0.51966773675E+02  0.59639508550E+02  0.41800000000E+01 0. -1.
         -5    1    4    4    0  502  0.15672895493E+01  0.16234371628E+02 -0.65121107917E+02  0.67262488172E+02  0.41800000000E+01 0. -1.
        -11    1    3    3    0    0  0.52398822403E+02 -0.92163660267E+00 -0.84384212961E+01  0.53081945680E+02  0.00000000000E+00 0.  1.
         11    1    3    3    0    0 -0.37479425740E+02  0.84999126984E+01 -0.16892974657E+02  0.41980096027E+02  0.00000000000E+00 0. -1.
</event>
<event>
 8    1  0.9181008E-006  0.1811480E+03  0.7561462E-02  0.1166697E+00
          2   -1    0    0  501    0  0.00000000000E+00  0.00000000000E+00  0.95958608724E+02  0.95958608724E+02  0.00000000000E+00 0. -1.
         -2   -1    0    0    0  501 -0.00000000000E+00 -0.00000000000E+00 -0.37806089047E+03  0.37806089047E+03  0.00000000000E+00 0.  1.
         23    2    1    2    0    0  0.10580357289E+03  0.11494181617E+03 -0.13420086849E+03  0.22516602649E+03  0.91015653827E+02 0.  0.
         23    2    1    2    0    0 -0.10580357289E+03 -0.11494181617E+03 -0.14790141326E+03  0.24885347270E+03  0.12508879124E+03 0.  0.
          5    1    4    4  502    0  0.15316593179E+02  0.10152771354E+02 -0.39330831531E+02  0.43612653000E+02  0.41800000000E+01 0. -1.
         -5    1    4    4    0  502 -0.12112016607E+03 -0.12509458752E+03 -0.10857058173E+03  0.20524081970E+03  0.41800000000E+01 0. -1.
        -11    1    3    3    0    0  0.82720642336E+02  0.42003658510E+02 -0.33360652837E+02  0.98589782200E+02  0.00000000000E+00 0. -1.
         11    1    3    3    0    0  0.23082930558E+02  0.72938157658E+02 -0.10084021566E+03  0.12657624429E+03  0.00000000000E+00 0.  1.
</event>
<event>
 8    1  0.9181008E-006  0.1373266E+03  0.7561462E-02  0.1216972E+00
          1   -1    0    0  501    0  0.00000000000E+00  0.00000000000E+00  0.13528803487E+04  0.13528803487E+04  0.00000000000E+00 0. -1.
         -1   -1    0    0    0  501 -0.00000000000E+00 -0.00000000000E+00 -0.23070954773E+02  0.23070954773E+02  0.00000000000E+00 0.  1.
         23    2    1    2    0    0  0.44375238665E+02  0.11673314830E+03  0.38474544869E+03  0.41449955134E+03  0.90471144849E+02 0.  0.
         23    2    1    2    0    0 -0.44375238665E+02 -0.11673314830E+03  0.94506394523E+03  0.96145175213E+03  0.12509125224E+03 0.  0.
          5    1    4    4  502    0 -0.57806296664E+02 -0.10304682342E+03  0.42838066259E+03  0.44439585983E+03  0.41800000000E+01 0. -1.
         -5    1    4    4    0  502  0.13431057998E+02 -0.13686324876E+02  0.51668328263E+03  0.51705589230E+03  0.41800000000E+01 0. -1.
        -11    1    3    3    0    0  0.37539555419E+02  0.25661902202E+02  0.23296308188E+03  0.23735953523E+03  0.00000000000E+00 0. -1.
         11    1    3    3    0    0  0.68356832466E+01  0.91071246096E+02  0.15178236681E+03  0.17714001611E+03  0.00000000000E+00 0.  1.
</event>
<event>
 8    1  0.9181008E-006  0.2047626E+03  0.7561462E-02  0.1145782E+00
         -1   -1    0    0    0  501 -0.00000000000E+00  0.00000000000E+00  0.41533343775E+03  0.41533343775E+03  0.00000000000E+00 0.  1.
          1   -1    0    0  501    0  0.00000000000E+00 -0.00000000000E+00 -0.11027265930E+03  0.11027265930E+03  0.00000000000E+00 0. -1.
         23    2    1    2    0    0 -0.90431595363E+02 -0.15067999669E+03  0.21145349946E+03  0.29044371380E+03  0.93608939805E+02 0.  0.
         23    2    1    2    0    0  0.90431595363E+02  0.15067999669E+03  0.93607278995E+02  0.23516238326E+03  0.12512669170E+03 0.  0.
          5    1    4    4  502    0  0.12709635240E+02  0.12896326873E+03  0.82294289405E+02  0.15356719043E+03  0.41800000000E+01 0.  1.
         -5    1    4    4    0  502  0.77721960122E+02  0.21716727963E+02  0.11312989589E+02  0.81595192825E+02  0.41800000000E+01 0.  1.
        -11    1    3    3    0    0 -0.40959582867E+02 -0.14330522802E+03  0.15553260861E+03  0.21541696346E+03  0.00000000000E+00 0.  1.
         11    1    3    3    0    0 -0.49472012496E+02 -0.73747686716E+01  0.55920890851E+02  0.75026750342E+02  0.00000000000E+00 0. -1.
</event>
<event>
 8    1  0.9181008E-006  0.1855730E+03  0.7561462E-02  0.1162516E+00
          2   -1    0    0  501    0  0.00000000000E+00  0.00000000000E+00  0.52916259100E+03  0.52916259100E+03  0.00000000000E+00 0. -1.
         -2   -1    0    0    0  501 -0.00000000000E+00 -0.00000000000E+00 -0.67236456099E+02  0.67236456099E+02  0.00000000000E+00 0.  1.
         23    2    1    2    0    0  0.74778643434E+02  0.13261276937E+03  0.17496803230E+03  0.24830520341E+03  0.88677334206E+02 0.  0.
         23    2    1    2    0    0 -0.74778643434E+02 -0.13261276937E+03  0.28695810260E+03  0.34809384369E+03  0.12508548777E+03 0.  0.
          5    1    4    4  502    0 -0.80280309392E+02 -0.20619994700E+02  0.98925502578E+02  0.12912722299E+03  0.41800000000E+01 0.  1.
         -5    1    4    4    0  502  0.55016659581E+01 -0.11199277467E+03  0.18803260003E+03  0.21896662070E+03  0.41800000000E+01 0.  1.
        -11    1    3    3    0    0  0.58634297494E+02  0.14447187262E+03  0.15896792142E+03  0.22266769605E+03  0.00000000000E+00 0.  1.
         11    1    3    3    0    0  0.16144345941E+02 -0.11859103254E+02  0.16000110880E+02  0.25637507367E+02  0.00000000000E+00 0. -1.
</event>
<event>
 8    1  0.9181008E-006  0.1002328E+03  0.7561462E-02  0.1279807E+00
         -1   -1    0    0    0  501 -0.00000000000E+00  0.00000000000E+00  0.44562637511E+03  0.44562637511E+03  0.00000000000E+00 0.  1.
          1   -1    0    0  501    0  0.00000000000E+00 -0.00000000000E+00 -0.34883735297E+02  0.34883735297E+02  0.00000000000E+00 0. -1.
         23    2    1    2    0    0 -0.86706149980E+01  0.23423331773E+02  0.28210335849E+03  0.29934917745E+03  0.96973156746E+02 0.  0.
         23    2    1    2    0    0  0.86706149980E+01 -0.23423331773E+02  0.12863928132E+03  0.18116093296E+03  0.12508951554E+03 0.  0.
          5    1    4    4  502    0  0.46906636015E+02 -0.53204600270E+02  0.10574121300E+03  0.12739559850E+03  0.41800000000E+01 0. -1.
         -5    1    4    4    0  502 -0.38236021017E+02  0.29781268496E+02  0.22898068325E+02  0.53765334459E+02  0.41800000000E+01 0. -1.
        -11    1    3    3    0    0 -0.27818300244E+02 -0.19362020586E+02  0.38570338623E+02  0.51346048447E+02  0.00000000000E+00 0. -1.
         11    1    3    3    0    0  0.19147685246E+02  0.42785352359E+02  0.24353301987E+03  0.24800312900E+03  0.00000000000E+00 0.  1.
</event>
<event>
 8    1  0.9181008E-006  0.1265246E+03  0.7561462E-02  0.1232706E+00
         -2   -1    0    0    0  501 -0.00000000000E+00  0.00000000000E+00  0.10061303396E+03  0.10061303396E+03  0.00000000000E+00 0.  1.
          2   -1    0    0  501    0  0.00000000000E+00 -0.00000000000E+00 -0.16992384684E+03  0.16992384684E+03  0.00000000000E+00 0. -1.
         23    2    1    2    0    0 -0.56439043620E+02  0.46011324041E+02 -0.22815269649E+02  0.11851033070E+03  0.90673890222E+02 0.  0.
         23    2    1    2    0    0  0.56439043620E+02 -0.46011324041E+02 -0.46495543228E+02  0.15202655010E+03  0.12509128191E+03 0.  0.
          5    1    4    4  502    0  0.76826272320E+02  0.11744432531E+02 -0.46445048610E+02  0.90635659398E+02  0.41800000000E+01 0.  1.
         -5    1    4    4    0  502 -0.20387228700E+02 -0.57755756572E+02 -0.50494618222E-01  0.61390890701E+02  0.41800000000E+01 0.  1.
        -11    1    3    3    0    0 -0.78652012475E+02  0.23234288720E+02 -0.52778121059E+01  0.82181667903E+02  0.00000000000E+00 0.  1.
         11    1    3    3    0    0  0.22212968855E+02  0.22777035321E+02 -0.17537457543E+02  0.36328662795E+02  0.00000000000E+00 0. -1.
</event>
<event>
 8    1  0.9181008E-006  0.1975022E+03  0.7561462E-02  0.1151864E+00
          2   -1    0    0  501    0  0.00000000000E+00  0.00000000000E+00  0.87867428175E+03  0.87867428175E+03  0.00000000000E+00 0. -1.
         -2   -1    0    0    0  501 -0.00000000000E+00 -0.00000000000E+00 -0.44787602498E+02  0.44787602498E+02  0.00000000000E+00 0.  1.
         23    2    1    2    0    0 -0.16419730239E+03 -0.91020186184E+01  0.35672099887E+03  0.40348443801E+03  0.92229170146E+02 0.  0.
         23    2    1    2    0    0  0.16419730239E+03  0.91020186184E+01  0.47716568038E+03  0.51997744624E+03  0.12508340100E+03 0.  0.
          5    1    4    4  502    0  0.57972495082E+02 -0.56893933025E+02  0.17824851343E+03  0.19592788148E+03  0.41800000000E+01 0.  1.
         -5    1    4    4    0  502  0.10622480731E+03  0.65995951644E+02  0.29891716695E+03  0.32404956476E+03  0.41800000000E+01 0.  1.
        -11    1    3    3    0    0 -0.12713701689E+03  0.34093419466E+02  0.24804553851E+03  0.28080735654E+03  0.00000000000E+00 0.  1.
         11    1    3    3    0    0 -0.37060285507E+02 -0.43195438084E+02  0.10867546035E+03  0.12267708146E+03  0.00000000000E+00 0. -1.
</event>
<event>
 8    1  0.9181008E-006  0.8736589E+02  0.7561462E-02  0.1309359E+00
         -1   -1    0    0    0  501 -0.00000000000E+00  0.00000000000E+00  0.41215346699E+02  0.41215346699E+02  0.00000000000E+00 0. -1.
          1   -1    0    0  501    0  0.00000000000E+00 -0.00000000000E+00 -0.28055314989E+03  0.28055314989E+03  0.00000000000E+00 0.  1.
         23    2    1    2    0    0  0.42354622865E+01  0.14866102207E+02 -0.79486990138E+02  0.11820393169E+03  0.86110671413E+02 0.  0.
         23    2    1    2    0    0 -0.42354622865E+01 -0.14866102207E+02 -0.15985081305E+03  0.20356456489E+03  0.12508920621E+03 0.  0.
          5    1    4    4  502    0  0.30830408783E+02 -0.48347640891E+02 -0.29905127291E+02  0.64805844827E+02  0.41800000000E+01 0. -1.
         -5    1    4    4    0  502 -0.35065871070E+02  0.33481538684E+02 -0.12994568576E+03  0.13875872007E+03  0.41800000000E+01 0. -1.
        -11    1    3    3    0    0  0.34004713540E+02 -0.25251134710E+01 -0.76308907552E+02  0.83580775976E+02  0.00000000000E+00 0.  1.
         11    1    3    3    0    0 -0.29769251253E+02  0.17391215678E+02 -0.31780825851E+01  0.34623155718E+02  0.00000000000E+00 0. -1.
</event>
<event>
 8    1  0.9181008E-006  0.7907285E+02  0.7561462E-02  0.1331703E+00
          2   -1    0    0  501    0  0.00000000000E+00  0.00000000000E+00  0.48594818835E+02  0.48594818835E+02  0.00000000000E+00 0. -1.
         -2   -1    0    0    0  501 -0.00000000000E+00 -0.00000000000E+00 -0.28794073143E+03  0.28794073143E+03  0.00000000000E+00 0.  1.
         23    2    1    2    0    0 -0.28640574609E+02 -0.28633118539E+02 -0.13659181647E+03  0.16966729845E+03  0.92138644697E+02 0.  0.
         23    2    1    2    0    0  0.28640574609E+02  0.28633118539E+02 -0.10275409612E+03  0.16686825181E+03  0.12508585532E+03 0.  0.
          5    1    4    4  502    0  0.56493376767E+02  0.22660681564E+02 -0.11905848961E+03  0.13378118125E+03  0.41800000000E+01 0. -1.
         -5    1    4    4    0  502 -0.27852802157E+02  0.59724369752E+01  0.16304393488E+02  0.33087070563E+02  0.41800000000E+01 0. -1.
        -11    1    3    3    0    0  0.21634318988E+00 -0.38002203946E+02 -0.97309612703E+01  0.39228891348E+02  0.00000000000E+00 0. -1.
         11    1    3    3    0    0 -0.28856917799E+02  0.93690854067E+01 -0.12686085520E+03  0.13043840710E+03  0.00000000000E+00 0.  1.
</event>
<event>
 8    1  0.9181008E-006  0.1010260E+03  0.7561462E-02  0.1278153E+00
          1   -1    0    0  501    0  0.00000000000E+00  0.00000000000E+00  0.64820182880E+03  0.64820182880E+03  0.00000000000E+00 0. -1.
         -1   -1    0    0    0  501 -0.00000000000E+00 -0.00000000000E+00 -0.19710135212E+02  0.19710135212E+02  0.00000000000E+00 0.  1.
         23    2    1    2    0    0 -0.59485718368E+02 -0.24938295167E+02  0.24265147730E+03  0.25720688457E+03  0.55813732877E+02 0.  0.
         23    2    1    2    0    0  0.59485718368E+02  0.24938295167E+02  0.38584021628E+03  0.41070507944E+03  0.12508205515E+03 0.  0.
          5    1    4    4  502    0  0.75551291621E+02  0.59644510903E+02  0.32261498402E+03  0.33669476631E+03  0.41800000000E+01 0.  1.
         -5    1    4    4    0  502 -0.16065573253E+02 -0.34706215736E+02  0.63225232262E+02  0.74010313128E+02  0.41800000000E+01 0.  1.
        -11    1    3    3    0    0 -0.85560181039E+01 -0.11905840236E+02  0.79264412321E+01  0.16666821777E+02  0.00000000000E+00 0.  1.
         11    1    3    3    0    0 -0.50929700264E+02 -0.13032454931E+02  0.23472503607E+03  0.24054006279E+03  0.00000000000E+00 0. -1.
</event>
<event>
 7    1  0.9181008E-006  0.1166202E+03  0.7561462E-02  0.1248779E+00
          2   -1    0    0  501    0  0.00000000000E+00  0.00000000000E+00  0.99177666994E+03  0.99177666994E+03  0.00000000000E+00 0. -1.
         -2   -1    0    0    0  501 -0.00000000000E+00 -0.00000000000E+00 -0.28238339199E+02  0.28238339199E+02  0.00000000000E+00 0.  1.
         23    2    1    2    0    0 -0.27876512103E+02  0.77425247931E+02  0.26947727643E+03  0.29656117161E+03  0.92513550634E+02 0.  0.
          5    1    1    2  502    0 -0.98087216063E+01 -0.70289059849E+02  0.67791004014E+03  0.68162765340E+03  0.41800000000E+01 0. -1.
         -5    1    1    2    0  502  0.37685233709E+02 -0.71361880823E+01  0.16151014171E+02  0.41826184129E+02  0.41800000000E+01 0.  1.
        -11    1    3    3    0    0 -0.39437694519E+02  0.94811135546E+02  0.21649493438E+03  0.23961331304E+03  0.00000000000E+00 0.  1.
         11    1    3    3    0    0  0.11561182416E+02 -0.17385887615E+02  0.52982342049E+02  0.56947858573E+02  0.00000000000E+00 0. -1.
</event>
<event>
 8    1  0.9181008E-006  0.8211441E+02  0.7561462E-02  0.1323156E+00
          2   -1    0    0  501    0  0.00000000000E+00  0.00000000000E+00  0.35042990585E+03  0.35042990585E+03  0.00000000000E+00 0. -1.
         -2   -1    0    0    0  501 -0.00000000000E+00 -0.00000000000E+00 -0.46734462920E+02  0.46734462920E+02  0.00000000000E+00 0.  1.
         23    2    1    2    0    0  0.13484905819E+02 -0.52296037353E+02  0.86799917010E+02  0.14102412631E+03  0.97143504163E+02 0.  0.
         23    2    1    2    0    0 -0.13484905819E+02  0.52296037353E+02  0.21689552592E+03  0.25614024246E+03  0.12508971355E+03 0.  0.
          5    1    4    4  502    0 -0.26338272420E+02  0.77031761582E+02  0.72733915931E+02  0.10924876115E+03  0.41800000000E+01 0.  1.
         -5    1    4    4    0  502  0.12853366601E+02 -0.24735724228E+02  0.14416160999E+03  0.14689148131E+03  0.41800000000E+01 0.  1.
        -11    1    3    3    0    0  0.53581243209E+01 -0.35072534842E+02  0.10731741653E+03  0.11303017334E+03  0.00000000000E+00 0. -1.
         11    1    3    3    0    0  0.81267814983E+01 -0.17223502511E+02 -0.20517499517E+02  0.27993952967E+02  0.00000000000E+00 0.  1.
</event>
<event>
 8    1  0.1216645E-005  0.8741660E+02  0.7561462E-02  0.1309231E+00
         -2   -1    0    0    0  501 -0.00000000000E+00  0.00000000000E+00  0.20694080717E+03  0.20694080717E+03  0.00000000000E+00 0.  1.
          2   -1    0    0  501    0  0.00000000000E+00 -0.00000000000E+00 -0.75708500872E+02  0.75708500872E+02  0.00000000000E+00 0. -1.
         23    2    1    2    0    0  0.53766543496E+00 -0.61914344871E+02  0.71407234590E+02  0.13079423383E+03  0.90412738415E+02 0.  0.
         23    2    1    2    0    0 -0.53766543496E+00  0.61914344871E+02  0.59825071708E+02  0.15185507421E+03  0.12508896503E+03 0.  0.
          5    1    4    4  502    0  0.31333390270E+02  0.35558277818E+02  0.89104086194E+02  0.10101080657E+03  0.41800000000E+01 0.  1.
         -5    1    4    4    0  502 -0.31871055705E+02  0.26356067053E+02 -0.29279014487E+02  0.50844267637E+02  0.41800000000E+01 0.  1.
        -11    1    3    3    0    0  0.29887053336E+02 -0.31108059286E+02 -0.49100441427E+01  0.43417229796E+02  0.00000000000E+00 0. -1.
         11    1    3    3    0    0 -0.29349387901E+02 -0.30806285585E+02  0.76317278733E+02  0.87377004039E+02  0.00000000000E+00 0.  1.
</event>
<event>
 8    1  0.9181008E-006  0.1127011E+03  0.7561462E-02  0.1255648E+00
         -2   -1    0    0    0  501 -0.00000000000E+00  0.00000000000E+00  0.43818431864E+02  0.43818431864E+02  0.00000000000E+00 0.  1.
          2   -1    0    0  501    0  0.00000000000E+00 -0.00000000000E+00 -0.42582887468E+03  0.42582887468E+03  0.00000000000E+00 0. -1.
         23    2    1    2    0    0 -0.66993533973E+02  0.41015491451E+02 -0.13270545607E+03  0.17903652244E+03  0.90955671425E+02 0.  0.
         23    2    1    2    0    0  0.66993533973E+02 -0.41015491451E+02 -0.24930498674E+03  0.29061078410E+03  0.12700884728E+03 0.  0.
          5    1    4    4  502    0  0.10047805644E+02  0.42563955671E+02 -0.10970899910E+03  0.11817861737E+03  0.41800000000E+01 0. -1.
         -5    1    4    4    0  502  0.56945728329E+02 -0.83579447122E+02 -0.13959598765E+03  0.17243216673E+03  0.41800000000E+01 0.  1.
        -11    1    3    3    0    0 -0.48428084566E+02  0.20527554403E+02 -0.10364739152E+02  0.53610518391E+02  0.00000000000E+00 0.  1.
         11    1    3    3    0    0 -0.18565449408E+02  0.20487937048E+02 -0.12234071692E+03  0.12542600405E+03  0.00000000000E+00 0. -1.
</event>
<event>
 8    1  0.9181008E-006  0.1390798E+03  0.7561462E-02  0.1214573E+00
          2   -1    0    0  501    0  0.00000000000E+00  0.00000000000E+00  0.35196832579E+03  0.35196832579E+03  0.00000000000E+00 0. -1.
         -2   -1    0    0    0  501 -0.00000000000E+00 -0.00000000000E+00 -0.97757094651E+02  0.97757094651E+02  0.00000000000E+00 0.  1.
         23    2    1    2    0    0 -0.99883329364E+01 -0.10905619552E+03 -0.43878186305E+01  0.14229483490E+03  0.90749911907E+02 0.  0.
         23    2    1    2    0    0  0.99883329364E+01  0.10905619552E+03  0.25859904977E+03  0.30743058553E+03  0.12508827205E+03 0.  0.
          5    1    4    4  502    0  0.26764357526E+02 -0.87137134302E+00  0.14827699604E+03  0.15073363950E+03  0.41800000000E+01 0.  1.
         -5    1    4    4    0  502 -0.16776024590E+02  0.10992756687E+03  0.11032205373E+03  0.15669694603E+03  0.41800000000E+01 0.  1.
        -11    1    3    3    0    0  0.17228365264E+02  0.84301377067E+01  0.85607600088E+01  0.21004056831E+02  0.00000000000E+00 0.  1.
         11    1    3    3    0    0 -0.27216698201E+02 -0.11748633323E+03 -0.12948578639E+02  0.12129077807E+03  0.00000000000E+00 0. -1.
</event>
<event>
 8    1  0.9181008E-006  0.7375093E+02  0.7561462E-02  0.1347783E+00
         -1   -1    0    0    0  501 -0.00000000000E+00  0.00000000000E+00  0.29700699054E+02  0.29700699054E+02  0.00000000000E+00 0.  1.
          1   -1    0    0  501    0  0.00000000000E+00 -0.00000000000E+00 -0.48044082259E+03  0.48044082259E+03  0.00000000000E+00 0. -1.
         23    2    1    2    0    0  0.28955887582E+01 -0.32486641443E+02 -0.99277037685E+02  0.13565861027E+03  0.86507583607E+02 0.  0.
         23    2    1    2    0    0 -0.28955887582E+01  0.32486641443E+02 -0.35146308585E+03  0.37448291137E+03  0.12508950352E+03 0.  0.
          5    1    4    4  502    0 -0.99966810835E+01  0.41757236913E+02 -0.35791251100E+03  0.36050303521E+03  0.41800000000E+01 0. -1.
         -5    1    4    4    0  502  0.71010923253E+01 -0.92705954705E+01  0.64494251548E+01  0.13979876159E+02  0.41800000000E+01 0. -1.
        -11    1    3    3    0    0 -0.33440996777E+02 -0.42678533092E+02 -0.51553986754E+02  0.74816916553E+02  0.00000000000E+00 0.  1.
         11    1    3    3    0    0  0.36336585535E+02  0.10191891649E+02 -0.47723050932E+02  0.60841693714E+02  0.00000000000E+00 0. -1.
</event>
<event>
 8    1  0.9181008E-006  0.1501290E+03  0.7561462E-02  0.1200315E+00
          1   -1    0    0  501    0  0.00000000000E+00  0.00000000000E+00  0.29265390208E+03  0.29265390208E+03  0.00000000000E+00 0. -1.
         -1   -1    0    0    0  501 -0.00000000000E+00 -0.00000000000E+00 -0.96520426449E+02  0.96520426449E+02  0.00000000000E+00 0.  1.
         23    2    1    2    0    0  0.59838119466E+02 -0.10876557375E+03  0.59046285869E+02  0.16590339117E+03  0.92881218507E+02 0.  0.
         23    2    1    2    0    0 -0.59838119466E+02  0.10876557375E+03  0.13708718977E+03  0.22327093737E+03  0.12508582374E+03 0.  0.
          5    1    4    4  502    0 -0.94606219746E+02  0.48457720769E+02  0.86744663201E+02  0.13726105242E+03  0.41800000000E+01 0. -1.
         -5    1    4    4    0  502  0.34768100280E+02  0.60307852980E+02  0.50342526565E+02  0.86009884950E+02  0.41800000000E+01 0. -1.
        -11    1    3    3    0    0  0.21053301204E+02 -0.39349645644E+02  0.72620188108E+02  0.85236892393E+02  0.00000000000E+00 0. -1.
         11    1    3    3    0    0  0.38784818262E+02 -0.69415928106E+02 -0.13573902239E+02  0.80666498774E+02  0.00000000000E+00 0.  1.
</event>
<event>
 8    1  0.9181008E-006  0.1180539E+03  0.7561462E-02  0.1246342E+00
         -1   -1    0    0    0  501 -0.00000000000E+00  0.00000000000E+00  0.98968009402E+02  0.98968009402E+02  0.00000000000E+00 0.  1.
          1   -1    0    0  501    0  0.00000000000E+00 -0.00000000000E+00 -0.20270389470E+03  0.20270389470E+03  0.00000000000E+00 0. -1.
         23    2    1    2    0    0  0.20806759087E+02 -0.74612166097E+02  0.10902342942E+01  0.12101745957E+03  0.92973869216E+02 0.  0.
         23    2    1    2    0    0 -0.20806759087E+02  0.74612166097E+02 -0.10482611959E+03  0.18065444453E+03  0.12509043299E+03 0.  0.
          5    1    4    4  502    0 -0.56208258132E+02 -0.19321166367E+01 -0.68513662511E+02  0.88739482237E+02  0.41800000000E+01 0.  1.
         -5    1    4    4    0  502  0.35401499046E+02  0.76544282734E+02 -0.36312457079E+02  0.91914962292E+02  0.41800000000E+01 0.  1.
        -11    1    3    3    0    0 -0.16478374082E+02 -0.66784842894E+01  0.32782864536E+02  0.37294170751E+02  0.00000000000E+00 0.  1.
         11    1    3    3    0    0  0.37285133169E+02 -0.67933681808E+02 -0.31692630242E+02  0.83723288821E+02  0.00000000000E+00 0. -1.
</event>
<event>
 8    1  0.9181008E-006  0.1272217E+03  0.7561462E-02  0.1231637E+00
         -1   -1    0    0    0  501 -0.00000000000E+00  0.00000000000E+00  0.24941542085E+02  0.24941542085E+02  0.00000000000E+00 0. -1.
          1   -1    0    0  501    0  0.00000000000E+00 -0.00000000000E+00 -0.90359308371E+03  0.90359308371E+03  0.00000000000E+00 0.  1.
         23    2    1    2    0    0 -0.43573636597E+02  0.71252451833E+02 -0.14848613159E+03  0.18303886895E+03  0.66929235555E+02 0.  0.
         23    2    1    2    0    0  0.43573636597E+02 -0.71252451833E+02 -0.73016541004E+03  0.74549575685E+03  0.12508726461E+03 0.  0.
          5    1    4    4  502    0  0.86255979239E+02 -0.51188981340E+02 -0.55698662967E+03  0.56596111509E+03  0.41800000000E+01 0. -1.
         -5    1    4    4    0  502 -0.42682342642E+02 -0.20063470494E+02 -0.17317878037E+03  0.17953464176E+03  0.41800000000E+01 0. -1.
        -11    1    3    3    0    0  0.75194134594E+01  0.51313098352E+02 -0.79263462743E+02  0.94722078563E+02  0.00000000000E+00 0.  1.
         11    1    3    3    0    0 -0.51093050056E+02  0.19939353482E+02 -0.69222668845E+02  0.88316790382E+02  0.00000000000E+00 0. -1.
</event>
<event>
 8    1  0.9181008E-006  0.1751340E+03  0.7561462E-02  0.1172597E+00
         -2   -1    0    0    0  501 -0.00000000000E+00  0.00000000000E+00  0.10444008161E+03  0.10444008161E+03  0.00000000000E+00 0.  1.
          2   -1    0    0  501    0  0.00000000000E+00 -0.00000000000E+00 -0.40563882378E+03  0.40563882378E+03  0.00000000000E+00 0. -1.
         23    2    1    2    0    0 -0.14842648322E+03 -0.56088808562E+02 -0.53164816614E+02  0.19015701983E+03  0.90315110011E+02 0.  0.
         23    2    1    2    0    0  0.14842648322E+03  0.56088808562E+02 -0.24803392556E+03  0.31992188557E+03  0.12511118762E+03 0.  0.
          5    1    4    4  502    0  0.15498319034E+03  0.54430908930E+02 -0.25878844018E+03  0.30654761833E+03  0.41800000000E+01 0.  1.
         -5    1    4    4    0  502 -0.65567071163E+01  0.16578996323E+01  0.10754514619E+02  0.13374267236E+02  0.41800000000E+01 0.  1.
        -11    1    3    3    0    0 -0.84313467899E+02  0.11205194106E+02 -0.43353224407E+01  0.85165205716E+02  0.00000000000E+00 0.  1.
         11    1    3    3    0    0 -0.64113015325E+02 -0.67294002669E+02 -0.48829494174E+02  0.10499181411E+03  0.00000000000E+00 0. -1.
</event>
<event>
 8    1  0.9181008E-006  0.1042131E+03  0.7561462E-02  0.1271678E+00
         -2   -1    0    0    0  501 -0.00000000000E+00  0.00000000000E+00  0.34911100569E+02  0.34911100569E+02  0.00000000000E+00 0.  1.
          2   -1    0    0  501    0  0.00000000000E+00 -0.00000000000E+00 -0.43620425619E+03  0.43620425619E+03  0.00000000000E+00 0. -1.
         23    2    1    2    0    0 -0.87871523535E+01  0.55539125900E+02 -0.21288521511E+03  0.23807490455E+03  0.90541354150E+02 0.  0.
         23    2    1    2    0    0  0.87871523535E+01 -0.55539125900E+02 -0.18840794051E+03  0.23304045221E+03  0.12509393177E+03 0.  0.
          5    1    4    4  502    0 -0.57363728614E+02 -0.16045407719E+02 -0.74840472976E+02  0.95742473671E+02  0.41800000000E+01 0.  1.
         -5    1    4    4    0  502  0.66150880967E+02 -0.39493718181E+02 -0.11356746754E+03  0.13729797854E+03  0.41800000000E+01 0.  1.
        -11    1    3    3    0    0  0.10190168308E+02  0.51049148537E+02 -0.21227436984E+03  0.21856409400E+03  0.00000000000E+00 0. -1.
         11    1    3    3    0    0 -0.18977320661E+02  0.44899773627E+01 -0.61084526955E+00  0.19510810546E+02  0.00000000000E+00 0.  1.
</event>
<event>
 8    1  0.9181008E-006  0.1009214E+03  0.7561462E-02  0.1278370E+00
          1   -1    0    0  501    0  0.00000000000E+00  0.00000000000E+00  0.42106000682E+03  0.42106000682E+03  0.00000000000E+00 0. -1.
         -1   -1    0    0    0  501 -0.00000000000E+00 -0.00000000000E+00 -0.63045621546E+02  0.63045621546E+02  0.00000000000E+00 0.  1.
         23    2    1    2    0    0 -0.23303563456E+02 -0.83095102842E+02  0.39927240893E+02  0.13158023475E+03  0.90946805473E+02 0.  0.
         23    2    1    2    0    0  0.23303563456E+02  0.83095102842E+02  0.31808714438E+03  0.35252539361E+03  0.12508744756E+03 0.  0.
          5    1    4    4  502    0  0.40059553679E+02  0.73812813012E+02  0.32177077963E+03  0.33257631640E+03  0.41800000000E+01 0.  1.
         -5    1    4    4    0  502 -0.16755990223E+02  0.92822898296E+01 -0.36836352551E+01  0.19949077210E+02  0.41800000000E+01 0.  1.
        -11    1    3    3    0    0  0.12332965612E+02 -0.71402831342E+01  0.45320005031E+02  0.47507773469E+02  0.00000000000E+00 0. -1.
         11    1    3    3    0    0 -0.35636529069E+02 -0.75954819708E+02 -0.53927641378E+01  0.84072461282E+02  0.00000000000E+00 0.  1.
</event>
<event>
 8    1  0.9181008E-006  0.2072228E+03  0.7561462E-02  0.1143784E+00
         -2   -1    0    0    0  501 -0.00000000000E+00  0.00000000000E+00  0.65479065735E+02  0.65479065735E+02  0.00000000000E+00 0.  1.
          2   -1    0    0  501    0  0.00000000000E+00 -0.00000000000E+00 -0.71590286111E+03  0.71590286111E+03  0.00000000000E+00 0. -1.
         23    2    1    2    0    0  0.17613730818E+03 -0.61619104867E+02 -0.32574016864E+03  0.38655442535E+03  0.92175923503E+02 0.  0.
         23    2    1    2    0    0 -0.17613730818E+03  0.61619104867E+02 -0.32468362673E+03  0.39482750149E+03  0.12509209828E+03 0.  0.
          5    1    4    4  502    0 -0.16024315846E+03  0.95048431864E+02 -0.25536951863E+03  0.31613784601E+03  0.41800000000E+01 0. -1.
         -5    1    4    4    0  502 -0.15894149720E+02 -0.33429326997E+02 -0.69314108101E+02  0.78689655487E+02  0.41800000000E+01 0. -1.
        -11    1    3    3    0    0  0.91634706539E+02 -0.53092724392E+02 -0.10117672995E+03  0.14646667713E+03  0.00000000000E+00 0.  1.
         11    1    3    3    0    0  0.84502601639E+02 -0.85263804754E+01 -0.22456343870E+03  0.24008774823E+03  0.00000000000E+00 0. -1.
</event>
<event>
 8    1  0.9181008E-006  0.8450075E+02  0.7561462E-02  0.1316743E+00
         -2   -1    0    0    0  501 -0.00000000000E+00  0.00000000000E+00  0.27548089536E+02  0.27548089536E+02  0.00000000000E+00 0.  1.
          2   -1    0    0  501    0  0.00000000000E+00 -0.00000000000E+00 -0.51212477983E+03  0.51212477983E+03  0.00000000000E+00 0. -1.
         23    2    1    2    0    0  0.11693638657E+02 -0.41053496095E+02 -0.16878882795E+03  0.19734053172E+03  0.92905792558E+02 0.  0.
         23    2    1    2    0    0 -0.11693638657E+02  0.41053496095E+02 -0.31578786234E+03  0.34233233765E+03  0.12508926681E+03 0.  0.
          5    1    4    4  502    0 -0.30378302553E+02  0.38957346145E+02 -0.31897895654E+03  0.32280886481E+03  0.41800000000E+01 0.  1.
         -5    1    4    4    0  502  0.18684663897E+02  0.20961499496E+01  0.31910941968E+01  0.19523472840E+02  0.41800000000E+01 0.  1.
        -11    1    3    3    0    0  0.38089286915E+02  0.12804571944E+02 -0.87816751938E+02  0.96573975590E+02  0.00000000000E+00 0.  1.
         11    1    3    3    0    0 -0.26395648258E+02 -0.53858068039E+02 -0.80972076013E+02  0.10076655613E+03  0.00000000000E+00 0. -1.
</event>
<event>
 8    1  0.9181008E-006  0.1556661E+03  0.7561462E-02  0.1193678E+00
         -1   -1    0    0    0  501 -0.00000000000E+00  0.00000000000E+00  0.40132831712E+02  0.40132831712E+02  0.00000000000E+00 0.  1.
          1   -1    0    0  501    0  0.00000000000E+00 -0.00000000000E+00 -0.76829576759E+03  0.76829576759E+03  0.00000000000E+00 0. -1.
         23    2    1    2    0    0  0.10983518891E+03 -0.74150554832E+02 -0.25918625188E+03  0.30528886377E+03  0.91987519101E+02 0.  0.
         23    2    1    2    0    0 -0.10983518891E+03  0.74150554832E+02 -0.46897668399E+03  0.50313973553E+03  0.12509352436E+03 0.  0.
          5    1    4    4  502    0 -0.10275464078E+03  0.12792339598E+02 -0.18085380699E+03  0.20844119568E+03  0.41800000000E+01 0. -1.
         -5    1    4    4    0  502 -0.70805481375E+01  0.61358215234E+02 -0.28812287701E+03  0.29469853986E+03  0.41800000000E+01 0. -1.
        -11    1    3    3    0    0  0.49730598364E+02  0.77818488507E+00 -0.15855079957E+03  0.16616887203E+03  0.00000000000E+00 0. -1.
         11    1    3    3    0    0  0.60104590551E+02 -0.74928739717E+02 -0.10063545231E+03  0.13911999174E+03  0.00000000000E+00 0.  1.
</event>
<event>
 8    1  0.9181008E-006  0.1226019E+03  0.7561462E-02  0.1238865E+00
         -4   -1    0    0    0  501 -0.00000000000E+00  0.00000000000E+00  0.56317364357E+02  0.56317364357E+02  0.00000000000E+00 0.  1.
          4   -1    0    0  501    0  0.00000000000E+00 -0.00000000000E+00 -0.36780684095E+03  0.36780684095E+03  0.00000000000E+00 0. -1.
         23    2    1    2    0    0 -0.15464453230E+02  0.88126675090E+02 -0.94040270908E+02  0.15778410421E+03  0.89703906343E+02 0.  0.
         23    2    1    2    0    0  0.15464453230E+02 -0.88126675090E+02 -0.21744920568E+03  0.26634010109E+03  0.12508969671E+03 0.  0.
          5    1    4    4  502    0 -0.39870841947E+02  0.90134051294E+01 -0.46678381027E+02  0.62187371426E+02  0.41800000000E+01 0. -1.
         -5    1    4    4    0  502  0.55335295177E+02 -0.97140080219E+02 -0.17077082465E+03  0.20415272967E+03  0.41800000000E+01 0. -1.
        -11    1    3    3    0    0 -0.18234558913E+02  0.39182126991E+02 -0.99478377923E+02  0.10846052687E+03  0.00000000000E+00 0. -1.
         11    1    3    3    0    0  0.27701056831E+01  0.48944548099E+02  0.54381070145E+01  0.49323577344E+02  0.00000000000E+00 0.  1.
</event>
<event>
 8    1  0.9181008E-006  0.6180644E+02  0.7561462E-02  0.1390404E+00
         -2   -1    0    0    0  501 -0.00000000000E+00  0.00000000000E+00  0.48073901788E+02  0.48073901788E+02  0.00000000000E+00 0.  1.
          2   -1    0    0  501    0  0.00000000000E+00 -0.00000000000E+00 -0.25817763975E+03  0.25817763975E+03  0.00000000000E+00 0. -1.
         23    2    1    2    0    0 -0.21113277845E+02  0.68548048549E+01 -0.75797495784E+02  0.12136916334E+03  0.92154514763E+02 0.  0.
         23    2    1    2    0    0  0.21113277845E+02 -0.68548048549E+01 -0.13430624218E+03  0.18488237820E+03  0.12510223112E+03 0.  0.
          5    1    4    4  502    0 -0.17979689553E+02 -0.17544335637E+02  0.15379876044E+02  0.29750393888E+02  0.41800000000E+01 0.  1.
         -5    1    4    4    0  502  0.39092967398E+02  0.10689530782E+02 -0.14968611822E+03  0.15513198431E+03  0.41800000000E+01 0.  1.
        -11    1    3    3    0    0  0.77919227675E+00  0.27381644603E+02 -0.85538301881E+02  0.89817385235E+02  0.00000000000E+00 0. -1.
         11    1    3    3    0    0 -0.21892470122E+02 -0.20526839748E+02  0.97408060967E+01  0.31551778103E+02  0.00000000000E+00 0.  1.
</event>
<event>
 8    1  0.9181008E-006  0.8548129E+02  0.7561462E-02  0.1314179E+00
         -1   -1    0    0    0  501 -0.00000000000E+00  0.00000000000E+00  0.11966821357E+03  0.11966821357E+03  0.00000000000E+00 0.  1.
          1   -1    0    0  501    0  0.00000000000E+00 -0.00000000000E+00 -0.12145963866E+03  0.12145963866E+03  0.00000000000E+00 0. -1.
         23    2    1    2    0    0  0.16424241929E+02  0.14706510740E+02  0.48417808068E+02  0.10454529490E+03  0.89996651968E+02 0.  0.
         23    2    1    2    0    0 -0.16424241929E+02 -0.14706510740E+02 -0.50209233157E+02  0.13658255733E+03  0.12509112955E+03 0.  0.
          5    1    4    4  502    0 -0.55192812696E+02 -0.22425503512E+02 -0.70135863646E+02  0.92117650591E+02  0.41800000000E+01 0. -1.
         -5    1    4    4    0  502  0.38768570767E+02  0.77189927715E+01  0.19926630490E+02  0.44464906740E+02  0.41800000000E+01 0. -1.
        -11    1    3    3    0    0  0.42907013129E+02  0.46286462333E+01  0.60021641262E+02  0.73925865307E+02  0.00000000000E+00 0.  1.
         11    1    3    3    0    0 -0.26482771200E+02  0.10077864507E+02 -0.11603833194E+02  0.30619429588E+02  0.00000000000E+00 0. -1.
</event>
<event>
 8    1  0.9181008E-006  0.1950437E+03  0.7561462E-02  0.1153989E+00
         -2   -1    0    0    0  501 -0.00000000000E+00  0.00000000000E+00  0.38049660974E+02  0.38049660974E+02  0.00000000000E+00 0.  1.
          2   -1    0    0  501    0  0.00000000000E+00 -0.00000000000E+00 -0.10694867998E+04  0.10694867998E+04  0.00000000000E+00 0. -1.
         23    2    1    2    0    0  0.10563950459E+03 -0.12469725860E+03 -0.35740661982E+03  0.40278517467E+03  0.88245644720E+02 0.  0.
         23    2    1    2    0    0 -0.10563950459E+03  0.12469725860E+03 -0.67403051904E+03  0.70475128613E+03  0.12509245972E+03 0.  0.
          5    1    4    4  502    0 -0.88847792164E+02  0.10893036154E+02 -0.33134701545E+03  0.34325049957E+03  0.41800000000E+01 0.  1.
         -5    1    4    4    0  502 -0.16791712427E+02  0.11380422245E+03 -0.34268350359E+03  0.36150078656E+03  0.41800000000E+01 0.  1.
        -11    1    3    3    0    0  0.92217590458E+00 -0.64641754439E+02 -0.11279005903E+03  0.13000386241E+03  0.00000000000E+00 0.  1.
         11    1    3    3    0    0  0.10471732869E+03 -0.60055504161E+02 -0.24461656079E+03  0.27278131226E+03  0.00000000000E+00 0. -1.
</event>
<event>
 8    1  0.9181008E-006  0.9940335E+02  0.7561462E-02  0.1281556E+00
          1   -1    0    0  501    0  0.00000000000E+00  0.00000000000E+00  0.17480449944E+03  0.17480449944E+03  0.00000000000E+00 0. -1.
         -1   -1    0    0    0  501 -0.00000000000E+00 -0.00000000000E+00 -0.83699972818E+02  0.83699972818E+02  0.00000000000E+00 0.  1.
         23    2    1    2    0    0 -0.17812980866E+01 -0.44483945897E+02  0.81814007665E+01  0.10196188561E+03  0.91363539411E+02 0.  0.
         23    2    1    2    0    0  0.17812980866E+01  0.44483945897E+02  0.82923125852E+02  0.15654258664E+03  0.12508933674E+03 0.  0.
          5    1    4    4  502    0 -0.43150977039E+02  0.48199290452E+02  0.32588430898E+01  0.64909713278E+02  0.41800000000E+01 0. -1.
         -5    1    4    4    0  502  0.44932275126E+02 -0.37153445546E+01  0.79664282762E+02  0.91632873365E+02  0.41800000000E+01 0. -1.
        -11    1    3    3    0    0  0.36993116346E+02 -0.14700245381E+02  0.28559496167E+02  0.48992169706E+02  0.00000000000E+00 0. -1.
         11    1    3    3    0    0 -0.38774414432E+02 -0.29783700516E+02 -0.20378095400E+02  0.52969715906E+02  0.00000000000E+00 0.  1.
</event>
<event>
 7    1  0.9181008E-006  0.1787866E+03  0.7561462E-02  0.1168983E+00
         -2   -1    0    0    0  501 -0.00000000000E+00  0.00000000000E+00  0.62300633276E+03  0.62300633276E+03  0.00000000000E+00 0.  1.
          2   -1    0    0  501    0  0.00000000000E+00 -0.00000000000E+00 -0.58097658852E+02  0.58097658852E+02  0.00000000000E+00 0. -1.
         23    2    1    2    0    0  0.52190563024E+02 -0.12477959150E+03  0.32947522593E+03  0.36753169496E+03  0.90729383201E+02 0.  0.
          5    1    1    2  502    0 -0.90799216061E+02  0.13089406672E+03  0.21928065844E+03  0.27107053308E+03  0.41800000000E+01 0. -1.
         -5    1    1    2    0  502  0.38608653038E+02 -0.61144752200E+01  0.16152789538E+02  0.42501763569E+02  0.41800000000E+01 0.  1.
        -11    1    3    3    0    0 -0.21533958712E+02 -0.13499340972E+02  0.27935148257E+02  0.37766600226E+02  0.00000000000E+00 0. -1.
         11    1    3    3    0    0  0.73724521736E+02 -0.11128025053E+03  0.30154007768E+03  0.32976509474E+03  0.00000000000E+00 0.  1.
</event>
<event>
 8    1  0.9181008E-006  0.1067677E+03  0.7561462E-02  0.1266676E+00
          2   -1    0    0  501    0  0.00000000000E+00  0.00000000000E+00  0.11430615472E+03  0.11430615472E+03  0.00000000000E+00 0.  1.
         -2   -1    0    0    0  501 -0.00000000000E+00 -0.00000000000E+00 -0.11414968786E+03  0.11414968786E+03  0.00000000000E+00 0. -1.
         23    2    1    2    0    0  0.11244741876E+02 -0.33741338385E+02 -0.22490548717E+02  0.96453386053E+02  0.86790026867E+02 0.  0.
         23    2    1    2    0    0 -0.11244741876E+02  0.33741338385E+02  0.22647015581E+02  0.13200245653E+03  0.12508732582E+03 0.  0.
          5    1    4    4  502    0  0.16151307372E+02 -0.44121483584E+02  0.11991709908E+02  0.48670766893E+02  0.41800000000E+01 0. -1.
         -5    1    4    4    0  502 -0.27396049248E+02  0.77862821968E+02  0.10655305674E+02  0.83331689640E+02  0.41800000000E+01 0. -1.
        -11    1    3    3    0    0 -0.22180237251E+02 -0.43558428601E+02 -0.34249791208E+02  0.59685407132E+02  0.00000000000E+00 0. -1.
         11    1    3    3    0    0  0.33424979127E+02  0.98170902165E+01  0.11759242491E+02  0.36767978921E+02  0.00000000000E+00 0.  1.
</event>
<event>
 8    1  0.9181008E-006  0.1273831E+03  0.7561462E-02  0.1231391E+00
          1   -1    0    0  501    0  0.00000000000E+00  0.00000000000E+00  0.18021849005E+03  0.18021849005E+03  0.00000000000E+00 0. -1.
         -1   -1    0    0    0  501 -0.00000000000E+00 -0.00000000000E+00 -0.12792215920E+03  0.12792215920E+03  0.00000000000E+00 0.  1.
         23    2    1    2    0    0  0.72804465655E+02  0.53873001182E+02 -0.32067353964E+02  0.13216201690E+03  0.90750719254E+02 0.  0.
         23    2    1    2    0    0 -0.72804465655E+02 -0.53873001182E+02  0.84363684813E+02  0.17597863234E+03  0.12509379381E+03 0.  0.
          5    1    4    4  502    0 -0.18585157850E+02  0.26729694692E+02 -0.15761470181E+02  0.36411275903E+02  0.41800000000E+01 0. -1.
         -5    1    4    4    0  502 -0.54219307806E+02 -0.80602695874E+02  0.10012515499E+03  0.13956735644E+03  0.41800000000E+01 0. -1.
        -11    1    3    3    0    0  0.66716988516E+02  0.76368592311E+02 -0.37697337218E+02  0.10818691086E+03  0.00000000000E+00 0.  1.
         11    1    3    3    0    0  0.60874771393E+01 -0.22495591129E+02  0.56299832541E+01  0.23975106040E+02  0.00000000000E+00 0. -1.
</event>
<event>
 8    1  0.9181008E-006  0.1082610E+03  0.7561462E-02  0.1263825E+00
         -2   -1    0    0    0  501 -0.00000000000E+00  0.00000000000E+00  0.27645190900E+02  0.27645190900E+02  0.00000000000E+00 0. -1.
          2   -1    0    0  501    0  0.00000000000E+00 -0.00000000000E+00 -0.44719181479E+03  0.44719181479E+03  0.00000000000E+00 0.  1.
         23    2    1    2    0    0 -0.13966882467E+01  0.92252320764E+01 -0.13678546888E+03  0.16549979433E+03  0.92697690269E+02 0.  0.
         23    2    1    2    0    0  0.13966882467E+01 -0.92252320764E+01 -0.28276115501E+03  0.30933721136E+03  0.12509430005E+03 0.  0.
          5    1    4    4  502    0 -0.33243794029E+02 -0.56892547608E+02 -0.13777891972E+03  0.15278224679E+03  0.41800000000E+01 0.  1.
         -5    1    4    4    0  502  0.34640482276E+02  0.47667315532E+02 -0.14498223529E+03  0.15655496457E+03  0.41800000000E+01 0.  1.
        -11    1    3    3    0    0  0.43330235228E+02  0.15992610409E+02 -0.53148518951E+02  0.70413336374E+02  0.00000000000E+00 0.  1.
         11    1    3    3    0    0 -0.44726923475E+02 -0.67673783328E+01 -0.83636949930E+02  0.95086457956E+02  0.00000000000E+00 0. -1.
</event>
<event>
 8    1  0.9181008E-006  0.1067097E+03  0.7561462E-02  0.1266787E+00
         -1   -1    0    0    0  501 -0.00000000000E+00  0.00000000000E+00  0.22618706517E+02  0.22618706517E+02  0.00000000000E+00 0.  1.
          1   -1    0    0  501    0  0.00000000000E+00 -0.00000000000E+00 -0.82477902208E+03  0.82477902208E+03  0.00000000000E+00 0. -1.
         23    2    1    2    0    0  0.34143678199E+01 -0.14201978691E+02 -0.12369849779E+03  0.15734563909E+03  0.96140406069E+02 0.  0.
         23    2    1    2    0    0 -0.34143678199E+01  0.14201978691E+02 -0.67846181777E+03  0.69005208951E+03  0.12509234169E+03 0.  0.
          5    1    4    4  502    0  0.59451859306E+02  0.13441106536E+02 -0.27544063886E+03  0.28213508263E+03  0.41800000000E+01 0.  1.
         -5    1    4    4    0  502 -0.62866227126E+02  0.76087215454E+00 -0.40302117892E+03  0.40791700687E+03  0.41800000000E+01 0.  1.
        -11    1    3    3    0    0  0.44381951242E+02  0.38440529092E+01 -0.30605377285E+02  0.54048343708E+02  0.00000000000E+00 0.  1.
         11    1    3    3    0    0 -0.40967583422E+02 -0.18046031600E+02 -0.93093120507E+02  0.10329729538E+03  0.00000000000E+00 0. -1.
</event>
<event>
 8    1  0.9181008E-006  0.4735516E+02  0.7561462E-02  0.1460153E+00
          1   -1    0    0  501    0  0.00000000000E+00  0.00000000000E+00  0.99392034433E+02  0.99392034433E+02  0.00000000000E+00 0. -1.
         -1   -1    0    0    0  501 -0.00000000000E+00 -0.00000000000E+00 -0.10814562932E+03  0.10814562932E+03  0.00000000000E+00 0.  1.
         23    2    1    2    0    0  0.12438762681E+02  0.22261103460E+02  0.16537686600E+02  0.90361019520E+02  0.85096058818E+02 0.  0.
         23    2    1    2    0    0 -0.12438762681E+02 -0.22261103460E+02 -0.25291281483E+02  0.11717664423E+03  0.11153670916E+03 0.  0.
          5    1    4    4  502    0  0.29103330347E+01 -0.86043277865E+01  0.43824585632E+02  0.44950764185E+02  0.41800000000E+01 0. -1.
         -5    1    4    4    0  502 -0.15349095716E+02 -0.13656775674E+02 -0.69115867115E+02  0.72225880044E+02  0.41800000000E+01 0.  1.
        -11    1    3    3    0    0 -0.19860729816E+02 -0.60844892404E+01 -0.23682950619E+02  0.31501615009E+02  0.00000000000E+00 0. -1.
         11    1    3    3    0    0  0.32299492498E+02  0.28345592701E+02  0.40220637219E+02  0.58859404511E+02  0.00000000000E+00 0.  1.
</event>
<event>
 8    1  0.9181008E-006  0.1194469E+03  0.7561462E-02  0.1244012E+00
          2   -1    0    0  501    0  0.00000000000E+00  0.00000000000E+00  0.10948368936E+04  0.10948368936E+04  0.00000000000E+00 0. -1.
         -2   -1    0    0    0  501 -0.00000000000E+00 -0.00000000000E+00 -0.20877009314E+02  0.20877009314E+02  0.00000000000E+00 0.  1.
         23    2    1    2    0    0  0.44110903894E+02 -0.90225134239E+02  0.38391225791E+03  0.40726510227E+03  0.91596370354E+02 0.  0.
         23    2    1    2    0    0 -0.44110903894E+02  0.90225134239E+02  0.69004762640E+03  0.70844880067E+03  0.12509048637E+03 0.  0.
          5    1    4    4  502    0 -0.10402433428E+02  0.66866787522E+01  0.53555250147E+00  0.13064513402E+02  0.41800000000E+01 0. -1.
         -5    1    4    4    0  502 -0.33708470466E+02  0.83538455487E+02  0.68951207390E+03  0.69538428727E+03  0.41800000000E+01 0. -1.
        -11    1    3    3    0    0  0.36674400692E+02  0.76827872798E+01  0.11778869203E+03  0.12360506809E+03  0.00000000000E+00 0.  1.
         11    1    3    3    0    0  0.74365032021E+01 -0.97907921519E+02  0.26612356588E+03  0.28366003418E+03  0.00000000000E+00 0. -1.
</event>
<event>
 8    1  0.1433238E-005  0.2094653E+03  0.7561462E-02  0.1141990E+00
         -2   -1    0    0    0  501 -0.00000000000E+00  0.00000000000E+00  0.25262844187E+02  0.25262844187E+02  0.00000000000E+00 0.  1.
          2   -1    0    0  501    0  0.00000000000E+00 -0.00000000000E+00 -0.19387852084E+04  0.19387852084E+04  0.00000000000E+00 0. -1.
         23    2    1    2    0    0 -0.18729764420E+03 -0.27165323754E+02 -0.77240780174E+03  0.80060142251E+03  0.92360506716E+02 0.  0.
         23    2    1    2    0    0  0.18729764420E+03  0.27165323754E+02 -0.11411145625E+04  0.11634466301E+04  0.12508898438E+03 0.  0.
          5    1    4    4  502    0  0.10034071826E+03 -0.29252380250E+02 -0.34234369823E+03  0.35796737506E+03  0.41800000000E+01 0. -1.
         -5    1    4    4    0  502  0.86956925934E+02  0.56417704003E+02 -0.79877086428E+03  0.80547925505E+03  0.41800000000E+01 0. -1.
        -11    1    3    3    0    0 -0.11790021788E+03  0.28881331946E+02 -0.44701860713E+03  0.46320646350E+03  0.00000000000E+00 0. -1.
         11    1    3    3    0    0 -0.69397426322E+02 -0.56046655699E+02 -0.32538919460E+03  0.33739495900E+03  0.00000000000E+00 0.  1.
</event>
<event>
 8    1  0.9181008E-006  0.1301434E+03  0.7561462E-02  0.1227243E+00
         -1   -1    0    0    0  501 -0.00000000000E+00  0.00000000000E+00  0.61006258261E+02  0.61006258261E+02  0.00000000000E+00 0.  1.
          1   -1    0    0  501    0  0.00000000000E+00 -0.00000000000E+00 -0.42871109946E+03  0.42871109946E+03  0.00000000000E+00 0. -1.
         23    2    1    2    0    0 -0.79612390314E+02 -0.46865519013E+02 -0.52551353663E+02  0.13828769946E+03  0.88472218720E+02 0.  0.
         23    2    1    2    0    0  0.79612390314E+02  0.46865519013E+02 -0.31515348754E+03  0.35142965827E+03  0.12508626799E+03 0.  0.
          5    1    4    4  502    0 -0.24693405453E+02  0.36333969081E+02 -0.52421826182E+02  0.68523294159E+02  0.41800000000E+01 0.  1.
         -5    1    4    4    0  502  0.10430579577E+03  0.10531549932E+02 -0.26273166136E+03  0.28290636411E+03  0.41800000000E+01 0.  1.
        -11    1    3    3    0    0 -0.27258756915E+01 -0.32998692022E+02  0.13718075789E+02  0.35840335891E+02  0.00000000000E+00 0. -1.
         11    1    3    3    0    0 -0.76886514623E+02 -0.13866826992E+02 -0.66269429452E+02  0.10244736357E+03  0.00000000000E+00 0.  1.
</event>
<event>
 8    1  0.9181008E-006  0.1713739E+03  0.7561462E-02  0.1176423E+00
          1   -1    0    0  501    0  0.00000000000E+00  0.00000000000E+00  0.17821669360E+03  0.17821669360E+03  0.00000000000E+00 0. -1.
         -1   -1    0    0    0  501 -0.00000000000E+00 -0.00000000000E+00 -0.21128250242E+03  0.21128250242E+03  0.00000000000E+00 0.  1.
         23    2    1    2    0    0  0.15497691891E+03 -0.18304308953E+02 -0.53769496453E+02  0.18842702025E+03  0.90888338573E+02 0.  0.
         23    2    1    2    0    0 -0.15497691891E+03  0.18304308953E+02  0.20703687636E+02  0.20107217577E+03  0.12509390099E+03 0.  0.
          5    1    4    4  502    0 -0.33740237331E+02 -0.15577122528E+02  0.58623937606E+02  0.69536241068E+02  0.41800000000E+01 0.  1.
         -5    1    4    4    0  502 -0.12123668158E+03  0.33881431481E+02 -0.37920249971E+02  0.13153593470E+03  0.41800000000E+01 0.  1.
        -11    1    3    3    0    0  0.59059101149E+02 -0.51031088214E+02 -0.34159939102E+02  0.85200063569E+02  0.00000000000E+00 0.  1.
         11    1    3    3    0    0  0.95917817765E+02  0.32726779261E+02 -0.19609557351E+02  0.10322695668E+03  0.00000000000E+00 0. -1.
</event>
<event>
 8    1  0.9181008E-006  0.1366451E+03  0.7561462E-02  0.1217916E+00
          1   -1    0    0  501    0  0.00000000000E+00  0.00000000000E+00  0.26089566909E+03  0.26089566909E+03  0.00000000000E+00 0. -1.
         -1   -1    0    0    0  501 -0.00000000000E+00 -0.00000000000E+00 -0.90709086125E+02  0.90709086125E+02  0.00000000000E+00 0.  1.
         23    2    1    2    0    0  0.39527156898E+02 -0.98756483277E+02  0.52260972071E+02  0.14944643477E+03  0.91037292035E+02 0.  0.
         23    2    1    2    0    0 -0.39527156898E+02  0.98756483277E+02  0.11792561090E+03  0.20215832045E+03  0.12508516179E+03 0.  0.
          5    1    4    4  502    0  0.21431353870E+02  0.92183554703E+02  0.10087032313E+03  0.13838137583E+03  0.41800000000E+01 0. -1.
         -5    1    4    4    0  502 -0.60958510768E+02  0.65729285739E+01  0.17055287764E+02  0.63776944626E+02  0.41800000000E+01 0. -1.
        -11    1    3    3    0    0 -0.83049388845E+01 -0.42297108135E+02 -0.18642057771E+02  0.46963216291E+02  0.00000000000E+00 0.  1.
         11    1    3    3    0    0  0.47832095782E+02 -0.56459375142E+02  0.70903029842E+02  0.10248321848E+03  0.00000000000E+00 0. -1.
</event>
<event>
 8    1  0.9181008E-006  0.1053169E+03  0.7561462E-02  0.1269496E+00
         -1   -1    0    0    0  501 -0.00000000000E+00  0.00000000000E+00  0.12825002261E+02  0.12825002261E+02  0.00000000000E+00 0.  1.
          1   -1    0    0  501    0  0.00000000000E+00 -0.00000000000E+00 -0.11055411209E+04  0.11055411209E+04  0.00000000000E+00 0. -1.
         23    2    1    2    0    0 -0.15434533931E+02 -0.45042831607E+02 -0.38698563422E+03  0.40053271047E+03  0.91659639650E+02 0.  0.
         23    2    1    2    0    0  0.15434533931E+02  0.45042831607E+02 -0.70573048441E+03  0.71783341269E+03  0.12232011376E+03 0.  0.
          5    1    4    4  502    0 -0.43191802123E+02  0.29535871973E+02 -0.51458373165E+03  0.51725408533E+03  0.41800000000E+01 0. -1.
         -5    1    4    4    0  502  0.58626336054E+02  0.15506959634E+02 -0.19114675276E+03  0.20057932737E+03  0.41800000000E+01 0.  1.
        -11    1    3    3    0    0  0.35005855782E+02 -0.11778178169E+02 -0.86876619738E+02  0.94401708020E+02  0.00000000000E+00 0.  1.
         11    1    3    3    0    0 -0.50440389713E+02 -0.33264653438E+02 -0.30010901449E+03  0.30613100245E+03  0.00000000000E+00 0. -1.
</event>
<event>
 8    1  0.9181008E-006  0.1036382E+03  0.7561462E-02  0.1272826E+00
          4   -1    0    0  501    0  0.00000000000E+00  0.00000000000E+00  0.86972973809E+02  0.86972973809E+02  0.00000000000E+00 0. -1.
         -4   -1    0    0    0  501 -0.00000000000E+00 -0.00000000000E+00 -0.22993866980E+03  0.22993866980E+03  0.00000000000E+00 0.  1.
         23    2    1    2    0    0 -0.63826850405E+01 -0.29441281286E+02 -0.16056185901E+03  0.18704643130E+03  0.91097361004E+02 0.  0.
         23    2    1    2    0    0  0.63826850405E+01  0.29441281286E+02  0.17596163017E+02  0.12986521231E+03  0.12509124951E+03 0.  0.
          5    1    4    4  502    0  0.41876593263E+02 -0.34042904905E+02  0.17896995322E+02  0.57011781934E+02  0.41800000000E+01 0.  1.
         -5    1    4    4    0  502 -0.35493908223E+02  0.63484186191E+02 -0.30083230544E+00  0.72853430375E+02  0.41800000000E+01 0.  1.
        -11    1    3    3    0    0 -0.33177036246E+02  0.81186708215E+01 -0.21092474836E+02  0.40143754741E+02  0.00000000000E+00 0. -1.
         11    1    3    3    0    0  0.26794351206E+02 -0.37559952108E+02 -0.13946938417E+03  0.14690267656E+03  0.00000000000E+00 0.  1.
</event>
<event>
 8    1  0.9181008E-006  0.1251198E+03  0.7561462E-02  0.1234882E+00
          2   -1    0    0  501    0  0.00000000000E+00  0.00000000000E+00  0.12202610566E+04  0.12202610566E+04  0.00000000000E+00 0. -1.
         -2   -1    0    0    0  501 -0.00000000000E+00 -0.00000000000E+00 -0.15914570469E+02  0.15914570469E+02  0.00000000000E+00 0.  1.
         23    2    1    2    0    0  0.53653819302E+02  0.45291264009E+02  0.31543091671E+03  0.33576114946E+03  0.91152922887E+02 0.  0.
         23    2    1    2    0    0 -0.53653819302E+02 -0.45291264009E+02  0.88891556939E+03  0.90041447757E+03  0.12508121763E+03 0.  0.
          5    1    4    4  502    0  0.33387868019E+02  0.10305461359E+02  0.34287456866E+03  0.34467578171E+03  0.41800000000E+01 0.  1.
         -5    1    4    4    0  502 -0.87041687321E+02 -0.55596725368E+02  0.54604100073E+03  0.55573869587E+03  0.41800000000E+01 0.  1.
        -11    1    3    3    0    0 -0.12272337471E+02 -0.17009786838E+02  0.97064255292E+02  0.99304646269E+02  0.00000000000E+00 0. -1.
         11    1    3    3    0    0  0.65926156773E+02  0.62301050848E+02  0.21836666142E+03  0.23645650319E+03  0.00000000000E+00 0.  1.
</event>
<event>
 8    1  0.9181008E-006  0.8467592E+02  0.7561462E-02  0.1316282E+00
         -1   -1    0    0    0  501 -0.00000000000E+00  0.00000000000E+00  0.19810673385E+02  0.19810673385E+02  0.00000000000E+00 0.  1.
          1   -1    0    0  501    0  0.00000000000E+00 -0.00000000000E+00 -0.73777264054E+03  0.73777264054E+03  0.00000000000E+00 0. -1.
         23    2    1    2    0    0  0.10553406008E+01  0.35350105379E+02 -0.19650609212E+03  0.22016915052E+03  0.92785057566E+02 0.  0.
         23    2    1    2    0    0 -0.10553406008E+01 -0.35350105379E+02 -0.52145587504E+03  0.53741416340E+03  0.12508800790E+03 0.  0.
          5    1    4    4  502    0 -0.21535926460E+02  0.81905485920E+01 -0.13224755191E+02  0.26893266157E+02  0.41800000000E+01 0. -1.
         -5    1    4    4    0  502  0.20480585859E+02 -0.43540653971E+02 -0.50823111984E+03  0.51052089725E+03  0.41800000000E+01 0. -1.
        -11    1    3    3    0    0  0.24525488544E+01  0.66455103036E+02 -0.15139036938E+03  0.16535216859E+03  0.00000000000E+00 0. -1.
         11    1    3    3    0    0 -0.13972082536E+01 -0.31104997657E+02 -0.45115722734E+02  0.54816981930E+02  0.00000000000E+00 0.  1.
</event>
<event>
 8    1  0.9181008E-006  0.1472593E+03  0.7561462E-02  0.1203882E+00
          1   -1    0    0  501    0  0.00000000000E+00  0.00000000000E+00  0.12871250616E+04  0.12871250616E+04  0.00000000000E+00 0. -1.
         -1   -1    0    0    0  501 -0.00000000000E+00 -0.00000000000E+00 -0.19856666146E+02  0.19856666146E+02  0.00000000000E+00 0.  1.
         23    2    1    2    0    0  0.95219798942E+02 -0.62079189482E+02  0.47203331356E+03  0.49398327712E+03  0.91013147886E+02 0.  0.
         23    2    1    2    0    0 -0.95219798942E+02  0.62079189482E+02  0.79523508192E+03  0.81299845065E+03  0.12508800648E+03 0.  0.
          5    1    4    4  502    0  0.29587539665E+02  0.36977185896E+01  0.11072491618E+03  0.11474569748E+03  0.41800000000E+01 0. -1.
         -5    1    4    4    0  502 -0.12480733861E+03  0.58381470892E+02  0.68451016574E+03  0.69825275317E+03  0.41800000000E+01 0. -1.
        -11    1    3    3    0    0  0.25424167118E+02 -0.49487860239E+02  0.92999751744E+02  0.10837153874E+03  0.00000000000E+00 0.  1.
         11    1    3    3    0    0  0.69795631825E+02 -0.12591329242E+02  0.37903356182E+03  0.38561173838E+03  0.00000000000E+00 0. -1.
</event>
<event>
 8    1  0.9181008E-006  0.1534506E+03  0.7561462E-02  0.1196296E+00
          1   -1    0    0  501    0  0.00000000000E+00  0.00000000000E+00  0.53768465296E+03  0.53768465296E+03  0.00000000000E+00 0. -1.
         -1   -1    0    0    0  501 -0.00000000000E+00 -0.00000000000E+00 -0.53821368264E+02  0.53821368264E+02  0.00000000000E+00 0.  1.
         23    2    1    2    0    0  0.13593322484E+02  0.13148424671E+03  0.22590916924E+03  0.27580931949E+03  0.86965179362E+02 0.  0.
         23    2    1    2    0    0 -0.13593322484E+02 -0.13148424671E+03  0.25795411546E+03  0.31569670174E+03  0.12510474115E+03 0.  0.
          5    1    4    4  502    0  0.16711062292E+02 -0.13774892448E+03  0.24559395412E+03  0.28211325474E+03  0.41800000000E+01 0. -1.
         -5    1    4    4    0  502 -0.30304384776E+02  0.62646777699E+01  0.12360161339E+02  0.33583447002E+02  0.41800000000E+01 0. -1.
        -11    1    3    3    0    0  0.23478962183E+02  0.55976649597E+02  0.34528933904E+02  0.69834763849E+02  0.00000000000E+00 0.  1.
         11    1    3    3    0    0 -0.98856396990E+01  0.75507597111E+02  0.19138023533E+03  0.20597455564E+03  0.00000000000E+00 0. -1.
</event>
<event>
 8    1  0.9181008E-006  0.1606194E+03  0.7561462E-02  0.1187999E+00
          1   -1    0    0  501    0  0.00000000000E+00  0.00000000000E+00  0.11976279854E+03  0.11976279854E+03  0.00000000000E+00 0. -1.
         -1   -1    0    0    0  501 -0.00000000000E+00 -0.00000000000E+00 -0.28709018972E+03  0.28709018972E+03  0.00000000000E+00 0.  1.
         23    2    1    2    0    0  0.60082068309E+01 -0.13800980173E+03 -0.14799276497E+03  0.21949220195E+03  0.84806628931E+02 0.  0.
         23    2    1    2    0    0 -0.60082068309E+01  0.13800980173E+03 -0.19334626213E+02  0.18736078631E+03  0.12508969802E+03 0.  0.
          5    1    4    4  502    0  0.41352888177E+02  0.62054626221E+01  0.12158088224E+02  0.43747692925E+02  0.41800000000E+01 0. -1.
         -5    1    4    4    0  502 -0.47361095008E+02  0.13180433911E+03 -0.31492714437E+02  0.14361309339E+03  0.41800000000E+01 0. -1.
        -11    1    3    3    0    0  0.90574828647E+01 -0.38911309009E+02  0.16495019334E+01  0.39985607676E+02  0.00000000000E+00 0. -1.
         11    1    3    3    0    0 -0.30492760338E+01 -0.99098492726E+02 -0.14964226690E+03  0.17950659428E+03  0.00000000000E+00 0.  1.
</event>
<event>
 8    1  0.9181008E-006  0.1326618E+03  0.7561462E-02  0.1223559E+00
         -2   -1    0    0    0  501 -0.00000000000E+00  0.00000000000E+00  0.44100020622E+02  0.44100020622E+02  0.00000000000E+00 0.  1.
          2   -1    0    0  501    0  0.00000000000E+00 -0.00000000000E+00 -0.57782842147E+03  0.57782842147E+03  0.00000000000E+00 0. -1.
         23    2    1    2    0    0 -0.57702828188E+02  0.89587926993E+02 -0.14039978746E+03  0.19845243533E+03  0.91190217264E+02 0.  0.
         23    2    1    2    0    0  0.57702828188E+02 -0.89587926993E+02 -0.39332861339E+03  0.42347600677E+03  0.11519078588E+03 0.  0.
          5    1    4    4  502    0  0.90366354024E+02 -0.84059569831E+02 -0.30553041133E+03  0.32954270416E+03  0.41800000000E+01 0. -1.
         -5    1    4    4    0  502 -0.32663525836E+02 -0.55283571626E+01 -0.87798202064E+02  0.93933302607E+02  0.41800000000E+01 0.  1.
        -11    1    3    3    0    0 -0.35772647038E+02  0.71756797622E+02 -0.31834055796E+02  0.86267765646E+02  0.00000000000E+00 0.  1.
         11    1    3    3    0    0 -0.21930181150E+02  0.17831129371E+02 -0.10856573166E+03  0.11218466968E+03  0.00000000000E+00 0. -1.
</event>
<event>
 8    1  0.9181008E-006  0.1004285E+03  0.7561462E-02  0.1279397E+00
         -2   -1    0    0    0  501 -0.00000000000E+00  0.00000000000E+00  0.39008604463E+02  0.39008604463E+02  0.00000000000E+00 0.  1.
          2   -1    0    0  501    0  0.00000000000E+00 -0.00000000000E+00 -0.87331536939E+03  0.87331536939E+03  0.00000000000E+00 0. -1.
         23    2    1    2    0    0  0.78714455717E+02 -0.57589543218E+01 -0.82200504642E+02  0.14581256935E+03  0.90968408387E+02 0.  0.
         23    2    1    2    0    0 -0.78714455717E+02  0.57589543218E+01 -0.75210626028E+03  0.76651140449E+03  0.12508707117E+03 0.  0.
          5    1    4    4  502    0 -0.84815931148E+02  0.30580942602E+01 -0.75370258234E+03  0.75847752053E+03  0.41800000000E+01 0. -1.
         -5    1    4    4    0  502  0.61014754311E+01  0.27008600616E+01  0.15963220590E+01  0.80338839688E+01  0.41800000000E+01 0. -1.
        -11    1    3    3    0    0  0.75687586057E+01 -0.31464670611E+02  0.22439654817E+01  0.32439898035E+02  0.00000000000E+00 0. -1.
         11    1    3    3    0    0  0.71145697112E+02  0.25705716289E+02 -0.84444470124E+02  0.11337267132E+03  0.00000000000E+00 0.  1.
</event>
<event>
 8    1  0.9181008E-006  0.8780165E+02  0.7561462E-02  0.1308264E+00
         -1   -1    0    0    0  501 -0.00000000000E+00  0.00000000000E+00  0.34819728550E+02  0.34819728550E+02  0.00000000000E+00 0. -1.
          1   -1    0    0  501    0  0.00000000000E+00 -0.00000000000E+00 -0.42347321401E+03  0.42347321401E+03  0.00000000000E+00 0.  1.
         23    2    1    2    0    0  0.39218820681E+02 -0.90659926930E+01 -0.90006106476E+02  0.13201478075E+03  0.87786644847E+02 0.  0.
         23    2    1    2    0    0 -0.39218820681E+02  0.90659926930E+01 -0.29864737898E+03  0.32627816181E+03  0.12508746453E+03 0.  0.
          5    1    4    4  502    0  0.34485030589E+02 -0.93058276443E+01 -0.29280286880E+02  0.46374813883E+02  0.41800000000E+01 0. -1.
         -5    1    4    4    0  502 -0.73703851270E+02  0.18371820337E+02 -0.26936709210E+03  0.27990334793E+03  0.41800000000E+01 0. -1.
        -11    1    3    3    0    0 -0.91151246283E+01 -0.12086979782E+02 -0.81439572170E+02  0.82834681700E+02  0.00000000000E+00 0.  1.
         11    1    3    3    0    0  0.48333945309E+02  0.30209870887E+01 -0.85665343060E+01  0.49180099046E+02  0.00000000000E+00 0. -1.
</event>
<event>
 8    1  0.9181008E-006  0.1421887E+03  0.7561462E-02  0.1210414E+00
          1   -1    0    0  501    0  0.00000000000E+00  0.00000000000E+00  0.82508329351E+02  0.82508329351E+02  0.00000000000E+00 0. -1.
         -1   -1    0    0    0  501 -0.00000000000E+00 -0.00000000000E+00 -0.63928475803E+03  0.63928475803E+03  0.00000000000E+00 0.  1.
         23    2    1    2    0    0 -0.87300255216E+02  0.10511195912E+03 -0.50340672816E+03  0.52900613122E+03  0.88086857185E+02 0.  0.
         23    2    1    2    0    0  0.87300255216E+02 -0.10511195912E+03 -0.53369700518E+02  0.19278695615E+03  0.12509447238E+03 0.  0.
          5    1    4    4  502    0  0.24743222924E+01 -0.41099410145E+02 -0.73686271640E+02  0.84512855906E+02  0.41800000000E+01 0.  1.
         -5    1    4    4    0  502  0.84825932923E+02 -0.64012548972E+02  0.20316571122E+02  0.10827410025E+03  0.41800000000E+01 0.  1.
        -11    1    3    3    0    0 -0.43174862892E+02  0.51235930715E+02 -0.39156070576E+03  0.39725177869E+03  0.00000000000E+00 0.  1.
         11    1    3    3    0    0 -0.44125392324E+02  0.53876028402E+02 -0.11184602240E+03  0.13175435253E+03  0.00000000000E+00 0. -1.
</event>
<event>
 8    1  0.9181008E-006  0.2200110E+03  0.7561462E-02  0.1133875E+00
          1   -1    0    0  501    0  0.00000000000E+00  0.00000000000E+00  0.98630433782E+02  0.98630433782E+02  0.00000000000E+00 0. -1.
         -1   -1    0    0    0  501 -0.00000000000E+00 -0.00000000000E+00 -0.58679834882E+03  0.58679834882E+03  0.00000000000E+00 0.  1.
         23    2    1    2    0    0  0.17883724943E+02 -0.20316829282E+03 -0.33013950609E+03  0.39869282596E+03  0.91469629746E+02 0.  0.
         23    2    1    2    0    0 -0.17883724943E+02  0.20316829282E+03 -0.15802840894E+03  0.28673595664E+03  0.12508935995E+03 0.  0.
          5    1    4    4  502    0 -0.42398534175E+02  0.16965014317E+03 -0.68306855793E+02  0.18778206977E+03  0.41800000000E+01 0. -1.
         -5    1    4    4    0  502  0.24514809231E+02  0.33518149644E+02 -0.89721553151E+02  0.98953886872E+02  0.41800000000E+01 0. -1.
        -11    1    3    3    0    0  0.50679991077E+02 -0.71261982362E+02 -0.12197752838E+03  0.15008413992E+03  0.00000000000E+00 0.  1.
         11    1    3    3    0    0 -0.32796266134E+02 -0.13190631045E+03 -0.20816197770E+03  0.24860868603E+03  0.00000000000E+00 0. -1.
</event>
<event>
 7    1  0.9181008E-006  0.7994335E+02  0.7561462E-02  0.1329212E+00
         -2   -1    0    0    0  501 -0.00000000000E+00  0.00000000000E+00  0.50871100499E+02  0.50871100499E+02  0.00000000000E+00 0.  1.
          2   -1    0    0  501    0  0.00000000000E+00 -0.00000000000E+00 -0.37449325216E+03  0.37449325216E+03  0.00000000000E+00 0. -1.
         23    2    1    2    0    0 -0.67586844025E+02 -0.14963329743E+01 -0.77591829869E+02  0.13779176542E+03  0.91628914968E+02 0.  0.
          5    1    1    2  502    0  0.58336123198E+02  0.35038347424E+01 -0.26203971631E+03  0.26851008445E+03  0.41800000000E+01 0. -1.
         -5    1    1    2    0  502  0.92507208277E+01 -0.20075017681E+01  0.16009394525E+02  0.19062502780E+02  0.41800000000E+01 0.  1.
        -11    1    3    3    0    0  0.11437643928E+02 -0.32967651609E+01  0.12957394551E+02  0.17594954752E+02  0.00000000000E+00 0. -1.
         11    1    3    3    0    0 -0.79024487953E+02  0.18004321866E+01 -0.90549224420E+02  0.12019681067E+03  0.00000000000E+00 0.  1.
</event>
<event>
 8    1  0.9181008E-006  0.2088148E+03  0.7561462E-02  0.1142508E+00
          1   -1    0    0  501    0  0.00000000000E+00  0.00000000000E+00  0.25480776567E+03  0.25480776567E+03  0.00000000000E+00 0. -1.
         -1   -1    0    0    0  501 -0.00000000000E+00 -0.00000000000E+00 -0.22545051225E+03  0.22545051225E+03  0.00000000000E+00 0.  1.
         23    2    1    2    0    0  0.18406854205E+01 -0.20002828478E+03 -0.59753590611E+02  0.22806426615E+03  0.91804766051E+02 0.  0.
         23    2    1    2    0    0 -0.18406854205E+01  0.20002828478E+03  0.89110844034E+02  0.25219401176E+03  0.12508546762E+03 0.  0.
          5    1    4    4  502    0 -0.41222172661E+01  0.19763805347E+03  0.11298680315E+03  0.22773072463E+03  0.41800000000E+01 0.  1.
         -5    1    4    4    0  502  0.22815318456E+01  0.23902313123E+01 -0.23875959121E+02  0.24463287131E+02  0.41800000000E+01 0.  1.
        -11    1    3    3    0    0 -0.36372153057E+02 -0.12763582651E+03 -0.11913059562E+02  0.13325073626E+03  0.00000000000E+00 0.  1.
         11    1    3    3    0    0  0.38212838478E+02 -0.72392458275E+02 -0.47840531048E+02  0.94813529892E+02  0.00000000000E+00 0. -1.
</event>
<event>
 8    1  0.9181008E-006  0.2052496E+03  0.7561462E-02  0.1145384E+00
         -1   -1    0    0    0  501 -0.00000000000E+00  0.00000000000E+00  0.31651213782E+03  0.31651213782E+03  0.00000000000E+00 0.  1.
          1   -1    0    0  501    0  0.00000000000E+00 -0.00000000000E+00 -0.14495485569E+03  0.14495485569E+03  0.00000000000E+00 0. -1.
         23    2    1    2    0    0 -0.17978126869E+03 -0.22897994094E+02  0.12247210520E+03  0.23585157822E+03  0.88209566892E+02 0.  0.
         23    2    1    2    0    0  0.17978126869E+03  0.22897994094E+02  0.49085176934E+02  0.22561541529E+03  0.12508932134E+03 0.  0.
          5    1    4    4  502    0  0.97672117425E+02  0.64176958277E+02  0.62577926428E+02  0.13263481357E+03  0.41800000000E+01 0. -1.
         -5    1    4    4    0  502  0.82109151268E+02 -0.41278964183E+02 -0.13492749493E+02  0.92980601713E+02  0.41800000000E+01 0. -1.
        -11    1    3    3    0    0 -0.40146500161E+02  0.32181794966E+02  0.30825474229E+02  0.59980157251E+02  0.00000000000E+00 0.  1.
         11    1    3    3    0    0 -0.13963476853E+03 -0.55079789060E+02  0.91646630970E+02  0.17587142097E+03  0.00000000000E+00 0. -1.
</event>
<event>
 8    1  0.9181008E-006  0.1068455E+03  0.7561462E-02  0.1266525E+00
         -2   -1    0    0    0  501 -0.00000000000E+00  0.00000000000E+00  0.19347502013E+02  0.19347502013E+02  0.00000000000E+00 0.  1.
          2   -1    0    0  501    0  0.00000000000E+00 -0.00000000000E+00 -0.94813966649E+03  0.94813966649E+03  0.00000000000E+00 0. -1.
         23    2    1    2    0    0 -0.54768721498E+02 -0.51981946623E+02 -0.31866216681E+03  0.34010486675E+03  0.91782395901E+02 0.  0.
         23    2    1    2    0    0  0.54768721498E+02  0.51981946623E+02 -0.61012999766E+03  0.62738230176E+03  0.12509277709E+03 0.  0.
          5    1    4    4  502    0  0.67504766613E+02  0.35322613766E+02 -0.16554385768E+03  0.18228225853E+03  0.41800000000E+01 0. -1.
         -5    1    4    4    0  502 -0.12736045116E+02  0.16659332857E+02 -0.44458613998E+03  0.44510004323E+03  0.41800000000E+01 0. -1.
        -11    1    3    3    0    0  0.58738195550E+01 -0.54976829004E+02 -0.18918020106E+03  0.19709414490E+03  0.00000000000E+00 0.  1.
         11    1    3    3    0    0 -0.60642541053E+02  0.29948823815E+01 -0.12948196576E+03  0.14301072184E+03  0.00000000000E+00 0. -1.
</event>
<event>
 8    1  0.9181008E-006  0.1111992E+03  0.7561462E-02  0.1258365E+00
         -1   -1    0    0    0  501 -0.00000000000E+00  0.00000000000E+00  0.35878841865E+02  0.35878841865E+02  0.00000000000E+00 0.  1.
          1   -1    0    0  501    0  0.00000000000E+00 -0.00000000000E+00 -0.66225981099E+03  0.66225981099E+03  0.00000000000E+00 0. -1.
         23    2    1    2    0    0  0.92784922423E+02 -0.35293476159E+02 -0.20741794455E+03  0.24977243621E+03  0.97516126247E+02 0.  0.
         23    2    1    2    0    0 -0.92784922423E+02  0.35293476159E+02 -0.41896302458E+03  0.44836621665E+03  0.12509027533E+03 0.  0.
          5    1    4    4  502    0 -0.78644465755E+02  0.19426044753E+02 -0.10042657624E+03  0.12909412389E+03  0.41800000000E+01 0. -1.
         -5    1    4    4    0  502 -0.14140456669E+02  0.15867431406E+02 -0.31853644834E+03  0.31927209276E+03  0.41800000000E+01 0. -1.
        -11    1    3    3    0    0  0.64206907306E+02 -0.55298266729E+02 -0.19521966385E+03  0.21281715721E+03  0.00000000000E+00 0. -1.
         11    1    3    3    0    0  0.28578015118E+02  0.20004790570E+02 -0.12198280704E+02  0.36955279000E+02  0.00000000000E+00 0.  1.
</event>
<event>
 8    1  0.9181008E-006  0.1435997E+03  0.7561462E-02  0.1208566E+00
         -3   -1    0    0    0  501 -0.00000000000E+00  0.00000000000E+00  0.77717668300E+02  0.77717668300E+02  0.00000000000E+00 0.  1.
          3   -1    0    0  501    0  0.00000000000E+00 -0.00000000000E+00 -0.34117264583E+03  0.34117264583E+03  0.00000000000E+00 0. -1.
         23    2    1    2    0    0 -0.10686970234E+03  0.33309048508E+02 -0.79322765418E+02  0.16972717462E+03  0.99922903780E+02 0.  0.
         23    2    1    2    0    0  0.10686970234E+03 -0.33309048508E+02 -0.18413221211E+03  0.24916313951E+03  0.12508785937E+03 0.  0.
          5    1    4    4  502    0  0.77934465988E+02 -0.61281491959E+02 -0.54181462176E+02  0.11305885852E+03  0.41800000000E+01 0. -1.
         -5    1    4    4    0  502  0.28935236355E+02  0.27972443451E+02 -0.12995074994E+03  0.13610428099E+03  0.41800000000E+01 0. -1.
        -11    1    3    3    0    0 -0.12463482784E+03  0.22319930273E+02 -0.56092416959E+02  0.13848602398E+03  0.00000000000E+00 0.  1.
         11    1    3    3    0    0  0.17765125499E+02  0.10989118235E+02 -0.23230348459E+02  0.31241150637E+02  0.00000000000E+00 0. -1.
</event>
<event>
 8    1  0.9181008E-006  0.1253056E+03  0.7561462E-02  0.1234592E+00
          2   -1    0    0  501    0  0.00000000000E+00  0.00000000000E+00  0.42805698171E+03  0.42805698171E+03  0.00000000000E+00 0. -1.
         -2   -1    0    0    0  501 -0.00000000000E+00 -0.00000000000E+00 -0.44916450512E+02  0.44916450512E+02  0.00000000000E+00 0.  1.
         23    2    1    2    0    0  0.23837748149E+02 -0.83163599489E+02  0.17493099268E+03  0.21512996220E+03  0.90529696337E+02 0.  0.
         23    2    1    2    0    0 -0.23837748149E+02  0.83163599489E+02  0.20820953851E+03  0.25784347002E+03  0.12509044962E+03 0.  0.
          5    1    4    4  502    0  0.10286145636E+02 -0.30907898321E+02  0.41022303573E+02  0.52549070031E+02  0.41800000000E+01 0. -1.
         -5    1    4    4    0  502 -0.34123893784E+02  0.11407149781E+03  0.16718723494E+03  0.20529439999E+03  0.41800000000E+01 0. -1.
        -11    1    3    3    0    0 -0.14300146586E+02 -0.29635069898E+02  0.54528897626E+01  0.33353643984E+02  0.00000000000E+00 0.  1.
         11    1    3    3    0    0  0.38137894735E+02 -0.53528529591E+02  0.16947810292E+03  0.18177631822E+03  0.00000000000E+00 0. -1.
</event>
<event>
 8    1  0.9181008E-006  0.9443154E+02  0.7561462E-02  0.1292462E+00
         -1   -1    0    0    0  501 -0.00000000000E+00  0.00000000000E+00  0.10319902693E+03  0.10319902693E+03  0.00000000000E+00 0.  1.
          1   -1    0    0  501    0  0.00000000000E+00 -0.00000000000E+00 -0.14172943269E+03  0.14172943269E+03  0.00000000000E+00 0. -1.
         23    2    1    2    0    0 -0.20467088006E+02 -0.49134243916E+02 -0.14380080561E+02  0.10685803128E+03  0.91535657074E+02 0.  0.
         23    2    1    2    0    0  0.20467088006E+02  0.49134243916E+02 -0.24150325199E+02  0.13807042834E+03  0.12508848612E+03 0.  0.
          5    1    4    4  502    0  0.17746982402E+02 -0.40772008519E+02  0.66910205860E+00  0.44668021678E+02  0.41800000000E+01 0.  1.
         -5    1    4    4    0  502  0.27201056038E+01  0.89906252435E+02 -0.24819427258E+02  0.93402406665E+02  0.41800000000E+01 0.  1.
        -11    1    3    3    0    0 -0.61556546293E+01 -0.27747940515E+02  0.38613935915E+02  0.47946598770E+02  0.00000000000E+00 0.  1.
         11    1    3    3    0    0 -0.14311433377E+02 -0.21386303401E+02 -0.52994016476E+02  0.58911432512E+02  0.00000000000E+00 0. -1.
</event>
<event>
 8    1  0.9181008E-006  0.1069981E+03  0.7561462E-02  0.1266232E+00
          2   -1    0    0  501    0  0.00000000000E+00  0.00000000000E+00  0.23924802756E+03  0.23924802756E+03  0.00000000000E+00 0. -1.
         -2   -1    0    0    0  501 -0.00000000000E+00 -0.00000000000E+00 -0.55971547222E+02  0.55971547222E+02  0.00000000000E+00 0.  1.
         23    2    1    2    0    0 -0.33374641283E+02  0.23359190779E+02  0.22759025708E+02  0.87681185778E+02  0.74232732764E+02 0.  0.
         23    2    1    2    0    0  0.33374641283E+02 -0.23359190779E+02  0.16051745463E+03  0.20753838901E+03  0.12508721435E+03 0.  0.
          5    1    4    4  502    0 -0.36013697057E+01 -0.69767019785E+02  0.68223286824E+02  0.97735848994E+02  0.41800000000E+01 0.  1.
         -5    1    4    4    0  502  0.36976010989E+02  0.46407829006E+02  0.92294167809E+02  0.10980254001E+03  0.41800000000E+01 0.  1.
        -11    1    3    3    0    0 -0.53653714771E+02  0.80153757224E-01  0.11931954800E+02  0.54964525639E+02  0.00000000000E+00 0.  1.
         11    1    3    3    0    0  0.20279073488E+02  0.23279037022E+02  0.10827070908E+02  0.32716660139E+02  0.00000000000E+00 0. -1.
</event>
<event>
 8    1  0.9181008E-006  0.1263133E+03  0.7561462E-02  0.1233031E+00
         -2   -1    0    0    0  501 -0.00000000000E+00  0.00000000000E+00  0.45033974986E+03  0.45033974986E+03  0.00000000000E+00 0.  1.
          2   -1    0    0  501    0  0.00000000000E+00 -0.00000000000E+00 -0.40454213135E+02  0.40454213135E+02  0.00000000000E+00 0. -1.
         23    2    1    2    0    0 -0.42513095200E+02 -0.61628865313E+02  0.24076799143E+03  0.26747649388E+03  0.89269080738E+02 0.  0.
         23    2    1    2    0    0  0.42513095200E+02  0.61628865313E+02  0.16911754529E+03  0.22331746911E+03  0.12515777077E+03 0.  0.
          5    1    4    4  502    0  0.72582791196E+01  0.90539280921E+02  0.14607379752E+03  0.17206124121E+03  0.41800000000E+01 0. -1.
         -5    1    4    4    0  502  0.35254816081E+02 -0.28910415608E+02  0.23043747773E+02  0.51256227904E+02  0.41800000000E+01 0. -1.
        -11    1    3    3    0    0  0.23370124831E+02 -0.40444875441E+02  0.84039157095E+02  0.96148482095E+02  0.00000000000E+00 0. -1.
         11    1    3    3    0    0 -0.65883220032E+02 -0.21183989872E+02  0.15672883434E+03  0.17132801178E+03  0.00000000000E+00 0.  1.
</event>
<event>
 8    1  0.9181008E-006  0.6823689E+02  0.7561462E-02  0.1366193E+00
         -2   -1    0    0    0  501 -0.00000000000E+00  0.00000000000E+00  0.67851440295E+02  0.67851440295E+02  0.00000000000E+00 0.  1.
          2   -1    0    0  501    0  0.00000000000E+00 -0.00000000000E+00 -0.77205663278E+03  0.77205663278E+03  0.00000000000E+00 0. -1.
         23    2    1    2    0    0  0.87746521927E+01 -0.14833808100E+02  0.16488155473E+02  0.10903468925E+03  0.10639392749E+03 0.  0.
         23    2    1    2    0    0 -0.87746521927E+01  0.14833808100E+02 -0.72069334796E+03  0.73087338382E+03  0.12033272625E+03 0.  0.
          5    1    4    4  502    0 -0.14216822133E+02  0.16450991827E+02 -0.72308855140E+03  0.72342745229E+03  0.41800000000E+01 0. -1.
         -5    1    4    4    0  502  0.54421699400E+01 -0.16171837271E+01  0.23952034410E+01  0.74459315325E+01  0.41800000000E+01 0.  1.
        -11    1    3    3    0    0 -0.13365134096E+02 -0.57597376055E+02  0.14288219348E+02  0.60829579564E+02  0.00000000000E+00 0.  1.
         11    1    3    3    0    0  0.22139786289E+02  0.42763567955E+02  0.21999361252E+01  0.48205109689E+02  0.00000000000E+00 0. -1.
</event>
<event>
 8    1  0.9181008E-006  0.1476992E+03  0.7561462E-02  0.1203329E+00
          1   -1    0    0  501    0  0.00000000000E+00  0.00000000000E+00  0.69183910409E+03  0.69183910409E+03  0.00000000000E+00 0. -1.
         -1   -1    0    0    0  501 -0.00000000000E+00 -0.00000000000E+00 -0.33952693534E+02  0.33952693534E+02  0.00000000000E+00 0.  1.
         23    2    1    2    0    0 -0.93016753613E+02 -0.48715906529E+02  0.24731010462E+03  0.28392527199E+03  0.91792789637E+02 0.  0.
         23    2    1    2    0    0  0.93016753613E+02  0.48715906529E+02  0.41057630594E+03  0.44186652563E+03  0.12509103674E+03 0.  0.
          5    1    4    4  502    0  0.79088293906E+02  0.85450527582E+02  0.24013921817E+03  0.26691022348E+03  0.41800000000E+01 0.  1.
         -5    1    4    4    0  502  0.13928459707E+02 -0.36734621053E+02  0.17043708777E+03  0.17495630215E+03  0.41800000000E+01 0.  1.
        -11    1    3    3    0    0 -0.89099931026E+02  0.14019600262E+01  0.16286254561E+03  0.18564743995E+03  0.00000000000E+00 0. -1.
         11    1    3    3    0    0 -0.39168225868E+01 -0.50117866555E+02  0.84447559010E+02  0.98277832037E+02  0.00000000000E+00 0.  1.
</event>
<event>
 8    1  0.9181008E-006  0.1456206E+03  0.7561462E-02  0.1205960E+00
         -2   -1    0    0    0  501 -0.00000000000E+00  0.00000000000E+00  0.12526363520E+03  0.12526363520E+03  0.00000000000E+00 0.  1.
          2   -1    0    0  501    0  0.00000000000E+00 -0.00000000000E+00 -0.49130408182E+03  0.49130408182E+03  0.00000000000E+00 0. -1.
         23    2    1    2    0    0  0.64021386647E+02 -0.10830037072E+03  0.50761817578E+02  0.16357767193E+03  0.91395756925E+02 0.  0.
         23    2    1    2    0    0 -0.64021386647E+02  0.10830037072E+03 -0.41680226420E+03  0.45299004509E+03  0.12509254680E+03 0.  0.
          5    1    4    4  502    0 -0.63626327558E+01 -0.60425727558E+01  0.58498543415E+01  0.11344116401E+02  0.41800000000E+01 0.  1.
         -5    1    4    4    0  502 -0.57658753891E+02  0.11434294348E+03 -0.42265211854E+03  0.44164592869E+03  0.41800000000E+01 0.  1.
        -11    1    3    3    0    0 -0.15955363547E+02 -0.55043529270E+02  0.61448771185E+01  0.57637863034E+02  0.00000000000E+00 0. -1.
         11    1    3    3    0    0  0.79976750194E+02 -0.53256841450E+02  0.44616940459E+02  0.10593980890E+03  0.00000000000E+00 0.  1.
</event>
<event>
 7    1  0.9181008E-006  0.1556787E+03  0.7561462E-02  0.1193664E+00
         -2   -1    0    0    0  501 -0.00000000000E+00  0.00000000000E+00  0.67177873704E+02  0.67177873704E+02  0.00000000000E+00 0.  1.
          2   -1    0    0  501    0  0.00000000000E+00 -0.00000000000E+00 -0.92005063255E+03  0.92005063255E+03  0.00000000000E+00 0. -1.
         23    2    1    2    0    0  0.43287827526E+02 -0.71951365216E+02 -0.24026208877E+02  0.12474612601E+03  0.89070209791E+02 0.  0.
          5    1    1    2  502    0  0.44256976226E+02 -0.31559373475E+02 -0.54688106315E+03  0.54959170630E+03  0.41800000000E+01 0. -1.
         -5    1    1    2    0  502 -0.87544803751E+02  0.10351073869E+03 -0.28196548682E+03  0.31289067395E+03  0.41800000000E+01 0.  1.
        -11    1    3    3    0    0 -0.21898169452E+02  0.27430389360E+01 -0.11299942541E+02  0.24794007127E+02  0.00000000000E+00 0. -1.
         11    1    3    3    0    0  0.65185996978E+02 -0.74694404152E+02 -0.12726266336E+02  0.99952118879E+02  0.00000000000E+00 0.  1.
</event>
<event>
 8    1  0.9181008E-006  0.1797413E+03  0.7561462E-02  0.1168054E+00
         -1   -1    0    0    0  501 -0.00000000000E+00  0.00000000000E+00  0.97823303656E+02  0.97823303656E+02  0.00000000000E+00 0.  1.
          1   -1    0    0  501    0  0.00000000000E+00 -0.00000000000E+00 -0.43210705249E+03  0.43210705249E+03  0.00000000000E+00 0. -1.
         23    2    1    2    0    0  0.17101879369E+03  0.41372308315E+02 -0.13453305574E+03  0.23580918231E+03  0.80918055358E+02 0.  0.
         23    2    1    2    0    0 -0.17101879369E+03 -0.41372308315E+02 -0.19975069309E+03  0.29412117384E+03  0.12509128595E+03 0.  0.
          5    1    4    4  502    0 -0.33652563724E+02 -0.24871987014E+02  0.96121843782E+01  0.43139045790E+02  0.41800000000E+01 0. -1.
         -5    1    4    4    0  502 -0.13736622996E+03 -0.16500321301E+02 -0.20936287747E+03  0.25098212805E+03  0.41800000000E+01 0. -1.
        -11    1    3    3    0    0  0.30915257731E+02 -0.52421371914E+01  0.60478626915E+01  0.31934461105E+02  0.00000000000E+00 0.  1.
         11    1    3    3    0    0  0.14010353596E+03  0.46614445506E+02 -0.14058091843E+03  0.20387472120E+03  0.00000000000E+00 0. -1.
</event>
<event>
 8    1  0.9181008E-006  0.1150774E+03  0.7561462E-02  0.1251446E+00
          1   -1    0    0  501    0  0.00000000000E+00  0.00000000000E+00  0.69161082820E+02  0.69161082820E+02  0.00000000000E+00 0. -1.
         -1   -1    0    0    0  501 -0.00000000000E+00 -0.00000000000E+00 -0.21220224920E+03  0.21220224920E+03  0.00000000000E+00 0.  1.
         23    2    1    2    0    0  0.30015849338E+02 -0.29962898715E+02 -0.10062634589E+03  0.14263460480E+03  0.91761879282E+02 0.  0.
         23    2    1    2    0    0 -0.30015849338E+02  0.29962898715E+02 -0.42414820495E+02  0.13872872722E+03  0.12509163140E+03 0.  0.
          5    1    4    4  502    0  0.26992735487E+02 -0.35739260880E+02 -0.13413621524E+02  0.46939324449E+02  0.41800000000E+01 0.  1.
         -5    1    4    4    0  502 -0.57008584825E+02  0.65702159595E+02 -0.29001198971E+02  0.91789402771E+02  0.41800000000E+01 0.  1.
        -11    1    3    3    0    0  0.54072224564E+02  0.64373378417E+01 -0.38383385718E+02  0.66622286713E+02  0.00000000000E+00 0. -1.
         11    1    3    3    0    0 -0.24056375226E+02 -0.36400236557E+02 -0.62242960168E+02  0.76012318086E+02  0.00000000000E+00 0.  1.
</event>
<event>
 8    1  0.9181008E-006  0.1389741E+03  0.7561462E-02  0.1214716E+00
         -2   -1    0    0    0  501 -0.00000000000E+00  0.00000000000E+00  0.17798434522E+02  0.17798434522E+02  0.00000000000E+00 0.  1.
          2   -1    0    0  501    0  0.00000000000E+00 -0.00000000000E+00 -0.15567033827E+04  0.15567033827E+04  0.00000000000E+00 0. -1.
         23    2    1    2    0    0 -0.19846475031E+02 -0.11225821692E+03 -0.45985934101E+03  0.48226476734E+03  0.90071651852E+02 0.  0.
         23    2    1    2    0    0  0.19846475031E+02  0.11225821692E+03 -0.10790456072E+04  0.10922370499E+04  0.12508621405E+03 0.  0.
          5    1    4    4  502    0 -0.22376115379E+02  0.67787797904E+02 -0.90191885214E+03  0.90474911679E+03  0.41800000000E+01 0. -1.
         -5    1    4    4    0  502  0.42222590411E+02  0.44470419018E+02 -0.17712675506E+03  0.18748793312E+03  0.41800000000E+01 0. -1.
        -11    1    3    3    0    0 -0.55557534715E+02 -0.61042818605E+02 -0.27731642636E+03  0.28933936078E+03  0.00000000000E+00 0. -1.
         11    1    3    3    0    0  0.35711059684E+02 -0.51215398316E+02 -0.18254291465E+03  0.19292540656E+03  0.00000000000E+00 0.  1.
</event>
<event>
 8    1  0.9181008E-006  0.1450183E+03  0.7561462E-02  0.1206732E+00
         -1   -1    0    0    0  501 -0.00000000000E+00  0.00000000000E+00  0.21193927700E+03  0.21193927700E+03  0.00000000000E+00 0.  1.
          1   -1    0    0  501    0  0.00000000000E+00 -0.00000000000E+00 -0.13085750917E+03  0.13085750917E+03  0.00000000000E+00 0. -1.
         23    2    1    2    0    0 -0.80048111712E+01  0.12752148578E+03  0.67548877645E+02  0.17114072900E+03  0.91654197474E+02 0.  0.
         23    2    1    2    0    0  0.80048111712E+01 -0.12752148578E+03  0.13532890189E+02  0.17165605717E+03  0.11382818854E+03 0.  0.
          5    1    4    4  502    0 -0.43164758851E+02 -0.85198805659E+02 -0.19191873540E+02  0.97508119161E+02  0.41800000000E+01 0. -1.
         -5    1    4    4    0  502  0.51169570023E+02 -0.42322680123E+02  0.32724763729E+02  0.74147938004E+02  0.41800000000E+01 0.  1.
        -11    1    3    3    0    0 -0.38382686299E+00  0.50724407490E+02  0.78224156172E+02  0.93231601118E+02  0.00000000000E+00 0. -1.
         11    1    3    3    0    0 -0.76209843082E+01  0.76797078293E+02 -0.10675278527E+02  0.77909127884E+02  0.00000000000E+00 0.  1.
</event>
<event>
 8    1  0.9181008E-006  0.9552967E+02  0.7561462E-02  0.1289988E+00
         -2   -1    0    0    0  501 -0.00000000000E+00  0.00000000000E+00  0.11813136854E+02  0.11813136854E+02  0.00000000000E+00 0.  1.
          2   -1    0    0  501    0  0.00000000000E+00 -0.00000000000E+00 -0.16089263801E+04  0.16089263801E+04  0.00000000000E+00 0. -1.
         23    2    1    2    0    0 -0.28982088682E+02  0.15058821168E+02 -0.26416771135E+03  0.28153872566E+03  0.91721015932E+02 0.  0.
         23    2    1    2    0    0  0.28982088682E+02 -0.15058821168E+02 -0.13329455319E+04  0.13392007913E+04  0.12509292090E+03 0.  0.
          5    1    4    4  502    0  0.78188067528E+02 -0.43859761365E+01 -0.76248941555E+03  0.76651170371E+03  0.41800000000E+01 0. -1.
         -5    1    4    4    0  502 -0.49205978846E+02 -0.10672845032E+02 -0.57045611635E+03  0.57268908760E+03  0.41800000000E+01 0. -1.
        -11    1    3    3    0    0 -0.43086182577E+02  0.23857751762E+01 -0.25802311673E+03  0.26160665094E+03  0.00000000000E+00 0. -1.
         11    1    3    3    0    0  0.14104093895E+02  0.12673045992E+02 -0.61445946277E+01  0.19932074715E+02  0.00000000000E+00 0.  1.
</event>
<event>
 8    1  0.9181008E-006  0.1213545E+03  0.7561462E-02  0.1240879E+00
          2   -1    0    0  501    0  0.00000000000E+00  0.00000000000E+00  0.21340590847E+03  0.21340590847E+03  0.00000000000E+00 0. -1.
         -2   -1    0    0    0  501 -0.00000000000E+00 -0.00000000000E+00 -0.84594255069E+02  0.84594255069E+02  0.00000000000E+00 0.  1.
         23    2    1    2    0    0  0.73557548329E+02  0.11257616243E+01  0.36957587601E+02  0.12624826437E+03  0.95711967486E+02 0.  0.
         23    2    1    2    0    0 -0.73557548329E+02 -0.11257616243E+01  0.91854065803E+02  0.17175189917E+03  0.12509822224E+03 0.  0.
          5    1    4    4  502    0 -0.10758745814E+03  0.71615224470E+01  0.56469052004E+02  0.12178905857E+03  0.41800000000E+01 0.  1.
         -5    1    4    4    0  502  0.34029909814E+02 -0.82872840712E+01  0.35385013799E+02  0.49962840599E+02  0.41800000000E+01 0.  1.
        -11    1    3    3    0    0  0.39703551348E+02  0.34050727168E+02  0.54809584739E+02  0.75762224028E+02  0.00000000000E+00 0. -1.
         11    1    3    3    0    0  0.33853996980E+02 -0.32924965544E+02 -0.17851997139E+02  0.50486040343E+02  0.00000000000E+00 0.  1.
</event>
<event>
 8    1  0.9181008E-006  0.9133025E+02  0.7561462E-02  0.1299662E+00
          1   -1    0    0  501    0  0.00000000000E+00  0.00000000000E+00  0.10811129538E+03  0.10811129538E+03  0.00000000000E+00 0. -1.
         -1   -1    0    0    0  501 -0.00000000000E+00 -0.00000000000E+00 -0.14478859719E+03  0.14478859719E+03  0.00000000000E+00 0.  1.
         23    2    1    2    0    0  0.16443975584E+01 -0.13722099682E+02 -0.77717178500E+02  0.12052175374E+03  0.91074328042E+02 0.  0.
         23    2    1    2    0    0 -0.16443975584E+01  0.13722099682E+02  0.41039876687E+02  0.13237813883E+03  0.12509476447E+03 0.  0.
          5    1    4    4  502    0 -0.42521860634E+02 -0.23380555178E+02  0.56793051011E+02  0.74817658580E+02  0.41800000000E+01 0.  1.
         -5    1    4    4    0  502  0.40877463076E+02  0.37102654860E+02 -0.15753174325E+02  0.57560480249E+02  0.41800000000E+01 0.  1.
        -11    1    3    3    0    0 -0.29900086651E+02  0.17137426334E+02 -0.41199798526E+01  0.34708511882E+02  0.00000000000E+00 0. -1.
         11    1    3    3    0    0  0.31544484209E+02 -0.30859526016E+02 -0.73597198647E+02  0.85813241861E+02  0.00000000000E+00 0.  1.
</event>
<event>
 8    1  0.9181008E-006  0.1160347E+03  0.7561462E-02  0.1249786E+00
          1   -1    0    0  501    0  0.00000000000E+00  0.00000000000E+00  0.60953371497E+03  0.60953371497E+03  0.00000000000E+00 0. -1.
         -1   -1    0    0    0  501 -0.00000000000E+00 -0.00000000000E+00 -0.29641918959E+02  0.29641918959E+02  0.00000000000E+00 0.  1.
         23    2    1    2    0    0  0.23107731626E+02  0.27447683704E+02  0.12910431694E+03  0.16998038080E+03  0.10458519303E+03 0.  0.
         23    2    1    2    0    0 -0.23107731626E+02 -0.27447683704E+02  0.45078747907E+03  0.46919525313E+03  0.12508993434E+03 0.  0.
          5    1    4    4  502    0  0.32237218025E+01 -0.74228546259E+02  0.29967165440E+03  0.30877312433E+03  0.41800000000E+01 0. -1.
         -5    1    4    4    0  502 -0.26331453428E+02  0.46780862555E+02  0.15111582467E+03  0.16042212879E+03  0.41800000000E+01 0. -1.
        -11    1    3    3    0    0  0.30789730142E+02  0.61566117657E+02  0.55258052627E+02  0.88271437655E+02  0.00000000000E+00 0.  1.
         11    1    3    3    0    0 -0.76819985166E+01 -0.34118433952E+02  0.73846264314E+02  0.81708943144E+02  0.00000000000E+00 0. -1.
</event>
<event>
 8    1  0.9181008E-006  0.1085770E+03  0.7561462E-02  0.1263228E+00
          2   -1    0    0  501    0  0.00000000000E+00  0.00000000000E+00  0.33313573668E+03  0.33313573668E+03  0.00000000000E+00 0. -1.
         -2   -1    0    0    0  501 -0.00000000000E+00 -0.00000000000E+00 -0.53146092958E+02  0.53146092958E+02  0.00000000000E+00 0.  1.
         23    2    1    2    0    0  0.57763154749E+01 -0.31922194183E+01  0.41381103635E+02  0.11679125350E+03  0.10901488463E+03 0.  0.
         23    2    1    2    0    0 -0.57763154749E+01  0.31922194183E+01  0.23860854009E+03  0.26949057614E+03  0.12509028396E+03 0.  0.
          5    1    4    4  502    0  0.30254194445E+02 -0.51356062868E+02  0.11510553842E+03  0.12969008771E+03  0.41800000000E+01 0. -1.
         -5    1    4    4    0  502 -0.36030509920E+02  0.54548282286E+02  0.12350300167E+03  0.13980048843E+03  0.41800000000E+01 0. -1.
        -11    1    3    3    0    0 -0.42197952162E+02  0.72019321138E+01  0.51193134625E+02  0.66732840683E+02  0.00000000000E+00 0. -1.
         11    1    3    3    0    0  0.47974267637E+02 -0.10394151532E+02 -0.98120309902E+01  0.50058412815E+02  0.00000000000E+00 0.  1.
</event>
<event>
 8    1  0.9181008E-006  0.9829052E+02  0.7561462E-02  0.1283932E+00
         -1   -1    0    0    0  501 -0.00000000000E+00  0.00000000000E+00  0.57609342379E+02  0.57609342379E+02  0.00000000000E+00 0.  1.
          1   -1    0    0  501    0  0.00000000000E+00 -0.00000000000E+00 -0.24900289896E+03  0.24900289896E+03  0.00000000000E+00 0. -1.
         23    2    1    2    0    0 -0.17337682250E+02 -0.48626550053E+02 -0.73687642686E+02  0.12727437418E+03  0.90020892262E+02 0.  0.
         23    2    1    2    0    0  0.17337682250E+02  0.48626550053E+02 -0.11770591390E+03  0.17933786716E+03  0.12506898830E+03 0.  0.
          5    1    4    4  502    0  0.54350094881E+02 -0.15329160047E+02 -0.28394411108E+02  0.63345330873E+02  0.41800000000E+01 0. -1.
         -5    1    4    4    0  502 -0.37012412631E+02  0.63955710100E+02 -0.89311502791E+02  0.11599253629E+03  0.41800000000E+01 0. -1.
        -11    1    3    3    0    0  0.67885537041E+01 -0.39611343711E+02  0.85583164393E+01  0.41089996255E+02  0.00000000000E+00 0.  1.
         11    1    3    3    0    0 -0.24126235954E+02 -0.90152063418E+01 -0.82245959125E+02  0.86184377929E+02  0.00000000000E+00 0. -1.
</event>
<event>
 8    1  0.9181008E-006  0.8500716E+02  0.7561462E-02  0.1315414E+00
         -3   -1    0    0    0  501 -0.00000000000E+00  0.00000000000E+00  0.10375019987E+03  0.10375019987E+03  0.00000000000E+00 0.  1.
          3   -1    0    0  501    0  0.00000000000E+00 -0.00000000000E+00 -0.15928154220E+03  0.15928154220E+03  0.00000000000E+00 0. -1.
         23    2    1    2    0    0 -0.19283817405E+02  0.33434907155E+02  0.33915704694E+02  0.10448315365E+03  0.90976347149E+02 0.  0.
         23    2    1    2    0    0  0.19283817405E+02 -0.33434907155E+02 -0.89447047021E+02  0.15854858843E+03  0.12508845687E+03 0.  0.
          5    1    4    4  502    0  0.47158961666E+02  0.15543220150E+02 -0.89042660503E+02  0.10203738113E+03  0.41800000000E+01 0.  1.
         -5    1    4    4    0  502 -0.27875144261E+02 -0.48978127305E+02 -0.40438651895E+00  0.56511207299E+02  0.41800000000E+01 0.  1.
        -11    1    3    3    0    0 -0.25500173432E+02 -0.39254447669E+01  0.55276075913E+02  0.61000922371E+02  0.00000000000E+00 0.  1.
         11    1    3    3    0    0  0.62163560274E+01  0.37360351922E+02 -0.21360371219E+02  0.43482231275E+02  0.00000000000E+00 0. -1.
</event>
<event>
 8    1  0.9181008E-006  0.1216618E+03  0.7561462E-02  0.1240381E+00
         -4   -1    0    0    0  501 -0.00000000000E+00  0.00000000000E+00  0.18741881736E+03  0.18741881736E+03  0.00000000000E+00 0. -1.
          4   -1    0    0  501    0  0.00000000000E+00 -0.00000000000E+00 -0.14281388173E+03  0.14281388173E+03  0.00000000000E+00 0.  1.
         23    2    1    2    0    0 -0.77252916221E+01 -0.12113177546E+03  0.23195859601E+02  0.15462534213E+03  0.92942785469E+02 0.  0.
         23    2    1    2    0    0  0.77252916221E+01  0.12113177546E+03  0.21409076031E+02  0.17560735696E+03  0.12508800152E+03 0.  0.
          5    1    4    4  502    0  0.46129774039E+01  0.99351623464E+02  0.70275965040E+02  0.12185322445E+03  0.41800000000E+01 0.  1.
         -5    1    4    4    0  502  0.31123142183E+01  0.21780151995E+02 -0.48866889009E+02  0.53754132513E+02  0.41800000000E+01 0.  1.
        -11    1    3    3    0    0 -0.18959228396E+01 -0.37121451974E+02 -0.35955621518E+02  0.51714634668E+02  0.00000000000E+00 0.  1.
         11    1    3    3    0    0 -0.58293687826E+01 -0.84010323485E+02  0.59151481119E+02  0.10291070747E+03  0.00000000000E+00 0. -1.
</event>
<event>
 8    1  0.9181008E-006  0.9007826E+02  0.7561462E-02  0.1302662E+00
         -1   -1    0    0    0  501 -0.00000000000E+00  0.00000000000E+00  0.13946690251E+03  0.13946690251E+03  0.00000000000E+00 0.  1.
          1   -1    0    0  501    0  0.00000000000E+00 -0.00000000000E+00 -0.10410247740E+03  0.10410247740E+03  0.00000000000E+00 0. -1.
         23    2    1    2    0    0 -0.61528124923E+02 -0.18172229204E+02  0.14137314133E+02  0.11204374849E+03  0.90763416934E+02 0.  0.
         23    2    1    2    0    0  0.61528124923E+02  0.18172229204E+02  0.21227110983E+02  0.13152563142E+03  0.11283820899E+03 0.  0.
          5    1    4    4  502    0  0.80274568188E+02 -0.65474540004E+01  0.44874570360E+02  0.92293417515E+02  0.41800000000E+01 0. -1.
         -5    1    4    4    0  502 -0.18746443264E+02  0.24719683204E+02 -0.23647459378E+02  0.39232213904E+02  0.41800000000E+01 0.  1.
        -11    1    3    3    0    0 -0.49073557410E+02 -0.23794299128E+02 -0.32471802860E+02  0.63472834259E+02  0.00000000000E+00 0.  1.
         11    1    3    3    0    0 -0.12454567513E+02  0.56220699244E+01  0.46609116993E+02  0.48570914229E+02  0.00000000000E+00 0. -1.
</event>
<event>
 8    1  0.9181008E-006  0.2345924E+03  0.7561462E-02  0.1123449E+00
          2   -1    0    0  501    0  0.00000000000E+00  0.00000000000E+00  0.26535005875E+03  0.26535005875E+03  0.00000000000E+00 0. -1.
         -2   -1    0    0    0  501 -0.00000000000E+00 -0.00000000000E+00 -0.23595873905E+03  0.23595873905E+03  0.00000000000E+00 0.  1.
         23    2    1    2    0    0 -0.20584316114E+03 -0.45148512556E+02 -0.64147364332E+02  0.23900242533E+03  0.92722595875E+02 0.  0.
         23    2    1    2    0    0  0.20584316114E+03  0.45148512556E+02  0.93538684028E+02  0.26230637248E+03  0.12508138334E+03 0.  0.
          5    1    4    4  502    0  0.19929445230E+03  0.75775301623E+02  0.77766602712E+02  0.22699183234E+03  0.41800000000E+01 0. -1.
         -5    1    4    4    0  502  0.65487088448E+01 -0.30626789066E+02  0.15772081316E+02  0.35314540137E+02  0.41800000000E+01 0. -1.
        -11    1    3    3    0    0 -0.10825762341E+03  0.15612145873E+02 -0.58188397150E+02  0.12389246017E+03  0.00000000000E+00 0. -1.
         11    1    3    3    0    0 -0.97585537737E+02 -0.60760658430E+02 -0.59589671819E+01  0.11510996516E+03  0.00000000000E+00 0.  1.
</event>
<event>
 8    1  0.9181008E-006  0.1697500E+03  0.7561462E-02  0.1178109E+00
         -2   -1    0    0    0  501 -0.00000000000E+00  0.00000000000E+00  0.18347563982E+03  0.18347563982E+03  0.00000000000E+00 0.  1.
          2   -1    0    0  501    0  0.00000000000E+00 -0.00000000000E+00 -0.17178580583E+03  0.17178580583E+03  0.00000000000E+00 0. -1.
         23    2    1    2    0    0 -0.56888351930E+02  0.12706587907E+03  0.17964554910E+02  0.16799310011E+03  0.92287237698E+02 0.  0.
         23    2    1    2    0    0  0.56888351930E+02 -0.12706587907E+03 -0.62747209207E+01  0.18726834555E+03  0.12509212170E+03 0.  0.
          5    1    4    4  502    0 -0.40996409605E+01 -0.11407760895E+03  0.25677538340E+02  0.11707824860E+03  0.41800000000E+01 0.  1.
         -5    1    4    4    0  502  0.60987992890E+02 -0.12988270120E+02 -0.31952259261E+02  0.70190096947E+02  0.41800000000E+01 0.  1.
        -11    1    3    3    0    0  0.19069736043E+02  0.54448085008E+02 -0.11562089927E+02  0.58838173980E+02  0.00000000000E+00 0.  1.
         11    1    3    3    0    0 -0.75958087973E+02  0.72617794063E+02  0.29526644837E+02  0.10915492613E+03  0.00000000000E+00 0. -1.
</event>
<event>
 8    1  0.9181008E-006  0.8350798E+02  0.7561462E-02  0.1319381E+00
          1   -1    0    0  501    0  0.00000000000E+00  0.00000000000E+00  0.10252908220E+03  0.10252908220E+03  0.00000000000E+00 0. -1.
         -1   -1    0    0    0  501 -0.00000000000E+00 -0.00000000000E+00 -0.13762767126E+03  0.13762767126E+03  0.00000000000E+00 0.  1.
         23    2    1    2    0    0 -0.28532011518E+02  0.46770510485E+02 -0.30759483107E+02  0.10353031924E+03  0.82285022135E+02 0.  0.
         23    2    1    2    0    0  0.28532011518E+02 -0.46770510485E+02 -0.43391059611E+01  0.13662643422E+03  0.12508556414E+03 0.  0.
          5    1    4    4  502    0  0.32523929676E+02  0.17159393310E+02  0.43099140178E+02  0.56808969929E+02  0.41800000000E+01 0. -1.
         -5    1    4    4    0  502 -0.39919181580E+01 -0.63929903795E+02 -0.47438246139E+02  0.79817464295E+02  0.41800000000E+01 0. -1.
        -11    1    3    3    0    0 -0.36573974544E+02  0.30331238658E+02  0.18493843724E+02  0.50986879765E+02  0.00000000000E+00 0. -1.
         11    1    3    3    0    0  0.80419630259E+01  0.16439271827E+02 -0.49253326831E+02  0.52543439471E+02  0.00000000000E+00 0.  1.
</event>
<event>
 8    1  0.9181008E-006  0.1199447E+03  0.7561462E-02  0.1243188E+00
          2   -1    0    0  501    0  0.00000000000E+00  0.00000000000E+00  0.14812585127E+04  0.14812585127E+04  0.00000000000E+00 0. -1.
         -2   -1    0    0    0  501 -0.00000000000E+00 -0.00000000000E+00 -0.10015282831E+02  0.10015282831E+02  0.00000000000E+00 0.  1.
         23    2    1    2    0    0 -0.48978964837E+02  0.22144827081E+02  0.53033516576E+03  0.54056621745E+03  0.89817120007E+02 0.  0.
         23    2    1    2    0    0  0.48978964837E+02 -0.22144827081E+02  0.94090806416E+03  0.95070757813E+03  0.12509029358E+03 0.  0.
          5    1    4    4  502    0  0.71634395735E+01 -0.70614024672E+02  0.43979609283E+03  0.44550615149E+03  0.41800000000E+01 0.  1.
         -5    1    4    4    0  502  0.41815525263E+02  0.48469197591E+02  0.50111197133E+03  0.50520142664E+03  0.41800000000E+01 0.  1.
        -11    1    3    3    0    0 -0.50287642302E+02  0.53403328969E+02  0.37796321695E+03  0.38501552681E+03  0.00000000000E+00 0.  1.
         11    1    3    3    0    0  0.13086774648E+01 -0.31258501888E+02  0.15237194880E+03  0.15555069064E+03  0.00000000000E+00 0. -1.
</event>
<event>
 8    1  0.9181008E-006  0.1042032E+03  0.7561462E-02  0.1271697E+00
          1   -1    0    0  501    0  0.00000000000E+00  0.00000000000E+00  0.17469978126E+03  0.17469978126E+03  0.00000000000E+00 0. -1.
         -1   -1    0    0    0  501 -0.00000000000E+00 -0.00000000000E+00 -0.96340704379E+02  0.96340704379E+02  0.00000000000E+00 0.  1.
         23    2    1    2    0    0  0.66030364393E+02 -0.23290027957E+02  0.17140134105E+02  0.11516099165E+03  0.89809995977E+02 0.  0.
         23    2    1    2    0    0 -0.66030364393E+02  0.23290027957E+02  0.61218942773E+02  0.15587949398E+03  0.12509285857E+03 0.  0.
          5    1    4    4  502    0 -0.10016317546E+03  0.11537193754E+02  0.23723701845E+02  0.10366318048E+03  0.41800000000E+01 0.  1.
         -5    1    4    4    0  502  0.34132811070E+02  0.11752834203E+02  0.37495240928E+02  0.52216313501E+02  0.41800000000E+01 0.  1.
        -11    1    3    3    0    0  0.28320928164E+02 -0.34119333866E+01  0.52517887044E+02  0.59764912123E+02  0.00000000000E+00 0. -1.
         11    1    3    3    0    0  0.37709436229E+02 -0.19878094571E+02 -0.35377752938E+02  0.55396079531E+02  0.00000000000E+00 0.  1.
</event>
<event>
 8    1  0.9181008E-006  0.8539206E+02  0.7561462E-02  0.1314410E+00
          1   -1    0    0  501    0  0.00000000000E+00  0.00000000000E+00  0.43946037714E+02  0.43946037714E+02  0.00000000000E+00 0. -1.
         -1   -1    0    0    0  501 -0.00000000000E+00 -0.00000000000E+00 -0.28303623331E+03  0.28303623331E+03  0.00000000000E+00 0.  1.
         23    2    1    2    0    0  0.94196625023E+01 -0.97489384022E+00 -0.14271599172E+03  0.16878615826E+03  0.89617143840E+02 0.  0.
         23    2    1    2    0    0 -0.94196625023E+01  0.97489384022E+00 -0.96374203880E+02  0.15819611276E+03  0.12509333499E+03 0.  0.
          5    1    4    4  502    0  0.52537751084E+02  0.23386500033E+02 -0.31799573728E+02  0.65847011792E+02  0.41800000000E+01 0.  1.
         -5    1    4    4    0  502 -0.61957413586E+02 -0.22411606192E+02 -0.64574630152E+02  0.92349100968E+02  0.41800000000E+01 0.  1.
        -11    1    3    3    0    0  0.36536102454E+01  0.22570732011E+02  0.11487420539E+01  0.22893370648E+02  0.00000000000E+00 0. -1.
         11    1    3    3    0    0  0.57660522569E+01 -0.23545625851E+02 -0.14386473377E+03  0.14589278762E+03  0.00000000000E+00 0.  1.
</event>
<event>
 8    1  0.9181008E-006  0.1505843E+03  0.7561462E-02  0.1199757E+00
          1   -1    0    0  501    0  0.00000000000E+00  0.00000000000E+00  0.17797031797E+04  0.17797031797E+04  0.00000000000E+00 0. -1.
         -1   -1    0    0    0  501 -0.00000000000E+00 -0.00000000000E+00 -0.17622718553E+02  0.17622718553E+02  0.00000000000E+00 0.  1.
         23    2    1    2    0    0  0.69976207218E+02 -0.80880360942E+02  0.38878241809E+03  0.41420020651E+03  0.94719269885E+02 0.  0.
         23    2    1    2    0    0 -0.69976207218E+02  0.80880360942E+02  0.13732980430E+04  0.13831256917E+04  0.12510340424E+03 0.  0.
          5    1    4    4  502    0 -0.10625085441E+03  0.54105589229E+02  0.99831505590E+03  0.10054188590E+04  0.41800000000E+01 0.  1.
         -5    1    4    4    0  502  0.36274647194E+02  0.26774771714E+02  0.37498298711E+03  0.37770683267E+03  0.41800000000E+01 0.  1.
        -11    1    3    3    0    0 -0.62571324436E+01 -0.56063323990E+02  0.22337107516E+03  0.23038421218E+03  0.00000000000E+00 0.  1.
         11    1    3    3    0    0  0.76233339662E+02 -0.24817036953E+02  0.16541134293E+03  0.18381599432E+03  0.00000000000E+00 0. -1.
</event>
<event>
 8    1  0.9181008E-006  0.1066994E+03  0.7561462E-02  0.1266807E+00
          2   -1    0    0  501    0  0.00000000000E+00  0.00000000000E+00  0.77550998356E+03  0.77550998356E+03  0.00000000000E+00 0. -1.
         -2   -1    0    0    0  501 -0.00000000000E+00 -0.00000000000E+00 -0.23890705222E+02  0.23890705222E+02  0.00000000000E+00 0.  1.
         23    2    1    2    0    0 -0.78877247512E+02 -0.40190256931E+02  0.31388197130E+03  0.33561428267E+03  0.79234953773E+02 0.  0.
         23    2    1    2    0    0  0.78877247512E+02  0.40190256931E+02  0.43773730704E+03  0.46378640611E+03  0.12508798340E+03 0.  0.
          5    1    4    4  502    0  0.62268596214E+02  0.95533971692E+01  0.41951469124E+03  0.42423895865E+03  0.41800000000E+01 0. -1.
         -5    1    4    4    0  502  0.16608651298E+02  0.30636859762E+02  0.18222615800E+02  0.39547447460E+02  0.41800000000E+01 0. -1.
        -11    1    3    3    0    0 -0.87513683436E+02 -0.51029648981E+02  0.24099932402E+03  0.26142559944E+03  0.00000000000E+00 0.  1.
         11    1    3    3    0    0  0.86364359243E+01  0.10839392049E+02  0.72882647277E+02  0.74188683231E+02  0.00000000000E+00 0. -1.
</event>
<event>
 8    1  0.9181008E-006  0.1145179E+03  0.7561462E-02  0.1252425E+00
          1   -1    0    0  501    0  0.00000000000E+00  0.00000000000E+00  0.41177401436E+02  0.41177401436E+02  0.00000000000E+00 0. -1.
         -1   -1    0    0    0  501 -0.00000000000E+00 -0.00000000000E+00 -0.38336780234E+03  0.38336780234E+03  0.00000000000E+00 0.  1.
         23    2    1    2    0    0 -0.54130923028E+02  0.32937604529E+02 -0.15193964024E+03  0.18820669409E+03  0.91219859705E+02 0.  0.
         23    2    1    2    0    0  0.54130923028E+02 -0.32937604529E+02 -0.19025076066E+03  0.23633850968E+03  0.12508195956E+03 0.  0.
          5    1    4    4  502    0  0.30082712534E+02  0.45828747573E+02 -0.99789954132E+02  0.11393309898E+03  0.41800000000E+01 0.  1.
         -5    1    4    4    0  502  0.24048210494E+02 -0.78766352101E+02 -0.90460806530E+02  0.12240541070E+03  0.41800000000E+01 0.  1.
        -11    1    3    3    0    0  0.54195390243E+01 -0.14487111441E+02 -0.86339935866E+02  0.87714493252E+02  0.00000000000E+00 0.  1.
         11    1    3    3    0    0 -0.59550462053E+02  0.47424715970E+02 -0.65599704372E+02  0.10049220084E+03  0.00000000000E+00 0. -1.
</event>
<event>
 8    1  0.9181008E-006  0.1290104E+03  0.7561462E-02  0.1228931E+00
          1   -1    0    0  501    0  0.00000000000E+00  0.00000000000E+00  0.51049267623E+02  0.51049267623E+02  0.00000000000E+00 0. -1.
         -1   -1    0    0    0  501 -0.00000000000E+00 -0.00000000000E+00 -0.45818498614E+03  0.45818498614E+03  0.00000000000E+00 0.  1.
         23    2    1    2    0    0  0.49327158157E+02  0.76982223542E+02 -0.28119948237E+03  0.30957048510E+03  0.91658633457E+02 0.  0.
         23    2    1    2    0    0 -0.49327158157E+02 -0.76982223542E+02 -0.12593623615E+03  0.19966376867E+03  0.12508498579E+03 0.  0.
          5    1    4    4  502    0 -0.53118170732E+02  0.20468934794E+02 -0.41109388193E+02  0.70341819362E+02  0.41800000000E+01 0. -1.
         -5    1    4    4    0  502  0.37910125753E+01 -0.97451158336E+02 -0.84826847959E+02  0.12932194931E+03  0.41800000000E+01 0. -1.
        -11    1    3    3    0    0  0.50074660371E+01  0.52416439442E+02 -0.23556431325E+03  0.24137751245E+03  0.00000000000E+00 0.  1.
         11    1    3    3    0    0  0.44319692120E+02  0.24565784100E+02 -0.45635169114E+02  0.68192972645E+02  0.00000000000E+00 0. -1.
</event>
<event>
 8    1  0.9181008E-006  0.1083865E+03  0.7561462E-02  0.1263587E+00
         -1   -1    0    0    0  501 -0.00000000000E+00  0.00000000000E+00  0.36225520874E+02  0.36225520874E+02  0.00000000000E+00 0.  1.
          1   -1    0    0  501    0  0.00000000000E+00 -0.00000000000E+00 -0.46522761447E+03  0.46522761447E+03  0.00000000000E+00 0. -1.
         23    2    1    2    0    0  0.27787299162E+02 -0.48179881861E+02 -0.10146520003E+03  0.14645863736E+03  0.89785915534E+02 0.  0.
         23    2    1    2    0    0 -0.27787299162E+02  0.48179881861E+02 -0.32753689357E+03  0.35499449799E+03  0.12508893614E+03 0.  0.
          5    1    4    4  502    0  0.40460068616E+02  0.17655508174E+02 -0.46914273885E+02  0.64553509706E+02  0.41800000000E+01 0.  1.
         -5    1    4    4    0  502 -0.68247367777E+02  0.30524373687E+02 -0.28062261968E+03  0.29044098829E+03  0.41800000000E+01 0.  1.
        -11    1    3    3    0    0 -0.15094740942E+02 -0.52335491608E+02 -0.83687013030E+02  0.99851745282E+02  0.00000000000E+00 0. -1.
         11    1    3    3    0    0  0.42882040104E+02  0.41556097468E+01 -0.17778187001E+02  0.46606892075E+02  0.00000000000E+00 0.  1.
</event>
<event>
 8    1  0.9181008E-006  0.6262042E+02  0.7561462E-02  0.1387153E+00
          2   -1    0    0  501    0  0.00000000000E+00  0.00000000000E+00  0.11243854476E+04  0.11243854476E+04  0.00000000000E+00 0. -1.
         -2   -1    0    0    0  501 -0.00000000000E+00 -0.00000000000E+00 -0.11370236309E+02  0.11370236309E+02  0.00000000000E+00 0.  1.
         23    2    1    2    0    0 -0.25291342446E+02 -0.57151707912E+01  0.43078855631E+03  0.44167173691E+03  0.93929908753E+02 0.  0.
         23    2    1    2    0    0  0.25291342446E+02  0.57151707912E+01  0.68222665495E+03  0.69408394696E+03  0.12508797518E+03 0.  0.
          5    1    4    4  502    0  0.26186256513E+02  0.23094341186E+01  0.24017209583E+02  0.35851809888E+02  0.41800000000E+01 0.  1.
         -5    1    4    4    0  502 -0.89491406763E+00  0.34057366726E+01  0.65820944536E+03  0.65823213708E+03  0.41800000000E+01 0.  1.
        -11    1    3    3    0    0  0.13036634306E+02 -0.39790714437E+02  0.13103048374E+03  0.13755814211E+03  0.00000000000E+00 0. -1.
         11    1    3    3    0    0 -0.38327976751E+02  0.34075543646E+02  0.29975807256E+03  0.30411359480E+03  0.00000000000E+00 0.  1.
</event>
<event>
 8    1  0.9181008E-006  0.1229761E+03  0.7561462E-02  0.1238267E+00
          2   -1    0    0  501    0  0.00000000000E+00  0.00000000000E+00  0.34772281918E+03  0.34772281918E+03  0.00000000000E+00 0. -1.
         -2   -1    0    0    0  501 -0.00000000000E+00 -0.00000000000E+00 -0.63616451221E+02  0.63616451221E+02  0.00000000000E+00 0.  1.
         23    2    1    2    0    0  0.51270169565E+02  0.76154133581E+02  0.72106697844E+02  0.14862360566E+03  0.91986509539E+02 0.  0.
         23    2    1    2    0    0 -0.51270169565E+02 -0.76154133581E+02  0.21199967012E+03  0.26271566474E+03  0.12509027949E+03 0.  0.
          5    1    4    4  502    0  0.23061969371E+02 -0.73727351394E+02  0.80933972133E+02  0.11196140862E+03  0.41800000000E+01 0. -1.
         -5    1    4    4    0  502 -0.74332138936E+02 -0.24267821877E+01  0.13106569799E+03  0.15075425612E+03  0.41800000000E+01 0. -1.
        -11    1    3    3    0    0  0.15003285060E+02  0.40720627092E+02 -0.16588225728E+02  0.46458984773E+02  0.00000000000E+00 0.  1.
         11    1    3    3    0    0  0.36266884505E+02  0.35433506490E+02  0.88694923573E+02  0.10216462089E+03  0.00000000000E+00 0. -1.
</event>
<event>
 8    1  0.9181008E-006  0.9125644E+02  0.7561462E-02  0.1299837E+00
         -2   -1    0    0    0  501 -0.00000000000E+00  0.00000000000E+00  0.12863748662E+02  0.12863748662E+02  0.00000000000E+00 0.  1.
          2   -1    0    0  501    0  0.00000000000E+00 -0.00000000000E+00 -0.11023403365E+04  0.11023403365E+04  0.00000000000E+00 0. -1.
         23    2    1    2    0    0  0.26074189278E+02 -0.35989277475E+02 -0.21817750470E+03  0.23385044560E+03  0.71480877951E+02 0.  0.
         23    2    1    2    0    0 -0.26074189278E+02  0.35989277475E+02 -0.87129908311E+03  0.88135363953E+03  0.12508818587E+03 0.  0.
          5    1    4    4  502    0 -0.23000605262E+02 -0.31087453172E+02 -0.10275428510E+03  0.10986980064E+03  0.41800000000E+01 0.  1.
         -5    1    4    4    0  502 -0.30735840167E+01  0.67076730648E+02 -0.76854479801E+03  0.77148383888E+03  0.41800000000E+01 0.  1.
        -11    1    3    3    0    0 -0.20218344592E+02 -0.16561178339E+02 -0.12798953189E+03  0.13063067925E+03  0.00000000000E+00 0. -1.
         11    1    3    3    0    0  0.46292533870E+02 -0.19428099136E+02 -0.90187972806E+02  0.10321976636E+03  0.00000000000E+00 0.  1.
</event>
<event>
 8    1  0.9181008E-006  0.3305412E+03  0.7561462E-02  0.1070898E+00
         -2   -1    0    0    0  501 -0.00000000000E+00  0.00000000000E+00  0.60282281344E+02  0.60282281344E+02  0.00000000000E+00 0.  1.
          2   -1    0    0  501    0  0.00000000000E+00 -0.00000000000E+00 -0.19304652460E+04  0.19304652460E+04  0.00000000000E+00 0. -1.
         23    2    1    2    0    0 -0.15982101286E+03  0.27553122368E+03 -0.75535476895E+03  0.82457753302E+03  0.88921704995E+02 0.  0.
         23    2    1    2    0    0  0.15982101286E+03 -0.27553122368E+03 -0.11148281957E+04  0.11661699943E+04  0.12510131231E+03 0.  0.
          5    1    4    4  502    0  0.15499542171E+03 -0.28762302481E+03 -0.10887363046E+04  0.11367122760E+04  0.41800000000E+01 0.  1.
         -5    1    4    4    0  502  0.48255911494E+01  0.12091801138E+02 -0.26091891121E+02  0.29457718292E+02  0.41800000000E+01 0.  1.
        -11    1    3    3    0    0 -0.77123220150E+02  0.97185043972E+02 -0.19895205241E+03  0.23446714698E+03  0.00000000000E+00 0. -1.
         11    1    3    3    0    0 -0.82697792708E+02  0.17834617970E+03 -0.55640271654E+03  0.59011038604E+03  0.00000000000E+00 0.  1.
</event>
<event>
 8    1  0.9181008E-006  0.1063832E+03  0.7561462E-02  0.1267418E+00
          4   -1    0    0  501    0  0.00000000000E+00  0.00000000000E+00  0.33812487881E+03  0.33812487881E+03  0.00000000000E+00 0. -1.
         -4   -1    0    0    0  501 -0.00000000000E+00 -0.00000000000E+00 -0.46898850513E+02  0.46898850513E+02  0.00000000000E+00 0.  1.
         23    2    1    2    0    0 -0.19997190917E+02 -0.29271754623E+02  0.47112033662E+02  0.10845522964E+03  0.91028950659E+02 0.  0.
         23    2    1    2    0    0  0.19997190917E+02  0.29271754623E+02  0.24411399464E+03  0.27656849968E+03  0.12506705951E+03 0.  0.
          5    1    4    4  502    0  0.39880996852E+02 -0.33223557651E+02  0.16862664849E+03  0.17648432699E+03  0.41800000000E+01 0. -1.
         -5    1    4    4    0  502 -0.19883805935E+02  0.62495312274E+02  0.75487346151E+02  0.10008417269E+03  0.41800000000E+01 0. -1.
        -11    1    3    3    0    0 -0.41603936964E+02  0.16188539760E+02  0.95545978597E+01  0.45653551129E+02  0.00000000000E+00 0.  1.
         11    1    3    3    0    0  0.21606746047E+02 -0.45460294383E+02  0.37557435802E+02  0.62801678514E+02  0.00000000000E+00 0. -1.
</event>
<event>
 8    1  0.9181008E-006  0.9841729E+02  0.7561462E-02  0.1283660E+00
          1   -1    0    0  501    0  0.00000000000E+00  0.00000000000E+00  0.61578108429E+03  0.61578108429E+03  0.00000000000E+00 0. -1.
         -1   -1    0    0    0  501 -0.00000000000E+00 -0.00000000000E+00 -0.22135548335E+02  0.22135548335E+02  0.00000000000E+00 0.  1.
         23    2    1    2    0    0  0.13959329938E+02  0.15435620865E+02  0.16115743026E+03  0.18722091773E+03  0.92988351022E+02 0.  0.
         23    2    1    2    0    0 -0.13959329938E+02 -0.15435620865E+02  0.43248810570E+03  0.45069571490E+03  0.12509014577E+03 0.  0.
          5    1    4    4  502    0 -0.18264230462E+02  0.46200975695E+02  0.30401596573E+03  0.30807676331E+03  0.41800000000E+01 0.  1.
         -5    1    4    4    0  502  0.43049005245E+01 -0.61636596559E+02  0.12847213997E+03  0.14261895159E+03  0.41800000000E+01 0.  1.
        -11    1    3    3    0    0  0.42352715310E+02 -0.13558100848E+02  0.12569042697E+03  0.13332538403E+03  0.00000000000E+00 0. -1.
         11    1    3    3    0    0 -0.28393385373E+02  0.28993721712E+02  0.35467003283E+02  0.53895533707E+02  0.00000000000E+00 0.  1.
</event>
<event>
 8    1  0.9181008E-006  0.2093152E+03  0.7561462E-02  0.1142109E+00
         -2   -1    0    0    0  501 -0.00000000000E+00  0.00000000000E+00  0.67150977999E+02  0.67150977999E+02  0.00000000000E+00 0.  1.
          2   -1    0    0  501    0  0.00000000000E+00 -0.00000000000E+00 -0.79709161850E+03  0.79709161850E+03  0.00000000000E+00 0. -1.
         23    2    1    2    0    0  0.15099206220E+03  0.11705530054E+03 -0.22174033455E+03  0.30709035347E+03  0.92925577738E+02 0.  0.
         23    2    1    2    0    0 -0.15099206220E+03 -0.11705530054E+03 -0.50820030596E+03  0.55715224303E+03  0.12510205716E+03 0.  0.
          5    1    4    4  502    0 -0.16085764483E+03 -0.65447884311E+02 -0.35682065462E+03  0.39685899187E+03  0.41800000000E+01 0. -1.
         -5    1    4    4    0  502  0.98655826242E+01 -0.51607416227E+02 -0.15137965133E+03  0.16029325116E+03  0.41800000000E+01 0. -1.
        -11    1    3    3    0    0  0.13852355388E+03  0.98984512023E+02 -0.13405057714E+03  0.21669394507E+03  0.00000000000E+00 0.  1.
         11    1    3    3    0    0  0.12468508328E+02  0.18070788515E+02 -0.87689757410E+02  0.90396408403E+02  0.00000000000E+00 0. -1.
</event>
<event>
 8    1  0.9181008E-006  0.1065220E+03  0.7561462E-02  0.1267150E+00
         -2   -1    0    0    0  501 -0.00000000000E+00  0.00000000000E+00  0.10657742609E+03  0.10657742609E+03  0.00000000000E+00 0.  1.
          2   -1    0    0  501    0  0.00000000000E+00 -0.00000000000E+00 -0.23201285125E+03  0.23201285125E+03  0.00000000000E+00 0. -1.
         23    2    1    2    0    0  0.16560784745E+02 -0.76124620734E+02  0.33942931719E+02  0.12152052486E+03  0.86867127701E+02 0.  0.
         23    2    1    2    0    0 -0.16560784745E+02  0.76124620734E+02 -0.15937835688E+03  0.21706975249E+03  0.12509436169E+03 0.  0.
          5    1    4    4  502    0 -0.39682794318E+02  0.32824615315E+02 -0.15965180468E+03  0.16780450135E+03  0.41800000000E+01 0.  1.
         -5    1    4    4    0  502  0.23122009573E+02  0.43300005419E+02  0.27344779367E+00  0.49265251138E+02  0.41800000000E+01 0.  1.
        -11    1    3    3    0    0  0.28766128956E+02  0.57469056196E+01 -0.54698585992E+01  0.29840181843E+02  0.00000000000E+00 0. -1.
         11    1    3    3    0    0 -0.12205344211E+02 -0.81871526354E+02  0.39412790318E+02  0.91680343016E+02  0.00000000000E+00 0.  1.
</event>
<event>
 8    1  0.9181008E-006  0.8985528E+02  0.7561462E-02  0.1303203E+00
         -3   -1    0    0    0  501 -0.00000000000E+00  0.00000000000E+00  0.93866472717E+02  0.93866472717E+02  0.00000000000E+00 0.  1.
          3   -1    0    0  501    0  0.00000000000E+00 -0.00000000000E+00 -0.25398137359E+03  0.25398137359E+03  0.00000000000E+00 0. -1.
         23    2    1    2    0    0  0.25977930496E+02  0.64568508840E+01  0.46904882627E+02  0.10449520743E+03  0.89457456736E+02 0.  0.
         23    2    1    2    0    0 -0.25977930496E+02 -0.64568508840E+01 -0.20701978350E+03  0.24335263888E+03  0.12508705885E+03 0.  0.
          5    1    4    4  502    0 -0.22278586512E+02 -0.45842384321E+02 -0.24790608253E+02  0.56832264382E+02  0.41800000000E+01 0. -1.
         -5    1    4    4    0  502 -0.36993439834E+01  0.39385533437E+02 -0.18222917525E+03  0.18652037450E+03  0.41800000000E+01 0. -1.
        -11    1    3    3    0    0  0.39508223543E+02 -0.30192410431E+02  0.99316527195E+01  0.50706203771E+02  0.00000000000E+00 0. -1.
         11    1    3    3    0    0 -0.13530293047E+02  0.36649261315E+02  0.36973229907E+02  0.53789003659E+02  0.00000000000E+00 0.  1.
</event>
<event>
 8    1  0.9181008E-006  0.1565646E+03  0.7561462E-02  0.1192631E+00
         -2   -1    0    0    0  501 -0.00000000000E+00  0.00000000000E+00  0.32489807598E+02  0.32489807598E+02  0.00000000000E+00 0. -1.
          2   -1    0    0  501    0  0.00000000000E+00 -0.00000000000E+00 -0.98110190528E+03  0.98110190528E+03  0.00000000000E+00 0.  1.
         23    2    1    2    0    0 -0.46486646993E+02  0.12499004969E+03 -0.58130061173E+03  0.60328787698E+03  0.90897417134E+02 0.  0.
         23    2    1    2    0    0  0.46486646993E+02 -0.12499004969E+03 -0.36731148596E+03  0.41030383590E+03  0.12509192289E+03 0.  0.
          5    1    4    4  502    0 -0.24713400602E+02 -0.42137512417E+01 -0.14665027436E+03  0.14883643115E+03  0.41800000000E+01 0.  1.
         -5    1    4    4    0  502  0.71200047595E+02 -0.12077629845E+03 -0.22066121160E+03  0.26146740475E+03  0.41800000000E+01 0.  1.
        -11    1    3    3    0    0 -0.45656182591E+02  0.35185164446E+02 -0.11755516503E+03  0.13092631375E+03  0.00000000000E+00 0. -1.
         11    1    3    3    0    0 -0.83046440199E+00  0.89804885241E+02 -0.46374544670E+03  0.47236156323E+03  0.00000000000E+00 0.  1.
</event>
<event>
 8    1  0.9181008E-006  0.1071897E+03  0.7561462E-02  0.1265864E+00
         -1   -1    0    0    0  501 -0.00000000000E+00  0.00000000000E+00  0.71988132129E+02  0.71988132129E+02  0.00000000000E+00 0.  1.
          1   -1    0    0  501    0  0.00000000000E+00 -0.00000000000E+00 -0.28761082844E+03  0.28761082844E+03  0.00000000000E+00 0. -1.
         23    2    1    2    0    0  0.21001534816E+01 -0.41879432308E+01  0.19517472264E+02  0.93215334484E+02  0.91028662224E+02 0.  0.
         23    2    1    2    0    0 -0.21001534816E+01  0.41879432308E+01 -0.23514016857E+03  0.26638362608E+03  0.12508951937E+03 0.  0.
          5    1    4    4  502    0 -0.40424690220E+02 -0.46272548961E+02 -0.12081218466E+03  0.13560368995E+03  0.41800000000E+01 0. -1.
         -5    1    4    4    0  502  0.38324536738E+02  0.50460492192E+02 -0.11432798392E+03  0.13077993614E+03  0.41800000000E+01 0. -1.
        -11    1    3    3    0    0 -0.77291066534E+01 -0.45844421742E+02  0.79266775797E+00  0.46498154982E+02  0.00000000000E+00 0. -1.
         11    1    3    3    0    0  0.98292601350E+01  0.41656478512E+02  0.18724804506E+02  0.46717179502E+02  0.00000000000E+00 0.  1.
</event>
<event>
 8    1  0.9181008E-006  0.9837075E+02  0.7561462E-02  0.1283760E+00
          2   -1    0    0  501    0  0.00000000000E+00  0.00000000000E+00  0.65235916156E+02  0.65235916156E+02  0.00000000000E+00 0. -1.
         -2   -1    0    0    0  501 -0.00000000000E+00 -0.00000000000E+00 -0.19961446284E+03  0.19961446284E+03  0.00000000000E+00 0.  1.
         23    2    1    2    0    0 -0.27583517851E+02  0.16660186164E+02 -0.77650783881E+02  0.12376808201E+03  0.90832161858E+02 0.  0.
         23    2    1    2    0    0  0.27583517851E+02 -0.16660186164E+02 -0.56727762802E+02  0.14108229698E+03  0.12509101962E+03 0.  0.
          5    1    4    4  502    0 -0.38287338547E+02 -0.26799356473E+02 -0.57608421116E+02  0.74298912400E+02  0.41800000000E+01 0. -1.
         -5    1    4    4    0  502  0.65870856398E+02  0.10139170308E+02  0.88065831347E+00  0.66783384581E+02  0.41800000000E+01 0. -1.
        -11    1    3    3    0    0  0.25859207496E+02 -0.31418067423E+01  0.16610468792E+01  0.26102272673E+02  0.00000000000E+00 0. -1.
         11    1    3    3    0    0 -0.53442725347E+02  0.19801992907E+02 -0.79311830760E+02  0.97665809340E+02  0.00000000000E+00 0.  1.
</event>
<event>
 8    1  0.9181008E-006  0.9898231E+02  0.7561462E-02  0.1282451E+00
          2   -1    0    0  501    0  0.00000000000E+00  0.00000000000E+00  0.14429754816E+04  0.14429754816E+04  0.00000000000E+00 0. -1.
         -2   -1    0    0    0  501 -0.00000000000E+00 -0.00000000000E+00 -0.96968572641E+01  0.96968572641E+01  0.00000000000E+00 0.  1.
         23    2    1    2    0    0 -0.42101525824E+02  0.82145850378E+01  0.37116640141E+03  0.38282719576E+03  0.83379532235E+02 0.  0.
         23    2    1    2    0    0  0.42101525824E+02 -0.82145850378E+01  0.10621122229E+04  0.10698451431E+04  0.12102164371E+03 0.  0.
          5    1    4    4  502    0  0.75137343830E+02 -0.22597656564E+01  0.94362685716E+03  0.94662550405E+03  0.41800000000E+01 0. -1.
         -5    1    4    4    0  502 -0.33035818006E+02 -0.59548193814E+01  0.11848536573E+03  0.12321963901E+03  0.41800000000E+01 0.  1.
        -11    1    3    3    0    0 -0.64863387555E+02  0.11427081301E+02  0.32039223487E+03  0.32709176296E+03  0.00000000000E+00 0.  1.
         11    1    3    3    0    0  0.22761861732E+02 -0.32124962634E+01  0.50774166545E+02  0.55735432806E+02  0.00000000000E+00 0. -1.
</event>
<event>
 8    1  0.9181008E-006  0.1373135E+03  0.7561462E-02  0.1216990E+00
          3   -1    0    0  501    0  0.00000000000E+00  0.00000000000E+00  0.57404076632E+02  0.57404076632E+02  0.00000000000E+00 0. -1.
         -3   -1    0    0    0  501 -0.00000000000E+00 -0.00000000000E+00 -0.36280013580E+03  0.36280013580E+03  0.00000000000E+00 0.  1.
         23    2    1    2    0    0 -0.55288441373E+02 -0.84646414167E+02 -0.14809155412E+03  0.19522712660E+03  0.77205539811E+02 0.  0.
         23    2    1    2    0    0  0.55288441373E+02  0.84646414167E+02 -0.15730450505E+03  0.22497708583E+03  0.12509258435E+03 0.  0.
          5    1    4    4  502    0  0.85604277185E+02  0.33730180857E+02 -0.56745533990E+02  0.10818200128E+03  0.41800000000E+01 0. -1.
         -5    1    4    4    0  502 -0.30315835812E+02  0.50916233310E+02 -0.10055897106E+03  0.11679508455E+03  0.41800000000E+01 0. -1.
        -11    1    3    3    0    0  0.16910120991E+02 -0.12318411593E+02 -0.93637317636E+01  0.22921058628E+02  0.00000000000E+00 0.  1.
         11    1    3    3    0    0 -0.72198562364E+02 -0.72328002574E+02 -0.13872782236E+03  0.17230606797E+03  0.00000000000E+00 0. -1.
</event>
<event>
 8    1  0.9181008E-006  0.1076685E+03  0.7561462E-02  0.1264949E+00
         -1   -1    0    0    0  501 -0.00000000000E+00  0.00000000000E+00  0.21348984022E+03  0.21348984022E+03  0.00000000000E+00 0.  1.
          1   -1    0    0  501    0  0.00000000000E+00 -0.00000000000E+00 -0.59128269263E+02  0.59128269263E+02  0.00000000000E+00 0. -1.
         23    2    1    2    0    0 -0.21731990934E+02  0.60765055409E+01  0.84831640363E+02  0.12773323646E+03  0.92790997084E+02 0.  0.
         23    2    1    2    0    0  0.21731990934E+02 -0.60765055409E+01  0.69529930592E+02  0.14488487302E+03  0.12509201347E+03 0.  0.
          5    1    4    4  502    0  0.66159524798E+02 -0.25849986103E+02  0.64112292155E+02  0.95776630283E+02  0.41800000000E+01 0.  1.
         -5    1    4    4    0  502 -0.44427533863E+02  0.19773480562E+02  0.54176384370E+01  0.49108242739E+02  0.41800000000E+01 0.  1.
        -11    1    3    3    0    0 -0.58061073708E+02  0.97007228797E+01  0.55446530554E+02  0.80867237216E+02  0.00000000000E+00 0. -1.
         11    1    3    3    0    0  0.36329082773E+02 -0.36242173388E+01  0.29385109809E+02  0.46865999242E+02  0.00000000000E+00 0.  1.
</event>
<event>
 8    1  0.9181008E-006  0.8990863E+02  0.7561462E-02  0.1303073E+00
         -2   -1    0    0    0  501 -0.00000000000E+00  0.00000000000E+00  0.94534572870E+01  0.94534572870E+01  0.00000000000E+00 0.  1.
          2   -1    0    0  501    0  0.00000000000E+00 -0.00000000000E+00 -0.24891496720E+04  0.24891496720E+04  0.00000000000E+00 0. -1.
         23    2    1    2    0    0 -0.14683771955E+01  0.25166854029E+02 -0.28946338418E+03  0.30465590360E+03  0.91600448398E+02 0.  0.
         23    2    1    2    0    0  0.14683771955E+01 -0.25166854029E+02 -0.21902328306E+04  0.21939472257E+04  0.12509616486E+03 0.  0.
          5    1    4    4  502    0  0.41939792819E+02 -0.73524815320E+01 -0.28469766987E+03  0.28789449602E+03  0.41800000000E+01 0.  1.
         -5    1    4    4    0  502 -0.40471415624E+02 -0.17814372497E+02 -0.19055351607E+04  0.19060527297E+04  0.41800000000E+01 0.  1.
        -11    1    3    3    0    0 -0.19381441256E+02 -0.29384260837E+02 -0.14474066677E+03  0.14895951016E+03  0.00000000000E+00 0. -1.
         11    1    3    3    0    0  0.17913064061E+02  0.54551114865E+02 -0.14472271741E+03  0.15569639345E+03  0.00000000000E+00 0.  1.
</event>
<event>
 8    1  0.9181008E-006  0.7910297E+02  0.7561462E-02  0.1331617E+00
         -3   -1    0    0    0  501 -0.00000000000E+00  0.00000000000E+00  0.14266681873E+03  0.14266681873E+03  0.00000000000E+00 0.  1.
          3   -1    0    0  501    0  0.00000000000E+00 -0.00000000000E+00 -0.10534548496E+03  0.10534548496E+03  0.00000000000E+00 0. -1.
         23    2    1    2    0    0  0.29183090756E+02 -0.15236677688E+02  0.67801423116E+02  0.11511922276E+03  0.87014902978E+02 0.  0.
         23    2    1    2    0    0 -0.29183090756E+02  0.15236677688E+02 -0.30480089350E+02  0.13289308093E+03  0.12509087089E+03 0.  0.
          5    1    4    4  502    0 -0.22308173080E+02 -0.39642605986E+02 -0.55638375723E+02  0.71988138250E+02  0.41800000000E+01 0. -1.
         -5    1    4    4    0  502 -0.68749176757E+01  0.54879283675E+02  0.25158286373E+02  0.60904942680E+02  0.41800000000E+01 0. -1.
        -11    1    3    3    0    0 -0.53302789219E+00 -0.25587261793E+02 -0.12783931210E+02  0.28608057990E+02  0.00000000000E+00 0. -1.
         11    1    3    3    0    0  0.29716118648E+02  0.10350584104E+02  0.80585354326E+02  0.86511164774E+02  0.00000000000E+00 0.  1.
</event>
<event>
 8    1  0.2036390E-005  0.2239746E+03  0.7561462E-02  0.1130954E+00
          1   -1    0    0  501    0  0.00000000000E+00  0.00000000000E+00  0.72804433200E+03  0.72804433200E+03  0.00000000000E+00 0. -1.
         -1   -1    0    0    0  501 -0.00000000000E+00 -0.00000000000E+00 -0.77273226268E+02  0.77273226268E+02  0.00000000000E+00 0.  1.
         23    2    1    2    0    0  0.14699908425E+03 -0.14533230592E+03  0.25385334818E+03  0.34064379582E+03  0.94161899598E+02 0.  0.
         23    2    1    2    0    0 -0.14699908425E+03  0.14533230592E+03  0.39691775756E+03  0.46467376245E+03  0.12509112411E+03 0.  0.
          5    1    4    4  502    0 -0.43726263122E+02  0.11194046223E+03  0.13312626529E+03  0.17939545168E+03  0.41800000000E+01 0.  1.
         -5    1    4    4    0  502 -0.10327282113E+03  0.33391843692E+02  0.26379149226E+03  0.28527831078E+03  0.41800000000E+01 0.  1.
        -11    1    3    3    0    0  0.13160273707E+03 -0.84650439801E+02  0.13654958547E+03  0.20767948058E+03  0.00000000000E+00 0.  1.
         11    1    3    3    0    0  0.15396347182E+02 -0.60681866120E+02  0.11730376270E+03  0.13296431524E+03  0.00000000000E+00 0. -1.
</event>
<event>
 8    1  0.9181008E-006  0.1083117E+03  0.7561462E-02  0.1263729E+00
          1   -1    0    0  501    0  0.00000000000E+00  0.00000000000E+00  0.25163832667E+03  0.25163832667E+03  0.00000000000E+00 0. -1.
         -1   -1    0    0    0  501 -0.00000000000E+00 -0.00000000000E+00 -0.73837532872E+02  0.73837532872E+02  0.00000000000E+00 0.  1.
         23    2    1    2    0    0 -0.27042854342E+02  0.35772489591E+02 -0.10822405569E+02  0.94721503074E+02  0.82728783986E+02 0.  0.
         23    2    1    2    0    0  0.27042854342E+02 -0.35772489591E+02  0.18862319937E+03  0.23075435646E+03  0.12513142973E+03 0.  0.
          5    1    4    4  502    0 -0.30127447907E+02  0.25822797161E+02  0.10412357146E+03  0.11150636979E+03  0.41800000000E+01 0. -1.
         -5    1    4    4    0  502  0.57170302250E+02 -0.61595286752E+02  0.84499627905E+02  0.11924798667E+03  0.41800000000E+01 0. -1.
        -11    1    3    3    0    0  0.27337376904E+02 -0.27582099820E+00  0.44909257002E+01  0.27705174009E+02  0.00000000000E+00 0. -1.
         11    1    3    3    0    0 -0.54380231247E+02  0.36048310589E+02 -0.15313331269E+02  0.67016329065E+02  0.00000000000E+00 0.  1.
</event>
<event>
 8    1  0.9181008E-006  0.1154799E+03  0.7561462E-02  0.1250746E+00
          2   -1    0    0  501    0  0.00000000000E+00  0.00000000000E+00  0.37661097010E+03  0.37661097010E+03  0.00000000000E+00 0. -1.
         -2   -1    0    0    0  501 -0.00000000000E+00 -0.00000000000E+00 -0.47365283256E+02  0.47365283256E+02  0.00000000000E+00 0.  1.
         23    2    1    2    0    0  0.32892757684E+02  0.69606578820E+02  0.17050980260E+03  0.20771048239E+03  0.90238807569E+02 0.  0.
         23    2    1    2    0    0 -0.32892757684E+02 -0.69606578820E+02  0.15873588425E+03  0.21626577096E+03  0.12508714330E+03 0.  0.
          5    1    4    4  502    0  0.40738363984E+02 -0.50263426132E+02  0.10344616744E+03  0.12208443088E+03  0.41800000000E+01 0.  1.
         -5    1    4    4    0  502 -0.73631121668E+02 -0.19343152688E+02  0.55289716811E+02  0.94181340079E+02  0.41800000000E+01 0.  1.
        -11    1    3    3    0    0 -0.10912892559E+02  0.25407465127E+02  0.15955771402E+01  0.27697948924E+02  0.00000000000E+00 0.  1.
         11    1    3    3    0    0  0.43805650244E+02  0.44199113693E+02  0.16891422545E+03  0.18001253347E+03  0.00000000000E+00 0. -1.
</event>
<event>
 8    1  0.9181008E-006  0.9346936E+02  0.7561462E-02  0.1294661E+00
          4   -1    0    0  501    0  0.00000000000E+00  0.00000000000E+00  0.16559285719E+03  0.16559285719E+03  0.00000000000E+00 0. -1.
         -4   -1    0    0    0  501 -0.00000000000E+00 -0.00000000000E+00 -0.72776181846E+02  0.72776181846E+02  0.00000000000E+00 0.  1.
         23    2    1    2    0    0 -0.10541314034E+02 -0.16159537699E+02  0.32278276946E+02  0.98058051120E+02  0.90560721434E+02 0.  0.
         23    2    1    2    0    0  0.10541314034E+02  0.16159537699E+02  0.60538398403E+02  0.14031098792E+03  0.12510006271E+03 0.  0.
          5    1    4    4  502    0 -0.36636336923E+02 -0.28032747600E+02  0.59655917195E+02  0.75527193630E+02  0.41800000000E+01 0. -1.
         -5    1    4    4    0  502  0.47177650957E+02  0.44192285299E+02  0.88248120715E+00  0.64783794292E+02  0.41800000000E+01 0. -1.
        -11    1    3    3    0    0 -0.42283890949E+02 -0.75617484245E+01 -0.10383691809E+02  0.44191950948E+02  0.00000000000E+00 0.  1.
         11    1    3    3    0    0  0.31742576915E+02 -0.85977892740E+01  0.42661968755E+02  0.53866100171E+02  0.00000000000E+00 0. -1.
</event>
<event>
 8    1  0.9181008E-006  0.1389834E+03  0.7561462E-02  0.1214704E+00
         -1   -1    0    0    0  501 -0.00000000000E+00  0.00000000000E+00  0.58218834829E+02  0.58218834829E+02  0.00000000000E+00 0.  1.
          1   -1    0    0  501    0  0.00000000000E+00 -0.00000000000E+00 -0.46862679821E+03  0.46862679821E+03  0.00000000000E+00 0. -1.
         23    2    1    2    0    0  0.85930539906E+02  0.40143599870E+02 -0.63816209803E+02  0.14636049926E+03  0.91396503276E+02 0.  0.
         23    2    1    2    0    0 -0.85930539906E+02 -0.40143599870E+02 -0.34659175357E+03  0.38048513377E+03  0.12509007586E+03 0.  0.
          5    1    4    4  502    0  0.23714664198E+02  0.13622668789E+02 -0.11892479224E+03  0.12210053650E+03  0.41800000000E+01 0.  1.
         -5    1    4    4    0  502 -0.10964520410E+03 -0.53766268659E+02 -0.22766696133E+03  0.25838459728E+03  0.41800000000E+01 0.  1.
        -11    1    3    3    0    0 -0.36770149298E+01  0.38307968910E+02 -0.35527353567E+02  0.52375698299E+02  0.00000000000E+00 0. -1.
         11    1    3    3    0    0  0.89607554836E+02  0.18356309601E+01 -0.28288856237E+02  0.93984800962E+02  0.00000000000E+00 0.  1.
</event>
<event>
 8    1  0.9181008E-006  0.1025864E+03  0.7561462E-02  0.1274949E+00
         -2   -1    0    0    0  501 -0.00000000000E+00  0.00000000000E+00  0.50570846617E+02  0.50570846617E+02  0.00000000000E+00 0.  1.
          2   -1    0    0  501    0  0.00000000000E+00 -0.00000000000E+00 -0.34096343385E+03  0.34096343385E+03  0.00000000000E+00 0. -1.
         23    2    1    2    0    0  0.32002096483E+02  0.34888834738E+02 -0.42820217044E+02  0.11014214709E+03  0.89757209237E+02 0.  0.
         23    2    1    2    0    0 -0.32002096483E+02 -0.34888834738E+02 -0.24757237019E+03  0.28139213337E+03  0.12509232301E+03 0.  0.
          5    1    4    4  502    0 -0.28048984598E+02 -0.67983148049E+02 -0.23372751160E+03  0.24506014779E+03  0.41800000000E+01 0. -1.
         -5    1    4    4    0  502 -0.39531118856E+01  0.33094313312E+02 -0.13844858587E+02  0.36331985584E+02  0.41800000000E+01 0. -1.
        -11    1    3    3    0    0 -0.24997136555E+02 -0.83745228144E+01 -0.25148053652E+02  0.36433694169E+02  0.00000000000E+00 0.  1.
         11    1    3    3    0    0  0.56999233038E+02  0.43263357552E+02 -0.17672163392E+02  0.73708452924E+02  0.00000000000E+00 0. -1.
</event>
<event>
 8    1  0.9181008E-006  0.1105944E+03  0.7561462E-02  0.1259473E+00
         -1   -1    0    0    0  501 -0.00000000000E+00  0.00000000000E+00  0.11745080558E+02  0.11745080558E+02  0.00000000000E+00 0.  1.
          1   -1    0    0  501    0  0.00000000000E+00 -0.00000000000E+00 -0.12628892167E+04  0.12628892167E+04  0.00000000000E+00 0. -1.
         23    2    1    2    0    0 -0.48998213879E+02 -0.36278502215E+01 -0.33532751078E+03  0.34901685288E+03  0.83392073057E+02 0.  0.
         23    2    1    2    0    0  0.48998213879E+02  0.36278502215E+01 -0.91581662533E+03  0.92561744434E+03  0.12503429843E+03 0.  0.
          5    1    4    4  502    0  0.58797893582E+02 -0.47284170187E+02 -0.67685410629E+03  0.68105942372E+03  0.41800000000E+01 0.  1.
         -5    1    4    4    0  502 -0.97996797027E+01  0.50912020408E+02 -0.23896251904E+03  0.24455802062E+03  0.41800000000E+01 0.  1.
        -11    1    3    3    0    0 -0.46110711144E+01 -0.37493120445E+02 -0.93809031194E+02  0.10112927564E+03  0.00000000000E+00 0.  1.
         11    1    3    3    0    0 -0.44387142764E+02  0.33865270223E+02 -0.24151847958E+03  0.24788757724E+03  0.00000000000E+00 0. -1.
</event>
<event>
 8    1  0.9181008E-006  0.1227888E+03  0.7561462E-02  0.1238566E+00
          2   -1    0    0  501    0  0.00000000000E+00  0.00000000000E+00  0.54251956286E+03  0.54251956286E+03  0.00000000000E+00 0. -1.
         -2   -1    0    0    0  501 -0.00000000000E+00 -0.00000000000E+00 -0.31308366148E+02  0.31308366148E+02  0.00000000000E+00 0.  1.
         23    2    1    2    0    0  0.64003142207E+02  0.10028608864E+02  0.15107190997E+03  0.18711873156E+03  0.89407619996E+02 0.  0.
         23    2    1    2    0    0 -0.64003142207E+02 -0.10028608864E+02  0.36013928675E+03  0.38670919744E+03  0.12508685911E+03 0.  0.
          5    1    4    4  502    0  0.95634210299E+01  0.45189304368E+02  0.88965813951E+02  0.10032906211E+03  0.41800000000E+01 0. -1.
         -5    1    4    4    0  502 -0.73566563237E+02 -0.55217913232E+02  0.27117347280E+03  0.28638013534E+03  0.41800000000E+01 0. -1.
        -11    1    3    3    0    0  0.71295442776E+02  0.36194476924E+02  0.13049180993E+03  0.15303984050E+03  0.00000000000E+00 0. -1.
         11    1    3    3    0    0 -0.72923005689E+01 -0.26165868060E+02  0.20580100035E+02  0.34078891067E+02  0.00000000000E+00 0.  1.
</event>
<event>
 8    1  0.9181008E-006  0.1129908E+03  0.7561462E-02  0.1255129E+00
          1   -1    0    0  501    0  0.00000000000E+00  0.00000000000E+00  0.29737947674E+03  0.29737947674E+03  0.00000000000E+00 0. -1.
         -1   -1    0    0    0  501 -0.00000000000E+00 -0.00000000000E+00 -0.66264475094E+02  0.66264475094E+02  0.00000000000E+00 0.  1.
         23    2    1    2    0    0 -0.59374095495E+02  0.27168986489E+02  0.25193630459E+02  0.11401681051E+03  0.90009316294E+02 0.  0.
         23    2    1    2    0    0  0.59374095495E+02 -0.27168986489E+02  0.20592137119E+03  0.24962714133E+03  0.12508661612E+03 0.  0.
          5    1    4    4  502    0 -0.29090377044E+02 -0.37495259022E+02  0.44363126752E+02  0.65097648966E+02  0.41800000000E+01 0.  1.
         -5    1    4    4    0  502  0.88464472539E+02  0.10326272532E+02  0.16155824444E+03  0.18452949236E+03  0.41800000000E+01 0.  1.
        -11    1    3    3    0    0 -0.62299187402E+02  0.45146536258E+00  0.48095552376E+02  0.78705620703E+02  0.00000000000E+00 0. -1.
         11    1    3    3    0    0  0.29250919066E+01  0.26717521127E+02 -0.22901921918E+02  0.35311189804E+02  0.00000000000E+00 0.  1.
</event>
<event>
 8    1  0.9181008E-006  0.1149779E+03  0.7561462E-02  0.1251620E+00
          2   -1    0    0  501    0  0.00000000000E+00  0.00000000000E+00  0.21266770918E+03  0.21266770918E+03  0.00000000000E+00 0. -1.
         -2   -1    0    0    0  501 -0.00000000000E+00 -0.00000000000E+00 -0.82463607836E+02  0.82463607836E+02  0.00000000000E+00 0.  1.
         23    2    1    2    0    0 -0.52935181657E+02  0.54574805421E+02  0.64334029531E+02  0.13460886410E+03  0.90554602843E+02 0.  0.
         23    2    1    2    0    0  0.52935181657E+02 -0.54574805421E+02  0.65870071809E+02  0.16052245291E+03  0.12509216076E+03 0.  0.
          5    1    4    4  502    0 -0.22168986209E+02 -0.25726126058E+02  0.72010244912E+02  0.79726064018E+02  0.41800000000E+01 0.  1.
         -5    1    4    4    0  502  0.75104167865E+02 -0.28848679363E+02 -0.61401731031E+01  0.80796388889E+02  0.41800000000E+01 0.  1.
        -11    1    3    3    0    0 -0.75924434745E+02  0.30310565908E+02  0.58865032197E+02  0.10073898060E+03  0.00000000000E+00 0. -1.
         11    1    3    3    0    0  0.22989253088E+02  0.24264239513E+02  0.54689973341E+01  0.33869883504E+02  0.00000000000E+00 0.  1.
</event>
<event>
 8    1  0.9181008E-006  0.1007493E+03  0.7561462E-02  0.1278728E+00
         -2   -1    0    0    0  501 -0.00000000000E+00  0.00000000000E+00  0.55529812553E+02  0.55529812553E+02  0.00000000000E+00 0.  1.
          2   -1    0    0  501    0  0.00000000000E+00 -0.00000000000E+00 -0.31431757964E+03  0.31431757964E+03  0.00000000000E+00 0. -1.
         23    2    1    2    0    0  0.53816247801E+02  0.15026960389E+02 -0.51848043835E+02  0.12166784040E+03  0.94830615693E+02 0.  0.
         23    2    1    2    0    0 -0.53816247801E+02 -0.15026960389E+02 -0.20693972326E+03  0.24817955179E+03  0.12508814013E+03 0.  0.
          5    1    4    4  502    0 -0.35759730533E+02 -0.45448893597E+02 -0.25612728533E+02  0.63386469533E+02  0.41800000000E+01 0.  1.
         -5    1    4    4    0  502 -0.18056517269E+02  0.30421933208E+02 -0.18132699472E+03  0.18479308226E+03  0.41800000000E+01 0.  1.
        -11    1    3    3    0    0 -0.78102636838E+01 -0.30366072992E+02 -0.26460141797E+02  0.41027280091E+02  0.00000000000E+00 0.  1.
         11    1    3    3    0    0  0.61626511485E+02  0.45393033382E+02 -0.25387902038E+02  0.80640560311E+02  0.00000000000E+00 0. -1.
</event>
<event>
 8    1  0.9181008E-006  0.1248564E+03  0.7561462E-02  0.1235294E+00
         -4   -1    0    0    0  501 -0.00000000000E+00  0.00000000000E+00  0.75958914984E+02  0.75958914984E+02  0.00000000000E+00 0.  1.
          4   -1    0    0  501    0  0.00000000000E+00 -0.00000000000E+00 -0.25691171957E+03  0.25691171957E+03  0.00000000000E+00 0. -1.
         23    2    1    2    0    0  0.59396415782E+02  0.48264909853E+02 -0.27504532042E+02  0.12062012944E+03  0.89080192036E+02 0.  0.
         23    2    1    2    0    0 -0.59396415782E+02 -0.48264909853E+02 -0.15344827254E+03  0.21225050511E+03  0.12508584589E+03 0.  0.
          5    1    4    4  502    0 -0.51544239908E+01  0.34972072217E+02 -0.83218552641E+02  0.90511954047E+02  0.41800000000E+01 0. -1.
         -5    1    4    4    0  502 -0.54241991791E+02 -0.83236982070E+02 -0.70229719902E+02  0.12173855106E+03  0.41800000000E+01 0. -1.
        -11    1    3    3    0    0 -0.88039989076E+01 -0.17716827417E+02  0.48364310893E+01  0.20366330945E+02  0.00000000000E+00 0.  1.
         11    1    3    3    0    0  0.68200414690E+02  0.65981737269E+02 -0.32340963131E+02  0.10025379850E+03  0.00000000000E+00 0. -1.
</event>
<event>
 8    1  0.9181008E-006  0.1014706E+03  0.7561462E-02  0.1277234E+00
         -2   -1    0    0    0  501 -0.00000000000E+00  0.00000000000E+00  0.14728270903E+02  0.14728270903E+02  0.00000000000E+00 0.  1.
          2   -1    0    0  501    0  0.00000000000E+00 -0.00000000000E+00 -0.10254092171E+04  0.10254092171E+04  0.00000000000E+00 0. -1.
         23    2    1    2    0    0  0.25563398756E+02  0.20830988625E+02 -0.21896294835E+03  0.23866810188E+03  0.89052078378E+02 0.  0.
         23    2    1    2    0    0 -0.25563398756E+02 -0.20830988625E+02 -0.79171799788E+03  0.80146938615E+03  0.12020137823E+03 0.  0.
          5    1    4    4  502    0 -0.73736274782E+02 -0.16935694333E+02 -0.45246690148E+03  0.45876750680E+03  0.41800000000E+01 0. -1.
         -5    1    4    4    0  502  0.48172876026E+02 -0.38952942921E+01 -0.33925109640E+03  0.34270187935E+03  0.41800000000E+01 0.  1.
        -11    1    3    3    0    0  0.47781017281E+02 -0.60723045912E+00 -0.59842997067E+02  0.76580536948E+02  0.00000000000E+00 0.  1.
         11    1    3    3    0    0 -0.22217618525E+02  0.21438219084E+02 -0.15911995128E+03  0.16208756493E+03  0.00000000000E+00 0. -1.
</event>
<event>
 8    1  0.9181008E-006  0.1179179E+03  0.7561462E-02  0.1246572E+00
          2   -1    0    0  501    0  0.00000000000E+00  0.00000000000E+00  0.17581502028E+03  0.17581502028E+03  0.00000000000E+00 0. -1.
         -2   -1    0    0    0  501 -0.00000000000E+00 -0.00000000000E+00 -0.96685861836E+02  0.96685861836E+02  0.00000000000E+00 0.  1.
         23    2    1    2    0    0 -0.22556091702E+02 -0.66892278389E+02  0.43682086794E+02  0.12455782373E+03  0.92861039007E+02 0.  0.
         23    2    1    2    0    0  0.22556091702E+02  0.66892278389E+02  0.35447071652E+02  0.14794305839E+03  0.12508916602E+03 0.  0.
          5    1    4    4  502    0 -0.12228881722E+02 -0.27480296093E+02 -0.16610273993E+02  0.34613376369E+02  0.41800000000E+01 0.  1.
         -5    1    4    4    0  502  0.34784973425E+02  0.94372574482E+02  0.52057345645E+02  0.11332968202E+03  0.41800000000E+01 0.  1.
        -11    1    3    3    0    0  0.21509171705E+02 -0.55155076741E+02 -0.30289782564E+01  0.59278171927E+02  0.00000000000E+00 0.  1.
         11    1    3    3    0    0 -0.44065263407E+02 -0.11737201648E+02  0.46711065051E+02  0.65279651805E+02  0.00000000000E+00 0. -1.
</event>
<event>
 8    1  0.9181008E-006  0.1066744E+03  0.7561462E-02  0.1266855E+00
          2   -1    0    0  501    0  0.00000000000E+00  0.00000000000E+00  0.63766426496E+03  0.63766426496E+03  0.00000000000E+00 0. -1.
         -2   -1    0    0    0  501 -0.00000000000E+00 -0.00000000000E+00 -0.19674209870E+02  0.19674209870E+02  0.00000000000E+00 0.  1.
         23    2    1    2    0    0  0.78695253148E+01 -0.26081339824E+02  0.22218234165E+03  0.24134446996E+03  0.90221918198E+02 0.  0.
         23    2    1    2    0    0 -0.78695253148E+01  0.26081339824E+02  0.39580771344E+03  0.41599400487E+03  0.12508037558E+03 0.  0.
          5    1    4    4  502    0 -0.60234313009E+02 -0.18446432426E+01  0.12636276554E+03  0.14005925920E+03  0.41800000000E+01 0.  1.
         -5    1    4    4    0  502  0.52364787694E+02  0.27925983067E+02  0.26944494790E+03  0.27593474567E+03  0.41800000000E+01 0.  1.
        -11    1    3    3    0    0  0.44202969266E+02  0.64604808813E+01  0.90652566308E+02  0.10106200118E+03  0.00000000000E+00 0.  1.
         11    1    3    3    0    0 -0.36333443951E+02 -0.32541820705E+02  0.13152977534E+03  0.14028246878E+03  0.00000000000E+00 0. -1.
</event>
<event>
 8    1  0.9181008E-006  0.2540386E+03  0.7561462E-02  0.1110779E+00
          2   -1    0    0  501    0  0.00000000000E+00  0.00000000000E+00  0.41321152789E+04  0.41321152789E+04  0.00000000000E+00 0. -1.
         -2   -1    0    0    0  501 -0.00000000000E+00 -0.00000000000E+00 -0.28906394529E+02  0.28906394529E+02  0.00000000000E+00 0.  1.
         23    2    1    2    0    0  0.21723831043E+03  0.76995312677E+02  0.61846543903E+03  0.66642513934E+03  0.92207404089E+02 0.  0.
         23    2    1    2    0    0 -0.21723831043E+03 -0.76995312677E+02  0.34847434453E+04  0.34945965341E+04  0.12508914646E+03 0.  0.
          5    1    4    4  502    0 -0.41860252358E+01  0.24529035989E+02  0.43577224125E+03  0.43650213638E+03  0.41800000000E+01 0. -1.
         -5    1    4    4    0  502 -0.21305228520E+03 -0.10152434867E+03  0.30489712040E+04  0.30580943977E+04  0.41800000000E+01 0. -1.
        -11    1    3    3    0    0  0.13273083857E+03  0.91290746986E+02  0.36848703766E+03  0.40216187402E+03  0.00000000000E+00 0.  1.
         11    1    3    3    0    0  0.84507471867E+02 -0.14295434309E+02  0.24997840137E+03  0.26426326532E+03  0.00000000000E+00 0. -1.
</event>
<event>
 8    1  0.9181008E-006  0.1338728E+03  0.7561462E-02  0.1221820E+00
          1   -1    0    0  501    0  0.00000000000E+00  0.00000000000E+00  0.65002568252E+03  0.65002568252E+03  0.00000000000E+00 0. -1.
         -1   -1    0    0    0  501 -0.00000000000E+00 -0.00000000000E+00 -0.37696621976E+02  0.37696621976E+02  0.00000000000E+00 0.  1.
         23    2    1    2    0    0 -0.72320757876E+02 -0.63322872224E+02  0.15176440912E+03  0.20088176822E+03  0.89894219837E+02 0.  0.
         23    2    1    2    0    0  0.72320757876E+02  0.63322872224E+02  0.46056465143E+03  0.48684053628E+03  0.12511527268E+03 0.  0.
          5    1    4    4  502    0 -0.29765292745E+02  0.44656808369E+02  0.16488760309E+03  0.17345200269E+03  0.41800000000E+01 0. -1.
         -5    1    4    4    0  502  0.10208605062E+03  0.18666063854E+02  0.29567704834E+03  0.31338853359E+03  0.41800000000E+01 0. -1.
        -11    1    3    3    0    0 -0.60581472599E+02 -0.17948404425E+02  0.13840681770E+03  0.15214699218E+03  0.00000000000E+00 0.  1.
         11    1    3    3    0    0 -0.11739285276E+02 -0.45374467799E+02  0.13357591422E+02  0.48734776038E+02  0.00000000000E+00 0. -1.
</event>
<event>
 7    1  0.9181008E-006  0.1418790E+03  0.7561462E-02  0.1210823E+00
         -2   -1    0    0    0  501 -0.00000000000E+00  0.00000000000E+00  0.11188229008E+03  0.11188229008E+03  0.00000000000E+00 0.  1.
          2   -1    0    0  501    0  0.00000000000E+00 -0.00000000000E+00 -0.28051952126E+03  0.28051952126E+03  0.00000000000E+00 0. -1.
         23    2    1    2    0    0  0.49159199781E+02  0.36451530261E+02  0.43358345007E+02  0.11772584045E+03  0.90741867114E+02 0.  0.
          5    1    1    2  502    0  0.17791630159E+02 -0.88102148996E+02 -0.10735202238E+03  0.14007305191E+03  0.41800000000E+01 0. -1.
         -5    1    1    2    0  502 -0.66950829940E+02  0.51650618735E+02 -0.10464355380E+03  0.13460291898E+03  0.41800000000E+01 0.  1.
        -11    1    3    3    0    0 -0.21068297431E+02 -0.11575402249E+02  0.13430877989E+02  0.27536368269E+02  0.00000000000E+00 0. -1.
         11    1    3    3    0    0  0.70227497212E+02  0.48026932511E+02  0.29927467017E+02  0.90189472185E+02  0.00000000000E+00 0.  1.
</event>
<event>
 7    1  0.9181008E-006  0.9442622E+02  0.7561462E-02  0.1292474E+00
          1   -1    0    0  501    0  0.00000000000E+00  0.00000000000E+00  0.12155822509E+04  0.12155822509E+04  0.00000000000E+00 0. -1.
         -1   -1    0    0    0  501 -0.00000000000E+00 -0.00000000000E+00 -0.12331061128E+02  0.12331061128E+02  0.00000000000E+00 0.  1.
         23    2    1    2    0    0  0.54045634433E+02 -0.33237889091E+02  0.97767775742E+03  0.98767980395E+03  0.12502763659E+03 0.  0.
          5    1    3    3  502    0  0.13822091486E+02  0.29354154830E+02  0.68103321396E+03  0.68181847110E+03  0.41800000000E+01 0.  1.
         -5    1    3    3    0  502  0.40223542947E+02 -0.62592043921E+02  0.29664454346E+03  0.30586133286E+03  0.41800000000E+01 0.  1.
        -11    1    1    2    0    0 -0.49507478782E+02  0.14706114548E+01  0.11793036943E+03  0.12790905045E+03  0.00000000000E+00 0.  1.
         11    1    1    2    0    0 -0.45381556513E+01  0.31767277637E+02  0.10764306290E+03  0.11232445761E+03  0.00000000000E+00 0. -1.
</event>
<event>
 8    1  0.9181008E-006  0.1073357E+03  0.7561462E-02  0.1265585E+00
         -2   -1    0    0    0  501 -0.00000000000E+00  0.00000000000E+00  0.82509684152E+02  0.82509684152E+02  0.00000000000E+00 0.  1.
          2   -1    0    0  501    0  0.00000000000E+00 -0.00000000000E+00 -0.14846213921E+03  0.14846213921E+03  0.00000000000E+00 0. -1.
         23    2    1    2    0    0  0.21734476353E+02  0.11098140981E+02 -0.27880534373E+02  0.97962740923E+02  0.90685270120E+02 0.  0.
         23    2    1    2    0    0 -0.21734476353E+02 -0.11098140981E+02 -0.38071920683E+02  0.13300908244E+03  0.12508552542E+03 0.  0.
          5    1    4    4  502    0  0.46741508360E+02  0.20895148189E+02 -0.10392910916E+02  0.52410502945E+02  0.41800000000E+01 0.  1.
         -5    1    4    4    0  502 -0.68475984713E+02 -0.31993289170E+02 -0.27679009768E+02  0.80598579492E+02  0.41800000000E+01 0.  1.
        -11    1    3    3    0    0  0.53150557519E+02  0.16659779662E+02 -0.34306274490E+02  0.65417509065E+02  0.00000000000E+00 0.  1.
         11    1    3    3    0    0 -0.31416081165E+02 -0.55616386806E+01  0.64257401178E+01  0.32545231858E+02  0.00000000000E+00 0. -1.
</event>
<event>
 8    1  0.9181008E-006  0.1152021E+03  0.7561462E-02  0.1251229E+00
         -1   -1    0    0    0  501 -0.00000000000E+00  0.00000000000E+00  0.93667329551E+03  0.93667329551E+03  0.00000000000E+00 0.  1.
          1   -1    0    0  501    0  0.00000000000E+00 -0.00000000000E+00 -0.22119946697E+02  0.22119946697E+02  0.00000000000E+00 0. -1.
         23    2    1    2    0    0 -0.34424609498E+02 -0.85557819157E+02  0.32328185675E+03  0.34743852956E+03  0.87733566929E+02 0.  0.
         23    2    1    2    0    0  0.34424609498E+02  0.85557819157E+02  0.59127149206E+03  0.61135471264E+03  0.12508962060E+03 0.  0.
          5    1    4    4  502    0 -0.12159646639E+02  0.18217816193E+02  0.10188142974E+02  0.24515637672E+02  0.41800000000E+01 0.  1.
         -5    1    4    4    0  502  0.46584256138E+02  0.67340002964E+02  0.58108334909E+03  0.58683907497E+03  0.41800000000E+01 0.  1.
        -11    1    3    3    0    0  0.12825375137E+02  0.12097638444E+02  0.30855338386E+02  0.35537234139E+02  0.00000000000E+00 0. -1.
         11    1    3    3    0    0 -0.47249984635E+02 -0.97655457601E+02  0.29242651836E+03  0.31190129542E+03  0.00000000000E+00 0.  1.
</event>
<event>
 8    1  0.9181008E-006  0.3424658E+03  0.7561462E-02  0.1065751E+00
          1   -1    0    0  501    0  0.00000000000E+00  0.00000000000E+00  0.12198836851E+04  0.12198836851E+04  0.00000000000E+00 0. -1.
         -1   -1    0    0    0  501 -0.00000000000E+00 -0.00000000000E+00 -0.10081348460E+03  0.10081348460E+03  0.00000000000E+00 0.  1.
         23    2    1    2    0    0 -0.21478167139E+02 -0.33056008323E+03  0.61166718770E+03  0.70194699712E+03  0.94135848461E+02 0.  0.
         23    2    1    2    0    0  0.21478167139E+02  0.33056008323E+03  0.50740301280E+03  0.61875017258E+03  0.12515062274E+03 0.  0.
          5    1    4    4  502    0  0.68806466651E+02  0.12590261173E+03  0.19040258109E+03  0.23844582777E+03  0.41800000000E+01 0.  1.
         -5    1    4    4    0  502 -0.47328299511E+02  0.20465747150E+03  0.31700043171E+03  0.38030434481E+03  0.41800000000E+01 0.  1.
        -11    1    3    3    0    0 -0.59446273946E+01 -0.12813125379E+03  0.14843969685E+03  0.19618180444E+03  0.00000000000E+00 0.  1.
         11    1    3    3    0    0 -0.15533539745E+02 -0.20242882944E+03  0.46322749085E+03  0.50576519268E+03  0.00000000000E+00 0. -1.
</event>
<event>
 8    1  0.9181008E-006  0.8721392E+02  0.7561462E-02  0.1309742E+00
          1   -1    0    0  501    0  0.00000000000E+00  0.00000000000E+00  0.26878543677E+03  0.26878543677E+03  0.00000000000E+00 0. -1.
         -1   -1    0    0    0  501 -0.00000000000E+00 -0.00000000000E+00 -0.52223664903E+02  0.52223664903E+02  0.00000000000E+00 0.  1.
         23    2    1    2    0    0  0.40494581841E+02 -0.17657871877E+02  0.81618229510E+02  0.13177594148E+03  0.93550797794E+02 0.  0.
         23    2    1    2    0    0 -0.40494581841E+02  0.17657871877E+02  0.13494354235E+03  0.18923316019E+03  0.12509123747E+03 0.  0.
          5    1    4    4  502    0  0.38894255519E+02 -0.62143568871E+01  0.12937355607E+02  0.41668080278E+02  0.41800000000E+01 0. -1.
         -5    1    4    4    0  502 -0.79388837361E+02  0.23872228764E+02  0.12200618675E+03  0.14756507991E+03  0.41800000000E+01 0. -1.
        -11    1    3    3    0    0  0.18522996713E+02 -0.22672301954E+02 -0.14767582369E+02  0.32790489050E+02  0.00000000000E+00 0.  1.
         11    1    3    3    0    0  0.21971585129E+02  0.50144300766E+01  0.96385811879E+02  0.98985452434E+02  0.00000000000E+00 0. -1.
</event>
<event>
 8    1  0.9181008E-006  0.8348776E+02  0.7561462E-02  0.1319435E+00
          1   -1    0    0  501    0  0.00000000000E+00  0.00000000000E+00  0.46033108809E+03  0.46033108809E+03  0.00000000000E+00 0. -1.
         -1   -1    0    0    0  501 -0.00000000000E+00 -0.00000000000E+00 -0.33531320624E+02  0.33531320624E+02  0.00000000000E+00 0.  1.
         23    2    1    2    0    0  0.13353969866E+02  0.49396919092E+02  0.12306383349E+03  0.16141369093E+03  0.91056512019E+02 0.  0.
         23    2    1    2    0    0 -0.13353969866E+02 -0.49396919092E+02  0.30373593398E+03  0.33244871778E+03  0.12509295839E+03 0.  0.
          5    1    4    4  502    0  0.92468792703E+00  0.51128603226E+01  0.26228870785E+03  0.26237346485E+03  0.41800000000E+01 0.  1.
         -5    1    4    4    0  502 -0.14278657793E+02 -0.54509779414E+02  0.41447226123E+02  0.70075252932E+02  0.41800000000E+01 0.  1.
        -11    1    3    3    0    0  0.45740712891E+02  0.54354213635E+02  0.75601630442E+02  0.10374102314E+03  0.00000000000E+00 0.  1.
         11    1    3    3    0    0 -0.32386743025E+02 -0.49572945437E+01  0.47462203048E+02  0.57672667800E+02  0.00000000000E+00 0. -1.
</event>
<event>
 8    1  0.9181008E-006  0.1110977E+03  0.7561462E-02  0.1258551E+00
         -1   -1    0    0    0  501 -0.00000000000E+00  0.00000000000E+00  0.86007901496E+01  0.86007901496E+01  0.00000000000E+00 0.  1.
          1   -1    0    0  501    0  0.00000000000E+00 -0.00000000000E+00 -0.16657966490E+04  0.16657966490E+04  0.00000000000E+00 0. -1.
         23    2    1    2    0    0  0.25583892817E+02  0.41061884207E+02 -0.59362255442E+03  0.60240107899E+03  0.90325571939E+02 0.  0.
         23    2    1    2    0    0 -0.25583892817E+02 -0.41061884207E+02 -0.10635733044E+04  0.10719963602E+04  0.12508960145E+03 0.  0.
          5    1    4    4  502    0 -0.44801539316E+02 -0.70911866100E+02 -0.92790243030E+03  0.93169526307E+03  0.41800000000E+01 0.  1.
         -5    1    4    4    0  502  0.19217646499E+02  0.29849981892E+02 -0.13567087413E+03  0.14030109709E+03  0.41800000000E+01 0.  1.
        -11    1    3    3    0    0  0.46245176525E+02  0.59096953072E+02 -0.43545932729E+03  0.44187768888E+03  0.00000000000E+00 0.  1.
         11    1    3    3    0    0 -0.20661283707E+02 -0.18035068864E+02 -0.15816322714E+03  0.16052339011E+03  0.00000000000E+00 0. -1.
</event>
<event>
 8    1  0.9181008E-006  0.1133515E+03  0.7561462E-02  0.1254486E+00
         -3   -1    0    0    0  501 -0.00000000000E+00  0.00000000000E+00  0.67385088877E+02  0.67385088877E+02  0.00000000000E+00 0.  1.
          3   -1    0    0  501    0  0.00000000000E+00 -0.00000000000E+00 -0.25162021005E+03  0.25162021005E+03  0.00000000000E+00 0. -1.
         23    2    1    2    0    0 -0.57299730744E+01  0.52836359572E+02 -0.26653692690E+02  0.11090991682E+03  0.93627329510E+02 0.  0.
         23    2    1    2    0    0  0.57299730744E+01 -0.52836359572E+02 -0.15758142848E+03  0.20809538211E+03  0.12508904015E+03 0.  0.
          5    1    4    4  502    0  0.33122975214E+01  0.40051481135E+02 -0.67141401152E+02  0.78361550550E+02  0.41800000000E+01 0. -1.
         -5    1    4    4    0  502  0.24176755530E+01 -0.92887840707E+02 -0.90440027332E+02  0.12973383156E+03  0.41800000000E+01 0. -1.
        -11    1    3    3    0    0  0.11752531566E+02 -0.17348865108E+02  0.16512119211E+02  0.26678740592E+02  0.00000000000E+00 0.  1.
         11    1    3    3    0    0 -0.17482504641E+02  0.70185224681E+02 -0.43165811901E+02  0.84231176230E+02  0.00000000000E+00 0. -1.
</event>
<event>
 8    1  0.9181008E-006  0.1207468E+03  0.7561462E-02  0.1241870E+00
         -1   -1    0    0    0  501 -0.00000000000E+00  0.00000000000E+00  0.31434787493E+02  0.31434787493E+02  0.00000000000E+00 0.  1.
          1   -1    0    0  501    0  0.00000000000E+00 -0.00000000000E+00 -0.69082108478E+03  0.69082108478E+03  0.00000000000E+00 0. -1.
         23    2    1    2    0    0  0.94127733257E+02  0.30070315089E+02 -0.28550410200E+03  0.31580838020E+03  0.91967857041E+02 0.  0.
         23    2    1    2    0    0 -0.94127733257E+02 -0.30070315089E+02 -0.37388219529E+03  0.40644749207E+03  0.12508962323E+03 0.  0.
          5    1    4    4  502    0 -0.61012776499E+02  0.13916004635E+02 -0.56872820933E+02  0.84665248136E+02  0.41800000000E+01 0.  1.
         -5    1    4    4    0  502 -0.33114956758E+02 -0.43986319724E+02 -0.31700937435E+03  0.32178224394E+03  0.41800000000E+01 0.  1.
        -11    1    3    3    0    0  0.94923012128E+02  0.47476365347E+02 -0.18068237543E+03  0.20954833402E+03  0.00000000000E+00 0.  1.
         11    1    3    3    0    0 -0.79527887139E+00 -0.17406050258E+02 -0.10482172657E+03  0.10626004618E+03  0.00000000000E+00 0. -1.
</event>
<event>
 8    1  0.9181008E-006  0.8174285E+02  0.7561462E-02  0.1324177E+00
          1   -1    0    0  501    0  0.00000000000E+00  0.00000000000E+00  0.10761437369E+03  0.10761437369E+03  0.00000000000E+00 0. -1.
         -1   -1    0    0    0  501 -0.00000000000E+00 -0.00000000000E+00 -0.16257725857E+03  0.16257725857E+03  0.00000000000E+00 0.  1.
         23    2    1    2    0    0 -0.15438284840E+02 -0.22343101851E+02 -0.97332269706E+02  0.13535877205E+03  0.90060377564E+02 0.  0.
         23    2    1    2    0    0  0.15438284840E+02  0.22343101851E+02  0.42369384834E+02  0.13483286021E+03  0.12508869086E+03 0.  0.
          5    1    4    4  502    0  0.97882724725E+01 -0.32341133821E+02  0.66453589850E+02  0.74668006662E+02  0.41800000000E+01 0. -1.
         -5    1    4    4    0  502  0.56500123679E+01  0.54684235672E+02 -0.24084205017E+02  0.60164853544E+02  0.41800000000E+01 0. -1.
        -11    1    3    3    0    0  0.38168238222E+01  0.23905008564E+02  0.18131890937E+01  0.24275609842E+02  0.00000000000E+00 0. -1.
         11    1    3    3    0    0 -0.19255108663E+02 -0.46248110414E+02 -0.99145458800E+02  0.11108316221E+03  0.00000000000E+00 0.  1.
</event>
<event>
 8    1  0.9181008E-006  0.1045317E+03  0.7561462E-02  0.1271045E+00
          1   -1    0    0  501    0  0.00000000000E+00  0.00000000000E+00  0.38454732801E+02  0.38454732801E+02  0.00000000000E+00 0. -1.
         -1   -1    0    0    0  501 -0.00000000000E+00 -0.00000000000E+00 -0.32534813294E+03  0.32534813294E+03  0.00000000000E+00 0.  1.
         23    2    1    2    0    0  0.16674783587E+02 -0.23340919220E+02 -0.15583812895E+03  0.18037361810E+03  0.86175824638E+02 0.  0.
         23    2    1    2    0    0 -0.16674783587E+02  0.23340919220E+02 -0.13105527118E+03  0.18342924764E+03  0.12509179776E+03 0.  0.
          5    1    4    4  502    0 -0.14284295130E+02 -0.48524483709E+02 -0.28812107518E+02  0.58363315073E+02  0.41800000000E+01 0.  1.
         -5    1    4    4    0  502 -0.23904884568E+01  0.71865402930E+02 -0.10224316367E+03  0.12506593257E+03  0.41800000000E+01 0.  1.
        -11    1    3    3    0    0  0.19976384262E+01  0.30454254732E+02 -0.84405342400E+02  0.89753629543E+02  0.00000000000E+00 0.  1.
         11    1    3    3    0    0  0.14677145161E+02 -0.53795173953E+02 -0.71432786554E+02  0.90619988554E+02  0.00000000000E+00 0. -1.
</event>
<event>
 8    1  0.9181008E-006  0.2172406E+03  0.7561462E-02  0.1135957E+00
         -2   -1    0    0    0  501 -0.00000000000E+00  0.00000000000E+00  0.32084982765E+03  0.32084982765E+03  0.00000000000E+00 0. -1.
          2   -1    0    0  501    0  0.00000000000E+00 -0.00000000000E+00 -0.16996520008E+03  0.16996520008E+03  0.00000000000E+00 0.  1.
         23    2    1    2    0    0 -0.58514157278E+02  0.19244129799E+03  0.12127823875E+03  0.25210836554E+03  0.91611445843E+02 0.  0.
         23    2    1    2    0    0  0.58514157278E+02 -0.19244129799E+03  0.29606388814E+02  0.23870666219E+03  0.12508705986E+03 0.  0.
          5    1    4    4  502    0 -0.10681036885E+02 -0.14680946258E+03  0.45665557776E+02  0.15417496041E+03  0.41800000000E+01 0. -1.
         -5    1    4    4    0  502  0.69195194163E+02 -0.45631835410E+02 -0.16059168962E+02  0.84531701780E+02  0.41800000000E+01 0. -1.
        -11    1    3    3    0    0 -0.28128081127E+02  0.40672114763E+02  0.76301606918E+02  0.90924942042E+02  0.00000000000E+00 0. -1.
         11    1    3    3    0    0 -0.30386076151E+02  0.15176918322E+03  0.44976631834E+02  0.16118342350E+03  0.00000000000E+00 0.  1.
</event>
<event>
 8    1  0.9181008E-006  0.1940352E+03  0.7561462E-02  0.1154871E+00
         -1   -1    0    0    0  501 -0.00000000000E+00  0.00000000000E+00  0.41798047814E+02  0.41798047814E+02  0.00000000000E+00 0.  1.
          1   -1    0    0  501    0  0.00000000000E+00 -0.00000000000E+00 -0.15268511191E+04  0.15268511191E+04  0.00000000000E+00 0. -1.
         23    2    1    2    0    0 -0.13036600246E+03  0.10074480668E+03 -0.23149922046E+03  0.29814157361E+03  0.90286755223E+02 0.  0.
         23    2    1    2    0    0  0.13036600246E+03 -0.10074480668E+03 -0.12535538508E+04  0.12705075933E+04  0.12508987590E+03 0.  0.
          5    1    4    4  502    0  0.11930157021E+03 -0.15685743460E+02 -0.77813959969E+03  0.78739927369E+03  0.41800000000E+01 0.  1.
         -5    1    4    4    0  502  0.11064432254E+02 -0.85059063223E+02 -0.47541425110E+03  0.48310831958E+03  0.41800000000E+01 0.  1.
        -11    1    3    3    0    0  0.13035862598E+01  0.34267997496E+02 -0.78285108275E+02  0.85466678695E+02  0.00000000000E+00 0. -1.
         11    1    3    3    0    0 -0.13166958872E+03  0.66476809187E+02 -0.15321411219E+03  0.21267489492E+03  0.00000000000E+00 0.  1.
</event>
<event>
 8    1  0.9181008E-006  0.7515185E+02  0.7561462E-02  0.1343401E+00
          2   -1    0    0  501    0  0.00000000000E+00  0.00000000000E+00  0.72357301250E+02  0.72357301250E+02  0.00000000000E+00 0. -1.
         -2   -1    0    0    0  501 -0.00000000000E+00 -0.00000000000E+00 -0.17342327720E+03  0.17342327720E+03  0.00000000000E+00 0.  1.
         23    2    1    2    0    0  0.25867972062E+02 -0.12551204895E+01 -0.59120121055E+02  0.11132820950E+03  0.90708622588E+02 0.  0.
         23    2    1    2    0    0 -0.25867972062E+02  0.12551204895E+01 -0.41945854897E+02  0.13445236895E+03  0.12508899818E+03 0.  0.
          5    1    4    4  502    0  0.24481088406E+02 -0.36846268470E+02 -0.54108186411E+02  0.70015279950E+02  0.41800000000E+01 0.  1.
         -5    1    4    4    0  502 -0.50349060469E+02  0.38101388959E+02  0.12162331514E+02  0.64437088998E+02  0.41800000000E+01 0.  1.
        -11    1    3    3    0    0  0.25534795000E+02  0.12777665821E+02 -0.80690093177E+02  0.85593140125E+02  0.00000000000E+00 0.  1.
         11    1    3    3    0    0  0.33317706265E+00 -0.14032786311E+02  0.21569972122E+02  0.25735069379E+02  0.00000000000E+00 0. -1.
</event>
<event>
 8    1  0.9181008E-006  0.2486045E+03  0.7561462E-02  0.1114190E+00
         -1   -1    0    0    0  501 -0.00000000000E+00  0.00000000000E+00  0.84962750706E+02  0.84962750706E+02  0.00000000000E+00 0.  1.
          1   -1    0    0  501    0  0.00000000000E+00 -0.00000000000E+00 -0.97521074837E+03  0.97521074837E+03  0.00000000000E+00 0. -1.
         23    2    1    2    0    0 -0.10801731538E+03 -0.21094157953E+03 -0.20903773103E+03  0.32814885563E+03  0.88435332636E+02 0.  0.
         23    2    1    2    0    0  0.10801731538E+03  0.21094157953E+03 -0.68121026663E+03  0.73202464345E+03  0.12509420792E+03 0.  0.
          5    1    4    4  502    0  0.10433959079E+03  0.94241552014E+02 -0.47068329902E+03  0.49125193201E+03  0.41800000000E+01 0.  1.
         -5    1    4    4    0  502  0.36777245964E+01  0.11670002751E+03 -0.21052696761E+03  0.24077271144E+03  0.41800000000E+01 0.  1.
        -11    1    3    3    0    0 -0.41936042295E+02 -0.12132989992E+03 -0.58924041393E+02  0.14125019969E+03  0.00000000000E+00 0. -1.
         11    1    3    3    0    0 -0.66081273089E+02 -0.89611679610E+02 -0.15011368964E+03  0.18689865594E+03  0.00000000000E+00 0.  1.
</event>
<event>
 8    1  0.9181008E-006  0.5488209E+02  0.7561462E-02  0.1420657E+00
         -2   -1    0    0    0  501 -0.00000000000E+00  0.00000000000E+00  0.10748180234E+03  0.10748180234E+03  0.00000000000E+00 0.  1.
          2   -1    0    0  501    0  0.00000000000E+00 -0.00000000000E+00 -0.12770288634E+03  0.12770288634E+03  0.00000000000E+00 0. -1.
         23    2    1    2    0    0 -0.95059249947E+00 -0.45604571994E+02 -0.50839076877E+01  0.10117953446E+03  0.90170790521E+02 0.  0.
         23    2    1    2    0    0  0.95059249947E+00  0.45604571994E+02 -0.15137176310E+02  0.13400515423E+03  0.12509023399E+03 0.  0.
          5    1    4    4  502    0  0.67464797806E+01 -0.37214090905E+01 -0.63769309952E+02  0.64368945671E+02  0.41800000000E+01 0. -1.
         -5    1    4    4    0  502 -0.57958872811E+01  0.49325981084E+02  0.48632133642E+02  0.69636208554E+02  0.41800000000E+01 0. -1.
        -11    1    3    3    0    0  0.10283259026E+02 -0.31440533814E+02 -0.45877465532E+02  0.56559653697E+02  0.00000000000E+00 0. -1.
         11    1    3    3    0    0 -0.11233851525E+02 -0.14164038180E+02  0.40793557844E+02  0.44619880762E+02  0.00000000000E+00 0.  1.
</event>
<event>
 8    1  0.9181008E-006  0.1601966E+03  0.7561462E-02  0.1188475E+00
          1   -1    0    0  501    0  0.00000000000E+00  0.00000000000E+00  0.42597691300E+02  0.42597691300E+02  0.00000000000E+00 0. -1.
         -1   -1    0    0    0  501 -0.00000000000E+00 -0.00000000000E+00 -0.68628749414E+03  0.68628749414E+03  0.00000000000E+00 0.  1.
         23    2    1    2    0    0  0.37300426598E+02  0.12602386319E+03 -0.31673193441E+03  0.35496230237E+03  0.91683051378E+02 0.  0.
         23    2    1    2    0    0 -0.37300426598E+02 -0.12602386319E+03 -0.32695786842E+03  0.37392288307E+03  0.12507413337E+03 0.  0.
          5    1    4    4  502    0  0.19876301488E+02 -0.11470789701E+03 -0.26091298608E+03  0.28573769038E+03  0.41800000000E+01 0. -1.
         -5    1    4    4    0  502 -0.57176728086E+02 -0.11315966178E+02 -0.66044882341E+02  0.88185192683E+02  0.41800000000E+01 0. -1.
        -11    1    3    3    0    0  0.39961707153E+02  0.31447138709E+02 -0.19072848327E+03  0.19739102032E+03  0.00000000000E+00 0.  1.
         11    1    3    3    0    0 -0.26612805551E+01  0.94576724484E+02 -0.12600345114E+03  0.15757128205E+03  0.00000000000E+00 0. -1.
</event>
<event>
 8    1  0.9181008E-006  0.8227784E+02  0.7561462E-02  0.1322709E+00
          4   -1    0    0  501    0  0.00000000000E+00  0.00000000000E+00  0.13949010262E+03  0.13949010262E+03  0.00000000000E+00 0. -1.
         -4   -1    0    0    0  501 -0.00000000000E+00 -0.00000000000E+00 -0.11278334442E+03  0.11278334442E+03  0.00000000000E+00 0.  1.
         23    2    1    2    0    0 -0.25350507691E+02  0.21794287104E+02 -0.41399992515E+02  0.10597347246E+03  0.91644848712E+02 0.  0.
         23    2    1    2    0    0  0.25350507691E+02 -0.21794287104E+02  0.68106750721E+02  0.14629997457E+03  0.12509002309E+03 0.  0.
          5    1    4    4  502    0  0.13488744001E+02 -0.59778654864E+02 -0.63721028190E+01  0.61753622456E+02  0.41800000000E+01 0.  1.
         -5    1    4    4    0  502  0.11861763690E+02  0.37984367759E+02  0.74478853540E+02  0.84546352119E+02  0.41800000000E+01 0.  1.
        -11    1    3    3    0    0  0.13297448626E+02  0.20518220460E+02  0.21221141887E+02  0.32375243224E+02  0.00000000000E+00 0. -1.
         11    1    3    3    0    0 -0.38647956317E+02  0.12760666441E+01 -0.62621134402E+02  0.73598229241E+02  0.00000000000E+00 0.  1.
</event>
<event>
 8    1  0.9181008E-006  0.1094617E+03  0.7561462E-02  0.1261570E+00
          1   -1    0    0  501    0  0.00000000000E+00  0.00000000000E+00  0.29009961158E+03  0.29009961158E+03  0.00000000000E+00 0. -1.
         -1   -1    0    0    0  501 -0.00000000000E+00 -0.00000000000E+00 -0.75190587802E+02  0.75190587802E+02  0.00000000000E+00 0.  1.
         23    2    1    2    0    0  0.76152423443E+02  0.35446875367E+02  0.19075273970E+02  0.11819629037E+03  0.80937163348E+02 0.  0.
         23    2    1    2    0    0 -0.76152423443E+02 -0.35446875367E+02  0.19583374980E+03  0.24709390901E+03  0.12509544251E+03 0.  0.
          5    1    4    4  502    0  0.12699914410E+02 -0.27381862929E+02 -0.14791208228E+01  0.30507612852E+02  0.41800000000E+01 0.  1.
         -5    1    4    4    0  502 -0.88852337853E+02 -0.80650124377E+01  0.19731287063E+03  0.21658629616E+03  0.41800000000E+01 0.  1.
        -11    1    3    3    0    0  0.23233239316E+01  0.24370315870E+02 -0.22063784223E+02  0.32956345427E+02  0.00000000000E+00 0.  1.
         11    1    3    3    0    0  0.73829099512E+02  0.11076559497E+02  0.41139058193E+02  0.85239944944E+02  0.00000000000E+00 0. -1.
</event>
<event>
 8    1  0.9181008E-006  0.1607332E+03  0.7561462E-02  0.1187871E+00
          2   -1    0    0  501    0  0.00000000000E+00  0.00000000000E+00  0.37699669558E+03  0.37699669558E+03  0.00000000000E+00 0. -1.
         -2   -1    0    0    0  501 -0.00000000000E+00 -0.00000000000E+00 -0.11558625627E+03  0.11558625627E+03  0.00000000000E+00 0.  1.
         23    2    1    2    0    0  0.11515468306E+03 -0.96322323849E+02  0.13861645487E+02  0.17720147165E+03  0.93110822342E+02 0.  0.
         23    2    1    2    0    0 -0.11515468306E+03  0.96322323849E+02  0.24754879382E+03  0.31538148020E+03  0.12508589699E+03 0.  0.
          5    1    4    4  502    0 -0.82851018641E+02  0.47609850120E+02  0.23735483698E+03  0.25590189557E+03  0.41800000000E+01 0. -1.
         -5    1    4    4    0  502 -0.32303664424E+02  0.48712473729E+02  0.10193956846E+02  0.59479584633E+02  0.41800000000E+01 0. -1.
        -11    1    3    3    0    0  0.65115732728E+02 -0.78642544776E+01 -0.22380765820E+02  0.69302264219E+02  0.00000000000E+00 0. -1.
         11    1    3    3    0    0  0.50038950337E+02 -0.88458069371E+02  0.36242411306E+02  0.10789920743E+03  0.00000000000E+00 0.  1.
</event>
<event>
 8    1  0.9181008E-006  0.1539246E+03  0.7561462E-02  0.1195732E+00
         -2   -1    0    0    0  501 -0.00000000000E+00  0.00000000000E+00  0.20395475552E+03  0.20395475552E+03  0.00000000000E+00 0.  1.
          2   -1    0    0  501    0  0.00000000000E+00 -0.00000000000E+00 -0.17476202837E+03  0.17476202837E+03  0.00000000000E+00 0. -1.
         23    2    1    2    0    0  0.11300297009E+03  0.93611148398E+02  0.61657473718E+02  0.18317917306E+03  0.90665577946E+02 0.  0.
         23    2    1    2    0    0 -0.11300297009E+03 -0.93611148398E+02 -0.32464746566E+02  0.19553761084E+03  0.12509308186E+03 0.  0.
          5    1    4    4  502    0 -0.67454248439E+02 -0.90532000278E+02  0.31088343505E+02  0.11717540787E+03  0.41800000000E+01 0.  1.
         -5    1    4    4    0  502 -0.45548721647E+02 -0.30791481197E+01 -0.63553090071E+02  0.78362202971E+02  0.41800000000E+01 0.  1.
        -11    1    3    3    0    0  0.92526136905E+02  0.62044017477E+02  0.83906626358E+02  0.13946636893E+03  0.00000000000E+00 0.  1.
         11    1    3    3    0    0  0.20476833181E+02  0.31567130921E+02 -0.22249152640E+02  0.43712804130E+02  0.00000000000E+00 0. -1.
</event>
<event>
 8    1  0.9181008E-006  0.1218774E+03  0.7561462E-02  0.1240032E+00
         -1   -1    0    0    0  501 -0.00000000000E+00  0.00000000000E+00  0.87726214311E+02  0.87726214311E+02  0.00000000000E+00 0.  1.
          1   -1    0    0  501    0  0.00000000000E+00 -0.00000000000E+00 -0.25029995013E+03  0.25029995013E+03  0.00000000000E+00 0. -1.
         23    2    1    2    0    0 -0.64733537713E+02  0.18479783769E+02  0.11521036193E+02  0.11334087578E+03  0.90451570111E+02 0.  0.
         23    2    1    2    0    0  0.64733537713E+02 -0.18479783769E+02 -0.17409477201E+03  0.22468528866E+03  0.12507020422E+03 0.  0.
          5    1    4    4  502    0  0.35099707709E+02  0.51847947610E+02 -0.56523098640E+02  0.84454320390E+02  0.41800000000E+01 0. -1.
         -5    1    4    4    0  502  0.29633830004E+02 -0.70327731379E+02 -0.11757167337E+03  0.14023096827E+03  0.41800000000E+01 0. -1.
        -11    1    3    3    0    0 -0.43503298459E+02  0.50185454756E+02  0.27614982690E+02  0.71928465261E+02  0.00000000000E+00 0.  1.
         11    1    3    3    0    0 -0.21230239254E+02 -0.31705670986E+02 -0.16093946497E+02  0.41412410523E+02  0.00000000000E+00 0. -1.
</event>
<event>
 8    1  0.9181008E-006  0.1052063E+03  0.7561462E-02  0.1269714E+00
         -3   -1    0    0    0  501 -0.00000000000E+00  0.00000000000E+00  0.10855636677E+03  0.10855636677E+03  0.00000000000E+00 0.  1.
          3   -1    0    0  501    0  0.00000000000E+00 -0.00000000000E+00 -0.13696727527E+03  0.13696727527E+03  0.00000000000E+00 0. -1.
         23    2    1    2    0    0  0.26210369990E+01 -0.40566196525E+02  0.25598465529E+02  0.10343695371E+03  0.91604780549E+02 0.  0.
         23    2    1    2    0    0 -0.26210369990E+01  0.40566196525E+02 -0.54009374021E+02  0.14208668833E+03  0.12497651133E+03 0.  0.
          5    1    4    4  502    0 -0.63412559944E+01 -0.36794175145E+02 -0.52438779016E+02  0.64508300216E+02  0.41800000000E+01 0. -1.
         -5    1    4    4    0  502  0.37202189954E+01  0.77360371670E+02 -0.15705950059E+01  0.77578388117E+02  0.41800000000E+01 0. -1.
        -11    1    3    3    0    0  0.12329113797E+01  0.27336029088E+02 -0.67890189551E+01  0.28193427162E+02  0.00000000000E+00 0.  1.
         11    1    3    3    0    0  0.13881256192E+01 -0.67902225612E+02  0.32387484484E+02  0.75243526546E+02  0.00000000000E+00 0. -1.
</event>
<event>
 8    1  0.9181008E-006  0.7670843E+02  0.7561462E-02  0.1338661E+00
         -3   -1    0    0    0  501 -0.00000000000E+00  0.00000000000E+00  0.10699310524E+03  0.10699310524E+03  0.00000000000E+00 0.  1.
          3   -1    0    0  501    0  0.00000000000E+00 -0.00000000000E+00 -0.20786188474E+03  0.20786188474E+03  0.00000000000E+00 0. -1.
         23    2    1    2    0    0  0.50374809053E+02 -0.54183433364E+02  0.32832604355E+02  0.11737862660E+03  0.85007624578E+02 0.  0.
         23    2    1    2    0    0 -0.50374809053E+02  0.54183433364E+02 -0.13370138386E+03  0.19747636338E+03  0.12508952079E+03 0.  0.
          5    1    4    4  502    0 -0.44965905062E+02  0.48085338160E+02 -0.15815618362E+03  0.17136214046E+03  0.41800000000E+01 0. -1.
         -5    1    4    4    0  502 -0.54089039904E+01  0.60980952036E+01  0.24454799767E+02  0.26114222928E+02  0.41800000000E+01 0. -1.
        -11    1    3    3    0    0  0.24597285674E+02 -0.88520816864E+01  0.54859361653E+02  0.60769526686E+02  0.00000000000E+00 0.  1.
         11    1    3    3    0    0  0.25777523378E+02 -0.45331351678E+02 -0.22026757298E+02  0.56609099918E+02  0.00000000000E+00 0. -1.
</event>
<event>
 8    1  0.9181008E-006  0.1700098E+03  0.7561462E-02  0.1177838E+00
          3   -1    0    0  501    0  0.00000000000E+00  0.00000000000E+00  0.91954483302E+02  0.91954483302E+02  0.00000000000E+00 0. -1.
         -3   -1    0    0    0  501 -0.00000000000E+00 -0.00000000000E+00 -0.34477584785E+03  0.34477584785E+03  0.00000000000E+00 0.  1.
         23    2    1    2    0    0 -0.54047682379E+02  0.12958388394E+03 -0.13228068004E+03  0.21335940607E+03  0.91164263275E+02 0.  0.
         23    2    1    2    0    0  0.54047682379E+02 -0.12958388394E+03 -0.12054068451E+03  0.22337092508E+03  0.12510546992E+03 0.  0.
          5    1    4    4  502    0 -0.18617387859E+02 -0.87931566159E+02 -0.19507093463E+02  0.92068271154E+02  0.41800000000E+01 0. -1.
         -5    1    4    4    0  502  0.72665070238E+02 -0.41652317782E+02 -0.10103359104E+03  0.13130265393E+03  0.41800000000E+01 0. -1.
        -11    1    3    3    0    0 -0.19727617138E+02  0.13036787037E+03 -0.93928600082E+02  0.16188743748E+03  0.00000000000E+00 0. -1.
         11    1    3    3    0    0 -0.34320065241E+02 -0.78398642563E+00 -0.38352079957E+02  0.51471968584E+02  0.00000000000E+00 0.  1.
</event>
<event>
 8    1  0.9181008E-006  0.6735928E+02  0.7561462E-02  0.1369310E+00
          2   -1    0    0  501    0  0.00000000000E+00  0.00000000000E+00  0.90803049220E+03  0.90803049220E+03  0.00000000000E+00 0. -1.
         -2   -1    0    0    0  501 -0.00000000000E+00 -0.00000000000E+00 -0.14718859513E+02  0.14718859513E+02  0.00000000000E+00 0.  1.
         23    2    1    2    0    0 -0.29831089842E+02  0.13977804077E+02  0.29172975609E+03  0.30741721471E+03  0.91180153452E+02 0.  0.
         23    2    1    2    0    0  0.29831089842E+02 -0.13977804077E+02  0.60158187660E+03  0.61533213701E+03  0.12509041391E+03 0.  0.
          5    1    4    4  502    0  0.32589191141E+02 -0.30479617754E+01  0.60238006414E+03  0.60328315038E+03  0.41800000000E+01 0.  1.
         -5    1    4    4    0  502 -0.27581012990E+01 -0.10929842301E+02 -0.79818754201E+00  0.12048986632E+02  0.41800000000E+01 0.  1.
        -11    1    3    3    0    0 -0.24744254730E+02 -0.33667611263E+02  0.19553276315E+03  0.19994711215E+03  0.00000000000E+00 0. -1.
         11    1    3    3    0    0 -0.50868351115E+01  0.47645415340E+02  0.96196992935E+02  0.10747010256E+03  0.00000000000E+00 0.  1.
</event>
<event>
 8    1  0.9181008E-006  0.9594445E+02  0.7561462E-02  0.1289063E+00
         -2   -1    0    0    0  501 -0.00000000000E+00  0.00000000000E+00  0.62105847991E+02  0.62105847991E+02  0.00000000000E+00 0.  1.
          2   -1    0    0  501    0  0.00000000000E+00 -0.00000000000E+00 -0.24824826037E+03  0.24824826037E+03  0.00000000000E+00 0. -1.
         23    2    1    2    0    0  0.29554412715E+02 -0.50432662471E+02 -0.10255135528E+03  0.14895506077E+03  0.90851047895E+02 0.  0.
         23    2    1    2    0    0 -0.29554412715E+02  0.50432662471E+02 -0.83591057101E+02  0.16139904760E+03  0.12508105765E+03 0.  0.
          5    1    4    4  502    0 -0.75254233243E+02  0.24302376579E+02 -0.26209689649E+02  0.83415977846E+02  0.41800000000E+01 0.  1.
         -5    1    4    4    0  502  0.45699820528E+02  0.26130285892E+02 -0.57381367452E+02  0.77983069751E+02  0.41800000000E+01 0.  1.
        -11    1    3    3    0    0  0.14991706501E+02 -0.13443974172E+02 -0.10706978437E+03  0.10894691565E+03  0.00000000000E+00 0.  1.
         11    1    3    3    0    0  0.14562706215E+02 -0.36988688298E+02  0.45184290867E+01  0.40008145117E+02  0.00000000000E+00 0. -1.
</event>
<event>
 8    1  0.9181008E-006  0.2927488E+03  0.7561462E-02  0.1088923E+00
          1   -1    0    0  501    0  0.00000000000E+00  0.00000000000E+00  0.14773421221E+03  0.14773421221E+03  0.00000000000E+00 0. -1.
         -1   -1    0    0    0  501 -0.00000000000E+00 -0.00000000000E+00 -0.60128123781E+03  0.60128123781E+03  0.00000000000E+00 0.  1.
         23    2    1    2    0    0 -0.18821397111E+03  0.19460535760E+03 -0.29241412775E+03  0.41003653559E+03  0.96582577540E+02 0.  0.
         23    2    1    2    0    0  0.18821397111E+03 -0.19460535760E+03 -0.16113289784E+03  0.33897891443E+03  0.12508856676E+03 0.  0.
          5    1    4    4  502    0 -0.11921476282E+02 -0.48787240132E+02 -0.22912434216E+02  0.55360350777E+02  0.41800000000E+01 0. -1.
         -5    1    4    4    0  502  0.20013544739E+03 -0.14581811747E+03 -0.13822046363E+03  0.28361856365E+03  0.41800000000E+01 0. -1.
        -11    1    3    3    0    0 -0.10398208889E+03  0.17071342354E+03 -0.20292526598E+03  0.28484032608E+03  0.00000000000E+00 0.  1.
         11    1    3    3    0    0 -0.84231882222E+02  0.23891934058E+02 -0.89488861767E+02  0.12519620951E+03  0.00000000000E+00 0. -1.
</event>
<event>
 8    1  0.9181008E-006  0.2587505E+03  0.7561462E-02  0.1107896E+00
          2   -1    0    0  501    0  0.00000000000E+00  0.00000000000E+00  0.25837802279E+03  0.25837802279E+03  0.00000000000E+00 0. -1.
         -2   -1    0    0    0  501 -0.00000000000E+00 -0.00000000000E+00 -0.31229957583E+03  0.31229957583E+03  0.00000000000E+00 0.  1.
         23    2    1    2    0    0 -0.43164519232E+02  0.24588728310E+03 -0.10667109053E+03  0.28650699685E+03  0.91563125628E+02 0.  0.
         23    2    1    2    0    0  0.43164519232E+02 -0.24588728310E+03  0.52749537493E+02  0.28417060177E+03  0.12508671188E+03 0.  0.
          5    1    4    4  502    0  0.29153735454E+02 -0.83387186954E+02  0.79402826320E+02  0.11885135450E+03  0.41800000000E+01 0.  1.
         -5    1    4    4    0  502  0.14010783778E+02 -0.16250009615E+03 -0.26653288826E+02  0.16531924726E+03  0.41800000000E+01 0.  1.
        -11    1    3    3    0    0 -0.70336038504E+02  0.20574347609E+03 -0.87218457135E+02  0.23427461563E+03  0.00000000000E+00 0. -1.
         11    1    3    3    0    0  0.27171519272E+02  0.40143807017E+02 -0.19452633396E+02  0.52232381215E+02  0.00000000000E+00 0.  1.
</event>
<event>
 8    1  0.9181008E-006  0.1366346E+03  0.7561462E-02  0.1217930E+00
         -2   -1    0    0    0  501 -0.00000000000E+00  0.00000000000E+00  0.79040973326E+02  0.79040973326E+02  0.00000000000E+00 0.  1.
          2   -1    0    0  501    0  0.00000000000E+00 -0.00000000000E+00 -0.32322172866E+03  0.32322172866E+03  0.00000000000E+00 0. -1.
         23    2    1    2    0    0  0.18793200595E+02  0.10732670212E+03 -0.60861121874E+02  0.15502571853E+03  0.91960273346E+02 0.  0.
         23    2    1    2    0    0 -0.18793200595E+02 -0.10732670212E+03 -0.18331963346E+03  0.24723698345E+03  0.12509129705E+03 0.  0.
          5    1    4    4  502    0  0.33524418088E+02 -0.76934858352E+02 -0.16281010136E+03  0.18321424765E+03  0.41800000000E+01 0. -1.
         -5    1    4    4    0  502 -0.52317618683E+02 -0.30391843771E+02 -0.20509532101E+02  0.64022735801E+02  0.41800000000E+01 0. -1.
        -11    1    3    3    0    0  0.44658060797E+02  0.62026052179E+02 -0.21113537558E+01  0.76459344476E+02  0.00000000000E+00 0.  1.
         11    1    3    3    0    0 -0.25864860202E+02  0.45300649944E+02 -0.58749768118E+02  0.78566374057E+02  0.00000000000E+00 0. -1.
</event>
<event>
 8    1  0.9181008E-006  0.7054429E+02  0.7561462E-02  0.1358252E+00
         -1   -1    0    0    0  501 -0.00000000000E+00  0.00000000000E+00  0.16600171223E+02  0.16600171223E+02  0.00000000000E+00 0.  1.
          1   -1    0    0  501    0  0.00000000000E+00 -0.00000000000E+00 -0.87648018595E+03  0.87648018595E+03  0.00000000000E+00 0. -1.
         23    2    1    2    0    0 -0.10731982658E+02  0.27211176613E+02 -0.21249060629E+03  0.23306832465E+03  0.91175449592E+02 0.  0.
         23    2    1    2    0    0  0.10731982658E+02 -0.27211176613E+02 -0.64738940844E+03  0.66001203252E+03  0.12508882179E+03 0.  0.
          5    1    4    4  502    0  0.24324886382E+02  0.76479505191E+01 -0.23315009834E+02  0.34803064925E+02  0.41800000000E+01 0. -1.
         -5    1    4    4    0  502 -0.13592903723E+02 -0.34859127132E+02 -0.62407439860E+03  0.62520896760E+03  0.41800000000E+01 0. -1.
        -11    1    3    3    0    0  0.15433260125E+02 -0.19011066794E+02 -0.15355421116E+02  0.28903202874E+02  0.00000000000E+00 0.  1.
         11    1    3    3    0    0 -0.26165242783E+02  0.46222243407E+02 -0.19713518517E+03  0.20416512177E+03  0.00000000000E+00 0. -1.
</event>
<event>
 8    1  0.9181008E-006  0.1273686E+03  0.7561462E-02  0.1231413E+00
          2   -1    0    0  501    0  0.00000000000E+00  0.00000000000E+00  0.72409328737E+03  0.72409328737E+03  0.00000000000E+00 0. -1.
         -2   -1    0    0    0  501 -0.00000000000E+00 -0.00000000000E+00 -0.33528077280E+02  0.33528077280E+02  0.00000000000E+00 0.  1.
         23    2    1    2    0    0 -0.91696263095E+02  0.58226857884E+02  0.38071036710E+03  0.40625389478E+03  0.91122290131E+02 0.  0.
         23    2    1    2    0    0  0.91696263095E+02 -0.58226857884E+02  0.30985484299E+03  0.35136746987E+03  0.12510197247E+03 0.  0.
          5    1    4    4  502    0 -0.19988218171E+02 -0.92210206833E+01  0.14246274738E+03  0.14421394828E+03  0.41800000000E+01 0. -1.
         -5    1    4    4    0  502  0.11168448127E+03 -0.49005837201E+02  0.16739209561E+03  0.20715352159E+03  0.41800000000E+01 0. -1.
        -11    1    3    3    0    0 -0.41465079678E+02  0.37671625803E+02  0.64557322236E+02  0.85476032182E+02  0.00000000000E+00 0.  1.
         11    1    3    3    0    0 -0.50231183416E+02  0.20555232081E+02  0.31615304486E+03  0.32077786259E+03  0.00000000000E+00 0. -1.
</event>
<event>
 8    1  0.9181008E-006  0.1930397E+03  0.7561462E-02  0.1155748E+00
         -2   -1    0    0    0  501 -0.00000000000E+00  0.00000000000E+00  0.28011210369E+02  0.28011210369E+02  0.00000000000E+00 0. -1.
          2   -1    0    0  501    0  0.00000000000E+00 -0.00000000000E+00 -0.16035479740E+04  0.16035479740E+04  0.00000000000E+00 0.  1.
         23    2    1    2    0    0 -0.15131165697E+03  0.88630216636E+02 -0.57618360673E+03  0.60927403422E+03  0.92069361194E+02 0.  0.
         23    2    1    2    0    0  0.15131165697E+03 -0.88630216636E+02 -0.99935315691E+03  0.10222851502E+04  0.12493863765E+03 0.  0.
          5    1    4    4  502    0  0.47823601117E+02 -0.67872272665E+02 -0.69843589539E+03  0.70336613125E+03  0.41800000000E+01 0. -1.
         -5    1    4    4    0  502  0.10348805585E+03 -0.20757943971E+02 -0.30091726152E+03  0.31891901891E+03  0.41800000000E+01 0. -1.
        -11    1    3    3    0    0 -0.14963395119E+03  0.48716354866E+02 -0.43697763248E+03  0.46444919406E+03  0.00000000000E+00 0.  1.
         11    1    3    3    0    0 -0.16777057815E+01  0.39913861771E+02 -0.13920597426E+03  0.14482484016E+03  0.00000000000E+00 0. -1.
</event>
<event>
 8    1  0.9181008E-006  0.1309500E+03  0.7561462E-02  0.1226053E+00
         -1   -1    0    0    0  501 -0.00000000000E+00  0.00000000000E+00  0.52400067274E+02  0.52400067274E+02  0.00000000000E+00 0.  1.
          1   -1    0    0  501    0  0.00000000000E+00 -0.00000000000E+00 -0.44206026473E+03  0.44206026473E+03  0.00000000000E+00 0. -1.
         23    2    1    2    0    0  0.88290904447E+02 -0.50821133746E+02 -0.12469340682E+03  0.18424193810E+03  0.89546494111E+02 0.  0.
         23    2    1    2    0    0 -0.88290904447E+02  0.50821133746E+02 -0.26496679064E+03  0.31021839391E+03  0.12509988142E+03 0.  0.
          5    1    4    4  502    0 -0.32302448147E+02  0.86446680541E+02 -0.12678573017E+03  0.15687119081E+03  0.41800000000E+01 0. -1.
         -5    1    4    4    0  502 -0.55988456300E+02 -0.35625546794E+02 -0.13818106047E+03  0.15334720310E+03  0.41800000000E+01 0. -1.
        -11    1    3    3    0    0  0.74121506481E+02 -0.48728218622E+02 -0.38215717327E+02  0.96586117346E+02  0.00000000000E+00 0.  1.
         11    1    3    3    0    0  0.14169397965E+02 -0.20929151246E+01 -0.86477689490E+02  0.87655820753E+02  0.00000000000E+00 0. -1.
</event>
<event>
 8    1  0.9181008E-006  0.1026836E+03  0.7561462E-02  0.1274752E+00
          2   -1    0    0  501    0  0.00000000000E+00  0.00000000000E+00  0.39781932134E+02  0.39781932134E+02  0.00000000000E+00 0. -1.
         -2   -1    0    0    0  501 -0.00000000000E+00 -0.00000000000E+00 -0.43666497387E+03  0.43666497387E+03  0.00000000000E+00 0.  1.
         23    2    1    2    0    0  0.56630404797E+02  0.37733458021E+02 -0.23192654100E+03  0.25852843343E+03  0.91739925172E+02 0.  0.
         23    2    1    2    0    0 -0.56630404797E+02 -0.37733458021E+02 -0.16495650074E+03  0.21791847257E+03  0.12508795686E+03 0.  0.
          5    1    4    4  502    0 -0.33137886151E+02  0.17428191060E+02 -0.15178513140E+03  0.15639072817E+03  0.41800000000E+01 0.  1.
         -5    1    4    4    0  502 -0.23492518646E+02 -0.55161649081E+02 -0.13171369336E+02  0.61527744408E+02  0.41800000000E+01 0.  1.
        -11    1    3    3    0    0 -0.21462736091E+02  0.15241679475E+02 -0.10147515153E+03  0.10483398405E+03  0.00000000000E+00 0.  1.
         11    1    3    3    0    0  0.78093140889E+02  0.22491778546E+02 -0.13045138947E+03  0.15369444938E+03  0.00000000000E+00 0. -1.
</event>
<event>
 8    1  0.9181008E-006  0.1243886E+03  0.7561462E-02  0.1236028E+00
         -4   -1    0    0    0  501 -0.00000000000E+00  0.00000000000E+00  0.30569045344E+03  0.30569045344E+03  0.00000000000E+00 0.  1.
          4   -1    0    0  501    0  0.00000000000E+00 -0.00000000000E+00 -0.70642829538E+02  0.70642829538E+02  0.00000000000E+00 0. -1.
         23    2    1    2    0    0  0.37240370049E+02  0.88435333931E+02  0.13137918803E+03  0.18764772565E+03  0.93506814960E+02 0.  0.
         23    2    1    2    0    0 -0.37240370049E+02 -0.88435333931E+02  0.10366843587E+03  0.18868555733E+03  0.12508973379E+03 0.  0.
          5    1    4    4  502    0 -0.69217891289E+02 -0.90495492703E+02  0.46726155274E+02  0.12321264814E+03  0.41800000000E+01 0. -1.
         -5    1    4    4    0  502  0.31977521240E+02  0.20601587721E+01  0.56942280599E+02  0.65472909196E+02  0.41800000000E+01 0. -1.
        -11    1    3    3    0    0  0.44483196607E+02  0.76394862497E+02  0.14386207342E+03  0.16885267533E+03  0.00000000000E+00 0.  1.
         11    1    3    3    0    0 -0.72428265582E+01  0.12040471434E+02 -0.12482885389E+02  0.18795050320E+02  0.00000000000E+00 0. -1.
</event>
<event>
 8    1  0.9181008E-006  0.8042009E+02  0.7561462E-02  0.1327863E+00
          2   -1    0    0  501    0  0.00000000000E+00  0.00000000000E+00  0.15223992111E+03  0.15223992111E+03  0.00000000000E+00 0. -1.
         -2   -1    0    0    0  501 -0.00000000000E+00 -0.00000000000E+00 -0.99250176420E+02  0.99250176420E+02  0.00000000000E+00 0.  1.
         23    2    1    2    0    0 -0.43650602635E+02 -0.31864198693E+02  0.24362711663E+01  0.10614449671E+03  0.91323690769E+02 0.  0.
         23    2    1    2    0    0  0.43650602635E+02  0.31864198693E+02  0.50553473527E+02  0.14534560083E+03  0.12509591410E+03 0.  0.
          5    1    4    4  502    0  0.23926644509E+02  0.82213142338E+01  0.90884704747E+02  0.94432919483E+02  0.41800000000E+01 0.  1.
         -5    1    4    4    0  502  0.19723958126E+02  0.23642884460E+02 -0.40331231220E+02  0.50912681342E+02  0.41800000000E+01 0.  1.
        -11    1    3    3    0    0  0.50378930321E+01 -0.51412613729E+02  0.11442227251E+02  0.52910885280E+02  0.00000000000E+00 0. -1.
         11    1    3    3    0    0 -0.48688495667E+02  0.19548415036E+02 -0.90059560845E+01  0.53233611428E+02  0.00000000000E+00 0.  1.
</event>
<event>
 8    1  0.9181008E-006  0.1476964E+03  0.7561462E-02  0.1203333E+00
          1   -1    0    0  501    0  0.00000000000E+00  0.00000000000E+00  0.15367347552E+03  0.15367347552E+03  0.00000000000E+00 0. -1.
         -1   -1    0    0    0  501 -0.00000000000E+00 -0.00000000000E+00 -0.21211687865E+03  0.21211687865E+03  0.00000000000E+00 0.  1.
         23    2    1    2    0    0  0.11724724459E+03 -0.19815118364E+02 -0.11583460099E+03  0.18863545452E+03  0.89588641209E+02 0.  0.
         23    2    1    2    0    0 -0.11724724459E+03  0.19815118364E+02  0.57391197863E+02  0.17715489965E+03  0.11811246166E+03 0.  0.
          5    1    4    4  502    0 -0.63397374659E+02 -0.38982940692E+02 -0.66032300134E+01  0.74832959485E+02  0.41800000000E+01 0.  1.
         -5    1    4    4    0  502 -0.53849869929E+02  0.58798059056E+02  0.63994427877E+02  0.10232194017E+03  0.41800000000E+01 0. -1.
        -11    1    3    3    0    0 -0.10818958518E+02  0.22706725377E+01  0.41030200359E+01  0.11791547422E+02  0.00000000000E+00 0. -1.
         11    1    3    3    0    0  0.12806620311E+03 -0.22085790902E+02 -0.11993762103E+03  0.17684390709E+03  0.00000000000E+00 0.  1.
</event>
<event>
 8    1  0.9181008E-006  0.1063290E+03  0.7561462E-02  0.1267523E+00
         -2   -1    0    0    0  501 -0.00000000000E+00  0.00000000000E+00  0.10075280605E+03  0.10075280605E+03  0.00000000000E+00 0.  1.
          2   -1    0    0  501    0  0.00000000000E+00 -0.00000000000E+00 -0.53109937288E+03  0.53109937288E+03  0.00000000000E+00 0. -1.
         23    2    1    2    0    0  0.60539466451E+02 -0.41910853599E+02  0.48138858081E+02  0.13183568921E+03  0.98192426618E+02 0.  0.
         23    2    1    2    0    0 -0.60539466451E+02  0.41910853599E+02 -0.47848542492E+03  0.50001648972E+03  0.12508653598E+03 0.  0.
          5    1    4    4  502    0  0.13546247815E+02 -0.28097542814E+02 -0.46502181174E+02  0.56150672267E+02  0.41800000000E+01 0.  1.
         -5    1    4    4    0  502 -0.74085714266E+02  0.70008396413E+02 -0.43198324374E+03  0.44386581745E+03  0.41800000000E+01 0.  1.
        -11    1    3    3    0    0  0.41165502221E+02 -0.10864748285E+02 -0.25483987905E+02  0.49619300358E+02  0.00000000000E+00 0. -1.
         11    1    3    3    0    0  0.19373964230E+02 -0.31046105314E+02  0.73622845986E+02  0.82216388855E+02  0.00000000000E+00 0.  1.
</event>
<event>
 8    1  0.9181008E-006  0.1148199E+03  0.7561462E-02  0.1251896E+00
         -2   -1    0    0    0  501 -0.00000000000E+00  0.00000000000E+00  0.38021264014E+02  0.38021264014E+02  0.00000000000E+00 0. -1.
          2   -1    0    0  501    0  0.00000000000E+00 -0.00000000000E+00 -0.51828169568E+03  0.51828169568E+03  0.00000000000E+00 0.  1.
         23    2    1    2    0    0 -0.21273192914E+02 -0.52375843803E+02 -0.79470773340E+02  0.13267458219E+03  0.89950893235E+02 0.  0.
         23    2    1    2    0    0  0.21273192914E+02  0.52375843803E+02 -0.40078965833E+03  0.42362837750E+03  0.12503149304E+03 0.  0.
          5    1    4    4  502    0  0.59853056140E+02  0.63767333988E+02 -0.19289319832E+03  0.21183465149E+03  0.41800000000E+01 0.  1.
         -5    1    4    4    0  502 -0.38579863225E+02 -0.11391490185E+02 -0.20789646000E+03  0.21179372601E+03  0.41800000000E+01 0.  1.
        -11    1    3    3    0    0 -0.14516922317E+02 -0.75843071757E+02 -0.75383026302E+02  0.10791437912E+03  0.00000000000E+00 0.  1.
         11    1    3    3    0    0 -0.67562705971E+01  0.23467227954E+02 -0.40877470385E+01  0.24760203070E+02  0.00000000000E+00 0. -1.
</event>
<event>
 8    1  0.9181008E-006  0.8372656E+02  0.7561462E-02  0.1318797E+00
         -2   -1    0    0    0  501 -0.00000000000E+00  0.00000000000E+00  0.99369118714E+01  0.99369118714E+01  0.00000000000E+00 0.  1.
          2   -1    0    0  501    0  0.00000000000E+00 -0.00000000000E+00 -0.15239738045E+04  0.15239738045E+04  0.00000000000E+00 0. -1.
         23    2    1    2    0    0  0.18539243667E+02  0.40896805979E+02 -0.42405193535E+03  0.43585312782E+03  0.90175677763E+02 0.  0.
         23    2    1    2    0    0 -0.18539243667E+02 -0.40896805979E+02 -0.10899849573E+04  0.10980575885E+04  0.12508800258E+03 0.  0.
          5    1    4    4  502    0 -0.16986283650E+02  0.68411834383E+01 -0.21711932112E+02  0.28709162633E+02  0.41800000000E+01 0. -1.
         -5    1    4    4    0  502 -0.15529600175E+01 -0.47737989418E+02 -0.10682730251E+04  0.10693484259E+04  0.41800000000E+01 0. -1.
        -11    1    3    3    0    0  0.22554761184E+02 -0.25592924224E+02 -0.14036380536E+03  0.14444968978E+03  0.00000000000E+00 0.  1.
         11    1    3    3    0    0 -0.40155175171E+01  0.66489730203E+02 -0.28368812999E+03  0.29140343804E+03  0.00000000000E+00 0. -1.
</event>
<event>
 8    1  0.9181008E-006  0.1902271E+03  0.7561462E-02  0.1158257E+00
          1   -1    0    0  501    0  0.00000000000E+00  0.00000000000E+00  0.11452468773E+04  0.11452468773E+04  0.00000000000E+00 0. -1.
         -1   -1    0    0    0  501 -0.00000000000E+00 -0.00000000000E+00 -0.34262375536E+02  0.34262375536E+02  0.00000000000E+00 0.  1.
         23    2    1    2    0    0 -0.14571368567E+03  0.57026519469E+02  0.36945152904E+03  0.41139281309E+03  0.90912662675E+02 0.  0.
         23    2    1    2    0    0  0.14571368567E+03 -0.57026519469E+02  0.74153297271E+03  0.76811643974E+03  0.12508882149E+03 0.  0.
          5    1    4    4  502    0  0.65494759835E+02 -0.91758884363E+02  0.41629381996E+03  0.43130879119E+03  0.41800000000E+01 0.  1.
         -5    1    4    4    0  502  0.80218925840E+02  0.34732364894E+02  0.32523915275E+03  0.33680764854E+03  0.41800000000E+01 0.  1.
        -11    1    3    3    0    0 -0.12785983739E+03  0.81822634805E+01  0.24407818778E+03  0.27566147573E+03  0.00000000000E+00 0.  1.
         11    1    3    3    0    0 -0.17853848286E+02  0.48844255988E+02  0.12537334127E+03  0.13573133736E+03  0.00000000000E+00 0. -1.
</event>
<event>
 8    1  0.9181008E-006  0.1079803E+03  0.7561462E-02  0.1264356E+00
          2   -1    0    0  501    0  0.00000000000E+00  0.00000000000E+00  0.36871882209E+02  0.36871882209E+02  0.00000000000E+00 0. -1.
         -2   -1    0    0    0  501 -0.00000000000E+00 -0.00000000000E+00 -0.39450442186E+03  0.39450442186E+03  0.00000000000E+00 0.  1.
         23    2    1    2    0    0  0.25178387360E+02 -0.43088121408E+02 -0.14228542497E+03  0.17738384250E+03  0.93430980012E+02 0.  0.
         23    2    1    2    0    0 -0.25178387360E+02  0.43088121408E+02 -0.21534711469E+03  0.25399246157E+03  0.12508898167E+03 0.  0.
          5    1    4    4  502    0 -0.67666732046E+01 -0.31848167917E+02 -0.95847792980E+01  0.34196989050E+02  0.41800000000E+01 0. -1.
         -5    1    4    4    0  502 -0.18411714155E+02  0.74936289324E+02 -0.20576233539E+03  0.21979547252E+03  0.41800000000E+01 0. -1.
        -11    1    3    3    0    0  0.95243847110E+01  0.29810871649E+02 -0.39207010129E+02  0.50165641786E+02  0.00000000000E+00 0. -1.
         11    1    3    3    0    0  0.15654002649E+02 -0.72898993057E+02 -0.10307841484E+03  0.12721820072E+03  0.00000000000E+00 0.  1.
</event>
<event>
 8    1  0.9181008E-006  0.1547392E+03  0.7561462E-02  0.1194767E+00
         -2   -1    0    0    0  501 -0.00000000000E+00  0.00000000000E+00  0.29756781624E+02  0.29756781624E+02  0.00000000000E+00 0.  1.
          2   -1    0    0  501    0  0.00000000000E+00 -0.00000000000E+00 -0.25247026679E+04  0.25247026679E+04  0.00000000000E+00 0. -1.
         23    2    1    2    0    0 -0.14178809089E+03  0.86008323436E+01 -0.25054757813E+03  0.30209417341E+03  0.91153517043E+02 0.  0.
         23    2    1    2    0    0  0.14178809089E+03 -0.86008323436E+01 -0.22443983082E+04  0.22523652761E+04  0.12509090448E+03 0.  0.
          5    1    4    4  502    0  0.85225687286E+02  0.38139046564E+02 -0.69906365988E+03  0.70528396949E+03  0.41800000000E+01 0. -1.
         -5    1    4    4    0  502  0.56562403601E+02 -0.46739878908E+02 -0.15453346483E+04  0.15470813066E+04  0.41800000000E+01 0. -1.
        -11    1    3    3    0    0 -0.55633191937E+02 -0.22879771904E+01 -0.26220592468E+02  0.61545157032E+02  0.00000000000E+00 0.  1.
         11    1    3    3    0    0 -0.86154898949E+02  0.10888809534E+02 -0.22432698566E+03  0.24054901638E+03  0.00000000000E+00 0. -1.
</event>
<event>
 8    1  0.9181008E-006  0.1223815E+03  0.7561462E-02  0.1239219E+00
         -1   -1    0    0    0  501 -0.00000000000E+00  0.00000000000E+00  0.36755390457E+02  0.36755390457E+02  0.00000000000E+00 0.  1.
          1   -1    0    0  501    0  0.00000000000E+00 -0.00000000000E+00 -0.44812473595E+03  0.44812473595E+03  0.00000000000E+00 0. -1.
         23    2    1    2    0    0  0.66655532398E+02  0.25122502425E+00 -0.15062738199E+03  0.18810209277E+03  0.90833727125E+02 0.  0.
         23    2    1    2    0    0 -0.66655532398E+02 -0.25122502425E+00 -0.26074196350E+03  0.29677803364E+03  0.12509119317E+03 0.  0.
          5    1    4    4  502    0 -0.10004255570E+03  0.44639782651E+01 -0.23027409529E+03  0.25114153662E+03  0.41800000000E+01 0.  1.
         -5    1    4    4    0  502  0.33387023303E+02 -0.47152032894E+01 -0.30467868202E+02  0.45636497016E+02  0.41800000000E+01 0.  1.
        -11    1    3    3    0    0  0.26897860003E+02 -0.43685815465E+02 -0.52028431194E+02  0.73067797271E+02  0.00000000000E+00 0.  1.
         11    1    3    3    0    0  0.39757672395E+02  0.43937040489E+02 -0.98598950800E+02  0.11503429549E+03  0.00000000000E+00 0. -1.
</event>
<event>
 8    1  0.9181008E-006  0.8348979E+02  0.7561462E-02  0.1319430E+00
         -1   -1    0    0    0  501 -0.00000000000E+00  0.00000000000E+00  0.14875045632E+03  0.14875045632E+03  0.00000000000E+00 0.  1.
          1   -1    0    0  501    0  0.00000000000E+00 -0.00000000000E+00 -0.12034324093E+03  0.12034324093E+03  0.00000000000E+00 0. -1.
         23    2    1    2    0    0 -0.66933984374E+01 -0.51873315952E+02  0.69231423439E+02  0.12749594857E+03  0.93416189286E+02 0.  0.
         23    2    1    2    0    0  0.66933984374E+01  0.51873315952E+02 -0.40824208051E+02  0.14159774867E+03  0.12509062305E+03 0.  0.
          5    1    4    4  502    0 -0.52348048519E+01 -0.73567009086E+00  0.42071068338E+02  0.42607412306E+02  0.41800000000E+01 0.  1.
         -5    1    4    4    0  502  0.11928203289E+02  0.52608986043E+02 -0.82895276389E+02  0.98990336366E+02  0.41800000000E+01 0.  1.
        -11    1    3    3    0    0  0.23295209356E+02  0.18428801264E+02  0.12105319029E+02  0.32075321414E+02  0.00000000000E+00 0. -1.
         11    1    3    3    0    0 -0.29988607794E+02 -0.70302117217E+02  0.57126104410E+02  0.95420627160E+02  0.00000000000E+00 0.  1.
</event>
<event>
 8    1  0.9181008E-006  0.1242959E+03  0.7561462E-02  0.1236174E+00
         -1   -1    0    0    0  501 -0.00000000000E+00  0.00000000000E+00  0.76748986723E+02  0.76748986723E+02  0.00000000000E+00 0.  1.
          1   -1    0    0  501    0  0.00000000000E+00 -0.00000000000E+00 -0.30270907975E+03  0.30270907975E+03  0.00000000000E+00 0. -1.
         23    2    1    2    0    0 -0.23920567595E+02 -0.70353563875E+02 -0.17994759965E+02  0.12564915426E+03  0.99709984832E+02 0.  0.
         23    2    1    2    0    0  0.23920567595E+02  0.70353563875E+02 -0.20796533306E+03  0.25380891221E+03  0.12509023408E+03 0.  0.
          5    1    4    4  502    0 -0.39652496099E+02  0.20985555143E+02 -0.20009615763E+02  0.49300822453E+02  0.41800000000E+01 0. -1.
         -5    1    4    4    0  502  0.63573063694E+02  0.49368008732E+02 -0.18795571729E+03  0.20450808976E+03  0.41800000000E+01 0. -1.
        -11    1    3    3    0    0  0.14362020936E+02  0.20105879949E+02  0.38932151665E+01  0.25013419962E+02  0.00000000000E+00 0.  1.
         11    1    3    3    0    0 -0.38282588531E+02 -0.90459443824E+02 -0.21887975131E+02  0.10063573429E+03  0.00000000000E+00 0. -1.
</event>
<event>
 8    1  0.9181008E-006  0.1047777E+03  0.7561462E-02  0.1270558E+00
         -2   -1    0    0    0  501 -0.00000000000E+00  0.00000000000E+00  0.93519318408E+02  0.93519318408E+02  0.00000000000E+00 0. -1.
          2   -1    0    0  501    0  0.00000000000E+00 -0.00000000000E+00 -0.20553309079E+03  0.20553309079E+03  0.00000000000E+00 0.  1.
         23    2    1    2    0    0  0.76565419447E+02 -0.40237412465E+02 -0.10019890074E+02  0.11593498807E+03  0.76545479591E+02 0.  0.
         23    2    1    2    0    0 -0.76565419447E+02  0.40237412465E+02 -0.10199388230E+03  0.18311742112E+03  0.12509166668E+03 0.  0.
          5    1    4    4  502    0  0.10397022265E+02 -0.11382295510E+02 -0.77300482727E+02  0.78933464088E+02  0.41800000000E+01 0.  1.
         -5    1    4    4    0  502 -0.86962441713E+02  0.51619707975E+02 -0.24693399577E+02  0.10418395703E+03  0.41800000000E+01 0.  1.
        -11    1    3    3    0    0  0.30852039337E+02 -0.34520222531E+02 -0.39820738793E+02  0.61067056036E+02  0.00000000000E+00 0.  1.
         11    1    3    3    0    0  0.45713380110E+02 -0.57171899340E+01  0.29800848719E+02  0.54867932039E+02  0.00000000000E+00 0. -1.
</event>
<event>
 8    1  0.9181008E-006  0.1195742E+03  0.7561462E-02  0.1243801E+00
         -2   -1    0    0    0  501 -0.00000000000E+00  0.00000000000E+00  0.55761896834E+02  0.55761896834E+02  0.00000000000E+00 0. -1.
          2   -1    0    0  501    0  0.00000000000E+00 -0.00000000000E+00 -0.37760386939E+03  0.37760386939E+03  0.00000000000E+00 0.  1.
         23    2    1    2    0    0  0.86314880256E+02 -0.32884204950E+02 -0.11683899492E+03  0.17607013988E+03  0.93902683313E+02 0.  0.
         23    2    1    2    0    0 -0.86314880256E+02  0.32884204950E+02 -0.20500297764E+03  0.25729562635E+03  0.12507273488E+03 0.  0.
          5    1    4    4  502    0 -0.85700174592E+02 -0.21541506056E+02 -0.73860097477E+02  0.11524470837E+03  0.41800000000E+01 0. -1.
         -5    1    4    4    0  502 -0.61470566359E+00  0.54425711006E+02 -0.13114288016E+03  0.14205091798E+03  0.41800000000E+01 0. -1.
        -11    1    3    3    0    0  0.60877596810E+02 -0.35583039893E+02 -0.12955663381E+03  0.14750307076E+03  0.00000000000E+00 0.  1.
         11    1    3    3    0    0  0.25437283445E+02  0.26988349432E+01  0.12717638882E+02  0.28567069116E+02  0.00000000000E+00 0. -1.
</event>
<event>
 8    1  0.9242341E-006  0.1594291E+03  0.7561462E-02  0.1189343E+00
         -4   -1    0    0    0  501 -0.00000000000E+00  0.00000000000E+00  0.11843852321E+04  0.11843852321E+04  0.00000000000E+00 0.  1.
          4   -1    0    0  501    0  0.00000000000E+00 -0.00000000000E+00 -0.31665286276E+02  0.31665286276E+02  0.00000000000E+00 0. -1.
         23    2    1    2    0    0 -0.11095753727E+03 -0.10695674453E+03  0.67611229612E+03  0.69976198203E+03  0.93742595698E+02 0.  0.
         23    2    1    2    0    0  0.11095753727E+03  0.10695674453E+03  0.47660764969E+03  0.51628853633E+03  0.12509069003E+03 0.  0.
          5    1    4    4  502    0  0.11272899828E+03  0.10627422344E+03  0.28326147138E+03  0.32288786163E+03  0.41800000000E+01 0. -1.
         -5    1    4    4    0  502 -0.17714610109E+01  0.68252109212E+00  0.19334617831E+03  0.19340067470E+03  0.41800000000E+01 0. -1.
        -11    1    3    3    0    0 -0.78482982314E+02 -0.48061050436E+02  0.54170590341E+03  0.54946767773E+03  0.00000000000E+00 0.  1.
         11    1    3    3    0    0 -0.32474554951E+02 -0.58895694098E+02  0.13440639272E+03  0.15029430430E+03  0.00000000000E+00 0. -1.
</event>
<event>
 7    1  0.9181008E-006  0.2240580E+03  0.7561462E-02  0.1130893E+00
         -1   -1    0    0    0  501 -0.00000000000E+00  0.00000000000E+00  0.17163790225E+03  0.17163790225E+03  0.00000000000E+00 0.  1.
          1   -1    0    0  501    0  0.00000000000E+00 -0.00000000000E+00 -0.57957173970E+03  0.57957173970E+03  0.00000000000E+00 0. -1.
         23    2    1    2    0    0 -0.81473941186E+02  0.14183431470E+03  0.59774319715E+02  0.19761991603E+03  0.93411380433E+02 0.  0.
          5    1    1    2  502    0  0.65546817886E+02 -0.20280356272E+03 -0.25851637861E+03  0.33507291862E+03  0.41800000000E+01 0. -1.
         -5    1    1    2    0  502  0.15927123300E+02  0.60969248019E+02 -0.20919177855E+03  0.21851680730E+03  0.41800000000E+01 0.  1.
        -11    1    3    3    0    0 -0.50082397637E+02  0.12806527913E+03  0.78726208736E+02  0.15845118558E+03  0.00000000000E+00 0.  1.
         11    1    3    3    0    0 -0.31391543550E+02  0.13769035571E+02 -0.18951889021E+02  0.39168730442E+02  0.00000000000E+00 0. -1.
</event>
<event>
 8    1  0.2570536E-005  0.2397851E+03  0.7561462E-02  0.1119936E+00
         -1   -1    0    0    0  501 -0.00000000000E+00  0.00000000000E+00  0.32459153419E+02  0.32459153419E+02  0.00000000000E+00 0.  1.
          1   -1    0    0  501    0  0.00000000000E+00 -0.00000000000E+00 -0.20456993370E+04  0.20456993370E+04  0.00000000000E+00 0. -1.
         23    2    1    2    0    0 -0.22770870981E+03  0.12620734227E+02 -0.77737465119E+03  0.81521675017E+03  0.90865075694E+02 0.  0.
         23    2    1    2    0    0  0.22770870981E+03 -0.12620734227E+02 -0.12358655324E+04  0.12629417402E+04  0.12509070973E+03 0.  0.
          5    1    4    4  502    0  0.69863731254E+02 -0.42678260677E+02 -0.65976997571E+03  0.66484304022E+03  0.41800000000E+01 0.  1.
         -5    1    4    4    0  502  0.15784497856E+03  0.30057526450E+02 -0.57609555665E+03  0.59809870000E+03  0.41800000000E+01 0.  1.
        -11    1    3    3    0    0 -0.13836449352E+03 -0.23765009389E+02 -0.56120060616E+03  0.57849427749E+03  0.00000000000E+00 0.  1.
         11    1    3    3    0    0 -0.89344216292E+02  0.36385743617E+02 -0.21617404503E+03  0.23672247267E+03  0.00000000000E+00 0. -1.
</event>
<event>
 8    1  0.9181008E-006  0.1118491E+03  0.7561462E-02  0.1257184E+00
         -1   -1    0    0    0  501 -0.00000000000E+00  0.00000000000E+00  0.24609337991E+02  0.24609337991E+02  0.00000000000E+00 0.  1.
          1   -1    0    0  501    0  0.00000000000E+00 -0.00000000000E+00 -0.62533209646E+03  0.62533209646E+03  0.00000000000E+00 0. -1.
         23    2    1    2    0    0  0.27557075546E+01 -0.53077468214E+02 -0.19210722995E+03  0.21931551137E+03  0.91483846523E+02 0.  0.
         23    2    1    2    0    0 -0.27557075546E+01  0.53077468214E+02 -0.40861552852E+03  0.43062592308E+03  0.12508886410E+03 0.  0.
          5    1    4    4  502    0 -0.34735675285E+02  0.83197383257E+02 -0.30315137191E+03  0.31630143599E+03  0.41800000000E+01 0. -1.
         -5    1    4    4    0  502  0.31979967730E+02 -0.30119915043E+02 -0.10546415661E+03  0.11432448709E+03  0.41800000000E+01 0. -1.
        -11    1    3    3    0    0 -0.26047534179E+02  0.30523607747E+01 -0.12700158773E+02  0.29139062716E+02  0.00000000000E+00 0.  1.
         11    1    3    3    0    0  0.28803241733E+02 -0.56129828989E+02 -0.17940707117E+03  0.19017644866E+03  0.00000000000E+00 0. -1.
</event>
<event>
 8    1  0.9181008E-006  0.7637473E+02  0.7561462E-02  0.1339666E+00
         -2   -1    0    0    0  501 -0.00000000000E+00  0.00000000000E+00  0.23297459843E+02  0.23297459843E+02  0.00000000000E+00 0.  1.
          2   -1    0    0  501    0  0.00000000000E+00 -0.00000000000E+00 -0.29880027416E+04  0.29880027416E+04  0.00000000000E+00 0. -1.
         23    2    1    2    0    0 -0.26871987916E+01  0.65416736880E+01 -0.63655450984E+02  0.10780108299E+03  0.86712412731E+02 0.  0.
         23    2    1    2    0    0  0.26871987916E+01 -0.65416736880E+01 -0.29010498307E+04  0.29034991184E+04  0.11902518936E+03 0.  0.
          5    1    4    4  502    0 -0.10729521757E+02 -0.52608064851E+02 -0.22604240642E+04  0.22610654907E+04  0.41800000000E+01 0. -1.
         -5    1    4    4    0  502  0.13416720549E+02  0.46066391163E+02 -0.64062576659E+03  0.64243362770E+03  0.41800000000E+01 0.  1.
        -11    1    3    3    0    0  0.22303693359E+02  0.11744696508E+02  0.12027294700E+02  0.27929347492E+02  0.00000000000E+00 0.  1.
         11    1    3    3    0    0 -0.24990892151E+02 -0.52030228196E+01 -0.75682745684E+02  0.79871735497E+02  0.00000000000E+00 0. -1.
</event>
<event>
 8    1  0.9181008E-006  0.1545315E+03  0.7561462E-02  0.1195013E+00
          2   -1    0    0  501    0  0.00000000000E+00  0.00000000000E+00  0.33102735404E+03  0.33102735404E+03  0.00000000000E+00 0. -1.
         -2   -1    0    0    0  501 -0.00000000000E+00 -0.00000000000E+00 -0.10712778693E+03  0.10712778693E+03  0.00000000000E+00 0.  1.
         23    2    1    2    0    0  0.48755082372E+02  0.11093889251E+03 -0.39655167353E+01  0.15135332931E+03  0.90595855547E+02 0.  0.
         23    2    1    2    0    0 -0.48755082372E+02 -0.11093889251E+03  0.22786508384E+03  0.28680181166E+03  0.12509311256E+03 0.  0.
          5    1    4    4  502    0 -0.75420075924E+02 -0.27964730994E+02  0.71325274628E+02  0.10758708674E+03  0.41800000000E+01 0.  1.
         -5    1    4    4    0  502  0.26664993552E+02 -0.82974161518E+02  0.15653980922E+03  0.17921472493E+03  0.41800000000E+01 0.  1.
        -11    1    3    3    0    0  0.66974381659E+01  0.96594623508E+02 -0.28052638119E+02  0.10080837006E+03  0.00000000000E+00 0.  1.
         11    1    3    3    0    0  0.42057644206E+02  0.14344269004E+02  0.24087121383E+02  0.50544959254E+02  0.00000000000E+00 0. -1.
</event>
<event>
 8    1  0.9181008E-006  0.1430367E+03  0.7561462E-02  0.1209300E+00
         -2   -1    0    0    0  501 -0.00000000000E+00  0.00000000000E+00  0.88782414541E+02  0.88782414541E+02  0.00000000000E+00 0. -1.
          2   -1    0    0  501    0  0.00000000000E+00 -0.00000000000E+00 -0.13415560025E+04  0.13415560025E+04  0.00000000000E+00 0.  1.
         23    2    1    2    0    0  0.11491832254E+03 -0.34760205857E+02  0.14811551829E+02  0.15095058662E+03  0.90289560674E+02 0.  0.
         23    2    1    2    0    0 -0.11491832254E+03  0.34760205857E+02 -0.12675851398E+04  0.12793878304E+04  0.12508653506E+03 0.  0.
          5    1    4    4  502    0 -0.59106251422E+02  0.75362289342E+02 -0.92076607871E+03  0.92574330552E+03  0.41800000000E+01 0. -1.
         -5    1    4    4    0  502 -0.55812071117E+02 -0.40602083485E+02 -0.34681906108E+03  0.35364452490E+03  0.41800000000E+01 0. -1.
        -11    1    3    3    0    0  0.44501005202E+02 -0.56258448524E+01 -0.37542734585E+02  0.58493132198E+02  0.00000000000E+00 0.  1.
         11    1    3    3    0    0  0.70417317337E+02 -0.29134361005E+02  0.52354286414E+02  0.92457454421E+02  0.00000000000E+00 0. -1.
</event>
<event>
 7    1  0.9181008E-006  0.1155878E+03  0.7561462E-02  0.1250558E+00
         -2   -1    0    0    0  501 -0.00000000000E+00  0.00000000000E+00  0.22422211943E+03  0.22422211943E+03  0.00000000000E+00 0.  1.
          2   -1    0    0  501    0  0.00000000000E+00 -0.00000000000E+00 -0.71020887730E+02  0.71020887730E+02  0.00000000000E+00 0. -1.
         23    2    1    2    0    0 -0.32031747020E+02  0.20493781229E+02  0.12086154595E+03  0.15415273136E+03  0.87803891774E+02 0.  0.
          5    1    1    2  502    0 -0.49887969750E+02 -0.19841657672E+02  0.28681283713E+01  0.53927724459E+02  0.41800000000E+01 0. -1.
         -5    1    1    2    0  502  0.81919716770E+02 -0.65212355692E+00  0.29471557370E+02  0.87162551332E+02  0.41800000000E+01 0.  1.
        -11    1    3    3    0    0 -0.21876287300E+02 -0.33689246134E+02  0.44162565428E+02  0.59698152704E+02  0.00000000000E+00 0.  1.
         11    1    3    3    0    0 -0.10155459720E+02  0.54183027362E+02  0.76698980526E+02  0.94454578661E+02  0.00000000000E+00 0. -1.
</event>
<event>
 8    1  0.9181008E-006  0.2117527E+03  0.7561462E-02  0.1140186E+00
          2   -1    0    0  501    0  0.00000000000E+00  0.00000000000E+00  0.34375081708E+03  0.34375081708E+03  0.00000000000E+00 0. -1.
         -2   -1    0    0    0  501 -0.00000000000E+00 -0.00000000000E+00 -0.15924420458E+03  0.15924420458E+03  0.00000000000E+00 0.  1.
         23    2    1    2    0    0 -0.16618968920E+03 -0.86931347879E+02 -0.45171096950E+01  0.20879935784E+03  0.91655308142E+02 0.  0.
         23    2    1    2    0    0  0.16618968920E+03  0.86931347879E+02  0.18902372220E+03  0.29419566383E+03  0.12508017036E+03 0.  0.
          5    1    4    4  502    0  0.17729635912E+03  0.62409321469E+02  0.12821744276E+03  0.22756561118E+03  0.41800000000E+01 0. -1.
         -5    1    4    4    0  502 -0.11106669919E+02  0.24522026410E+02  0.60806279440E+02  0.66630052644E+02  0.41800000000E+01 0. -1.
        -11    1    3    3    0    0 -0.85030824169E+02  0.55519980284E+01 -0.89106586438E+01  0.85676517077E+02  0.00000000000E+00 0.  1.
         11    1    3    3    0    0 -0.81158865035E+02 -0.92483345908E+02  0.43935489488E+01  0.12312284076E+03  0.00000000000E+00 0. -1.
</event>
<event>
 8    1  0.9181008E-006  0.1019501E+03  0.7561462E-02  0.1276248E+00
          2   -1    0    0  501    0  0.00000000000E+00  0.00000000000E+00  0.63121149677E+03  0.63121149677E+03  0.00000000000E+00 0. -1.
         -2   -1    0    0    0  501 -0.00000000000E+00 -0.00000000000E+00 -0.22165990026E+02  0.22165990026E+02  0.00000000000E+00 0.  1.
         23    2    1    2    0    0 -0.47308895465E+02 -0.19688936796E+01  0.25538085755E+03  0.27526547850E+03  0.91157518168E+02 0.  0.
         23    2    1    2    0    0  0.47308895465E+02  0.19688936796E+01  0.35366464920E+03  0.37811200830E+03  0.12509196056E+03 0.  0.
          5    1    4    4  502    0  0.10800260655E+02 -0.57184082821E+02  0.21728316097E+03  0.22498024225E+03  0.41800000000E+01 0.  1.
         -5    1    4    4    0  502  0.36508634810E+02  0.59152976500E+02  0.13638148823E+03  0.15313176606E+03  0.41800000000E+01 0.  1.
        -11    1    3    3    0    0  0.14204172608E+02 -0.23838928893E+01  0.20198980413E+01  0.14543777119E+02  0.00000000000E+00 0.  1.
         11    1    3    3    0    0 -0.61513068073E+02  0.41499920972E+00  0.25336095950E+03  0.26072170138E+03  0.00000000000E+00 0. -1.
</event>
<event>
 8    1  0.9181008E-006  0.1005386E+03  0.7561462E-02  0.1279167E+00
         -2   -1    0    0    0  501 -0.00000000000E+00  0.00000000000E+00  0.35030529219E+02  0.35030529219E+02  0.00000000000E+00 0.  1.
          2   -1    0    0  501    0  0.00000000000E+00 -0.00000000000E+00 -0.49885979090E+03  0.49885979090E+03  0.00000000000E+00 0. -1.
         23    2    1    2    0    0 -0.64120931305E+02  0.35927596208E+02 -0.17463760277E+03  0.21034470463E+03  0.91347230194E+02 0.  0.
         23    2    1    2    0    0  0.64120931305E+02 -0.35927596208E+02 -0.28919165891E+03  0.32354561549E+03  0.12509062202E+03 0.  0.
          5    1    4    4  502    0  0.83421555954E+02 -0.37964394471E+02 -0.10992585513E+03  0.14318385828E+03  0.41800000000E+01 0. -1.
         -5    1    4    4    0  502 -0.19300624649E+02  0.20367982628E+01 -0.17926580378E+03  0.18036175721E+03  0.41800000000E+01 0. -1.
        -11    1    3    3    0    0 -0.64717790765E+02  0.12344745981E+02 -0.17474636111E+03  0.18675405194E+03  0.00000000000E+00 0. -1.
         11    1    3    3    0    0  0.59685945994E+00  0.23582850227E+02  0.10875833802E+00  0.23590652692E+02  0.00000000000E+00 0.  1.
</event>
<event>
 7    1  0.9181008E-006  0.8373739E+02  0.7561462E-02  0.1318768E+00
          1   -1    0    0  501    0  0.00000000000E+00  0.00000000000E+00  0.71285046930E+02  0.71285046930E+02  0.00000000000E+00 0. -1.
         -1   -1    0    0    0  501 -0.00000000000E+00 -0.00000000000E+00 -0.11432464506E+03  0.11432464506E+03  0.00000000000E+00 0.  1.
         23    2    1    2    0    0 -0.27728517196E+02 -0.51427586157E+01 -0.10760971033E+02  0.12865341758E+03  0.12506232337E+03 0.  0.
          5    1    3    3  502    0  0.35139715375E+02  0.33710197475E+02 -0.22326806721E+02  0.53732073371E+02  0.41800000000E+01 0. -1.
         -5    1    3    3    0  502 -0.62868232570E+02 -0.38852956091E+02  0.11565835687E+02  0.74921344213E+02  0.41800000000E+01 0. -1.
        -11    1    1    2    0    0  0.21626532017E+02 -0.13138706790E+02 -0.92867826246E+01  0.26955089217E+02  0.00000000000E+00 0.  1.
         11    1    1    2    0    0  0.61019851787E+01  0.18281465405E+02 -0.22991844474E+02  0.30001185190E+02  0.00000000000E+00 0. -1.
</event>
<event>
 8    1  0.9181008E-006  0.1192216E+03  0.7561462E-02  0.1244387E+00
         -2   -1    0    0    0  501 -0.00000000000E+00  0.00000000000E+00  0.44035701338E+02  0.44035701338E+02  0.00000000000E+00 0. -1.
          2   -1    0    0  501    0  0.00000000000E+00 -0.00000000000E+00 -0.24790937938E+04  0.24790937938E+04  0.00000000000E+00 0.  1.
         23    2    1    2    0    0  0.93993256655E+02  0.39434508477E+02 -0.71119688394E+02  0.15369038902E+03  0.90404163858E+02 0.  0.
         23    2    1    2    0    0 -0.93993256655E+02 -0.39434508477E+02 -0.23639384041E+04  0.23694391061E+04  0.12508831536E+03 0.  0.
          5    1    4    4  502    0 -0.26487461855E+02 -0.16536812167E+02 -0.18797237393E+04  0.18799877288E+04  0.41800000000E+01 0.  1.
         -5    1    4    4    0  502 -0.67505794800E+02 -0.22897696310E+02 -0.48421466478E+03  0.48945137738E+03  0.41800000000E+01 0.  1.
        -11    1    3    3    0    0  0.34568427342E+02  0.62795141478E+02 -0.45426691612E+02  0.84863362371E+02  0.00000000000E+00 0.  1.
         11    1    3    3    0    0  0.59424829313E+02 -0.23360633000E+02 -0.25692996783E+02  0.68827026644E+02  0.00000000000E+00 0. -1.
</event>
<event>
 8    1  0.9181008E-006  0.1108038E+03  0.7561462E-02  0.1259089E+00
         -2   -1    0    0    0  501 -0.00000000000E+00  0.00000000000E+00  0.18358880687E+02  0.18358880687E+02  0.00000000000E+00 0.  1.
          2   -1    0    0  501    0  0.00000000000E+00 -0.00000000000E+00 -0.75620623412E+03  0.75620623412E+03  0.00000000000E+00 0. -1.
         23    2    1    2    0    0  0.45159754122E+02  0.96383493822E+01 -0.33981895546E+03  0.35479554906E+03  0.90943157908E+02 0.  0.
         23    2    1    2    0    0 -0.45159754122E+02 -0.96383493822E+01 -0.39802839797E+03  0.41976956575E+03  0.12509029365E+03 0.  0.
          5    1    4    4  502    0  0.66875456511E+01 -0.58268925222E+02 -0.22739172330E+03  0.23487115433E+03  0.41800000000E+01 0. -1.
         -5    1    4    4    0  502 -0.51847299773E+02  0.48630575840E+02 -0.17063667468E+03  0.18489841142E+03  0.41800000000E+01 0. -1.
        -11    1    3    3    0    0  0.26940205637E+02 -0.34544585699E+02 -0.24191372145E+03  0.24584822901E+03  0.00000000000E+00 0. -1.
         11    1    3    3    0    0  0.18219548485E+02  0.44182935082E+02 -0.97905234013E+02  0.10894732005E+03  0.00000000000E+00 0.  1.
</event>
<event>
 8    1  0.9181008E-006  0.1225081E+03  0.7561462E-02  0.1239016E+00
          1   -1    0    0  501    0  0.00000000000E+00  0.00000000000E+00  0.42616361117E+02  0.42616361117E+02  0.00000000000E+00 0. -1.
         -1   -1    0    0    0  501 -0.00000000000E+00 -0.00000000000E+00 -0.42735321584E+03  0.42735321584E+03  0.00000000000E+00 0.  1.
         23    2    1    2    0    0  0.46019211592E+02  0.12740558637E+02 -0.22305740774E+03  0.26175723013E+03  0.12838282872E+03 0.  0.
         23    2    1    2    0    0 -0.46019211592E+02 -0.12740558637E+02 -0.16167944698E+03  0.20821234682E+03  0.12219675987E+03 0.  0.
          5    1    4    4  502    0  0.95064519456E+01 -0.49691855580E+02 -0.26155152705E+02  0.57107070952E+02  0.41800000000E+01 0. -1.
         -5    1    4    4    0  502 -0.55525663538E+02  0.36951296944E+02 -0.13552429428E+03  0.15110527587E+03  0.41800000000E+01 0.  1.
        -11    1    3    3    0    0  0.40629701263E+02 -0.50013969489E+02 -0.64612042095E+02  0.91251771229E+02  0.00000000000E+00 0. -1.
         11    1    3    3    0    0  0.53895103291E+01  0.62754528125E+02 -0.15844536565E+03  0.17050545891E+03  0.00000000000E+00 0.  1.
</event>
<event>
 8    1  0.9181008E-006  0.1002228E+03  0.7561462E-02  0.1279828E+00
          2   -1    0    0  501    0  0.00000000000E+00  0.00000000000E+00  0.29342573322E+03  0.29342573322E+03  0.00000000000E+00 0.  1.
         -2   -1    0    0    0  501 -0.00000000000E+00 -0.00000000000E+00 -0.45623228691E+02  0.45623228691E+02  0.00000000000E+00 0. -1.
         23    2    1    2    0    0  0.24757507391E+02  0.24515145763E+02  0.85147618328E+02  0.13090440237E+03  0.93123139495E+02 0.  0.
         23    2    1    2    0    0 -0.24757507391E+02 -0.24515145763E+02  0.16265488621E+03  0.20814455954E+03  0.12511442410E+03 0.  0.
          5    1    4    4  502    0  0.45035792060E+02 -0.57930305163E+00  0.24441724273E+02  0.51414282489E+02  0.41800000000E+01 0. -1.
         -5    1    4    4    0  502 -0.69793299450E+02 -0.23935842711E+02  0.13821316193E+03  0.15673027706E+03  0.41800000000E+01 0. -1.
        -11    1    3    3    0    0  0.17915843216E+02 -0.25314779022E+02 -0.11327473101E+01  0.31033829792E+02  0.00000000000E+00 0. -1.
         11    1    3    3    0    0  0.68416641744E+01  0.49829924785E+02  0.86280365638E+02  0.99870572580E+02  0.00000000000E+00 0.  1.
</event>
<event>
 8    1  0.9181008E-006  0.1070152E+03  0.7561462E-02  0.1266199E+00
          2   -1    0    0  501    0  0.00000000000E+00  0.00000000000E+00  0.14972320437E+03  0.14972320437E+03  0.00000000000E+00 0. -1.
         -2   -1    0    0    0  501 -0.00000000000E+00 -0.00000000000E+00 -0.10732870738E+03  0.10732870738E+03  0.00000000000E+00 0.  1.
         23    2    1    2    0    0 -0.43415648213E+02 -0.50622545222E+02  0.12710671457E+02  0.11221696632E+03  0.89350577872E+02 0.  0.
         23    2    1    2    0    0  0.43415648213E+02  0.50622545222E+02  0.29683825539E+02  0.14483494543E+03  0.12509385007E+03 0.  0.
          5    1    4    4  502    0  0.38822079909E+02  0.74580706454E+02  0.61695868204E+02  0.10437091653E+03  0.41800000000E+01 0. -1.
         -5    1    4    4    0  502  0.45935683034E+01 -0.23958161232E+02 -0.32012042666E+02  0.40464028902E+02  0.41800000000E+01 0. -1.
        -11    1    3    3    0    0 -0.14748934502E+02  0.22303133575E+02  0.20186996764E+02  0.33503368108E+02  0.00000000000E+00 0. -1.
         11    1    3    3    0    0 -0.28666713711E+02 -0.72925678797E+02 -0.74763253071E+01  0.78713598209E+02  0.00000000000E+00 0.  1.
</event>
<event>
 8    1  0.9181008E-006  0.2513010E+03  0.7561462E-02  0.1112485E+00
          2   -1    0    0  501    0  0.00000000000E+00  0.00000000000E+00  0.26414351627E+03  0.26414351627E+03  0.00000000000E+00 0.  1.
         -2   -1    0    0    0  501 -0.00000000000E+00 -0.00000000000E+00 -0.27385692050E+03  0.27385692050E+03  0.00000000000E+00 0. -1.
         23    2    1    2    0    0  0.19859250829E+03 -0.14239151800E+03  0.19725241138E+02  0.26190470586E+03  0.92144783176E+02 0.  0.
         23    2    1    2    0    0 -0.19859250829E+03  0.14239151800E+03 -0.29438645363E+02  0.27609573091E+03  0.12509152664E+03 0.  0.
          5    1    4    4  502    0 -0.12694347854E+03  0.40854820748E+02 -0.62645896969E+02  0.14739655331E+03  0.41800000000E+01 0.  1.
         -5    1    4    4    0  502 -0.71649029748E+02  0.10153669726E+03  0.33207251606E+02  0.12869917759E+03  0.41800000000E+01 0.  1.
        -11    1    3    3    0    0  0.55529243658E+02 -0.48407708031E+02  0.48683364647E+02  0.88299904254E+02  0.00000000000E+00 0.  1.
         11    1    3    3    0    0  0.14306326463E+03 -0.93983809974E+02 -0.28958123509E+02  0.17360480161E+03  0.00000000000E+00 0. -1.
</event>
<event>
 8    1  0.9181008E-006  0.1346200E+03  0.7561462E-02  0.1220757E+00
          2   -1    0    0  501    0  0.00000000000E+00  0.00000000000E+00  0.11317104542E+04  0.11317104542E+04  0.00000000000E+00 0. -1.
         -2   -1    0    0    0  501 -0.00000000000E+00 -0.00000000000E+00 -0.17127341717E+02  0.17127341717E+02  0.00000000000E+00 0.  1.
         23    2    1    2    0    0  0.32820010762E+02 -0.74459127600E+02  0.36399521469E+03  0.38351839031E+03  0.89288994836E+02 0.  0.
         23    2    1    2    0    0 -0.32820010762E+02  0.74459127600E+02  0.75058789782E+03  0.76531940563E+03  0.12534067775E+03 0.  0.
          5    1    4    4  502    0 -0.63233154861E+02 -0.53137801268E+01  0.29392368337E+03  0.30072457860E+03  0.41800000000E+01 0.  1.
         -5    1    4    4    0  502  0.30413144099E+02  0.79772907727E+02  0.45666421445E+03  0.46459482703E+03  0.41800000000E+01 0.  1.
        -11    1    3    3    0    0  0.59806971084E+02 -0.71202688449E+02  0.26415263288E+03  0.28004162206E+03  0.00000000000E+00 0.  1.
         11    1    3    3    0    0 -0.26986960322E+02 -0.32564391519E+01  0.99842581818E+02  0.10347676825E+03  0.00000000000E+00 0. -1.
</event>
<event>
 8    1  0.9181008E-006  0.2153628E+03  0.7561462E-02  0.1137388E+00
         -1   -1    0    0    0  501 -0.00000000000E+00  0.00000000000E+00  0.46922724464E+02  0.46922724464E+02  0.00000000000E+00 0.  1.
          1   -1    0    0  501    0  0.00000000000E+00 -0.00000000000E+00 -0.10840125149E+04  0.10840125149E+04  0.00000000000E+00 0. -1.
         23    2    1    2    0    0 -0.56193077832E+02 -0.18216759147E+03 -0.37795791471E+03  0.43347854147E+03  0.93320776085E+02 0.  0.
         23    2    1    2    0    0  0.56193077832E+02  0.18216759147E+03 -0.65913187569E+03  0.69745669785E+03  0.12509325503E+03 0.  0.
          5    1    4    4  502    0  0.76050480232E+02  0.19106893180E+03 -0.60253968101E+03  0.63668088698E+03  0.41800000000E+01 0.  1.
         -5    1    4    4    0  502 -0.19857402400E+02 -0.89013403327E+01 -0.56592194675E+02  0.60775810878E+02  0.41800000000E+01 0.  1.
        -11    1    3    3    0    0 -0.72142102656E+02 -0.13472331832E+03 -0.22069300549E+03  0.26844041824E+03  0.00000000000E+00 0. -1.
         11    1    3    3    0    0  0.15949024824E+02 -0.47444273150E+02 -0.15726490922E+03  0.16503812323E+03  0.00000000000E+00 0.  1.
</event>
<event>
 7    1  0.9181008E-006  0.8042909E+02  0.7561462E-02  0.1327838E+00
         -1   -1    0    0    0  501 -0.00000000000E+00  0.00000000000E+00  0.29504932432E+02  0.29504932432E+02  0.00000000000E+00 0.  1.
          1   -1    0    0  501    0  0.00000000000E+00 -0.00000000000E+00 -0.79262559066E+03  0.79262559066E+03  0.00000000000E+00 0. -1.
         23    2    1    2    0    0 -0.42526998042E+01 -0.37394985922E+02 -0.15533618400E+03  0.18415789457E+03  0.91478574792E+02 0.  0.
          5    1    1    2  502    0 -0.13468023165E+01  0.59063948847E+02 -0.61196490108E+03  0.61482426471E+03  0.41800000000E+01 0. -1.
         -5    1    1    2    0  502  0.55995021207E+01 -0.21668962926E+02  0.41804268496E+01  0.23148363807E+02  0.41800000000E+01 0.  1.
        -11    1    3    3    0    0 -0.36843241041E+02 -0.19802935411E+02 -0.13618514213E+03  0.14246393789E+03  0.00000000000E+00 0.  1.
         11    1    3    3    0    0  0.32590541237E+02 -0.17592050511E+02 -0.19151041868E+02  0.41693956683E+02  0.00000000000E+00 0. -1.
</event>
<event>
 8    1  0.9181008E-006  0.1272253E+03  0.7561462E-02  0.1231632E+00
         -3   -1    0    0    0  501 -0.00000000000E+00  0.00000000000E+00  0.14909976958E+03  0.14909976958E+03  0.00000000000E+00 0.  1.
          3   -1    0    0  501    0  0.00000000000E+00 -0.00000000000E+00 -0.20712945552E+03  0.20712945552E+03  0.00000000000E+00 0. -1.
         23    2    1    2    0    0  0.76368527134E+02 -0.78398736783E+02  0.56482421516E+02  0.15439215565E+03  0.93102953331E+02 0.  0.
         23    2    1    2    0    0 -0.76368527134E+02  0.78398736783E+02 -0.11451210745E+03  0.20183706946E+03  0.12508663393E+03 0.  0.
          5    1    4    4  502    0  0.67018688105E+01 -0.16695954123E+02 -0.62569017465E+02  0.65238211780E+02  0.41800000000E+01 0.  1.
         -5    1    4    4    0  502 -0.83070395945E+02  0.95094690906E+02 -0.51943089988E+02  0.13659885768E+03  0.41800000000E+01 0.  1.
        -11    1    3    3    0    0  0.38804077624E+02 -0.35137359307E+02  0.77364349189E+02  0.93411096690E+02  0.00000000000E+00 0.  1.
         11    1    3    3    0    0  0.37564449510E+02 -0.43261377476E+02 -0.20881927673E+02  0.60981058957E+02  0.00000000000E+00 0. -1.
</event>
<event>
 8    1  0.9181008E-006  0.8871190E+02  0.7561462E-02  0.1306001E+00
         -1   -1    0    0    0  501 -0.00000000000E+00  0.00000000000E+00  0.33681962214E+02  0.33681962214E+02  0.00000000000E+00 0.  1.
          1   -1    0    0  501    0  0.00000000000E+00 -0.00000000000E+00 -0.41431270036E+03  0.41431270036E+03  0.00000000000E+00 0. -1.
         23    2    1    2    0    0 -0.32610542734E+02  0.24644396519E+02 -0.12576200707E+03  0.16117035502E+03  0.92135808125E+02 0.  0.
         23    2    1    2    0    0  0.32610542734E+02 -0.24644396519E+02 -0.25486873108E+03  0.28682430755E+03  0.12505726506E+03 0.  0.
          5    1    4    4  502    0 -0.20221649660E+02  0.93064206245E+01  0.16380701313E+01  0.22708594267E+02  0.41800000000E+01 0. -1.
         -5    1    4    4    0  502  0.52832192394E+02 -0.33950817143E+02 -0.25650680121E+03  0.26411571329E+03  0.41800000000E+01 0. -1.
        -11    1    3    3    0    0  0.26917779757E+02  0.16953714422E+02 -0.14957432415E+02  0.35152810474E+02  0.00000000000E+00 0.  1.
         11    1    3    3    0    0 -0.59528322492E+02  0.76906820966E+01 -0.11080457465E+03  0.12601754455E+03  0.00000000000E+00 0. -1.
</event>
<event>
 8    1  0.9181008E-006  0.1316203E+03  0.7561462E-02  0.1225071E+00
         -1   -1    0    0    0  501 -0.00000000000E+00  0.00000000000E+00  0.12220561712E+03  0.12220561712E+03  0.00000000000E+00 0.  1.
          1   -1    0    0  501    0  0.00000000000E+00 -0.00000000000E+00 -0.21835374611E+03  0.21835374611E+03  0.00000000000E+00 0. -1.
         23    2    1    2    0    0  0.91374761674E+01  0.11128627938E+03  0.47629978267E+01  0.14485925252E+03  0.92159575975E+02 0.  0.
         23    2    1    2    0    0 -0.91374761674E+01 -0.11128627938E+03 -0.10091112682E+03  0.19570011070E+03  0.12508936152E+03 0.  0.
          5    1    4    4  502    0 -0.30508463786E+02  0.14093455202E+01  0.13486349487E+02  0.33646792416E+02  0.41800000000E+01 0. -1.
         -5    1    4    4    0  502  0.21370987619E+02 -0.11269562490E+03 -0.11439747630E+03  0.16205331829E+03  0.41800000000E+01 0. -1.
        -11    1    3    3    0    0  0.23626886348E+02  0.67994369793E+02 -0.38786023879E+02  0.81766862056E+02  0.00000000000E+00 0. -1.
         11    1    3    3    0    0 -0.14489410181E+02  0.43291909583E+02  0.43549021706E+02  0.63092390463E+02  0.00000000000E+00 0.  1.
</event>
<event>
 8    1  0.9181008E-006  0.1089403E+03  0.7561462E-02  0.1262545E+00
         -1   -1    0    0    0  501 -0.00000000000E+00  0.00000000000E+00  0.11180361127E+03  0.11180361127E+03  0.00000000000E+00 0.  1.
          1   -1    0    0  501    0  0.00000000000E+00 -0.00000000000E+00 -0.12835047752E+03  0.12835047752E+03  0.00000000000E+00 0. -1.
         23    2    1    2    0    0 -0.41347663987E+02  0.29872731624E+02 -0.30601715642E+01  0.10439312988E+03  0.91030497656E+02 0.  0.
         23    2    1    2    0    0  0.41347663987E+02 -0.29872731624E+02 -0.13486694679E+02  0.13576095891E+03  0.12508851914E+03 0.  0.
          5    1    4    4  502    0  0.42482979486E+02  0.31141297148E+02 -0.42736795448E+02  0.67959473359E+02  0.41800000000E+01 0. -1.
         -5    1    4    4    0  502 -0.11353154990E+01 -0.61014028772E+02  0.29250100768E+02  0.67801485554E+02  0.41800000000E+01 0. -1.
        -11    1    3    3    0    0 -0.69944194999E+02  0.27578100400E+02  0.22452464120E+01  0.75218236932E+02  0.00000000000E+00 0.  1.
         11    1    3    3    0    0  0.28596531012E+02  0.22946312246E+01 -0.53054179762E+01  0.29174892944E+02  0.00000000000E+00 0. -1.
</event>
<event>
 8    1  0.9181008E-006  0.1909541E+03  0.7561462E-02  0.1157604E+00
         -1   -1    0    0    0  501 -0.00000000000E+00  0.00000000000E+00  0.39441108502E+02  0.39441108502E+02  0.00000000000E+00 0.  1.
          1   -1    0    0  501    0  0.00000000000E+00 -0.00000000000E+00 -0.10492565503E+04  0.10492565503E+04  0.00000000000E+00 0. -1.
         23    2    1    2    0    0 -0.10573997924E+03  0.12226132258E+03 -0.32791406283E+03  0.37682433177E+03  0.91324532341E+02 0.  0.
         23    2    1    2    0    0  0.10573997924E+03 -0.12226132258E+03 -0.68190137896E+03  0.71187332702E+03  0.12508144902E+03 0.  0.
          5    1    4    4  502    0  0.12484206102E+03 -0.12545752209E+03 -0.53237389388E+03  0.56103882694E+03  0.41800000000E+01 0. -1.
         -5    1    4    4    0  502 -0.19102081786E+02  0.31961995160E+01 -0.14952748508E+03  0.15083450008E+03  0.41800000000E+01 0. -1.
        -11    1    3    3    0    0  0.15977374601E+02  0.22952883497E+02 -0.39403929836E+02  0.48319572085E+02  0.00000000000E+00 0.  1.
         11    1    3    3    0    0 -0.12171735384E+03  0.99308439082E+02 -0.28851013299E+03  0.32850475969E+03  0.00000000000E+00 0. -1.
</event>
<event>
 8    1  0.9181008E-006  0.1042122E+03  0.7561462E-02  0.1271680E+00
         -2   -1    0    0    0  501 -0.00000000000E+00  0.00000000000E+00  0.23782161600E+02  0.23782161600E+02  0.00000000000E+00 0.  1.
          2   -1    0    0  501    0  0.00000000000E+00 -0.00000000000E+00 -0.10461876216E+04  0.10461876216E+04  0.00000000000E+00 0. -1.
         23    2    1    2    0    0  0.65422857830E+02 -0.75065808402E+02 -0.27710920338E+03  0.30771761791E+03  0.89362161199E+02 0.  0.
         23    2    1    2    0    0 -0.65422857830E+02  0.75065808402E+02 -0.74529625659E+03  0.76225216527E+03  0.12508727931E+03 0.  0.
          5    1    4    4  502    0 -0.62307721897E+01 -0.49876420029E+01  0.12402503447E+01  0.90944882070E+01  0.41800000000E+01 0.  1.
         -5    1    4    4    0  502 -0.59192085641E+02  0.80053450404E+02 -0.74653650694E+03  0.75315767706E+03  0.41800000000E+01 0.  1.
        -11    1    3    3    0    0  0.34146240168E+02 -0.34464668964E+02 -0.33946927221E+02  0.59212946154E+02  0.00000000000E+00 0.  1.
         11    1    3    3    0    0  0.31276617662E+02 -0.40601139438E+02 -0.24316227616E+03  0.24850467176E+03  0.00000000000E+00 0. -1.
</event>
<event>
 8    1  0.9181008E-006  0.1585580E+03  0.7561462E-02  0.1190334E+00
         -2   -1    0    0    0  501 -0.00000000000E+00  0.00000000000E+00  0.16164887672E+02  0.16164887672E+02  0.00000000000E+00 0.  1.
          2   -1    0    0  501    0  0.00000000000E+00 -0.00000000000E+00 -0.18074460704E+04  0.18074460704E+04  0.00000000000E+00 0. -1.
         23    2    1    2    0    0  0.91139608270E+02  0.72824238186E+02 -0.51871805281E+03  0.53960323460E+03  0.92159831881E+02 0.  0.
         23    2    1    2    0    0 -0.91139608270E+02 -0.72824238186E+02 -0.12725631300E+04  0.12840077235E+04  0.12509642863E+03 0.  0.
          5    1    4    4  502    0 -0.10663425227E+03 -0.12100973978E+02 -0.73983661435E+03  0.74759145639E+03  0.41800000000E+01 0. -1.
         -5    1    4    4    0  502  0.15494644005E+02 -0.60723264208E+02 -0.53272651560E+03  0.53641626712E+03  0.41800000000E+01 0. -1.
        -11    1    3    3    0    0  0.12803108688E+02  0.67156888994E+02 -0.28315963095E+03  0.29129597308E+03  0.00000000000E+00 0. -1.
         11    1    3    3    0    0  0.78336499582E+02  0.56673491918E+01 -0.23555842186E+03  0.24830726152E+03  0.00000000000E+00 0.  1.
</event>
<event>
 8    1  0.9181008E-006  0.9467044E+02  0.7561462E-02  0.1291920E+00
         -2   -1    0    0    0  501 -0.00000000000E+00  0.00000000000E+00  0.14971366445E+03  0.14971366445E+03  0.00000000000E+00 0.  1.
          2   -1    0    0  501    0  0.00000000000E+00 -0.00000000000E+00 -0.92712648356E+02  0.92712648356E+02  0.00000000000E+00 0. -1.
         23    2    1    2    0    0 -0.30838301609E+02  0.12192187249E+02  0.59425738080E+02  0.11299946918E+03  0.90209818831E+02 0.  0.
         23    2    1    2    0    0  0.30838301609E+02 -0.12192187249E+02 -0.24247219902E+01  0.12942684362E+03  0.12508308557E+03 0.  0.
          5    1    4    4  502    0 -0.26607276984E+02 -0.45875470621E+02  0.23088501723E+02  0.57991872750E+02  0.41800000000E+01 0.  1.
         -5    1    4    4    0  502  0.57445578593E+02  0.33683283372E+02 -0.25513223714E+02  0.71434970868E+02  0.41800000000E+01 0.  1.
        -11    1    3    3    0    0 -0.45620834266E+02  0.23016342935E+02  0.29884357816E+00  0.51098941953E+02  0.00000000000E+00 0. -1.
         11    1    3    3    0    0  0.14782532657E+02 -0.10824155686E+02  0.59126894502E+02  0.61900527231E+02  0.00000000000E+00 0.  1.
</event>
<event>
 8    1  0.9548311E-006  0.8887586E+02  0.7561462E-02  0.1305597E+00
         -2   -1    0    0    0  501 -0.00000000000E+00  0.00000000000E+00  0.10939715120E+02  0.10939715120E+02  0.00000000000E+00 0.  1.
          2   -1    0    0  501    0  0.00000000000E+00 -0.00000000000E+00 -0.11526774540E+04  0.11526774540E+04  0.00000000000E+00 0. -1.
         23    2    1    2    0    0  0.25800646023E+02 -0.36746803735E+02 -0.30673339544E+03  0.31810226862E+03  0.71327950405E+02 0.  0.
         23    2    1    2    0    0 -0.25800646023E+02  0.36746803735E+02 -0.83500434343E+03  0.84551490048E+03  0.12508873837E+03 0.  0.
          5    1    4    4  502    0 -0.91063825552E+01  0.65545180586E+02 -0.22444286859E+03  0.23403241349E+03  0.41800000000E+01 0.  1.
         -5    1    4    4    0  502 -0.16694263468E+02 -0.28798376851E+02 -0.61056147483E+03  0.61148248699E+03  0.41800000000E+01 0.  1.
        -11    1    3    3    0    0  0.13992722047E+02  0.17484595474E+02 -0.41834288589E+02  0.47451185980E+02  0.00000000000E+00 0.  1.
         11    1    3    3    0    0  0.11807923975E+02 -0.54231399208E+02 -0.26489910685E+03  0.27065108264E+03  0.00000000000E+00 0. -1.
</event>
<event>
 8    1  0.9181008E-006  0.1039368E+03  0.7561462E-02  0.1272229E+00
         -2   -1    0    0    0  501 -0.00000000000E+00  0.00000000000E+00  0.37817652932E+02  0.37817652932E+02  0.00000000000E+00 0.  1.
          2   -1    0    0  501    0  0.00000000000E+00 -0.00000000000E+00 -0.71747765361E+03  0.71747765361E+03  0.00000000000E+00 0. -1.
         23    2    1    2    0    0 -0.97225003774E+01  0.10304653293E+03 -0.16289562288E+03  0.21362838406E+03  0.91591416418E+02 0.  0.
         23    2    1    2    0    0  0.97225003774E+01 -0.10304653293E+03 -0.51676437780E+03  0.54166692249E+03  0.12507804677E+03 0.  0.
          5    1    4    4  502    0  0.31465022877E+01 -0.75523640434E+02 -0.10793245329E+03  0.13183553244E+03  0.41800000000E+01 0. -1.
         -5    1    4    4    0  502  0.65759980897E+01 -0.27522892495E+02 -0.40883192452E+03  0.40983139005E+03  0.41800000000E+01 0. -1.
        -11    1    3    3    0    0 -0.87116288692E+01  0.75783177384E+02 -0.36947086970E+02  0.84758891495E+02  0.00000000000E+00 0.  1.
         11    1    3    3    0    0 -0.10108715083E+01  0.27263355545E+02 -0.12594853591E+03  0.12886949257E+03  0.00000000000E+00 0. -1.
</event>
<event>
 8    1  0.9181008E-006  0.1122348E+03  0.7561462E-02  0.1256487E+00
          1   -1    0    0  501    0  0.00000000000E+00  0.00000000000E+00  0.36096495990E+03  0.36096495990E+03  0.00000000000E+00 0. -1.
         -1   -1    0    0    0  501 -0.00000000000E+00 -0.00000000000E+00 -0.54613320016E+02  0.54613320016E+02  0.00000000000E+00 0.  1.
         23    2    1    2    0    0 -0.73228869524E+02  0.34110602689E+02  0.10071778741E+03  0.16169471418E+03  0.97340163057E+02 0.  0.
         23    2    1    2    0    0  0.73228869524E+02 -0.34110602689E+02  0.20563385247E+03  0.25388356574E+03  0.12508230539E+03 0.  0.
          5    1    4    4  502    0  0.40370394955E+02 -0.47675630417E+02  0.21343515042E+02  0.66149471342E+02  0.41800000000E+01 0. -1.
         -5    1    4    4    0  502  0.32858474569E+02  0.13565027728E+02  0.18429033743E+03  0.18773409440E+03  0.41800000000E+01 0. -1.
        -11    1    3    3    0    0 -0.88068505900E+02 -0.86324603480E+00  0.64106307981E+02  0.10893312466E+03  0.00000000000E+00 0.  1.
         11    1    3    3    0    0  0.14839636375E+02  0.34973848724E+02  0.36611479429E+02  0.52761589517E+02  0.00000000000E+00 0. -1.
</event>
<event>
 8    1  0.9181008E-006  0.1034819E+03  0.7561462E-02  0.1273140E+00
         -2   -1    0    0    0  501 -0.00000000000E+00  0.00000000000E+00  0.23679672971E+02  0.23679672971E+02  0.00000000000E+00 0.  1.
          2   -1    0    0  501    0  0.00000000000E+00 -0.00000000000E+00 -0.77573145219E+03  0.77573145219E+03  0.00000000000E+00 0. -1.
         23    2    1    2    0    0  0.49275396414E+02  0.61291699491E+02 -0.24136326882E+03  0.26998307218E+03  0.91923308317E+02 0.  0.
         23    2    1    2    0    0 -0.49275396414E+02 -0.61291699491E+02 -0.51068851040E+03  0.52942805298E+03  0.11535411353E+03 0.  0.
          5    1    4    4  502    0  0.15564136748E+02 -0.41693661349E+01 -0.64989613273E+01  0.17869943061E+02  0.41800000000E+01 0. -1.
         -5    1    4    4    0  502 -0.64839533162E+02 -0.57122333357E+02 -0.50418954907E+03  0.51155810991E+03  0.41800000000E+01 0.  1.
        -11    1    3    3    0    0 -0.61968487259E+01 -0.11033812808E+02 -0.74229017914E+00  0.12676630227E+02  0.00000000000E+00 0.  1.
         11    1    3    3    0    0  0.55472245140E+02  0.72325512299E+02 -0.24062097864E+03  0.25730644196E+03  0.00000000000E+00 0. -1.
</event>
<event>
 8    1  0.9181008E-006  0.7040357E+02  0.7561462E-02  0.1358726E+00
         -2   -1    0    0    0  501 -0.00000000000E+00  0.00000000000E+00  0.15989251141E+03  0.15989251141E+03  0.00000000000E+00 0.  1.
          2   -1    0    0  501    0  0.00000000000E+00 -0.00000000000E+00 -0.18893750327E+03  0.18893750327E+03  0.00000000000E+00 0. -1.
         23    2    1    2    0    0 -0.35928466755E+02 -0.13038756011E+02  0.11561922813E+03  0.15393339504E+03  0.94163795136E+02 0.  0.
         23    2    1    2    0    0  0.35928466755E+02  0.13038756011E+02 -0.14466421999E+03  0.19489661964E+03  0.12488431416E+03 0.  0.
          5    1    4    4  502    0 -0.10251845335E+02  0.18250937637E+02  0.16584891409E+02  0.27031982547E+02  0.41800000000E+01 0. -1.
         -5    1    4    4    0  502  0.46180312090E+02 -0.52121816266E+01 -0.16124911139E+03  0.16786463710E+03  0.41800000000E+01 0.  1.
        -11    1    3    3    0    0  0.16154514188E+02  0.61623598388E+01  0.91995132962E+02  0.93605809094E+02  0.00000000000E+00 0.  1.
         11    1    3    3    0    0 -0.52082980944E+02 -0.19201115849E+02  0.23624095165E+02  0.60327585947E+02  0.00000000000E+00 0. -1.
</event>
<event>
 8    1  0.9181008E-006  0.2068040E+03  0.7561462E-02  0.1144122E+00
          2   -1    0    0  501    0  0.00000000000E+00  0.00000000000E+00  0.98026012447E+03  0.98026012447E+03  0.00000000000E+00 0. -1.
         -2   -1    0    0    0  501 -0.00000000000E+00 -0.00000000000E+00 -0.52438609496E+02  0.52438609496E+02  0.00000000000E+00 0.  1.
         23    2    1    2    0    0 -0.15925374376E+03  0.11682415905E+03  0.47958804423E+03  0.52715891602E+03  0.94245379354E+02 0.  0.
         23    2    1    2    0    0  0.15925374376E+03 -0.11682415905E+03  0.44823347074E+03  0.50553981795E+03  0.12509046406E+03 0.  0.
          5    1    4    4  502    0  0.15626801128E+03 -0.74018547112E+02  0.41942305319E+03  0.45368668331E+03  0.41800000000E+01 0. -1.
         -5    1    4    4    0  502  0.29857324742E+01 -0.42805611941E+02  0.28810417553E+02  0.51853134637E+02  0.41800000000E+01 0. -1.
        -11    1    3    3    0    0 -0.11692583797E+03  0.87466775132E+02  0.43559271710E+03  0.45941604623E+03  0.00000000000E+00 0. -1.
         11    1    3    3    0    0 -0.42327905781E+02  0.29357383921E+02  0.43995327131E+02  0.67742869794E+02  0.00000000000E+00 0.  1.
</event>
<event>
 8    1  0.9181008E-006  0.8573059E+02  0.7561462E-02  0.1313533E+00
         -2   -1    0    0    0  501 -0.00000000000E+00  0.00000000000E+00  0.64978840139E+02  0.64978840139E+02  0.00000000000E+00 0.  1.
          2   -1    0    0  501    0  0.00000000000E+00 -0.00000000000E+00 -0.26155723341E+03  0.26155723341E+03  0.00000000000E+00 0. -1.
         23    2    1    2    0    0 -0.63386768671E+02  0.71823115223E+01 -0.48740351845E+02  0.12264082832E+03  0.92712905423E+02 0.  0.
         23    2    1    2    0    0  0.63386768671E+02 -0.71823115223E+01 -0.14783804143E+03  0.20389524523E+03  0.12509083297E+03 0.  0.
          5    1    4    4  502    0  0.31264580507E+02  0.30459341599E+02  0.41069132565E+01  0.44040715497E+02  0.41800000000E+01 0. -1.
         -5    1    4    4    0  502  0.32122188164E+02 -0.37641653122E+02 -0.15194495468E+03  0.15985452973E+03  0.41800000000E+01 0. -1.
        -11    1    3    3    0    0 -0.60118083564E+02 -0.95772563908E+01 -0.71680986155E+02  0.94042924176E+02  0.00000000000E+00 0. -1.
         11    1    3    3    0    0 -0.32686851069E+01  0.16759567913E+02  0.22940634310E+02  0.28597904145E+02  0.00000000000E+00 0.  1.
</event>
<event>
 7    1  0.9181008E-006  0.1783788E+03  0.7561462E-02  0.1169381E+00
         -1   -1    0    0    0  501 -0.00000000000E+00  0.00000000000E+00  0.60624471948E+03  0.60624471948E+03  0.00000000000E+00 0.  1.
          1   -1    0    0  501    0  0.00000000000E+00 -0.00000000000E+00 -0.68394350377E+02  0.68394350377E+02  0.00000000000E+00 0. -1.
         23    2    1    2    0    0  0.13875803281E+03  0.53036402407E+02  0.13484313086E+03  0.21884255339E+03  0.87422774968E+02 0.  0.
          5    1    1    2  502    0 -0.83509494073E+02 -0.10158003364E+03  0.31273360207E+03  0.33928176653E+03  0.41800000000E+01 0. -1.
         -5    1    1    2    0  502 -0.55248538739E+02  0.48543631231E+02  0.90273636171E+02  0.11651474994E+03  0.41800000000E+01 0.  1.
        -11    1    3    3    0    0  0.10297995673E+03  0.52847236407E+02  0.48721419909E+02  0.12558454779E+03  0.00000000000E+00 0. -1.
         11    1    3    3    0    0  0.35778076077E+02  0.18916599996E+00  0.86121710951E+02  0.93258005601E+02  0.00000000000E+00 0.  1.
</event>
<event>
 8    1  0.9181008E-006  0.1230111E+03  0.7561462E-02  0.1238211E+00
         -2   -1    0    0    0  501 -0.00000000000E+00  0.00000000000E+00  0.20648601042E+02  0.20648601042E+02  0.00000000000E+00 0.  1.
          2   -1    0    0  501    0  0.00000000000E+00 -0.00000000000E+00 -0.73916628496E+03  0.73916628496E+03  0.00000000000E+00 0. -1.
         23    2    1    2    0    0 -0.36761943091E+02 -0.46350916485E+02 -0.30852071433E+03  0.32709568667E+03  0.91141149614E+02 0.  0.
         23    2    1    2    0    0  0.36761943091E+02  0.46350916485E+02 -0.40999696959E+03  0.43271919933E+03  0.12509413446E+03 0.  0.
          5    1    4    4  502    0  0.25025165161E+02  0.89723074113E+02 -0.27381550554E+03  0.28925575602E+03  0.41800000000E+01 0.  1.
         -5    1    4    4    0  502  0.11736777930E+02 -0.43372157628E+02 -0.13618146405E+03  0.14346344330E+03  0.41800000000E+01 0.  1.
        -11    1    3    3    0    0  0.42612499209E+01 -0.63172790274E+02 -0.15912036545E+03  0.17125492805E+03  0.00000000000E+00 0. -1.
         11    1    3    3    0    0 -0.41023193012E+02  0.16821873789E+02 -0.14940034888E+03  0.15584075862E+03  0.00000000000E+00 0.  1.
</event>
<event>
 8    1  0.9181008E-006  0.1934842E+03  0.7561462E-02  0.1155356E+00
         -3   -1    0    0    0  501 -0.00000000000E+00  0.00000000000E+00  0.10106148294E+03  0.10106148294E+03  0.00000000000E+00 0.  1.
          3   -1    0    0  501    0  0.00000000000E+00 -0.00000000000E+00 -0.40450050499E+03  0.40450050499E+03  0.00000000000E+00 0. -1.
         23    2    1    2    0    0  0.31028892274E+02 -0.16515419248E+03 -0.11202745313E+03  0.22187157181E+03  0.91859374429E+02 0.  0.
         23    2    1    2    0    0 -0.31028892274E+02  0.16515419248E+03 -0.19141156892E+03  0.28369041612E+03  0.12491262560E+03 0.  0.
          5    1    4    4  502    0 -0.55765112706E+02  0.16058832925E+02 -0.51856379546E+02  0.77937092643E+02  0.41800000000E+01 0.  1.
         -5    1    4    4    0  502  0.24736220431E+02  0.14909535956E+03 -0.13955518937E+03  0.20575332348E+03  0.41800000000E+01 0.  1.
        -11    1    3    3    0    0  0.39422840276E+02 -0.58096930664E+02 -0.52042622781E+01  0.70402400768E+02  0.00000000000E+00 0.  1.
         11    1    3    3    0    0 -0.83939480013E+01 -0.10705726182E+03 -0.10682319085E+03  0.15146917104E+03  0.00000000000E+00 0. -1.
</event>
<event>
 8    1  0.9181008E-006  0.1331854E+03  0.7561462E-02  0.1222804E+00
          2   -1    0    0  501    0  0.00000000000E+00  0.00000000000E+00  0.80276247098E+03  0.80276247098E+03  0.00000000000E+00 0. -1.
         -2   -1    0    0    0  501 -0.00000000000E+00 -0.00000000000E+00 -0.37664516384E+02  0.37664516384E+02  0.00000000000E+00 0.  1.
         23    2    1    2    0    0  0.10749732857E+03  0.65453293049E+02  0.24701844105E+03  0.29280169488E+03  0.94206757106E+02 0.  0.
         23    2    1    2    0    0 -0.10749732857E+03 -0.65453293049E+02  0.51807951354E+03  0.54762529248E+03  0.12508904586E+03 0.  0.
          5    1    4    4  502    0 -0.93360391300E+02 -0.47865003009E+02  0.17718570960E+03  0.20595987294E+03  0.41800000000E+01 0.  1.
         -5    1    4    4    0  502 -0.14136937271E+02 -0.17588290040E+02  0.34089380394E+03  0.34166541954E+03  0.41800000000E+01 0.  1.
        -11    1    3    3    0    0  0.95696544241E+02  0.28829333948E+02  0.10215326942E+03  0.14291343369E+03  0.00000000000E+00 0.  1.
         11    1    3    3    0    0  0.11800784329E+02  0.36623959102E+02  0.14486517163E+03  0.14988826119E+03  0.00000000000E+00 0. -1.
</event>
<event>
 8    1  0.9181008E-006  0.1250627E+03  0.7561462E-02  0.1234971E+00
          1   -1    0    0  501    0  0.00000000000E+00  0.00000000000E+00  0.68456776291E+03  0.68456776291E+03  0.00000000000E+00 0. -1.
         -1   -1    0    0    0  501 -0.00000000000E+00 -0.00000000000E+00 -0.26148964887E+02  0.26148964887E+02  0.00000000000E+00 0.  1.
         23    2    1    2    0    0  0.76172086558E+02  0.14002046680E+02  0.32034510888E+03  0.34201892757E+03  0.91420533535E+02 0.  0.
         23    2    1    2    0    0 -0.76172086558E+02 -0.14002046680E+02  0.33807368914E+03  0.36869780023E+03  0.12508398986E+03 0.  0.
          5    1    4    4  502    0 -0.96514078113E+02  0.24295367838E+02  0.19251877823E+03  0.21676296857E+03  0.41800000000E+01 0. -1.
         -5    1    4    4    0  502  0.20341991556E+02 -0.38297414518E+02  0.14555491091E+03  0.15193483165E+03  0.41800000000E+01 0. -1.
        -11    1    3    3    0    0 -0.60052000060E+01  0.23470069254E+02  0.23085213422E+02  0.33463915740E+02  0.00000000000E+00 0.  1.
         11    1    3    3    0    0  0.82177286564E+02 -0.94680225745E+01  0.29725989546E+03  0.30855501183E+03  0.00000000000E+00 0. -1.
</event>
<event>
 8    1  0.9181008E-006  0.1011031E+03  0.7561462E-02  0.1277993E+00
          1   -1    0    0  501    0  0.00000000000E+00  0.00000000000E+00  0.15958463626E+03  0.15958463626E+03  0.00000000000E+00 0. -1.
         -1   -1    0    0    0  501 -0.00000000000E+00 -0.00000000000E+00 -0.79477167324E+02  0.79477167324E+02  0.00000000000E+00 0.  1.
         23    2    1    2    0    0 -0.26911278477E+02  0.12555284760E+02  0.19096724348E+02  0.96753668860E+02  0.90081826537E+02 0.  0.
         23    2    1    2    0    0  0.26911278477E+02 -0.12555284760E+02  0.61010744592E+02  0.14230813473E+03  0.12508973647E+03 0.  0.
          5    1    4    4  502    0 -0.47864852292E+02 -0.14369283421E+02  0.40974081157E+02  0.64760081204E+02  0.41800000000E+01 0. -1.
         -5    1    4    4    0  502  0.74776130769E+02  0.18139986617E+01  0.20036663436E+02  0.77548053525E+02  0.41800000000E+01 0. -1.
        -11    1    3    3    0    0 -0.18127547223E+02  0.42356689032E+02 -0.17016730884E+02  0.49114826723E+02  0.00000000000E+00 0.  1.
         11    1    3    3    0    0 -0.87837312542E+01 -0.29801404272E+02  0.36113455232E+02  0.47638842137E+02  0.00000000000E+00 0. -1.
</event>
<event>
 7    1  0.9181008E-006  0.1692296E+03  0.7561462E-02  0.1178654E+00
         -1   -1    0    0    0  501 -0.00000000000E+00  0.00000000000E+00  0.18894715126E+03  0.18894715126E+03  0.00000000000E+00 0.  1.
          1   -1    0    0  501    0  0.00000000000E+00 -0.00000000000E+00 -0.21476699995E+03  0.21476699995E+03  0.00000000000E+00 0. -1.
         23    2    1    2    0    0  0.12497413931E+03 -0.35962154278E+02  0.69041353950E+02  0.17256886533E+03  0.90008292331E+02 0.  0.
          5    1    1    2  502    0 -0.12850104892E+03  0.88134489343E+02 -0.55129159100E+02  0.16533875640E+03  0.41800000000E+01 0. -1.
         -5    1    1    2    0  502  0.35269096122E+01 -0.52172335065E+02 -0.39732043545E+02  0.65806529477E+02  0.41800000000E+01 0.  1.
        -11    1    3    3    0    0  0.99470872273E+02 -0.26714244455E+02  0.91177556298E+02  0.13755526911E+03  0.00000000000E+00 0.  1.
         11    1    3    3    0    0  0.25503267039E+02 -0.92479098235E+01 -0.22136202347E+02  0.35013596218E+02  0.00000000000E+00 0. -1.
</event>
<event>
 8    1  0.9181008E-006  0.1227337E+03  0.7561462E-02  0.1238654E+00
          2   -1    0    0  501    0  0.00000000000E+00  0.00000000000E+00  0.57266737975E+03  0.57266737975E+03  0.00000000000E+00 0. -1.
         -2   -1    0    0    0  501 -0.00000000000E+00 -0.00000000000E+00 -0.29526953740E+02  0.29526953740E+02  0.00000000000E+00 0.  1.
         23    2    1    2    0    0  0.48667839484E+02  0.45571480385E+02  0.15699648294E+03  0.19085504564E+03  0.85629634856E+02 0.  0.
         23    2    1    2    0    0 -0.48667839484E+02 -0.45571480385E+02  0.38614394307E+03  0.41133928785E+03  0.12509015363E+03 0.  0.
          5    1    4    4  502    0 -0.51504740076E+02 -0.85766455364E+02  0.29692446676E+03  0.31335321042E+03  0.41800000000E+01 0. -1.
         -5    1    4    4    0  502  0.28369005913E+01  0.40194974979E+02  0.89219476308E+02  0.97986077435E+02  0.41800000000E+01 0. -1.
        -11    1    3    3    0    0  0.24521778025E+02 -0.22078001142E+02  0.28298993195E+02  0.43469400132E+02  0.00000000000E+00 0.  1.
         11    1    3    3    0    0  0.24146061459E+02  0.67649481527E+02  0.12869748974E+03  0.14738564551E+03  0.00000000000E+00 0. -1.
</event>
<event>
 7    1  0.9181008E-006  0.1221738E+03  0.7561462E-02  0.1239553E+00
          3   -1    0    0  501    0  0.00000000000E+00  0.00000000000E+00  0.12326777641E+03  0.12326777641E+03  0.00000000000E+00 0. -1.
         -3   -1    0    0    0  501 -0.00000000000E+00 -0.00000000000E+00 -0.20050267216E+03  0.20050267216E+03  0.00000000000E+00 0.  1.
         23    2    1    2    0    0 -0.15725959103E+02 -0.40025793658E+02 -0.12542157111E+03  0.16116257162E+03  0.91615686673E+02 0.  0.
          5    1    1    2  502    0 -0.13987214361E+02  0.92768984458E+02  0.36823594062E+02  0.10087207801E+03  0.41800000000E+01 0. -1.
         -5    1    1    2    0  502  0.29713173464E+02 -0.52743190800E+02  0.11363081302E+02  0.61735798932E+02  0.41800000000E+01 0.  1.
        -11    1    3    3    0    0  0.19481763532E+02 -0.49583891480E+02 -0.10865433268E+03  0.12101183998E+03  0.00000000000E+00 0.  1.
         11    1    3    3    0    0 -0.35207722635E+02  0.95580978212E+01 -0.16767238433E+02  0.40150731647E+02  0.00000000000E+00 0. -1.
</event>
<event>
 8    1  0.9181008E-006  0.8933848E+02  0.7561462E-02  0.1304462E+00
          1   -1    0    0  501    0  0.00000000000E+00  0.00000000000E+00  0.63788182214E+02  0.63788182214E+02  0.00000000000E+00 0. -1.
         -1   -1    0    0    0  501 -0.00000000000E+00 -0.00000000000E+00 -0.18608679370E+03  0.18608679370E+03  0.00000000000E+00 0.  1.
         23    2    1    2    0    0  0.64921107738E+00  0.13010053792E+01 -0.65855599958E+02  0.11262689809E+03  0.91355043848E+02 0.  0.
         23    2    1    2    0    0 -0.64921107738E+00 -0.13010053792E+01 -0.56443011530E+02  0.13724807783E+03  0.12509639175E+03 0.  0.
          5    1    4    4  502    0 -0.50721846660E+02 -0.26857342671E+01 -0.68670610816E+02  0.85516338129E+02  0.41800000000E+01 0.  1.
         -5    1    4    4    0  502  0.50072635582E+02  0.13847288879E+01  0.12227599286E+02  0.51731739702E+02  0.41800000000E+01 0.  1.
        -11    1    3    3    0    0 -0.74026684520E+01  0.38592264683E+02 -0.63153160445E+02  0.74380669988E+02  0.00000000000E+00 0.  1.
         11    1    3    3    0    0  0.80518795294E+01 -0.37291259303E+02 -0.27024395122E+01  0.38246228098E+02  0.00000000000E+00 0. -1.
</event>
<event>
 8    1  0.9181008E-006  0.9964824E+02  0.7561462E-02  0.1281037E+00
          1   -1    0    0  501    0  0.00000000000E+00  0.00000000000E+00  0.67354382776E+02  0.67354382776E+02  0.00000000000E+00 0. -1.
         -1   -1    0    0    0  501 -0.00000000000E+00 -0.00000000000E+00 -0.18827632538E+03  0.18827632538E+03  0.00000000000E+00 0.  1.
         23    2    1    2    0    0 -0.31265279492E+02 -0.74844293897E+00 -0.64647971958E+02  0.11494797552E+03  0.89752988411E+02 0.  0.
         23    2    1    2    0    0  0.31265279492E+02  0.74844293897E+00 -0.56273970643E+02  0.14068273264E+03  0.12508714411E+03 0.  0.
          5    1    4    4  502    0  0.78189150868E+02 -0.98614173228E+01 -0.45881909631E+02  0.91287528701E+02  0.41800000000E+01 0. -1.
         -5    1    4    4    0  502 -0.46923871376E+02  0.10609860262E+02 -0.10392061012E+02  0.49395203935E+02  0.41800000000E+01 0. -1.
        -11    1    3    3    0    0 -0.42267562568E+02 -0.22373959909E+02 -0.74689669618E+02  0.88688712219E+02  0.00000000000E+00 0.  1.
         11    1    3    3    0    0  0.11002283076E+02  0.21625516970E+02  0.10041697660E+02  0.26259263299E+02  0.00000000000E+00 0. -1.
</event>
<event>
 8    1  0.9181008E-006  0.8418981E+02  0.7561462E-02  0.1317565E+00
          1   -1    0    0  501    0  0.00000000000E+00  0.00000000000E+00  0.55864182322E+02  0.55864182322E+02  0.00000000000E+00 0. -1.
         -1   -1    0    0    0  501 -0.00000000000E+00 -0.00000000000E+00 -0.22821184676E+03  0.22821184676E+03  0.00000000000E+00 0.  1.
         23    2    1    2    0    0  0.12868007084E+02 -0.24997114563E+02 -0.11937518848E+03  0.14535357105E+03  0.78017841864E+02 0.  0.
         23    2    1    2    0    0 -0.12868007084E+02  0.24997114563E+02 -0.52972475961E+02  0.13872245804E+03  0.12508955117E+03 0.  0.
          5    1    4    4  502    0  0.19493784963E+02  0.50332875699E+02  0.17617878052E+02  0.56932135525E+02  0.41800000000E+01 0. -1.
         -5    1    4    4    0  502 -0.32361792047E+02 -0.25335761136E+02 -0.70590354013E+02  0.81790322511E+02  0.41800000000E+01 0. -1.
        -11    1    3    3    0    0  0.64082069074E+01  0.23319397928E+02 -0.77184221498E+02  0.80884259802E+02  0.00000000000E+00 0.  1.
         11    1    3    3    0    0  0.64598001765E+01 -0.48316512491E+02 -0.42190966978E+02  0.64469311243E+02  0.00000000000E+00 0. -1.
</event>
<event>
 8    1  0.9181008E-006  0.2029540E+03  0.7561462E-02  0.1147270E+00
          4   -1    0    0  501    0  0.00000000000E+00  0.00000000000E+00  0.10671445062E+03  0.10671445062E+03  0.00000000000E+00 0. -1.
         -4   -1    0    0    0  501 -0.00000000000E+00 -0.00000000000E+00 -0.50332864231E+03  0.50332864231E+03  0.00000000000E+00 0.  1.
         23    2    1    2    0    0  0.60051866712E+02  0.17794895495E+03 -0.29802040320E+03  0.36379074916E+03  0.90859733571E+02 0.  0.
         23    2    1    2    0    0 -0.60051866712E+02 -0.17794895495E+03 -0.98593788491E+02  0.24625234376E+03  0.12508966550E+03 0.  0.
          5    1    4    4  502    0 -0.78296955488E+01 -0.14746621308E+03 -0.11049409453E+03  0.18448307635E+03  0.41800000000E+01 0. -1.
         -5    1    4    4    0  502 -0.52222171163E+02 -0.30482741874E+02  0.11900306042E+02  0.61769267416E+02  0.41800000000E+01 0. -1.
        -11    1    3    3    0    0  0.70783506921E+02  0.12603654191E+03 -0.26345701819E+03  0.30050809503E+03  0.00000000000E+00 0.  1.
         11    1    3    3    0    0 -0.10731640209E+02  0.51912413042E+02 -0.34563385014E+02  0.63282654125E+02  0.00000000000E+00 0. -1.
</event>
<event>
 8    1  0.9181008E-006  0.1038476E+03  0.7561462E-02  0.1272407E+00
          2   -1    0    0  501    0  0.00000000000E+00  0.00000000000E+00  0.34279073212E+03  0.34279073212E+03  0.00000000000E+00 0. -1.
         -2   -1    0    0    0  501 -0.00000000000E+00 -0.00000000000E+00 -0.36707754698E+02  0.36707754698E+02  0.00000000000E+00 0.  1.
         23    2    1    2    0    0 -0.46515850743E+00 -0.15657766498E+02  0.92450034603E+02  0.13144258624E+03  0.92112770852E+02 0.  0.
         23    2    1    2    0    0  0.46515850743E+00  0.15657766498E+02  0.21363294282E+03  0.24805590058E+03  0.12508922229E+03 0.  0.
          5    1    4    4  502    0  0.54319155747E+02  0.27317755050E+02  0.15929526725E+03  0.17055581195E+03  0.41800000000E+01 0.  1.
         -5    1    4    4    0  502 -0.53853997240E+02 -0.11659988551E+02  0.54337675567E+02  0.77500088631E+02  0.41800000000E+01 0.  1.
        -11    1    3    3    0    0  0.69004962587E+01  0.37345401702E+02  0.25544652809E+02  0.45769260034E+02  0.00000000000E+00 0. -1.
         11    1    3    3    0    0 -0.73656547662E+01 -0.53003168201E+02  0.66905381794E+02  0.85673326201E+02  0.00000000000E+00 0.  1.
</event>
<event>
 7    1  0.9181008E-006  0.1539354E+03  0.7561462E-02  0.1195719E+00
          1   -1    0    0  501    0  0.00000000000E+00  0.00000000000E+00  0.15176283557E+03  0.15176283557E+03  0.00000000000E+00 0. -1.
         -1   -1    0    0    0  501 -0.00000000000E+00 -0.00000000000E+00 -0.15870559653E+03  0.15870559653E+03  0.00000000000E+00 0.  1.
         23    2    1    2    0    0 -0.89828759905E+02 -0.54769211600E+02 -0.80626422448E+01  0.13993886523E+03  0.91918481046E+02 0.  0.
          5    1    1    2  502    0 -0.23739779112E+02 -0.22252167684E+02  0.50212028640E+01  0.33187662724E+02  0.41800000000E+01 0. -1.
         -5    1    1    2    0  502  0.11356853902E+03  0.77021379284E+02 -0.39013215794E+01  0.13734190413E+03  0.41800000000E+01 0.  1.
        -11    1    3    3    0    0 -0.12686492216E+02  0.24237433762E+02 -0.10980925751E+02  0.29478483856E+02  0.00000000000E+00 0.  1.
         11    1    3    3    0    0 -0.77142267689E+02 -0.79006645362E+02  0.29182835066E+01  0.11046038138E+03  0.00000000000E+00 0. -1.
</event>
<event>
 7    1  0.9181008E-006  0.1313173E+03  0.7561462E-02  0.1225514E+00
          2   -1    0    0  501    0  0.00000000000E+00  0.00000000000E+00  0.14628369026E+04  0.14628369026E+04  0.00000000000E+00 0. -1.
         -2   -1    0    0    0  501 -0.00000000000E+00 -0.00000000000E+00 -0.15187695904E+02  0.15187695904E+02  0.00000000000E+00 0.  1.
         23    2    1    2    0    0 -0.11123592708E+02 -0.71172070257E+02  0.47697642517E+03  0.48939900586E+03  0.82557124883E+02 0.  0.
          5    1    1    2  502    0  0.53750192206E+02  0.93375576461E+02  0.87356538506E+03  0.88019431708E+03  0.41800000000E+01 0. -1.
         -5    1    1    2    0  502 -0.42626599498E+02 -0.22203506204E+02  0.97107396463E+02  0.10843127556E+03  0.41800000000E+01 0.  1.
        -11    1    3    3    0    0 -0.27220600619E+02  0.58838449793E+01  0.80438581321E+02  0.85123123149E+02  0.00000000000E+00 0.  1.
         11    1    3    3    0    0  0.16097007911E+02 -0.77055915237E+02  0.39653784385E+03  0.40427588271E+03  0.00000000000E+00 0. -1.
</event>
<event>
 8    1  0.9181008E-006  0.1577340E+03  0.7561462E-02  0.1191279E+00
          3   -1    0    0  501    0  0.00000000000E+00  0.00000000000E+00  0.55177899429E+02  0.55177899429E+02  0.00000000000E+00 0. -1.
         -3   -1    0    0    0  501 -0.00000000000E+00 -0.00000000000E+00 -0.51042303792E+03  0.51042303792E+03  0.00000000000E+00 0.  1.
         23    2    1    2    0    0 -0.95960935885E+01 -0.11712734936E+03 -0.29427168212E+03  0.33028285468E+03  0.93166733447E+02 0.  0.
         23    2    1    2    0    0  0.95960935885E+01  0.11712734936E+03 -0.16097345638E+03  0.23531808267E+03  0.12510493753E+03 0.  0.
          5    1    4    4  502    0  0.62664943525E+02  0.89853053609E+02 -0.12153615666E+03  0.16367338258E+03  0.41800000000E+01 0.  1.
         -5    1    4    4    0  502 -0.53068849937E+02  0.27274295747E+02 -0.39437299721E+02  0.71644700093E+02  0.41800000000E+01 0.  1.
        -11    1    3    3    0    0 -0.43029461759E+02 -0.29315060254E+02 -0.14322860873E+03  0.15239862760E+03  0.00000000000E+00 0. -1.
         11    1    3    3    0    0  0.33433368171E+02 -0.87812289102E+02 -0.15104307338E+03  0.17788422707E+03  0.00000000000E+00 0.  1.
</event>
<event>
 7    1  0.9181008E-006  0.1510998E+03  0.7561462E-02  0.1199128E+00
          2   -1    0    0  501    0  0.00000000000E+00  0.00000000000E+00  0.53686769114E+03  0.53686769114E+03  0.00000000000E+00 0. -1.
         -2   -1    0    0    0  501 -0.00000000000E+00 -0.00000000000E+00 -0.13616862351E+03  0.13616862351E+03  0.00000000000E+00 0.  1.
         23    2    1    2    0    0  0.97533407033E+02 -0.31847974733E+02 -0.37605488921E+02  0.13991970914E+03  0.87385886883E+02 0.  0.
          5    1    1    2  502    0 -0.96951652133E+02  0.84717525514E+02  0.45858456393E+03  0.47633387100E+03  0.41800000000E+01 0. -1.
         -5    1    1    2    0  502 -0.58175489921E+00 -0.52869550780E+02 -0.20280007383E+02  0.56782734506E+02  0.41800000000E+01 0.  1.
        -11    1    3    3    0    0  0.58642944772E+02  0.13931472099E+02 -0.50321936424E+02  0.78519922134E+02  0.00000000000E+00 0. -1.
         11    1    3    3    0    0  0.38890462261E+02 -0.45779446832E+02  0.12716447503E+02  0.61399787005E+02  0.00000000000E+00 0.  1.
</event>
<event>
 8    1  0.9181008E-006  0.1038441E+03  0.7561462E-02  0.1272414E+00
          1   -1    0    0  501    0  0.00000000000E+00  0.00000000000E+00  0.49532056913E+03  0.49532056913E+03  0.00000000000E+00 0. -1.
         -1   -1    0    0    0  501 -0.00000000000E+00 -0.00000000000E+00 -0.33701144298E+02  0.33701144298E+02  0.00000000000E+00 0.  1.
         23    2    1    2    0    0  0.77161554207E+01 -0.69143755189E+02  0.18787189485E+03  0.22011180645E+03  0.91175438187E+02 0.  0.
         23    2    1    2    0    0 -0.77161554207E+01  0.69143755189E+02  0.27374752999E+03  0.30890990698E+03  0.12508885850E+03 0.  0.
          5    1    4    4  502    0 -0.31208157641E+02 -0.85102107964E+01  0.18793209418E+03  0.19074149316E+03  0.41800000000E+01 0. -1.
         -5    1    4    4    0  502  0.23492002220E+02  0.77653965985E+02  0.85815435805E+02  0.11816841382E+03  0.41800000000E+01 0. -1.
        -11    1    3    3    0    0  0.14012923041E+02  0.81992935380E+01 -0.64531331416E+00  0.16248287785E+02  0.00000000000E+00 0.  1.
         11    1    3    3    0    0 -0.62967676205E+01 -0.77343048727E+02  0.18851720816E+03  0.20386351866E+03  0.00000000000E+00 0. -1.
</event>
<event>
 8    1  0.9181008E-006  0.9632813E+02  0.7561462E-02  0.1288213E+00
          1   -1    0    0  501    0  0.00000000000E+00  0.00000000000E+00  0.16215855819E+04  0.16215855819E+04  0.00000000000E+00 0. -1.
         -1   -1    0    0    0  501 -0.00000000000E+00 -0.00000000000E+00 -0.11698186843E+02  0.11698186843E+02  0.00000000000E+00 0.  1.
         23    2    1    2    0    0  0.19073963347E+02 -0.59112241822E+02  0.38352150870E+03  0.39898882478E+03  0.90803422048E+02 0.  0.
         23    2    1    2    0    0 -0.19073963347E+02  0.59112241822E+02  0.12263658863E+04  0.12342949439E+04  0.12511054413E+03 0.  0.
          5    1    4    4  502    0  0.14256693099E+02 -0.13786633274E-01  0.15317932909E+02  0.21339282012E+02  0.41800000000E+01 0.  1.
         -5    1    4    4    0  502 -0.33330656446E+02  0.59126028456E+02  0.12110479534E+04  0.12129556619E+04  0.41800000000E+01 0.  1.
        -11    1    3    3    0    0 -0.35192920030E+02 -0.37381342722E+02  0.16686044929E+03  0.17458039965E+03  0.00000000000E+00 0. -1.
         11    1    3    3    0    0  0.54266883377E+02 -0.21730899100E+02  0.21666105941E+03  0.22440842513E+03  0.00000000000E+00 0.  1.
</event>
<event>
 8    1  0.9181008E-006  0.1865949E+03  0.7561462E-02  0.1161569E+00
          2   -1    0    0  501    0  0.00000000000E+00  0.00000000000E+00  0.10221581525E+04  0.10221581525E+04  0.00000000000E+00 0. -1.
         -2   -1    0    0    0  501 -0.00000000000E+00 -0.00000000000E+00 -0.39116725876E+02  0.39116725876E+02  0.00000000000E+00 0.  1.
         23    2    1    2    0    0 -0.16126211478E+03  0.30890110750E+02  0.38845847314E+03  0.43188092141E+03  0.93067052830E+02 0.  0.
         23    2    1    2    0    0  0.16126211478E+03 -0.30890110750E+02  0.59458295351E+03  0.62939395698E+03  0.12509274912E+03 0.  0.
          5    1    4    4  502    0  0.51681548183E+02  0.39780043800E+02  0.30282913931E+03  0.30980057185E+03  0.41800000000E+01 0. -1.
         -5    1    4    4    0  502  0.10958056659E+03 -0.70670154550E+02  0.29175381420E+03  0.31959338513E+03  0.41800000000E+01 0. -1.
        -11    1    3    3    0    0 -0.12999522525E+03  0.51614112536E+02  0.35521146518E+03  0.38175641474E+03  0.00000000000E+00 0. -1.
         11    1    3    3    0    0 -0.31266889527E+02 -0.20724001785E+02  0.33247007952E+02  0.50124506666E+02  0.00000000000E+00 0.  1.
</event>
<event>
 8    1  0.9181008E-006  0.3654853E+03  0.7561462E-02  0.1056433E+00
         -1   -1    0    0    0  501 -0.00000000000E+00  0.00000000000E+00  0.10188053560E+04  0.10188053560E+04  0.00000000000E+00 0.  1.
          1   -1    0    0  501    0  0.00000000000E+00 -0.00000000000E+00 -0.13430853245E+03  0.13430853245E+03  0.00000000000E+00 0. -1.
         23    2    1    2    0    0 -0.25641110322E+03 -0.23663173214E+03  0.35444793176E+03  0.50632104157E+03  0.94796784202E+02 0.  0.
         23    2    1    2    0    0  0.25641110322E+03  0.23663173214E+03  0.53004889175E+03  0.64679284684E+03  0.12509168064E+03 0.  0.
          5    1    4    4  502    0  0.21629524878E+03  0.12294254785E+03  0.38078291205E+03  0.45487537109E+03  0.41800000000E+01 0. -1.
         -5    1    4    4    0  502  0.40115854445E+02  0.11368918428E+03  0.14926597970E+03  0.19191747575E+03  0.41800000000E+01 0. -1.
        -11    1    3    3    0    0 -0.18198889600E+03 -0.10449183700E+03  0.20146651746E+03  0.29090764845E+03  0.00000000000E+00 0.  1.
         11    1    3    3    0    0 -0.74422207221E+02 -0.13213989514E+03  0.15298141430E+03  0.21541339312E+03  0.00000000000E+00 0. -1.
</event>
<event>
 8    1  0.9181008E-006  0.2257244E+03  0.7561462E-02  0.1129686E+00
          2   -1    0    0  501    0  0.00000000000E+00  0.00000000000E+00  0.17106302662E+04  0.17106302662E+04  0.00000000000E+00 0. -1.
         -2   -1    0    0    0  501 -0.00000000000E+00 -0.00000000000E+00 -0.15561104883E+03  0.15561104883E+03  0.00000000000E+00 0.  1.
         23    2    1    2    0    0  0.55176075668E+02  0.21325043644E+03 -0.48699298115E+02  0.24263975954E+03  0.89343624878E+02 0.  0.
         23    2    1    2    0    0 -0.55176075668E+02 -0.21325043644E+03  0.16037185155E+04  0.16236015555E+04  0.12509510814E+03 0.  0.
          5    1    4    4  502    0 -0.26232298514E+02 -0.94427437878E+02  0.33699412427E+03  0.35098032239E+03  0.41800000000E+01 0.  1.
         -5    1    4    4    0  502 -0.28943777154E+02 -0.11882299856E+03  0.12667243912E+04  0.12726212331E+04  0.41800000000E+01 0.  1.
        -11    1    3    3    0    0 -0.13745078471E+02  0.77861608791E+02  0.10157439983E+02  0.79715311532E+02  0.00000000000E+00 0. -1.
         11    1    3    3    0    0  0.68921154139E+02  0.13538882765E+03 -0.58856738098E+02  0.16292444801E+03  0.00000000000E+00 0.  1.
</event>
<event>
 8    1  0.9181008E-006  0.1072345E+03  0.7561462E-02  0.1265779E+00
         -1   -1    0    0    0  501 -0.00000000000E+00  0.00000000000E+00  0.11686281118E+03  0.11686281118E+03  0.00000000000E+00 0.  1.
          1   -1    0    0  501    0  0.00000000000E+00 -0.00000000000E+00 -0.15028618233E+03  0.15028618233E+03  0.00000000000E+00 0. -1.
         23    2    1    2    0    0  0.56214885720E+01 -0.66044446187E+02  0.92440626309E+01  0.11929098497E+03  0.98749260229E+02 0.  0.
         23    2    1    2    0    0 -0.56214885720E+01  0.66044446187E+02 -0.42667433787E+02  0.14785800853E+03  0.12509200924E+03 0.  0.
          5    1    4    4  502    0 -0.31177281747E+02 -0.19071773166E+01  0.31098821106E+02  0.44274928533E+02  0.41800000000E+01 0.  1.
         -5    1    4    4    0  502  0.25555793175E+02  0.67951623504E+02 -0.73766254893E+02  0.10358308000E+03  0.41800000000E+01 0.  1.
        -11    1    3    3    0    0  0.42359269751E+02 -0.59314888402E+02 -0.15462844660E+02  0.74509484531E+02  0.00000000000E+00 0.  1.
         11    1    3    3    0    0 -0.36737781179E+02 -0.67295577848E+01  0.24706907291E+02  0.44781500442E+02  0.00000000000E+00 0. -1.
</event>
<event>
 7    1  0.9181008E-006  0.1280452E+03  0.7561462E-02  0.1230385E+00
         -2   -1    0    0    0  501 -0.00000000000E+00  0.00000000000E+00  0.13103067436E+02  0.13103067436E+02  0.00000000000E+00 0.  1.
          2   -1    0    0  501    0  0.00000000000E+00 -0.00000000000E+00 -0.30295838180E+04  0.30295838180E+04  0.00000000000E+00 0. -1.
         23    2    1    2    0    0  0.39982132450E+02 -0.38653793487E+02 -0.35069856811E+03  0.36864427501E+03  0.99077894411E+02 0.  0.
          5    1    1    2  502    0 -0.85528376282E+02  0.35592529449E+01 -0.24227838245E+04  0.24242992192E+04  0.41800000000E+01 0. -1.
         -5    1    1    2    0  502  0.45546243832E+02  0.35094540542E+02 -0.24299835800E+03  0.24974339129E+03  0.41800000000E+01 0.  1.
        -11    1    3    3    0    0  0.62366415013E+02 -0.56464843743E+02 -0.24036991525E+03  0.25466751748E+03  0.00000000000E+00 0.  1.
         11    1    3    3    0    0 -0.22384282563E+02  0.17811050256E+02 -0.11032865285E+03  0.11397675753E+03  0.00000000000E+00 0. -1.
</event>
<event>
 8    1  0.9181008E-006  0.5978984E+02  0.7561462E-02  0.1398716E+00
         -2   -1    0    0    0  501 -0.00000000000E+00  0.00000000000E+00  0.23984685885E+02  0.23984685885E+02  0.00000000000E+00 0.  1.
          2   -1    0    0  501    0  0.00000000000E+00 -0.00000000000E+00 -0.61521328601E+03  0.61521328601E+03  0.00000000000E+00 0. -1.
         23    2    1    2    0    0  0.18363529942E+02  0.24328738132E+02 -0.12476582341E+03  0.15529123877E+03  0.87291187513E+02 0.  0.
         23    2    1    2    0    0 -0.18363529942E+02 -0.24328738132E+02 -0.46646277672E+03  0.48390673313E+03  0.12509635314E+03 0.  0.
          5    1    4    4  502    0 -0.27451609786E+02 -0.22946693033E+02 -0.28780085688E+02  0.46107562647E+02  0.41800000000E+01 0. -1.
         -5    1    4    4    0  502  0.90880798436E+01 -0.13820450990E+01 -0.43768269103E+03  0.43779917048E+03  0.41800000000E+01 0. -1.
        -11    1    3    3    0    0  0.35523386841E+02  0.37629165312E+02 -0.12307870025E+03  0.13351491133E+03  0.00000000000E+00 0. -1.
         11    1    3    3    0    0 -0.17159856898E+02 -0.13300427180E+02 -0.16871231599E+01  0.21776327434E+02  0.00000000000E+00 0.  1.
</event>
<event>
 8    1  0.9181008E-006  0.9348742E+02  0.7561462E-02  0.1294620E+00
          1   -1    0    0  501    0  0.00000000000E+00  0.00000000000E+00  0.12260377469E+03  0.12260377469E+03  0.00000000000E+00 0. -1.
         -1   -1    0    0    0  501 -0.00000000000E+00 -0.00000000000E+00 -0.11664138162E+03  0.11664138162E+03  0.00000000000E+00 0.  1.
         23    2    1    2    0    0  0.33567587062E+02 -0.32972725387E+02 -0.12863367878E+02  0.10427376101E+03  0.92160552741E+02 0.  0.
         23    2    1    2    0    0 -0.33567587062E+02  0.32972725387E+02  0.18825760946E+02  0.13497139530E+03  0.12509550253E+03 0.  0.
          5    1    4    4  502    0 -0.14244463836E+02  0.64061956102E+02  0.53198841827E+02  0.84583852722E+02  0.41800000000E+01 0.  1.
         -5    1    4    4    0  502 -0.19323123227E+02 -0.31089230714E+02 -0.34373080880E+02  0.50387542576E+02  0.41800000000E+01 0.  1.
        -11    1    3    3    0    0  0.28078422830E+02 -0.54956389692E+02 -0.36362549127E+02  0.71629865109E+02  0.00000000000E+00 0.  1.
         11    1    3    3    0    0  0.54891642326E+01  0.21983664305E+02  0.23499181249E+02  0.32643895901E+02  0.00000000000E+00 0. -1.
</event>
<event>
 8    1  0.9181008E-006  0.1372212E+03  0.7561462E-02  0.1217118E+00
          2   -1    0    0  501    0  0.00000000000E+00  0.00000000000E+00  0.35285496949E+03  0.35285496949E+03  0.00000000000E+00 0. -1.
         -2   -1    0    0    0  501 -0.00000000000E+00 -0.00000000000E+00 -0.77535552142E+02  0.77535552142E+02  0.00000000000E+00 0.  1.
         23    2    1    2    0    0 -0.86699021176E+02 -0.56000918585E+01  0.15237403564E+02  0.12899681631E+03  0.94127141937E+02 0.  0.
         23    2    1    2    0    0  0.86699021176E+02  0.56000918585E+01  0.26008201379E+03  0.30139370533E+03  0.12508968947E+03 0.  0.
          5    1    4    4  502    0  0.20191051181E+02 -0.54469426516E+02  0.68975272844E+02  0.90275454231E+02  0.41800000000E+01 0. -1.
         -5    1    4    4    0  502  0.66507969995E+02  0.60069518375E+02  0.19110674094E+03  0.21111825109E+03  0.41800000000E+01 0. -1.
        -11    1    3    3    0    0 -0.23267862306E+02  0.41432068912E+02  0.15653187606E+02  0.50030311141E+02  0.00000000000E+00 0. -1.
         11    1    3    3    0    0 -0.63431158870E+02 -0.47032160770E+02 -0.41578404255E+00  0.78966505170E+02  0.00000000000E+00 0.  1.
</event>
<event>
 8    1  0.9181008E-006  0.1854227E+03  0.7561462E-02  0.1162656E+00
         -2   -1    0    0    0  501 -0.00000000000E+00  0.00000000000E+00  0.17040400611E+03  0.17040400611E+03  0.00000000000E+00 0. -1.
          2   -1    0    0  501    0  0.00000000000E+00 -0.00000000000E+00 -0.32479764302E+03  0.32479764302E+03  0.00000000000E+00 0.  1.
         23    2    1    2    0    0 -0.16580609752E+03 -0.34825640150E+02  0.56067416492E+02  0.19746716506E+03  0.84529514953E+02 0.  0.
         23    2    1    2    0    0  0.16580609752E+03  0.34825640150E+02 -0.21046105340E+03  0.29773448407E+03  0.12508989095E+03 0.  0.
          5    1    4    4  502    0  0.12256217129E+03  0.57776607258E+02 -0.77878124912E+02  0.15633968440E+03  0.41800000000E+01 0.  1.
         -5    1    4    4    0  502  0.43243926230E+02 -0.22950967108E+02 -0.13258292849E+03  0.14139479967E+03  0.41800000000E+01 0.  1.
        -11    1    3    3    0    0 -0.57345941542E+02 -0.50685134012E+02  0.54428003953E+01  0.76727856071E+02  0.00000000000E+00 0. -1.
         11    1    3    3    0    0 -0.10846015598E+03  0.15859493862E+02  0.50624616096E+02  0.12073930899E+03  0.00000000000E+00 0.  1.
</event>
<event>
 8    1  0.9181008E-006  0.1276164E+03  0.7561462E-02  0.1231036E+00
          2   -1    0    0  501    0  0.00000000000E+00  0.00000000000E+00  0.79600781385E+02  0.79600781385E+02  0.00000000000E+00 0. -1.
         -2   -1    0    0    0  501 -0.00000000000E+00 -0.00000000000E+00 -0.22123407859E+03  0.22123407859E+03  0.00000000000E+00 0.  1.
         23    2    1    2    0    0  0.73279901333E+02 -0.35856106822E+02 -0.46618491107E+02  0.12382864055E+03  0.80651374264E+02 0.  0.
         23    2    1    2    0    0 -0.73279901333E+02  0.35856106822E+02 -0.95014806101E+02  0.17700621943E+03  0.12509110282E+03 0.  0.
          5    1    4    4  502    0 -0.84241050272E+02 -0.22320449509E+02 -0.39618580705E+02  0.95822029587E+02  0.41800000000E+01 0.  1.
         -5    1    4    4    0  502  0.10961148939E+02  0.58176556331E+02 -0.55396225396E+02  0.81184189845E+02  0.41800000000E+01 0.  1.
        -11    1    3    3    0    0  0.70796636989E+02 -0.54802229232E+02 -0.21157673491E+02  0.91995082940E+02  0.00000000000E+00 0. -1.
         11    1    3    3    0    0  0.24832643444E+01  0.18946122410E+02 -0.25460817616E+02  0.31833557606E+02  0.00000000000E+00 0.  1.
</event>
<event>
 8    1  0.9181008E-006  0.1442449E+03  0.7561462E-02  0.1207729E+00
         -1   -1    0    0    0  501 -0.00000000000E+00  0.00000000000E+00  0.20905764168E+02  0.20905764168E+02  0.00000000000E+00 0.  1.
          1   -1    0    0  501    0  0.00000000000E+00 -0.00000000000E+00 -0.16732076846E+04  0.16732076846E+04  0.00000000000E+00 0. -1.
         23    2    1    2    0    0 -0.63959244976E+02 -0.11806865353E+03 -0.46409488485E+03  0.49181823746E+03  0.92033279808E+02 0.  0.
         23    2    1    2    0    0  0.63959244976E+02  0.11806865353E+03 -0.11882070356E+04  0.12022952113E+04  0.12508726459E+03 0.  0.
          5    1    4    4  502    0  0.47383981238E+02  0.71035813619E+02 -0.10765207690E+04  0.10799100736E+04  0.41800000000E+01 0. -1.
         -5    1    4    4    0  502  0.16575263738E+02  0.47032839909E+02 -0.11168626660E+03  0.12238513776E+03  0.41800000000E+01 0. -1.
        -11    1    3    3    0    0 -0.61558701943E+02 -0.36940903586E+02 -0.13545259958E+03  0.15330202502E+03  0.00000000000E+00 0.  1.
         11    1    3    3    0    0 -0.24005430332E+01 -0.81127749942E+02 -0.32864228527E+03  0.33851621244E+03  0.00000000000E+00 0. -1.
</event>
<event>
 8    1  0.9181008E-006  0.1694753E+03  0.7561462E-02  0.1178396E+00
         -2   -1    0    0    0  501 -0.00000000000E+00  0.00000000000E+00  0.44290193961E+02  0.44290193961E+02  0.00000000000E+00 0.  1.
          2   -1    0    0  501    0  0.00000000000E+00 -0.00000000000E+00 -0.11276654091E+04  0.11276654091E+04  0.00000000000E+00 0. -1.
         23    2    1    2    0    0  0.15746521579E+03  0.17172459383E+02 -0.22528520615E+03  0.29044771685E+03  0.92283609422E+02 0.  0.
         23    2    1    2    0    0 -0.15746521579E+03 -0.17172459383E+02 -0.85809000899E+03  0.88150788621E+03  0.12508997712E+03 0.  0.
          5    1    4    4  502    0 -0.10563772329E+02  0.14093235121E+02 -0.10970333803E+02  0.21166794414E+02  0.41800000000E+01 0. -1.
         -5    1    4    4    0  502 -0.14690144346E+03 -0.31265694504E+02 -0.84711967518E+03  0.86034109179E+03  0.41800000000E+01 0. -1.
        -11    1    3    3    0    0  0.10717824062E+03 -0.18740659584E+02 -0.19090268584E+03  0.21973216206E+03  0.00000000000E+00 0.  1.
         11    1    3    3    0    0  0.50286975173E+02  0.35913118967E+02 -0.34382520308E+02  0.70715554787E+02  0.00000000000E+00 0. -1.
</event>
<event>
 8    1  0.9181008E-006  0.1249172E+03  0.7561462E-02  0.1235199E+00
          1   -1    0    0  501    0  0.00000000000E+00  0.00000000000E+00  0.72445062030E+02  0.72445062030E+02  0.00000000000E+00 0. -1.
         -1   -1    0    0    0  501 -0.00000000000E+00 -0.00000000000E+00 -0.24011792851E+03  0.24011792851E+03  0.00000000000E+00 0.  1.
         23    2    1    2    0    0 -0.59267541315E+02 -0.46393642256E+02 -0.80001200811E+02  0.14227178460E+03  0.90421552012E+02 0.  0.
         23    2    1    2    0    0  0.59267541315E+02  0.46393642256E+02 -0.87671665670E+02  0.17029120594E+03  0.12509101631E+03 0.  0.
          5    1    4    4  502    0  0.19101038337E+01 -0.41060509691E+02 -0.25318277152E+02  0.48457213196E+02  0.41800000000E+01 0.  1.
         -5    1    4    4    0  502  0.57357437481E+02  0.87454151947E+02 -0.62353388518E+02  0.12183399274E+03  0.41800000000E+01 0.  1.
        -11    1    3    3    0    0 -0.68628007122E+02 -0.57351400574E+02 -0.36768088051E+02  0.96699942132E+02  0.00000000000E+00 0. -1.
         11    1    3    3    0    0  0.93604658071E+01  0.10957758318E+02 -0.43233112760E+02  0.45571842473E+02  0.00000000000E+00 0.  1.
</event>
<event>
 8    1  0.9181008E-006  0.1104848E+03  0.7561462E-02  0.1259675E+00
         -2   -1    0    0    0  501 -0.00000000000E+00  0.00000000000E+00  0.30801827820E+02  0.30801827820E+02  0.00000000000E+00 0.  1.
          2   -1    0    0  501    0  0.00000000000E+00 -0.00000000000E+00 -0.11168205866E+04  0.11168205866E+04  0.00000000000E+00 0. -1.
         23    2    1    2    0    0  0.48383195661E+02 -0.83017138381E+02 -0.15516949604E+03  0.20350294005E+03  0.90017194034E+02 0.  0.
         23    2    1    2    0    0 -0.48383195661E+02  0.83017138381E+02 -0.93084926278E+03  0.94411947440E+03  0.12509377701E+03 0.  0.
          5    1    4    4  502    0 -0.72468192034E+01  0.21462850432E+02 -0.20746894283E+02  0.31001231583E+02  0.41800000000E+01 0. -1.
         -5    1    4    4    0  502 -0.41136376458E+02  0.61554287949E+02 -0.91010236849E+03  0.91311824282E+03  0.41800000000E+01 0. -1.
        -11    1    3    3    0    0  0.68572030244E+02 -0.49201035726E+02 -0.13511278238E+03  0.15930577268E+03  0.00000000000E+00 0. -1.
         11    1    3    3    0    0 -0.20188834583E+02 -0.33816102656E+02 -0.20056713660E+02  0.44197167369E+02  0.00000000000E+00 0.  1.
</event>
<event>
 8    1  0.9181008E-006  0.2363493E+03  0.7561462E-02  0.1122249E+00
         -2   -1    0    0    0  501 -0.00000000000E+00  0.00000000000E+00  0.18799069605E+03  0.18799069605E+03  0.00000000000E+00 0.  1.
          2   -1    0    0  501    0  0.00000000000E+00 -0.00000000000E+00 -0.35791724439E+03  0.35791724439E+03  0.00000000000E+00 0. -1.
         23    2    1    2    0    0  0.50442082441E+02  0.22165194476E+03 -0.17426287145E+02  0.24494898423E+03  0.89567522536E+02 0.  0.
         23    2    1    2    0    0 -0.50442082441E+02 -0.22165194476E+03 -0.15250026119E+03  0.30095895621E+03  0.12508387330E+03 0.  0.
          5    1    4    4  502    0 -0.53113193561E+01 -0.10247441108E+03 -0.68016652313E+00  0.10269931872E+03  0.41800000000E+01 0.  1.
         -5    1    4    4    0  502 -0.45130763085E+02 -0.11917753369E+03 -0.15182009467E+03  0.19825963749E+03  0.41800000000E+01 0.  1.
        -11    1    3    3    0    0  0.69252413267E+02  0.11534011237E+03  0.52267892038E+01  0.13463490480E+03  0.00000000000E+00 0. -1.
         11    1    3    3    0    0 -0.18810330826E+02  0.10631183239E+03 -0.22653076349E+02  0.11031407943E+03  0.00000000000E+00 0.  1.
</event>
<event>
 8    1  0.9181008E-006  0.1046883E+03  0.7561462E-02  0.1270735E+00
         -2   -1    0    0    0  501 -0.00000000000E+00  0.00000000000E+00  0.23528020340E+02  0.23528020340E+02  0.00000000000E+00 0. -1.
          2   -1    0    0  501    0  0.00000000000E+00 -0.00000000000E+00 -0.58548649014E+03  0.58548649014E+03  0.00000000000E+00 0.  1.
         23    2    1    2    0    0  0.18598367943E+02  0.18249086078E+02 -0.14582647462E+03  0.17370682447E+03  0.90718089354E+02 0.  0.
         23    2    1    2    0    0 -0.18598367943E+02 -0.18249086078E+02 -0.41613199518E+03  0.43530768601E+03  0.12509202872E+03 0.  0.
          5    1    4    4  502    0 -0.36031518223E+02  0.44047429980E+02 -0.26121453257E+03  0.26737417754E+03  0.41800000000E+01 0.  1.
         -5    1    4    4    0  502  0.17433150280E+02 -0.62296516058E+02 -0.15491746262E+03  0.16793350846E+03  0.41800000000E+01 0.  1.
        -11    1    3    3    0    0 -0.24447601978E+02  0.33806577141E+02 -0.37456848347E+02  0.56067685779E+02  0.00000000000E+00 0. -1.
         11    1    3    3    0    0  0.43045969921E+02 -0.15557491063E+02 -0.10836962627E+03  0.11763913869E+03  0.00000000000E+00 0.  1.
</event>
<event>
 8    1  0.9181008E-006  0.1409331E+03  0.7561462E-02  0.1212079E+00
         -2   -1    0    0    0  501 -0.00000000000E+00  0.00000000000E+00  0.51434064067E+03  0.51434064067E+03  0.00000000000E+00 0.  1.
          2   -1    0    0  501    0  0.00000000000E+00 -0.00000000000E+00 -0.47398112868E+02  0.47398112868E+02  0.00000000000E+00 0. -1.
         23    2    1    2    0    0  0.83111458249E+02 -0.67200954244E+02  0.28098973136E+03  0.31344446353E+03  0.88705805026E+02 0.  0.
         23    2    1    2    0    0 -0.83111458249E+02  0.67200954244E+02  0.18595279644E+03  0.24829429001E+03  0.12509248259E+03 0.  0.
          5    1    4    4  502    0  0.18920679567E+02 -0.23111061812E+01  0.89404252743E+02  0.91509158753E+02  0.41800000000E+01 0.  1.
         -5    1    4    4    0  502 -0.10203213782E+03  0.69512060425E+02  0.96548543700E+02  0.15678513125E+03  0.41800000000E+01 0.  1.
        -11    1    3    3    0    0  0.68566511453E+02  0.15140395247E+01  0.14399401910E+03  0.15949274700E+03  0.00000000000E+00 0.  1.
         11    1    3    3    0    0  0.14544946796E+02 -0.68714993769E+02  0.13699571226E+03  0.15395171653E+03  0.00000000000E+00 0. -1.
</event>
<event>
 8    1  0.9181008E-006  0.1050738E+03  0.7561462E-02  0.1269974E+00
          2   -1    0    0  501    0  0.00000000000E+00  0.00000000000E+00  0.68147490407E+03  0.68147490407E+03  0.00000000000E+00 0.  1.
         -2   -1    0    0    0  501 -0.00000000000E+00 -0.00000000000E+00 -0.22144623514E+02  0.22144623514E+02  0.00000000000E+00 0. -1.
         23    2    1    2    0    0  0.20308073628E+02 -0.28755950338E+02  0.13558782124E+03  0.16399747102E+03  0.85274795218E+02 0.  0.
         23    2    1    2    0    0 -0.20308073628E+02  0.28755950338E+02  0.52374245932E+03  0.53962205657E+03  0.12508588130E+03 0.  0.
          5    1    4    4  502    0 -0.56389368201E+02 -0.23462390705E+02  0.18228075476E+03  0.19228622046E+03  0.41800000000E+01 0. -1.
         -5    1    4    4    0  502  0.36081294573E+02  0.52218341043E+02  0.34146170456E+03  0.34733583610E+03  0.41800000000E+01 0. -1.
        -11    1    3    3    0    0  0.37938647953E+02 -0.46697142977E+02  0.12044695431E+03  0.13463815571E+03  0.00000000000E+00 0.  1.
         11    1    3    3    0    0 -0.17630574325E+02  0.17941192639E+02  0.15140866932E+02  0.29359315316E+02  0.00000000000E+00 0. -1.
</event>
<event>
 8    1  0.9181008E-006  0.9521227E+02  0.7561462E-02  0.1290699E+00
          1   -1    0    0  501    0  0.00000000000E+00  0.00000000000E+00  0.34806857966E+03  0.34806857966E+03  0.00000000000E+00 0. -1.
         -1   -1    0    0    0  501 -0.00000000000E+00 -0.00000000000E+00 -0.45075790039E+02  0.45075790039E+02  0.00000000000E+00 0.  1.
         23    2    1    2    0    0  0.27674613843E+02 -0.57505321000E+01  0.47417858869E+02  0.10720068780E+03  0.91894402734E+02 0.  0.
         23    2    1    2    0    0 -0.27674613843E+02  0.57505321000E+01  0.25557493075E+03  0.28594368190E+03  0.12508513549E+03 0.  0.
          5    1    4    4  502    0 -0.62577598521E+02  0.43747348503E+02  0.15399405707E+03  0.17193437222E+03  0.41800000000E+01 0. -1.
         -5    1    4    4    0  502  0.34902984678E+02 -0.37996816403E+02  0.10158087368E+03  0.11400930968E+03  0.41800000000E+01 0. -1.
        -11    1    3    3    0    0  0.10660698177E+02 -0.30415620209E+02  0.64933923416E+02  0.72492584783E+02  0.00000000000E+00 0. -1.
         11    1    3    3    0    0  0.17013915666E+02  0.24665088109E+02 -0.17516064547E+02  0.34708103015E+02  0.00000000000E+00 0.  1.
</event>
<event>
 8    1  0.9181008E-006  0.1855114E+03  0.7561462E-02  0.1162573E+00
         -1   -1    0    0    0  501 -0.00000000000E+00  0.00000000000E+00  0.11674667936E+03  0.11674667936E+03  0.00000000000E+00 0.  1.
          1   -1    0    0  501    0  0.00000000000E+00 -0.00000000000E+00 -0.50988308984E+03  0.50988308984E+03  0.00000000000E+00 0. -1.
         23    2    1    2    0    0 -0.27940153663E+02 -0.15889344923E+03 -0.19374072764E+01  0.18536793953E+03  0.91267404175E+02 0.  0.
         23    2    1    2    0    0  0.27940153663E+02  0.15889344923E+03 -0.39119900320E+03  0.44126182967E+03  0.12509021473E+03 0.  0.
          5    1    4    4  502    0  0.70301438693E+02  0.10836008097E+03 -0.19243387490E+03  0.23180264891E+03  0.41800000000E+01 0. -1.
         -5    1    4    4    0  502 -0.42361285030E+02  0.50533368253E+02 -0.19876512830E+03  0.20945918076E+03  0.41800000000E+01 0. -1.
        -11    1    3    3    0    0 -0.50952933832E+02 -0.12227062423E+03 -0.27273001800E+02  0.13524098359E+03  0.00000000000E+00 0. -1.
         11    1    3    3    0    0  0.23012780169E+02 -0.36622824999E+02  0.25335594523E+02  0.50126955941E+02  0.00000000000E+00 0.  1.
</event>
<event>
 8    1  0.9181008E-006  0.1320836E+03  0.7561462E-02  0.1224396E+00
         -2   -1    0    0    0  501 -0.00000000000E+00  0.00000000000E+00  0.21692291758E+02  0.21692291758E+02  0.00000000000E+00 0.  1.
          2   -1    0    0  501    0  0.00000000000E+00 -0.00000000000E+00 -0.93622429185E+03  0.93622429185E+03  0.00000000000E+00 0. -1.
         23    2    1    2    0    0  0.67648279901E+02 -0.58553222155E+02 -0.35553002001E+03  0.37814469243E+03  0.92666302889E+02 0.  0.
         23    2    1    2    0    0 -0.67648279901E+02  0.58553222155E+02 -0.55900198008E+03  0.57977189117E+03  0.12508981756E+03 0.  0.
          5    1    4    4  502    0 -0.89915775968E+02  0.69925030516E+02 -0.52572389205E+03  0.53793813746E+03  0.41800000000E+01 0. -1.
         -5    1    4    4    0  502  0.22267496067E+02 -0.11371808362E+02 -0.33278088027E+02  0.41833753707E+02  0.41800000000E+01 0. -1.
        -11    1    3    3    0    0  0.88419468670E+02 -0.40247264389E+02 -0.23142384723E+03  0.25098773236E+03  0.00000000000E+00 0.  1.
         11    1    3    3    0    0 -0.20771188769E+02 -0.18305957766E+02 -0.12410617278E+03  0.12715696007E+03  0.00000000000E+00 0. -1.
</event>
<event>
 8    1  0.9181008E-006  0.8920140E+02  0.7561462E-02  0.1304797E+00
          1   -1    0    0  501    0  0.00000000000E+00  0.00000000000E+00  0.92064125768E+03  0.92064125768E+03  0.00000000000E+00 0. -1.
         -1   -1    0    0    0  501 -0.00000000000E+00 -0.00000000000E+00 -0.58311513197E+02  0.58311513197E+02  0.00000000000E+00 0.  1.
         23    2    1    2    0    0 -0.37234642590E+02  0.20312975441E+00 -0.80597748856E+01  0.10045967223E+03  0.92955504958E+02 0.  0.
         23    2    1    2    0    0  0.37234642590E+02 -0.20312975441E+00  0.87038951937E+03  0.87849309865E+03  0.11307408669E+03 0.  0.
          5    1    4    4  502    0  0.45966225305E+02 -0.35132904587E+02  0.76197920948E+03  0.76418388031E+03  0.41800000000E+01 0. -1.
         -5    1    4    4    0  502 -0.87315827145E+01  0.34929774833E+02  0.10841030989E+03  0.11430921834E+03  0.41800000000E+01 0.  1.
        -11    1    3    3    0    0  0.22847856862E+02  0.64586656192E+01  0.22545253698E+02  0.32741829348E+02  0.00000000000E+00 0. -1.
         11    1    3    3    0    0 -0.60082499453E+02 -0.62555358648E+01 -0.30605028584E+02  0.67717842878E+02  0.00000000000E+00 0.  1.
</event>
<event>
 8    1  0.9181008E-006  0.1113529E+03  0.7561462E-02  0.1258085E+00
         -1   -1    0    0    0  501 -0.00000000000E+00  0.00000000000E+00  0.46603028285E+03  0.46603028285E+03  0.00000000000E+00 0.  1.
          1   -1    0    0  501    0  0.00000000000E+00 -0.00000000000E+00 -0.31284041985E+02  0.31284041985E+02  0.00000000000E+00 0. -1.
         23    2    1    2    0    0  0.34941313442E+02  0.33867859255E+01  0.27382286646E+03  0.29050307610E+03  0.90447273738E+02 0.  0.
         23    2    1    2    0    0 -0.34941313442E+02 -0.33867859255E+01  0.16092337441E+03  0.20681124873E+03  0.12506875896E+03 0.  0.
          5    1    4    4  502    0  0.38595927029E+02 -0.31377175742E+02  0.76357147294E+02  0.91225320409E+02  0.41800000000E+01 0.  1.
         -5    1    4    4    0  502 -0.73537240471E+02  0.27990389817E+02  0.84566227114E+02  0.11558592832E+03  0.41800000000E+01 0.  1.
        -11    1    3    3    0    0  0.57898684465E+02 -0.19968302641E+02  0.14146018124E+03  0.15414919283E+03  0.00000000000E+00 0. -1.
         11    1    3    3    0    0 -0.22957371023E+02  0.23355088567E+02  0.13236268522E+03  0.13635388328E+03  0.00000000000E+00 0.  1.
</event>
<event>
 8    1  0.9181008E-006  0.1099452E+03  0.7561462E-02  0.1260671E+00
          1   -1    0    0  501    0  0.00000000000E+00  0.00000000000E+00  0.90233828587E+02  0.90233828587E+02  0.00000000000E+00 0. -1.
         -1   -1    0    0    0  501 -0.00000000000E+00 -0.00000000000E+00 -0.13422372607E+03  0.13422372607E+03  0.00000000000E+00 0.  1.
         23    2    1    2    0    0 -0.18474145153E+02  0.51787651573E+01 -0.21363858036E+02  0.95906157190E+02  0.91506627679E+02 0.  0.
         23    2    1    2    0    0  0.18474145153E+02 -0.51787651573E+01 -0.22626039447E+02  0.12855139747E+03  0.12508161528E+03 0.  0.
          5    1    4    4  502    0  0.44285413307E+02  0.49125967145E+02 -0.11986478657E+02  0.67347654379E+02  0.41800000000E+01 0.  1.
         -5    1    4    4    0  502 -0.25811268154E+02 -0.54304732303E+02 -0.10639560790E+02  0.61203743088E+02  0.41800000000E+01 0.  1.
        -11    1    3    3    0    0  0.25619706153E+02 -0.28157714990E+02 -0.60473706368E+01  0.38546036741E+02  0.00000000000E+00 0.  1.
         11    1    3    3    0    0 -0.44093851306E+02  0.33336480148E+02 -0.15316487399E+02  0.57360120449E+02  0.00000000000E+00 0. -1.
</event>
<event>
 7    1  0.9181008E-006  0.1503724E+03  0.7561462E-02  0.1200016E+00
         -3   -1    0    0    0  501 -0.00000000000E+00  0.00000000000E+00  0.12551464402E+03  0.12551464402E+03  0.00000000000E+00 0.  1.
          3   -1    0    0  501    0  0.00000000000E+00 -0.00000000000E+00 -0.20513539515E+03  0.20513539515E+03  0.00000000000E+00 0. -1.
         23    2    1    2    0    0  0.94498645447E+02  0.25851431847E+02  0.16627897338E+02  0.13493511449E+03  0.91283665748E+02 0.  0.
          5    1    1    2  502    0 -0.47473311128E+01 -0.68113391876E+02 -0.56650357808E+02  0.88818391932E+02  0.41800000000E+01 0. -1.
         -5    1    1    2    0  502 -0.89751314334E+02  0.42261960029E+02 -0.39598290655E+02  0.10689653275E+03  0.41800000000E+01 0.  1.
        -11    1    3    3    0    0  0.92038118828E+01  0.44747161854E+02  0.12997690666E+02  0.47496932636E+02  0.00000000000E+00 0.  1.
         11    1    3    3    0    0  0.85294833564E+02 -0.18895730008E+02  0.36302066722E+01  0.87438181853E+02  0.00000000000E+00 0. -1.
</event>
<event>
 8    1  0.9181008E-006  0.9629634E+02  0.7561462E-02  0.1288283E+00
          2   -1    0    0  501    0  0.00000000000E+00  0.00000000000E+00  0.33987599932E+03  0.33987599932E+03  0.00000000000E+00 0. -1.
         -2   -1    0    0    0  501 -0.00000000000E+00 -0.00000000000E+00 -0.38841722171E+02  0.38841722171E+02  0.00000000000E+00 0.  1.
         23    2    1    2    0    0  0.31743294485E+02 -0.18664317339E+01  0.90190931174E+02  0.13150769865E+03  0.90270429412E+02 0.  0.
         23    2    1    2    0    0 -0.31743294485E+02  0.18664317339E+01  0.21084334598E+03  0.24721002284E+03  0.12508700388E+03 0.  0.
          5    1    4    4  502    0  0.31992157291E+02  0.29229144938E+02  0.14532485513E+03  0.15170572488E+03  0.41800000000E+01 0. -1.
         -5    1    4    4    0  502 -0.63735451776E+02 -0.27362713204E+02  0.65518490849E+02  0.95504297967E+02  0.41800000000E+01 0. -1.
        -11    1    3    3    0    0  0.11099504419E+02  0.35328488278E+02  0.64601795838E+01  0.37590357841E+02  0.00000000000E+00 0.  1.
         11    1    3    3    0    0  0.20643790066E+02 -0.37194920011E+02  0.83730751590E+02  0.93917340810E+02  0.00000000000E+00 0. -1.
</event>
<event>
 8    1  0.9181008E-006  0.1114446E+03  0.7561462E-02  0.1257918E+00
          1   -1    0    0  501    0  0.00000000000E+00  0.00000000000E+00  0.14011498169E+03  0.14011498169E+03  0.00000000000E+00 0. -1.
         -1   -1    0    0    0  501 -0.00000000000E+00 -0.00000000000E+00 -0.10274299509E+03  0.10274299509E+03  0.00000000000E+00 0.  1.
         23    2    1    2    0    0  0.44497021801E+02 -0.26562236882E+02 -0.11399456987E+02  0.98946573817E+02  0.83516103077E+02 0.  0.
         23    2    1    2    0    0 -0.44497021801E+02  0.26562236882E+02  0.48771443586E+02  0.14391140296E+03  0.12508517424E+03 0.  0.
          5    1    4    4  502    0 -0.64236295679E+02  0.61042663882E+02  0.11828083888E+02  0.89497957881E+02  0.41800000000E+01 0.  1.
         -5    1    4    4    0  502  0.19739273878E+02 -0.34480427000E+02  0.36943359698E+02  0.54413445076E+02  0.41800000000E+01 0.  1.
        -11    1    3    3    0    0  0.45985783698E+02  0.18187468234E+02  0.80992202860E+01  0.50110614367E+02  0.00000000000E+00 0.  1.
         11    1    3    3    0    0 -0.14887618965E+01 -0.44749705116E+02 -0.19498677273E+02  0.48835959449E+02  0.00000000000E+00 0. -1.
</event>
<event>
 8    1  0.9181008E-006  0.9604093E+02  0.7561462E-02  0.1288849E+00
          1   -1    0    0  501    0  0.00000000000E+00  0.00000000000E+00  0.13081961999E+03  0.13081961999E+03  0.00000000000E+00 0. -1.
         -1   -1    0    0    0  501 -0.00000000000E+00 -0.00000000000E+00 -0.11573127437E+03  0.11573127437E+03  0.00000000000E+00 0.  1.
         23    2    1    2    0    0  0.33884488700E+02 -0.22906826236E+02 -0.36643830832E+02  0.10514691621E+03  0.89667287166E+02 0.  0.
         23    2    1    2    0    0 -0.33884488700E+02  0.22906826236E+02  0.51732176446E+02  0.14140397815E+03  0.12508391461E+03 0.  0.
          5    1    4    4  502    0  0.34140684572E+02  0.76047081068E+01  0.61499997536E+02  0.70874113930E+02  0.41800000000E+01 0. -1.
         -5    1    4    4    0  502 -0.68025173272E+02  0.15302118129E+02 -0.97678210899E+01  0.70529864219E+02  0.41800000000E+01 0. -1.
        -11    1    3    3    0    0  0.31043598547E+02  0.24479380628E+02  0.75958753010E+01  0.40257203185E+02  0.00000000000E+00 0. -1.
         11    1    3    3    0    0  0.28408901533E+01 -0.47386206863E+02 -0.44239706133E+02  0.64889713025E+02  0.00000000000E+00 0.  1.
</event>
<event>
 8    1  0.9181008E-006  0.1130154E+03  0.7561462E-02  0.1255086E+00
          2   -1    0    0  501    0  0.00000000000E+00  0.00000000000E+00  0.18119248805E+04  0.18119248805E+04  0.00000000000E+00 0. -1.
         -2   -1    0    0    0  501 -0.00000000000E+00 -0.00000000000E+00 -0.19860042560E+02  0.19860042560E+02  0.00000000000E+00 0.  1.
         23    2    1    2    0    0  0.26834418434E+02  0.58653360371E+02  0.16502431679E+03  0.19925906334E+03  0.91163844231E+02 0.  0.
         23    2    1    2    0    0 -0.26834418434E+02 -0.58653360371E+02  0.16270405211E+04  0.16325258597E+04  0.11713036539E+03 0.  0.
          5    1    4    4  502    0 -0.71060023104E+02 -0.45379241676E+02  0.12029974693E+04  0.12059557148E+04  0.41800000000E+01 0. -1.
         -5    1    4    4    0  502  0.44225604670E+02 -0.13274118696E+02  0.42404305183E+03  0.42657014493E+03  0.41800000000E+01 0.  1.
        -11    1    3    3    0    0  0.86841209386E+01 -0.16117291062E+02  0.12970530527E+01  0.18353838135E+02  0.00000000000E+00 0.  1.
         11    1    3    3    0    0  0.18150297496E+02  0.74770651434E+02  0.16372726374E+03  0.18090522520E+03  0.00000000000E+00 0. -1.
</event>
<event>
 8    1  0.9181008E-006  0.9373185E+02  0.7561462E-02  0.1294058E+00
          2   -1    0    0  501    0  0.00000000000E+00  0.00000000000E+00  0.53515092516E+02  0.53515092516E+02  0.00000000000E+00 0.  1.
         -2   -1    0    0    0  501 -0.00000000000E+00 -0.00000000000E+00 -0.22766727389E+03  0.22766727389E+03  0.00000000000E+00 0. -1.
         23    2    1    2    0    0  0.16206596699E+02  0.51617887339E-01 -0.99005494574E+02  0.13435641254E+03  0.89369464553E+02 0.  0.
         23    2    1    2    0    0 -0.16206596699E+02 -0.51617887339E-01 -0.75146686795E+02  0.14682595386E+03  0.12509268464E+03 0.  0.
          5    1    4    4  502    0 -0.42731147577E+02 -0.33025930296E+02  0.67108574497E+01  0.54581783160E+02  0.41800000000E+01 0.  1.
         -5    1    4    4    0  502  0.26524550878E+02  0.32974312409E+02 -0.81857544244E+02  0.92244170698E+02  0.41800000000E+01 0.  1.
        -11    1    3    3    0    0  0.27784894080E+02 -0.40211346682E+02 -0.55646884596E+02  0.74064353816E+02  0.00000000000E+00 0.  1.
         11    1    3    3    0    0 -0.11578297381E+02  0.40262964570E+02 -0.43358609979E+02  0.60292058726E+02  0.00000000000E+00 0. -1.
</event>
<event>
 8    1  0.9181008E-006  0.9344779E+02  0.7561462E-02  0.1294711E+00
          1   -1    0    0  501    0  0.00000000000E+00  0.00000000000E+00  0.71932571132E+03  0.71932571132E+03  0.00000000000E+00 0. -1.
         -1   -1    0    0    0  501 -0.00000000000E+00 -0.00000000000E+00 -0.19584105859E+02  0.19584105859E+02  0.00000000000E+00 0.  1.
         23    2    1    2    0    0 -0.30237492265E+02  0.53591465937E+02  0.27085316276E+03  0.28793637496E+03  0.75891824909E+02 0.  0.
         23    2    1    2    0    0  0.30237492265E+02 -0.53591465937E+02  0.42888844269E+03  0.45097344221E+03  0.12508156597E+03 0.  0.
          5    1    4    4  502    0 -0.17545582349E+02  0.38820895397E+01  0.31658603324E+01  0.18719325597E+02  0.41800000000E+01 0. -1.
         -5    1    4    4    0  502  0.47783074614E+02 -0.57473555477E+02  0.42572258236E+03  0.43225411662E+03  0.41800000000E+01 0. -1.
        -11    1    3    3    0    0 -0.53348100521E+02  0.40886469369E+02  0.22721525297E+03  0.23694829476E+03  0.00000000000E+00 0.  1.
         11    1    3    3    0    0  0.23110608256E+02  0.12704996568E+02  0.43637909790E+02  0.50988080201E+02  0.00000000000E+00 0. -1.
</event>
<event>
 8    1  0.9181008E-006  0.8858660E+02  0.7561462E-02  0.1306311E+00
          1   -1    0    0  501    0  0.00000000000E+00  0.00000000000E+00  0.82669173810E+03  0.82669173810E+03  0.00000000000E+00 0. -1.
         -1   -1    0    0    0  501 -0.00000000000E+00 -0.00000000000E+00 -0.15754845028E+02  0.15754845028E+02  0.00000000000E+00 0.  1.
         23    2    1    2    0    0  0.30959215897E+02  0.45019083059E+01  0.27187078692E+03  0.28816980244E+03  0.90273861277E+02 0.  0.
         23    2    1    2    0    0 -0.30959215897E+02 -0.45019083059E+01  0.53906610615E+03  0.55427678069E+03  0.12510692459E+03 0.  0.
          5    1    4    4  502    0  0.25666379502E+02  0.10899805130E+02  0.27661585749E+02  0.39499424233E+02  0.41800000000E+01 0.  1.
         -5    1    4    4    0  502 -0.56625595399E+02 -0.15401713436E+02  0.51140452040E+03  0.51477735646E+03  0.41800000000E+01 0.  1.
        -11    1    3    3    0    0  0.56621174314E+02 -0.14220314821E+02  0.12581595093E+03  0.13870049835E+03  0.00000000000E+00 0.  1.
         11    1    3    3    0    0 -0.25661958417E+02  0.18722223127E+02  0.14605483599E+03  0.14946930409E+03  0.00000000000E+00 0. -1.
</event>
<event>
 8    1  0.9181008E-006  0.1200856E+03  0.7561462E-02  0.1242956E+00
          2   -1    0    0  501    0  0.00000000000E+00  0.00000000000E+00  0.70375041532E+02  0.70375041532E+02  0.00000000000E+00 0. -1.
         -2   -1    0    0    0  501 -0.00000000000E+00 -0.00000000000E+00 -0.27188243639E+03  0.27188243639E+03  0.00000000000E+00 0.  1.
         23    2    1    2    0    0  0.82070353945E+02 -0.26270743599E+02 -0.74305525967E+02  0.14413087936E+03  0.88468662411E+02 0.  0.
         23    2    1    2    0    0 -0.82070353945E+02  0.26270743599E+02 -0.12720186889E+03  0.19812659856E+03  0.12509252033E+03 0.  0.
          5    1    4    4  502    0 -0.10718952187E+03  0.21253917059E+02 -0.13233249593E+03  0.17167027835E+03  0.41800000000E+01 0.  1.
         -5    1    4    4    0  502  0.25119167920E+02  0.50168265395E+01  0.51306270436E+01  0.26456320217E+02  0.41800000000E+01 0.  1.
        -11    1    3    3    0    0  0.76942940137E+02  0.11634041053E+01 -0.84619659961E+02  0.11437681757E+03  0.00000000000E+00 0.  1.
         11    1    3    3    0    0  0.51274138087E+01 -0.27434147704E+02  0.10314133994E+02  0.29754061784E+02  0.00000000000E+00 0. -1.
</event>
<event>
 8    1  0.9181008E-006  0.1614747E+03  0.7561462E-02  0.1187042E+00
          1   -1    0    0  501    0  0.00000000000E+00  0.00000000000E+00  0.32976117737E+03  0.32976117737E+03  0.00000000000E+00 0. -1.
         -1   -1    0    0    0  501 -0.00000000000E+00 -0.00000000000E+00 -0.10165311044E+03  0.10165311044E+03  0.00000000000E+00 0.  1.
         23    2    1    2    0    0 -0.77110272208E+02 -0.10051725128E+03  0.19733111583E+02  0.15733761164E+03  0.91192195159E+02 0.  0.
         23    2    1    2    0    0  0.77110272208E+02  0.10051725128E+03  0.20837495534E+03  0.27407667617E+03  0.12509272770E+03 0.  0.
          5    1    4    4  502    0  0.10019569782E+03  0.31469751690E+02  0.12159178505E+03  0.16072198893E+03  0.41800000000E+01 0. -1.
         -5    1    4    4    0  502 -0.23085425612E+02  0.69047499588E+02  0.86783170292E+02  0.11335468725E+03  0.41800000000E+01 0. -1.
        -11    1    3    3    0    0  0.96081911763E-02 -0.55747446649E+02  0.36457011674E+02  0.66609996250E+02  0.00000000000E+00 0. -1.
         11    1    3    3    0    0 -0.77119880399E+02 -0.44769804629E+02 -0.16723900091E+02  0.90727615386E+02  0.00000000000E+00 0.  1.
</event>
<event>
 8    1  0.9181008E-006  0.8372293E+02  0.7561462E-02  0.1318806E+00
         -2   -1    0    0    0  501 -0.00000000000E+00  0.00000000000E+00  0.97156161235E+02  0.97156161235E+02  0.00000000000E+00 0.  1.
          2   -1    0    0  501    0  0.00000000000E+00 -0.00000000000E+00 -0.15237534374E+03  0.15237534374E+03  0.00000000000E+00 0. -1.
         23    2    1    2    0    0 -0.16070046839E+02  0.36566562591E+02  0.11826756897E+02  0.10209510348E+03  0.93210396799E+02 0.  0.
         23    2    1    2    0    0  0.16070046839E+02 -0.36566562591E+02 -0.67045939406E+02  0.14743640150E+03  0.12508786748E+03 0.  0.
          5    1    4    4  502    0  0.45005625480E+02 -0.25749158838E+02 -0.93206965669E+02  0.10674050944E+03  0.41800000000E+01 0.  1.
         -5    1    4    4    0  502 -0.28935578641E+02 -0.10817403753E+02  0.26161026263E+02  0.40695892058E+02  0.41800000000E+01 0.  1.
        -11    1    3    3    0    0 -0.22555078627E+02  0.57803739899E+02 -0.18280222746E+02  0.64685164155E+02  0.00000000000E+00 0. -1.
         11    1    3    3    0    0  0.64850317876E+01 -0.21237177308E+02  0.30106979643E+02  0.37409939328E+02  0.00000000000E+00 0.  1.
</event>
<event>
 8    1  0.9181008E-006  0.9660116E+02  0.7561462E-02  0.1287610E+00
         -1   -1    0    0    0  501 -0.00000000000E+00  0.00000000000E+00  0.54846545810E+02  0.54846545810E+02  0.00000000000E+00 0.  1.
          1   -1    0    0  501    0  0.00000000000E+00 -0.00000000000E+00 -0.29651455054E+03  0.29651455054E+03  0.00000000000E+00 0. -1.
         23    2    1    2    0    0  0.38364847732E+02 -0.23775418245E+02 -0.34000364146E+02  0.10476204570E+03  0.88215244727E+02 0.  0.
         23    2    1    2    0    0 -0.38364847732E+02  0.23775418245E+02 -0.20766764058E+03  0.24659905065E+03  0.12509240898E+03 0.  0.
          5    1    4    4  502    0 -0.34612518845E+02 -0.48049095585E+02 -0.75206251526E+02  0.95813332662E+02  0.41800000000E+01 0.  1.
         -5    1    4    4    0  502 -0.37523288868E+01  0.71824513830E+02 -0.13246138906E+03  0.15078571799E+03  0.41800000000E+01 0.  1.
        -11    1    3    3    0    0  0.23301463102E+02  0.95803239354E+01  0.24896348580E+02  0.35419895003E+02  0.00000000000E+00 0.  1.
         11    1    3    3    0    0  0.15063384630E+02 -0.33355742181E+02 -0.58896712726E+02  0.69342150694E+02  0.00000000000E+00 0. -1.
</event>
<event>
 8    1  0.9181008E-006  0.1589286E+03  0.7561462E-02  0.1189912E+00
          2   -1    0    0  501    0  0.00000000000E+00  0.00000000000E+00  0.11462814291E+04  0.11462814291E+04  0.00000000000E+00 0.  1.
         -2   -1    0    0    0  501 -0.00000000000E+00 -0.00000000000E+00 -0.27127289297E+02  0.27127289297E+02  0.00000000000E+00 0. -1.
         23    2    1    2    0    0  0.10429177184E+03  0.87535188527E+02  0.44572665640E+03  0.47506158621E+03  0.92043878497E+02 0.  0.
         23    2    1    2    0    0 -0.10429177184E+03 -0.87535188527E+02  0.67342748337E+03  0.69834713214E+03  0.12507980940E+03 0.  0.
          5    1    4    4  502    0 -0.12189596530E+03 -0.66357098828E+02  0.39820382844E+03  0.42171750297E+03  0.41800000000E+01 0. -1.
         -5    1    4    4    0  502  0.17604193462E+02 -0.21178089699E+02  0.27522365492E+03  0.27662962918E+03  0.41800000000E+01 0. -1.
        -11    1    3    3    0    0  0.81495481055E+02  0.26019373434E+02  0.34031181496E+03  0.35089977576E+03  0.00000000000E+00 0.  1.
         11    1    3    3    0    0  0.22796290782E+02  0.61515815093E+02  0.10541484144E+03  0.12416181045E+03  0.00000000000E+00 0. -1.
</event>
<event>
 8    1  0.9181008E-006  0.1982543E+03  0.7561462E-02  0.1151220E+00
          2   -1    0    0  501    0  0.00000000000E+00  0.00000000000E+00  0.28218353806E+03  0.28218353806E+03  0.00000000000E+00 0. -1.
         -2   -1    0    0    0  501 -0.00000000000E+00 -0.00000000000E+00 -0.15783178488E+03  0.15783178488E+03  0.00000000000E+00 0.  1.
         23    2    1    2    0    0  0.13154661509E+01 -0.17929486920E+03  0.83314380420E+02  0.21758401604E+03  0.90846780252E+02 0.  0.
         23    2    1    2    0    0 -0.13154661509E+01  0.17929486920E+03  0.41037372762E+02  0.22243130690E+03  0.12507293774E+03 0.  0.
          5    1    4    4  502    0 -0.10521603808E+02  0.18526931351E+03  0.62554897740E+01  0.18572029030E+03  0.41800000000E+01 0.  1.
         -5    1    4    4    0  502  0.92061376576E+01 -0.59744443180E+01  0.34781882988E+02  0.36711016599E+02  0.41800000000E+01 0.  1.
        -11    1    3    3    0    0  0.40806286799E+02 -0.53400462714E+02  0.14416850825E+02  0.68735784335E+02  0.00000000000E+00 0.  1.
         11    1    3    3    0    0 -0.39490820648E+02 -0.12589440648E+03  0.68897529595E+02  0.14884823171E+03  0.00000000000E+00 0. -1.
</event>
<event>
 8    1  0.9181008E-006  0.1091153E+03  0.7561462E-02  0.1262217E+00
          2   -1    0    0  501    0  0.00000000000E+00  0.00000000000E+00  0.67396930356E+03  0.67396930356E+03  0.00000000000E+00 0. -1.
         -2   -1    0    0    0  501 -0.00000000000E+00 -0.00000000000E+00 -0.18878739884E+02  0.18878739884E+02  0.00000000000E+00 0.  1.
         23    2    1    2    0    0  0.11474063294E+02  0.26298173702E+02  0.23999798653E+03  0.25836804902E+03  0.91278514160E+02 0.  0.
         23    2    1    2    0    0 -0.11474063294E+02 -0.26298173702E+02  0.41509257715E+03  0.43447999443E+03  0.12509104638E+03 0.  0.
          5    1    4    4  502    0 -0.28263448203E+02 -0.70072737408E+02  0.18993229553E+03  0.20445234241E+03  0.41800000000E+01 0. -1.
         -5    1    4    4    0  502  0.16789384909E+02  0.43774563706E+02  0.22516028162E+03  0.23002765202E+03  0.41800000000E+01 0. -1.
        -11    1    3    3    0    0 -0.28637685963E+02  0.43306239060E+02  0.13865205436E+03  0.14805384013E+03  0.00000000000E+00 0. -1.
         11    1    3    3    0    0  0.40111749257E+02 -0.17008065358E+02  0.10134593217E+03  0.11031420889E+03  0.00000000000E+00 0.  1.
</event>
<event>
 8    1  0.9181008E-006  0.1828135E+03  0.7561462E-02  0.1165108E+00
          2   -1    0    0  501    0  0.00000000000E+00  0.00000000000E+00  0.50977078825E+03  0.50977078825E+03  0.00000000000E+00 0. -1.
         -2   -1    0    0    0  501 -0.00000000000E+00 -0.00000000000E+00 -0.88251902250E+02  0.88251902250E+02  0.00000000000E+00 0.  1.
         23    2    1    2    0    0  0.10620008907E+03 -0.10370767482E+03  0.53837799822E+02  0.18224541906E+03  0.91000787582E+02 0.  0.
         23    2    1    2    0    0 -0.10620008907E+03  0.10370767482E+03  0.36768108618E+03  0.41577727144E+03  0.12509043760E+03 0.  0.
          5    1    4    4  502    0 -0.82663962910E+02  0.13215868877E+03  0.31256164456E+03  0.34930145123E+03  0.41800000000E+01 0. -1.
         -5    1    4    4    0  502 -0.23536126164E+02 -0.28451013941E+02  0.55119441616E+02  0.66475820214E+02  0.41800000000E+01 0. -1.
        -11    1    3    3    0    0  0.53326897858E+02  0.30300898411E+01  0.54992136070E+01  0.53695258914E+02  0.00000000000E+00 0.  1.
         11    1    3    3    0    0  0.52873191216E+02 -0.10673776467E+03  0.48338586215E+02  0.12855016014E+03  0.00000000000E+00 0. -1.
</event>
<event>
 8    1  0.9181008E-006  0.9862121E+02  0.7561462E-02  0.1283222E+00
         -2   -1    0    0    0  501 -0.00000000000E+00  0.00000000000E+00  0.12072249524E+03  0.12072249524E+03  0.00000000000E+00 0.  1.
          2   -1    0    0  501    0  0.00000000000E+00 -0.00000000000E+00 -0.17264506037E+03  0.17264506037E+03  0.00000000000E+00 0. -1.
         23    2    1    2    0    0  0.20642753305E+01  0.23151674370E+02  0.67639278137E+02  0.11877801633E+03  0.94830817547E+02 0.  0.
         23    2    1    2    0    0 -0.20642753305E+01 -0.23151674370E+02 -0.11956184328E+03  0.17458953928E+03  0.12508481763E+03 0.  0.
          5    1    4    4  502    0  0.54835985491E+02 -0.37267788427E+02 -0.78785030759E+02  0.10305545512E+03  0.41800000000E+01 0.  1.
         -5    1    4    4    0  502 -0.56900260821E+02  0.14116114058E+02 -0.40776812516E+02  0.71534084160E+02  0.41800000000E+01 0.  1.
        -11    1    3    3    0    0 -0.24102563797E+02 -0.13017644431E+02  0.68870986881E+02  0.74118860502E+02  0.00000000000E+00 0.  1.
         11    1    3    3    0    0  0.26166839127E+02  0.36169318801E+02 -0.12317087448E+01  0.44659155824E+02  0.00000000000E+00 0. -1.
</event>
<event>
 8    1  0.9181008E-006  0.1713367E+03  0.7561462E-02  0.1176461E+00
          1   -1    0    0  501    0  0.00000000000E+00  0.00000000000E+00  0.45667940131E+03  0.45667940131E+03  0.00000000000E+00 0. -1.
         -1   -1    0    0    0  501 -0.00000000000E+00 -0.00000000000E+00 -0.73954296023E+02  0.73954296023E+02  0.00000000000E+00 0.  1.
         23    2    1    2    0    0  0.21774072095E+01 -0.14861996676E+03  0.19019648075E+03  0.25712414188E+03  0.88574756154E+02 0.  0.
         23    2    1    2    0    0 -0.21774072095E+01  0.14861996676E+03  0.19252862454E+03  0.27350955546E+03  0.12509024757E+03 0.  0.
          5    1    4    4  502    0  0.51040718600E+02  0.58527658679E+02  0.13016066798E+03  0.15162425161E+03  0.41800000000E+01 0.  1.
         -5    1    4    4    0  502 -0.53218125810E+02  0.90092308077E+02  0.62367956562E+02  0.12188530385E+03  0.41800000000E+01 0.  1.
        -11    1    3    3    0    0 -0.27727745735E+02 -0.92852815237E+02  0.15988602518E+03  0.18695992680E+03  0.00000000000E+00 0.  1.
         11    1    3    3    0    0  0.29905152944E+02 -0.55767151519E+02  0.30310455569E+02  0.70164215081E+02  0.00000000000E+00 0. -1.
</event>
<event>
 8    1  0.9181008E-006  0.1079865E+03  0.7561462E-02  0.1264345E+00
          2   -1    0    0  501    0  0.00000000000E+00  0.00000000000E+00  0.59695826008E+03  0.59695826008E+03  0.00000000000E+00 0. -1.
         -2   -1    0    0    0  501 -0.00000000000E+00 -0.00000000000E+00 -0.34529174494E+02  0.34529174494E+02  0.00000000000E+00 0.  1.
         23    2    1    2    0    0 -0.26923048976E+02 -0.16211182412E+02  0.61755318578E+02  0.11413529796E+03  0.90694508464E+02 0.  0.
         23    2    1    2    0    0  0.26923048976E+02  0.16211182412E+02  0.50067376701E+03  0.51735213662E+03  0.12645694640E+03 0.  0.
          5    1    4    4  502    0  0.59049396373E+02  0.54267262233E+02  0.31277606757E+03  0.32292120991E+03  0.41800000000E+01 0. -1.
         -5    1    4    4    0  502 -0.32126347398E+02 -0.38056079821E+02  0.18789769943E+03  0.19443092671E+03  0.41800000000E+01 0.  1.
        -11    1    3    3    0    0 -0.12894263789E+02  0.32516884368E+02  0.99284108873E+00  0.34994221538E+02  0.00000000000E+00 0. -1.
         11    1    3    3    0    0 -0.14028785187E+02 -0.48728066780E+02  0.60762477489E+02  0.79141076418E+02  0.00000000000E+00 0.  1.
</event>
<event>
 8    1  0.9181008E-006  0.2200541E+03  0.7561462E-02  0.1133843E+00
          2   -1    0    0  501    0  0.00000000000E+00  0.00000000000E+00  0.29083474601E+03  0.29083474601E+03  0.00000000000E+00 0. -1.
         -2   -1    0    0    0  501 -0.00000000000E+00 -0.00000000000E+00 -0.19813587246E+03  0.19813587246E+03  0.00000000000E+00 0.  1.
         23    2    1    2    0    0  0.19128393662E+02 -0.21240443647E+03  0.23839213087E+02  0.23231775292E+03  0.89003877259E+02 0.  0.
         23    2    1    2    0    0 -0.19128393662E+02  0.21240443647E+03  0.68859660460E+02  0.25665286554E+03  0.12508996953E+03 0.  0.
          5    1    4    4  502    0 -0.49196515119E+00  0.11798774279E+03  0.10072368670E+03  0.15519047310E+03  0.41800000000E+01 0. -1.
         -5    1    4    4    0  502 -0.18636428511E+02  0.94416693679E+02 -0.31864026237E+02  0.10146239245E+03  0.41800000000E+01 0. -1.
        -11    1    3    3    0    0  0.47238101573E+02 -0.15025510333E+03 -0.65544561841E+01  0.15764198429E+03  0.00000000000E+00 0. -1.
         11    1    3    3    0    0 -0.28109707911E+02 -0.62149333144E+02  0.30393669271E+02  0.74675768632E+02  0.00000000000E+00 0.  1.
</event>
<event>
 8    1  0.9181008E-006  0.1316342E+03  0.7561462E-02  0.1225051E+00
          1   -1    0    0  501    0  0.00000000000E+00  0.00000000000E+00  0.34262686738E+03  0.34262686738E+03  0.00000000000E+00 0. -1.
         -1   -1    0    0    0  501 -0.00000000000E+00 -0.00000000000E+00 -0.58416287845E+02  0.58416287845E+02  0.00000000000E+00 0.  1.
         23    2    1    2    0    0  0.70334194131E+02  0.37141795001E+02  0.72916831608E+02  0.14293624032E+03  0.93741627173E+02 0.  0.
         23    2    1    2    0    0 -0.70334194131E+02 -0.37141795001E+02  0.21129374793E+03  0.25810691491E+03  0.12509084623E+03 0.  0.
          5    1    4    4  502    0 -0.70305794274E+02 -0.79185099097E+02  0.15250115953E+03  0.18570745996E+03  0.41800000000E+01 0. -1.
         -5    1    4    4    0  502 -0.28399857156E-01  0.42043304096E+02  0.58792588397E+02  0.72399454945E+02  0.41800000000E+01 0. -1.
        -11    1    3    3    0    0  0.11499560243E+01 -0.23207571808E+02  0.38344711582E+02  0.44835596286E+02  0.00000000000E+00 0. -1.
         11    1    3    3    0    0  0.69184238106E+02  0.60349366809E+02  0.34572120026E+02  0.98100644033E+02  0.00000000000E+00 0.  1.
</event>
<event>
 8    1  0.9181008E-006  0.6906779E+02  0.7561462E-02  0.1363292E+00
         -2   -1    0    0    0  501 -0.00000000000E+00  0.00000000000E+00  0.41273133024E+02  0.41273133024E+02  0.00000000000E+00 0.  1.
          2   -1    0    0  501    0  0.00000000000E+00 -0.00000000000E+00 -0.73052457167E+03  0.73052457167E+03  0.00000000000E+00 0. -1.
         23    2    1    2    0    0 -0.27988580633E+02 -0.19899069144E+02 -0.35509715575E+02  0.10634183983E+03  0.94171722927E+02 0.  0.
         23    2    1    2    0    0  0.27988580633E+02  0.19899069144E+02 -0.65374172307E+03  0.66545586487E+03  0.11947357031E+03 0.  0.
          5    1    4    4  502    0 -0.15376410104E+02  0.87333097295E+01 -0.57093529011E+03  0.57122437149E+03  0.41800000000E+01 0. -1.
         -5    1    4    4    0  502  0.43364990737E+02  0.11165759414E+02 -0.82806432959E+02  0.94231493379E+02  0.41800000000E+01 0.  1.
        -11    1    3    3    0    0  0.12060531690E+02  0.16792640966E+02 -0.46532501025E+02  0.50918786974E+02  0.00000000000E+00 0. -1.
         11    1    3    3    0    0 -0.40049112323E+02 -0.36691710110E+02  0.11022785450E+02  0.55423052854E+02  0.00000000000E+00 0.  1.
</event>
<event>
 8    1  0.9181008E-006  0.1547627E+03  0.7561462E-02  0.1194740E+00
         -1   -1    0    0    0  501 -0.00000000000E+00  0.00000000000E+00  0.85997256119E+02  0.85997256119E+02  0.00000000000E+00 0.  1.
          1   -1    0    0  501    0  0.00000000000E+00 -0.00000000000E+00 -0.40861443238E+03  0.40861443238E+03  0.00000000000E+00 0. -1.
         23    2    1    2    0    0  0.12094060978E+03  0.12885581166E+02 -0.36298498300E+02  0.15932325482E+03  0.96299788435E+02 0.  0.
         23    2    1    2    0    0 -0.12094060978E+03 -0.12885581166E+02 -0.28631867796E+03  0.33528843368E+03  0.12508908470E+03 0.  0.
          5    1    4    4  502    0 -0.11949931500E+03  0.21388744417E+02 -0.14188991733E+03  0.18678272327E+03  0.41800000000E+01 0. -1.
         -5    1    4    4    0  502 -0.14412947804E+01 -0.34274325584E+02 -0.14442876063E+03  0.14850571040E+03  0.41800000000E+01 0. -1.
        -11    1    3    3    0    0  0.11697946282E+03 -0.21453063374E+02 -0.37599804366E+02  0.12473240934E+03  0.00000000000E+00 0.  1.
         11    1    3    3    0    0  0.39611469581E+01  0.34338644540E+02  0.13013060664E+01  0.34590845488E+02  0.00000000000E+00 0. -1.
</event>
<event>
 7    1  0.9181008E-006  0.1330793E+03  0.7561462E-02  0.1222957E+00
          3   -1    0    0  501    0  0.00000000000E+00  0.00000000000E+00  0.10656023953E+03  0.10656023953E+03  0.00000000000E+00 0. -1.
         -3   -1    0    0    0  501 -0.00000000000E+00 -0.00000000000E+00 -0.33161845844E+03  0.33161845844E+03  0.00000000000E+00 0.  1.
         23    2    1    2    0    0 -0.67312930311E+02  0.66982081274E+02  0.19916234649E+01  0.15706372814E+03  0.12508964120E+03 0.  0.
          5    1    3    3  502    0 -0.68887089651E+02  0.45214507211E+02  0.55289843525E+02  0.99318789662E+02  0.41800000000E+01 0.  1.
         -5    1    3    3    0  502  0.15741593401E+01  0.21767574063E+02 -0.53298220060E+02  0.57744938478E+02  0.41800000000E+01 0.  1.
        -11    1    1    2    0    0 -0.71209877905E+01 -0.84634044763E+02 -0.15099593089E+03  0.17324376222E+03  0.00000000000E+00 0.  1.
         11    1    1    2    0    0  0.74433918102E+02  0.17651963490E+02 -0.76053911479E+02  0.10787120761E+03  0.00000000000E+00 0. -1.
</event>
<event>
 8    1  0.9181008E-006  0.9130639E+02  0.7561462E-02  0.1299719E+00
          1   -1    0    0  501    0  0.00000000000E+00  0.00000000000E+00  0.87194331439E+03  0.87194331439E+03  0.00000000000E+00 0. -1.
         -1   -1    0    0    0  501 -0.00000000000E+00 -0.00000000000E+00 -0.34880738895E+02  0.34880738895E+02  0.00000000000E+00 0.  1.
         23    2    1    2    0    0 -0.25620213811E+02  0.46045103503E+02  0.68662827925E+02  0.12652822799E+03  0.92294429018E+02 0.  0.
         23    2    1    2    0    0  0.25620213811E+02 -0.46045103503E+02  0.76839974757E+03  0.78029582529E+03  0.12508739342E+03 0.  0.
          5    1    4    4  502    0  0.30734779525E+02 -0.60727536534E+02  0.75814937494E+03  0.76120983144E+03  0.41800000000E+01 0.  1.
         -5    1    4    4    0  502 -0.51145657134E+01  0.14682433031E+02  0.10250372630E+02  0.19085993849E+02  0.41800000000E+01 0.  1.
        -11    1    3    3    0    0 -0.39897196863E+02 -0.94660723216E+01  0.57260408318E+01  0.41402661585E+02  0.00000000000E+00 0.  1.
         11    1    3    3    0    0  0.14276983052E+02  0.55511175824E+02  0.62936787093E+02  0.85125566406E+02  0.00000000000E+00 0. -1.
</event>
<event>
 8    1  0.9181008E-006  0.8348671E+02  0.7561462E-02  0.1319438E+00
          3   -1    0    0  501    0  0.00000000000E+00  0.00000000000E+00  0.59288850812E+02  0.59288850812E+02  0.00000000000E+00 0. -1.
         -3   -1    0    0    0  501 -0.00000000000E+00 -0.00000000000E+00 -0.33490943499E+03  0.33490943499E+03  0.00000000000E+00 0.  1.
         23    2    1    2    0    0  0.55264587942E+02 -0.24331035206E+02 -0.21564332518E+03  0.24289709538E+03  0.94078591046E+02 0.  0.
         23    2    1    2    0    0 -0.55264587942E+02  0.24331035206E+02 -0.59977258997E+02  0.15130119042E+03  0.12509438306E+03 0.  0.
          5    1    4    4  502    0 -0.48256038250E+02  0.43049414356E+01 -0.96953965350E+02  0.10846530111E+03  0.41800000000E+01 0.  1.
         -5    1    4    4    0  502 -0.70085496930E+01  0.20026093770E+02  0.36976706353E+02  0.42835889312E+02  0.41800000000E+01 0.  1.
        -11    1    3    3    0    0  0.70877536165E+02 -0.33733081670E+02 -0.10682815805E+03  0.13256621472E+03  0.00000000000E+00 0. -1.
         11    1    3    3    0    0 -0.15612948222E+02  0.94020464647E+01 -0.10881516713E+03  0.11033088066E+03  0.00000000000E+00 0.  1.
</event>
<event>
 7    1  0.9181008E-006  0.6642269E+02  0.7561462E-02  0.1372698E+00
          1   -1    0    0  501    0  0.00000000000E+00  0.00000000000E+00  0.35809629714E+03  0.35809629714E+03  0.00000000000E+00 0. -1.
         -1   -1    0    0    0  501 -0.00000000000E+00 -0.00000000000E+00 -0.66781809576E+02  0.66781809576E+02  0.00000000000E+00 0.  1.
         23    2    1    2    0    0 -0.22401337872E+02  0.45498279041E+01  0.18425112341E+03  0.22388049895E+03  0.12510587701E+03 0.  0.
          5    1    3    3  502    0 -0.11236794928E+02  0.19643599482E+01  0.20198839589E+03  0.20235342533E+03  0.41800000000E+01 0.  1.
         -5    1    3    3    0  502 -0.11164542944E+02  0.25854679559E+01 -0.17737272482E+02  0.21527073623E+02  0.41800000000E+01 0.  1.
        -11    1    1    2    0    0  0.60336760756E+02 -0.25105311358E+02 -0.18752884116E+02  0.67988763922E+02  0.00000000000E+00 0.  1.
         11    1    1    2    0    0 -0.37935422885E+02  0.20555483454E+02  0.12581624827E+03  0.13300884384E+03  0.00000000000E+00 0. -1.
</event>
<event>
 8    1  0.9181008E-006  0.1428721E+03  0.7561462E-02  0.1209516E+00
         -2   -1    0    0    0  501 -0.00000000000E+00  0.00000000000E+00  0.66897762951E+02  0.66897762951E+02  0.00000000000E+00 0.  1.
          2   -1    0    0  501    0  0.00000000000E+00 -0.00000000000E+00 -0.35661564666E+03  0.35661564666E+03  0.00000000000E+00 0. -1.
         23    2    1    2    0    0 -0.20031359753E+02  0.95911499598E+02 -0.63893145270E+02  0.14739833540E+03  0.89686476886E+02 0.  0.
         23    2    1    2    0    0  0.20031359753E+02 -0.95911499598E+02 -0.22582473844E+03  0.27611507422E+03  0.12506978288E+03 0.  0.
          5    1    4    4  502    0  0.31023203751E+02  0.23340898388E+02 -0.55034001288E+02  0.67479259082E+02  0.41800000000E+01 0.  1.
         -5    1    4    4    0  502 -0.10991843998E+02 -0.11925239799E+03 -0.17079073715E+03  0.20863581514E+03  0.41800000000E+01 0.  1.
        -11    1    3    3    0    0  0.31178226794E+02  0.28768821797E+02 -0.43009860560E+02  0.60411712764E+02  0.00000000000E+00 0. -1.
         11    1    3    3    0    0 -0.51209586548E+02  0.67142677800E+02 -0.20883284709E+02  0.86986622632E+02  0.00000000000E+00 0.  1.
</event>
<event>
 8    1  0.9181008E-006  0.1284304E+03  0.7561462E-02  0.1229803E+00
         -2   -1    0    0    0  501 -0.00000000000E+00  0.00000000000E+00  0.42174226073E+02  0.42174226073E+02  0.00000000000E+00 0.  1.
          2   -1    0    0  501    0  0.00000000000E+00 -0.00000000000E+00 -0.48731878778E+03  0.48731878778E+03  0.00000000000E+00 0. -1.
         23    2    1    2    0    0  0.28003833369E+02  0.83902591624E+02 -0.14362877266E+03  0.19128480654E+03  0.90204175682E+02 0.  0.
         23    2    1    2    0    0 -0.28003833369E+02 -0.83902591624E+02 -0.30151578905E+03  0.33820820732E+03  0.12509660623E+03 0.  0.
          5    1    4    4  502    0 -0.60442869081E+02 -0.77034057022E+02 -0.28408486638E+03  0.30051500806E+03  0.41800000000E+01 0. -1.
         -5    1    4    4    0  502  0.32439035711E+02 -0.68685346025E+01 -0.17430922671E+02  0.37693199262E+02  0.41800000000E+01 0. -1.
        -11    1    3    3    0    0 -0.18625283552E+02  0.75865139493E+02 -0.10025478571E+03  0.12709619441E+03  0.00000000000E+00 0. -1.
         11    1    3    3    0    0  0.46629116922E+02  0.80374521318E+01 -0.43373986957E+02  0.64188612123E+02  0.00000000000E+00 0.  1.
</event>
<event>
 8    1  0.9181008E-006  0.1210548E+03  0.7561462E-02  0.1241367E+00
          1   -1    0    0  501    0  0.00000000000E+00  0.00000000000E+00  0.12688678760E+03  0.12688678760E+03  0.00000000000E+00 0. -1.
         -1   -1    0    0    0  501 -0.00000000000E+00 -0.00000000000E+00 -0.13903317320E+03  0.13903317320E+03  0.00000000000E+00 0.  1.
         23    2    1    2    0    0 -0.57861207964E+02  0.26314266555E+02 -0.43647309492E+02  0.12211314500E+03  0.94689875616E+02 0.  0.
         23    2    1    2    0    0  0.57861207964E+02 -0.26314266555E+02  0.31500923886E+02  0.14380681580E+03  0.12509089517E+03 0.  0.
          5    1    4    4  502    0 -0.88857801842E+01 -0.58383968249E+02  0.36361040721E+02  0.69478360086E+02  0.41800000000E+01 0. -1.
         -5    1    4    4    0  502  0.66746988149E+02  0.32069701694E+02 -0.48601168353E+01  0.74328455717E+02  0.41800000000E+01 0. -1.
        -11    1    3    3    0    0 -0.59413592251E+02  0.54430590570E+02 -0.15033840287E+02  0.81967557532E+02  0.00000000000E+00 0. -1.
         11    1    3    3    0    0  0.15523842865E+01 -0.28116324015E+02 -0.28613469204E+02  0.40145587466E+02  0.00000000000E+00 0.  1.
</event>
<event>
 7    1  0.9181008E-006  0.1264743E+03  0.7561462E-02  0.1232783E+00
          1   -1    0    0  501    0  0.00000000000E+00  0.00000000000E+00  0.16259272313E+04  0.16259272313E+04  0.00000000000E+00 0. -1.
         -1   -1    0    0    0  501 -0.00000000000E+00 -0.00000000000E+00 -0.22188176327E+02  0.22188176327E+02  0.00000000000E+00 0.  1.
         23    2    1    2    0    0  0.15185569630E+02 -0.12314868354E+02  0.42559442088E+03  0.43602149241E+03  0.92746284330E+02 0.  0.
          5    1    1    2  502    0  0.29379463714E+02 -0.64049400479E+02  0.10700767077E+04  0.10724024951E+04  0.41800000000E+01 0. -1.
         -5    1    1    2    0  502 -0.44565033344E+02  0.76364268834E+02  0.10806792631E+03  0.13969142010E+03  0.41800000000E+01 0.  1.
        -11    1    3    3    0    0  0.41988691047E+02  0.24263849370E+02  0.18915393659E+03  0.19527159622E+03  0.00000000000E+00 0.  1.
         11    1    3    3    0    0 -0.26803121417E+02 -0.36578717724E+02  0.23644048428E+03  0.24074989619E+03  0.00000000000E+00 0. -1.
</event>
<event>
 8    1  0.9181008E-006  0.1139106E+03  0.7561462E-02  0.1253495E+00
          2   -1    0    0  501    0  0.00000000000E+00  0.00000000000E+00  0.13617633289E+04  0.13617633289E+04  0.00000000000E+00 0. -1.
         -2   -1    0    0    0  501 -0.00000000000E+00 -0.00000000000E+00 -0.37179780025E+02  0.37179780025E+02  0.00000000000E+00 0.  1.
         23    2    1    2    0    0 -0.59282472950E+02 -0.89969589324E+02  0.12133879310E+03  0.18542284834E+03  0.89719514998E+02 0.  0.
         23    2    1    2    0    0  0.59282472950E+02  0.89969589324E+02  0.12032447557E+04  0.12135202606E+04  0.11499800852E+03 0.  0.
          5    1    4    4  502    0  0.19486098296E+02  0.60221000160E+02  0.10590478845E+04  0.10609458851E+04  0.41800000000E+01 0. -1.
         -5    1    4    4    0  502  0.39796374654E+02  0.29748589165E+02  0.14419687119E+03  0.15257437548E+03  0.41800000000E+01 0.  1.
        -11    1    3    3    0    0 -0.16967750034E+02 -0.22270473428E+01  0.76131293582E+02  0.78031007578E+02  0.00000000000E+00 0. -1.
         11    1    3    3    0    0 -0.42314722915E+02 -0.87742541981E+02  0.45207499522E+02  0.10739184076E+03  0.00000000000E+00 0.  1.
</event>
<event>
 8    1  0.9181008E-006  0.7257241E+02  0.7561462E-02  0.1351558E+00
         -2   -1    0    0    0  501 -0.00000000000E+00  0.00000000000E+00  0.15255224629E+02  0.15255224629E+02  0.00000000000E+00 0.  1.
          2   -1    0    0  501    0  0.00000000000E+00 -0.00000000000E+00 -0.28556220409E+04  0.28556220409E+04  0.00000000000E+00 0. -1.
         23    2    1    2    0    0 -0.48427383339E+01 -0.16581176311E+02 -0.14761410859E+03  0.17562920107E+03  0.93580466406E+02 0.  0.
         23    2    1    2    0    0  0.48427383339E+01  0.16581176311E+02 -0.26927527077E+04  0.26952480645E+04  0.11465860936E+03 0.  0.
          5    1    4    4  502    0 -0.14827349274E+02  0.40714529548E+02 -0.24599929658E+04  0.24603780985E+04  0.41800000000E+01 0. -1.
         -5    1    4    4    0  502  0.19670087608E+02 -0.24133353238E+02 -0.23275974184E+03  0.23486996596E+03  0.41800000000E+01 0.  1.
        -11    1    3    3    0    0 -0.12673657975E+01 -0.43261981451E+02 -0.24764158210E+02  0.49864504278E+02  0.00000000000E+00 0.  1.
         11    1    3    3    0    0 -0.35753725365E+01  0.26680805140E+02 -0.12284995038E+03  0.12576469680E+03  0.00000000000E+00 0. -1.
</event>
<event>
 8    1  0.9181008E-006  0.1261285E+03  0.7561462E-02  0.1233316E+00
         -2   -1    0    0    0  501 -0.00000000000E+00  0.00000000000E+00  0.12818884548E+03  0.12818884548E+03  0.00000000000E+00 0.  1.
          2   -1    0    0  501    0  0.00000000000E+00 -0.00000000000E+00 -0.16994262850E+03  0.16994262850E+03  0.00000000000E+00 0. -1.
         23    2    1    2    0    0 -0.63793084073E+02 -0.20679615622E+02  0.57266799919E+02  0.12507122641E+03  0.88691156402E+02 0.  0.
         23    2    1    2    0    0  0.63793084073E+02  0.20679615622E+02 -0.99020582931E+02  0.17306024758E+03  0.12509024490E+03 0.  0.
          5    1    4    4  502    0  0.31369082169E+02 -0.52283553048E+02 -0.52431190906E+02  0.80523856187E+02  0.41800000000E+01 0.  1.
         -5    1    4    4    0  502  0.32424001904E+02  0.72963168670E+02 -0.46589392025E+02  0.92536391388E+02  0.41800000000E+01 0.  1.
        -11    1    3    3    0    0 -0.44646703640E+02  0.32136478695E+02  0.28631371600E+02  0.62014811525E+02  0.00000000000E+00 0.  1.
         11    1    3    3    0    0 -0.19146380433E+02 -0.52816094317E+02  0.28635428319E+02  0.63056414881E+02  0.00000000000E+00 0. -1.
</event>
<event>
 8    1  0.9181008E-006  0.1058201E+03  0.7561462E-02  0.1268512E+00
          2   -1    0    0  501    0  0.00000000000E+00  0.00000000000E+00  0.46339569105E+02  0.46339569105E+02  0.00000000000E+00 0. -1.
         -2   -1    0    0    0  501 -0.00000000000E+00 -0.00000000000E+00 -0.35248357798E+03  0.35248357798E+03  0.00000000000E+00 0.  1.
         23    2    1    2    0    0  0.64096205578E+02 -0.20299853463E+02 -0.13720856424E+03  0.17812054779E+03  0.91544152318E+02 0.  0.
         23    2    1    2    0    0 -0.64096205578E+02  0.20299853463E+02 -0.16893544464E+03  0.22070259930E+03  0.12510014094E+03 0.  0.
          5    1    4    4  502    0 -0.19644381483E+02  0.67679390847E+02 -0.55051175581E+02  0.89523773390E+02  0.41800000000E+01 0.  1.
         -5    1    4    4    0  502 -0.44451824095E+02 -0.47379537384E+02 -0.11388426906E+03  0.13117882591E+03  0.41800000000E+01 0.  1.
        -11    1    3    3    0    0  0.25329562032E+02 -0.26527317356E+02 -0.13376929450E+03  0.13870655872E+03  0.00000000000E+00 0.  1.
         11    1    3    3    0    0  0.38766643546E+02  0.62274638932E+01 -0.34392697375E+01  0.39413989074E+02  0.00000000000E+00 0. -1.
</event>
<event>
 8    1  0.9181008E-006  0.1342239E+03  0.7561462E-02  0.1221319E+00
          1   -1    0    0  501    0  0.00000000000E+00  0.00000000000E+00  0.97487347969E+02  0.97487347969E+02  0.00000000000E+00 0. -1.
         -1   -1    0    0    0  501 -0.00000000000E+00 -0.00000000000E+00 -0.34563968547E+03  0.34563968547E+03  0.00000000000E+00 0.  1.
         23    2    1    2    0    0  0.79383056633E+02 -0.19087460771E+02 -0.26529247832E+03  0.29276826770E+03  0.93097576132E+02 0.  0.
         23    2    1    2    0    0 -0.79383056633E+02  0.19087460771E+02  0.17140140821E+02  0.15035876573E+03  0.12509185891E+03 0.  0.
          5    1    4    4  502    0  0.32826836816E+02  0.10393236315E+02 -0.64774110546E+01  0.35285263644E+02  0.41800000000E+01 0.  1.
         -5    1    4    4    0  502 -0.11220989345E+03  0.86942244560E+01  0.23617551875E+02  0.11507350209E+03  0.41800000000E+01 0.  1.
        -11    1    3    3    0    0  0.44310333660E+02 -0.55208684364E+02 -0.18399343603E+03  0.19714205285E+03  0.00000000000E+00 0.  1.
         11    1    3    3    0    0  0.35072722973E+02  0.36121223593E+02 -0.81299042287E+02  0.95626214854E+02  0.00000000000E+00 0. -1.
</event>
<event>
 7    1  0.9181008E-006  0.1146128E+03  0.7561462E-02  0.1252259E+00
         -1   -1    0    0    0  501 -0.00000000000E+00  0.00000000000E+00  0.19005080727E+02  0.19005080727E+02  0.00000000000E+00 0.  1.
          1   -1    0    0  501    0  0.00000000000E+00 -0.00000000000E+00 -0.86435269407E+03  0.86435269407E+03  0.00000000000E+00 0. -1.
         23    2    1    2    0    0 -0.23671804990E+02  0.37406732623E+02 -0.24690665680E+03  0.26751474511E+03  0.92960333915E+02 0.  0.
          5    1    1    2  502    0  0.49806148672E+02 -0.71562530551E+02 -0.50994062793E+03  0.51735748244E+03  0.41800000000E+01 0. -1.
         -5    1    1    2    0  502 -0.26134343682E+02  0.34155797928E+02 -0.88500328614E+02  0.98485547247E+02  0.41800000000E+01 0.  1.
        -11    1    3    3    0    0  0.31748422435E+02  0.28365177981E+02 -0.70204481910E+02  0.82104901981E+02  0.00000000000E+00 0. -1.
         11    1    3    3    0    0 -0.55420227425E+02  0.90415546425E+01 -0.17670217489E+03  0.18540984313E+03  0.00000000000E+00 0.  1.
</event>
<event>
 8    1  0.9181008E-006  0.1033795E+03  0.7561462E-02  0.1273346E+00
         -1   -1    0    0    0  501 -0.00000000000E+00  0.00000000000E+00  0.52713298164E+03  0.52713298164E+03  0.00000000000E+00 0.  1.
          1   -1    0    0  501    0  0.00000000000E+00 -0.00000000000E+00 -0.21002593672E+02  0.21002593672E+02  0.00000000000E+00 0. -1.
         23    2    1    2    0    0  0.23056356039E+01 -0.62016327693E+01  0.22407973955E+03  0.24180772714E+03  0.90639235554E+02 0.  0.
         23    2    1    2    0    0 -0.23056356039E+01  0.62016327693E+01  0.28205064841E+03  0.30632784817E+03  0.11933317263E+03 0.  0.
          5    1    4    4  502    0  0.55545128898E+02  0.14058435734E+02  0.10280507065E+03  0.11776780507E+03  0.41800000000E+01 0. -1.
         -5    1    4    4    0  502 -0.57850764501E+02 -0.78568029647E+01  0.17924557776E+03  0.18856004310E+03  0.41800000000E+01 0.  1.
        -11    1    3    3    0    0 -0.32653161844E+02  0.27147571053E+02  0.11053951643E+03  0.11841538872E+03  0.00000000000E+00 0.  1.
         11    1    3    3    0    0  0.34958797448E+02 -0.33349203822E+02  0.11354022312E+03  0.12339233842E+03  0.00000000000E+00 0. -1.
</event>
<event>
 7    1  0.9181008E-006  0.1914404E+03  0.7561462E-02  0.1157169E+00
          3   -1    0    0  501    0  0.00000000000E+00  0.00000000000E+00  0.53327554714E+03  0.53327554714E+03  0.00000000000E+00 0. -1.
         -3   -1    0    0    0  501 -0.00000000000E+00 -0.00000000000E+00 -0.77210211675E+02  0.77210211675E+02  0.00000000000E+00 0.  1.
         23    2    1    2    0    0 -0.77040114748E+02  0.11334071971E+03  0.10249257992E+03  0.19172619410E+03  0.86445974704E+02 0.  0.
          5    1    1    2  502    0  0.49314432697E+02 -0.16098762599E+03  0.27963134310E+03  0.32643542920E+03  0.41800000000E+01 0. -1.
         -5    1    1    2    0  502  0.27725682050E+02  0.47646906284E+02  0.73941412452E+02  0.92324135517E+02  0.41800000000E+01 0.  1.
        -11    1    3    3    0    0 -0.57377814072E+02  0.15581746930E+02  0.21371440907E+02  0.63180241148E+02  0.00000000000E+00 0. -1.
         11    1    3    3    0    0 -0.19662300675E+02  0.97758972776E+02  0.81121139009E+02  0.12854595295E+03  0.00000000000E+00 0.  1.
</event>
<event>
 8    1  0.9181008E-006  0.1993963E+03  0.7561462E-02  0.1150249E+00
         -1   -1    0    0    0  501 -0.00000000000E+00  0.00000000000E+00  0.21246646879E+03  0.21246646879E+03  0.00000000000E+00 0.  1.
          1   -1    0    0  501    0  0.00000000000E+00 -0.00000000000E+00 -0.20817148996E+03  0.20817148996E+03  0.00000000000E+00 0. -1.
         23    2    1    2    0    0  0.10791598191E+03 -0.14204663946E+03  0.24151471969E+02  0.20185441008E+03  0.91317042981E+02 0.  0.
         23    2    1    2    0    0 -0.10791598191E+03  0.14204663946E+03 -0.19856493134E+02  0.21878354867E+03  0.12509537927E+03 0.  0.
          5    1    4    4  502    0 -0.98905359050E+02  0.16291555684E+03 -0.30978677256E+02  0.19313440800E+03  0.41800000000E+01 0.  1.
         -5    1    4    4    0  502 -0.90106228611E+01 -0.20868917385E+02  0.11122184122E+02  0.25649140664E+02  0.41800000000E+01 0.  1.
        -11    1    3    3    0    0  0.62407957901E+02 -0.11821276842E+03  0.51984623867E+02  0.14342737865E+03  0.00000000000E+00 0.  1.
         11    1    3    3    0    0  0.45508024010E+02 -0.23833871036E+02 -0.27833151897E+02  0.58427031436E+02  0.00000000000E+00 0. -1.
</event>
<event>
 8    1  0.9181008E-006  0.6408840E+02  0.7561462E-02  0.1381434E+00
         -1   -1    0    0    0  501 -0.00000000000E+00  0.00000000000E+00  0.11113186325E+03  0.11113186325E+03  0.00000000000E+00 0.  1.
          1   -1    0    0  501    0  0.00000000000E+00 -0.00000000000E+00 -0.11477535032E+03  0.11477535032E+03  0.00000000000E+00 0. -1.
         23    2    1    2    0    0 -0.34658029334E+01 -0.25988370730E+02 -0.22724296552E+02  0.96681250154E+02  0.90241139589E+02 0.  0.
         23    2    1    2    0    0  0.34658029334E+01  0.25988370730E+02  0.19080809486E+02  0.12922596342E+03  0.12509142707E+03 0.  0.
          5    1    4    4  502    0  0.34256005365E+02 -0.55817248517E+00  0.61373964761E+02  0.70413219004E+02  0.41800000000E+01 0.  1.
         -5    1    4    4    0  502 -0.30790202432E+02  0.26546543215E+02 -0.42293155275E+02  0.58812744414E+02  0.41800000000E+01 0.  1.
        -11    1    3    3    0    0 -0.24317002741E+02 -0.18804837846E+02 -0.51771888069E+02  0.60210189694E+02  0.00000000000E+00 0. -1.
         11    1    3    3    0    0  0.20851199808E+02 -0.71835328841E+01  0.29047591517E+02  0.36471060460E+02  0.00000000000E+00 0.  1.
</event>
<event>
 8    1  0.9181008E-006  0.9764190E+02  0.7561462E-02  0.1285334E+00
         -1   -1    0    0    0  501 -0.00000000000E+00  0.00000000000E+00  0.70420863089E+02  0.70420863089E+02  0.00000000000E+00 0.  1.
          1   -1    0    0  501    0  0.00000000000E+00 -0.00000000000E+00 -0.17323058218E+03  0.17323058218E+03  0.00000000000E+00 0. -1.
         23    2    1    2    0    0 -0.15799026798E+02  0.18983916396E+02 -0.50195900236E+02  0.10571662262E+03  0.89701602931E+02 0.  0.
         23    2    1    2    0    0  0.15799026798E+02 -0.18983916396E+02 -0.52613818858E+02  0.13793482265E+03  0.12509117889E+03 0.  0.
          5    1    4    4  502    0 -0.85682136614E+01  0.40112231641E+02  0.15853532578E+02  0.44172528881E+02  0.41800000000E+01 0. -1.
         -5    1    4    4    0  502  0.24367240459E+02 -0.59096148037E+02 -0.68467351436E+02  0.93762293771E+02  0.41800000000E+01 0. -1.
        -11    1    3    3    0    0  0.34410837622E+02 -0.42458675333E+01 -0.66323130539E+01  0.35300435031E+02  0.00000000000E+00 0. -1.
         11    1    3    3    0    0 -0.50209864420E+02  0.23229783930E+02 -0.43563587182E+02  0.70416187590E+02  0.00000000000E+00 0.  1.
</event>
<event>
 8    1  0.9181008E-006  0.1871273E+03  0.7561462E-02  0.1161078E+00
         -2   -1    0    0    0  501 -0.00000000000E+00  0.00000000000E+00  0.22410950512E+02  0.22410950512E+02  0.00000000000E+00 0. -1.
          2   -1    0    0  501    0  0.00000000000E+00 -0.00000000000E+00 -0.17819534951E+04  0.17819534951E+04  0.00000000000E+00 0.  1.
         23    2    1    2    0    0  0.52687414542E+02  0.14967039830E+03 -0.59457702438E+03  0.62200665207E+03  0.90516548289E+02 0.  0.
         23    2    1    2    0    0 -0.52687414542E+02 -0.14967039830E+03 -0.11649655202E+04  0.11823577936E+04  0.12509235351E+03 0.  0.
          5    1    4    4  502    0  0.28411177933E+02  0.32571800310E+01 -0.16750941395E+03  0.16998435344E+03  0.41800000000E+01 0. -1.
         -5    1    4    4    0  502 -0.81098592474E+02 -0.15292757834E+03 -0.99745610628E+03  0.10123734401E+04  0.41800000000E+01 0. -1.
        -11    1    3    3    0    0  0.51828142440E+02  0.48353390852E+02 -0.14824965597E+03  0.16432336185E+03  0.00000000000E+00 0. -1.
         11    1    3    3    0    0  0.85927210174E+00  0.10131700745E+03 -0.44632736841E+03  0.45768329022E+03  0.00000000000E+00 0.  1.
</event>
<event>
 8    1  0.9181008E-006  0.1107194E+03  0.7561462E-02  0.1259243E+00
          4   -1    0    0  501    0  0.00000000000E+00  0.00000000000E+00  0.72731478076E+02  0.72731478076E+02  0.00000000000E+00 0. -1.
         -4   -1    0    0    0  501 -0.00000000000E+00 -0.00000000000E+00 -0.27491696370E+03  0.27491696370E+03  0.00000000000E+00 0.  1.
         23    2    1    2    0    0  0.28443403134E+02  0.83324608209E+02 -0.13171767071E+03  0.17922873827E+03  0.83793665208E+02 0.  0.
         23    2    1    2    0    0 -0.28443403134E+02 -0.83324608209E+02 -0.70467814911E+02  0.16841970350E+03  0.12508983202E+03 0.  0.
          5    1    4    4  502    0 -0.11881369860E+02 -0.91372028346E+02 -0.98293170856E+02  0.13479256044E+03  0.41800000000E+01 0.  1.
         -5    1    4    4    0  502 -0.16562033275E+02  0.80474201374E+01  0.27825355945E+02  0.33627143062E+02  0.41800000000E+01 0.  1.
        -11    1    3    3    0    0  0.39597804168E+02  0.17047475551E+02 -0.17139949956E+02  0.46393753912E+02  0.00000000000E+00 0. -1.
         11    1    3    3    0    0 -0.11154401033E+02  0.66277132658E+02 -0.11457772075E+03  0.13283498436E+03  0.00000000000E+00 0.  1.
</event>
<event>
 8    1  0.9181008E-006  0.1261547E+03  0.7561462E-02  0.1233276E+00
          2   -1    0    0  501    0  0.00000000000E+00  0.00000000000E+00  0.53125254806E+03  0.53125254806E+03  0.00000000000E+00 0. -1.
         -2   -1    0    0    0  501 -0.00000000000E+00 -0.00000000000E+00 -0.30237251077E+02  0.30237251077E+02  0.00000000000E+00 0.  1.
         23    2    1    2    0    0 -0.22620061494E+02 -0.60269340152E+02  0.19641935411E+03  0.22597492044E+03  0.91323827430E+02 0.  0.
         23    2    1    2    0    0  0.22620061494E+02  0.60269340152E+02  0.30459594287E+03  0.33551487869E+03  0.12508990712E+03 0.  0.
          5    1    4    4  502    0  0.74681386750E+02  0.37897302377E+02  0.18377745029E+03  0.20200281852E+03  0.41800000000E+01 0. -1.
         -5    1    4    4    0  502 -0.52061325256E+02  0.22372037775E+02  0.12081849258E+03  0.13351206017E+03  0.41800000000E+01 0. -1.
        -11    1    3    3    0    0 -0.76454825104E+01  0.24444639155E+02  0.49019436294E+02  0.55307313447E+02  0.00000000000E+00 0. -1.
         11    1    3    3    0    0 -0.14974578983E+02 -0.84713979307E+02  0.14739991782E+03  0.17066760700E+03  0.00000000000E+00 0.  1.
</event>
<event>
 8    1  0.9181008E-006  0.1313809E+03  0.7561462E-02  0.1225421E+00
          2   -1    0    0  501    0  0.00000000000E+00  0.00000000000E+00  0.31463866477E+03  0.31463866477E+03  0.00000000000E+00 0. -1.
         -2   -1    0    0    0  501 -0.00000000000E+00 -0.00000000000E+00 -0.67183292348E+02  0.67183292348E+02  0.00000000000E+00 0.  1.
         23    2    1    2    0    0 -0.53125268169E+02  0.58974408520E+02  0.17267701583E+03  0.21587161537E+03  0.10238616873E+03 0.  0.
         23    2    1    2    0    0  0.53125268169E+02 -0.58974408520E+02  0.74778356590E+02  0.16595034175E+03  0.12508972114E+03 0.  0.
          5    1    4    4  502    0 -0.23055216939E+02 -0.65189854179E+02  0.20951199122E+02  0.72371854064E+02  0.41800000000E+01 0. -1.
         -5    1    4    4    0  502  0.76180485108E+02  0.62154456594E+01  0.53827157468E+02  0.93578487684E+02  0.41800000000E+01 0. -1.
        -11    1    3    3    0    0  0.22642774322E+02  0.25517211846E+02  0.10007415591E+03  0.10572918240E+03  0.00000000000E+00 0. -1.
         11    1    3    3    0    0 -0.75768042491E+02  0.33457196674E+02  0.72602859922E+02  0.11014243297E+03  0.00000000000E+00 0.  1.
</event>
<event>
 8    1  0.9181008E-006  0.1240491E+03  0.7561462E-02  0.1236563E+00
         -2   -1    0    0    0  501 -0.00000000000E+00  0.00000000000E+00  0.22424436107E+03  0.22424436107E+03  0.00000000000E+00 0.  1.
          2   -1    0    0  501    0  0.00000000000E+00 -0.00000000000E+00 -0.89454375769E+02  0.89454375769E+02  0.00000000000E+00 0. -1.
         23    2    1    2    0    0 -0.91674432210E+02  0.25247503047E+02  0.64232499740E+02  0.14145549245E+03  0.82717618376E+02 0.  0.
         23    2    1    2    0    0  0.91674432210E+02 -0.25247503047E+02  0.70557485557E+02  0.17224324439E+03  0.12509092108E+03 0.  0.
          5    1    4    4  502    0  0.79801429506E+02 -0.70075811211E+02  0.66792556184E+02  0.12552930108E+03  0.41800000000E+01 0. -1.
         -5    1    4    4    0  502  0.11873002704E+02  0.44828308164E+02  0.37649293725E+01  0.46713943307E+02  0.41800000000E+01 0. -1.
        -11    1    3    3    0    0 -0.34498550664E+02  0.12322967315E+02  0.73486239783E+02  0.82111101313E+02  0.00000000000E+00 0.  1.
         11    1    3    3    0    0 -0.57175881546E+02  0.12924535732E+02 -0.92537400431E+01  0.59344391135E+02  0.00000000000E+00 0. -1.
</event>
<event>
 8    1  0.9181008E-006  0.1540643E+03  0.7561462E-02  0.1195566E+00
         -2   -1    0    0    0  501 -0.00000000000E+00  0.00000000000E+00  0.35360678590E+02  0.35360678590E+02  0.00000000000E+00 0.  1.
          2   -1    0    0  501    0  0.00000000000E+00 -0.00000000000E+00 -0.77421068216E+03  0.77421068216E+03  0.00000000000E+00 0. -1.
         23    2    1    2    0    0  0.30681905539E+01  0.12332179685E+03 -0.37436550723E+03  0.40495481574E+03  0.92850365712E+02 0.  0.
         23    2    1    2    0    0 -0.30681905539E+01 -0.12332179685E+03 -0.36448449634E+03  0.40461654501E+03  0.12509165061E+03 0.  0.
          5    1    4    4  502    0 -0.45205074636E+02 -0.22106127846E+01 -0.12364861810E+03  0.13173776505E+03  0.41800000000E+01 0.  1.
         -5    1    4    4    0  502  0.42136884082E+02 -0.12111118407E+03 -0.24083587824E+03  0.27287877996E+03  0.41800000000E+01 0.  1.
        -11    1    3    3    0    0 -0.25117944763E+02  0.54667044025E+02 -0.27165546906E+03  0.27823747181E+03  0.00000000000E+00 0.  1.
         11    1    3    3    0    0  0.28186135316E+02  0.68654752830E+02 -0.10271003818E+03  0.12671734393E+03  0.00000000000E+00 0. -1.
</event>
<event>
 8    1  0.9181008E-006  0.1460284E+03  0.7561462E-02  0.1205440E+00
         -2   -1    0    0    0  501 -0.00000000000E+00  0.00000000000E+00  0.41948432362E+02  0.41948432362E+02  0.00000000000E+00 0.  1.
          2   -1    0    0  501    0  0.00000000000E+00 -0.00000000000E+00 -0.63137715619E+03  0.63137715619E+03  0.00000000000E+00 0. -1.
         23    2    1    2    0    0 -0.11757756680E+03 -0.97640518232E+01 -0.24648305774E+03  0.28968768602E+03  0.96152154204E+02 0.  0.
         23    2    1    2    0    0  0.11757756680E+03  0.97640518232E+01 -0.34294566609E+03  0.38363790253E+03  0.12508592826E+03 0.  0.
          5    1    4    4  502    0  0.77885606714E+02 -0.46239065358E+02 -0.26295675007E+03  0.27815093692E+03  0.41800000000E+01 0. -1.
         -5    1    4    4    0  502  0.39691960082E+02  0.56003117181E+02 -0.79988916015E+02  0.10548696561E+03  0.41800000000E+01 0. -1.
        -11    1    3    3    0    0 -0.72375724010E+02  0.23936694053E+02 -0.20771910001E+03  0.22126553111E+03  0.00000000000E+00 0. -1.
         11    1    3    3    0    0 -0.45201842786E+02 -0.33700745876E+02 -0.38763957728E+02  0.68422154910E+02  0.00000000000E+00 0.  1.
</event>
<event>
 8    1  0.9181008E-006  0.7376980E+02  0.7561462E-02  0.1347723E+00
          2   -1    0    0  501    0  0.00000000000E+00  0.00000000000E+00  0.64640899487E+03  0.64640899487E+03  0.00000000000E+00 0. -1.
         -2   -1    0    0    0  501 -0.00000000000E+00 -0.00000000000E+00 -0.20049844952E+02  0.20049844952E+02  0.00000000000E+00 0.  1.
         23    2    1    2    0    0  0.32436802894E+02 -0.12277623463E+02  0.25541772275E+03  0.27345985658E+03  0.91319186617E+02 0.  0.
         23    2    1    2    0    0 -0.32436802894E+02  0.12277623463E+02  0.37094142717E+03  0.39299898324E+03  0.12509105572E+03 0.  0.
          5    1    4    4  502    0 -0.51224940337E+02  0.14534810547E+02  0.36974489325E+03  0.37358267320E+03  0.41800000000E+01 0. -1.
         -5    1    4    4    0  502  0.18788137444E+02 -0.22571870838E+01  0.11965339113E+01  0.19416310039E+02  0.41800000000E+01 0. -1.
        -11    1    3    3    0    0  0.44141736470E+01 -0.37071046384E+02  0.21564814323E+03  0.21885581803E+03  0.00000000000E+00 0. -1.
         11    1    3    3    0    0  0.28022629247E+02  0.24793422921E+02  0.39769579524E+02  0.54604038546E+02  0.00000000000E+00 0.  1.
</event>
<event>
 8    1  0.9181008E-006  0.1289043E+03  0.7561462E-02  0.1229091E+00
         -2   -1    0    0    0  501 -0.00000000000E+00  0.00000000000E+00  0.54261309654E+02  0.54261309654E+02  0.00000000000E+00 0. -1.
          2   -1    0    0  501    0  0.00000000000E+00 -0.00000000000E+00 -0.31322422006E+03  0.31322422006E+03  0.00000000000E+00 0.  1.
         23    2    1    2    0    0 -0.32641112942E+02 -0.60260907974E+02 -0.93263399558E+02  0.14885335929E+03  0.93607914153E+02 0.  0.
         23    2    1    2    0    0  0.32641112942E+02  0.60260907974E+02 -0.16569951085E+03  0.21863217042E+03  0.12508748444E+03 0.  0.
          5    1    4    4  502    0  0.38921583560E+02 -0.31562196939E+02 -0.64304642537E+02  0.81631007553E+02  0.41800000000E+01 0.  1.
         -5    1    4    4    0  502 -0.62804706171E+01  0.91823104913E+02 -0.10139486831E+03  0.13700116287E+03  0.41800000000E+01 0.  1.
        -11    1    3    3    0    0  0.30531979015E+02 -0.37236476429E+02 -0.46596435135E+02  0.67007348005E+02  0.00000000000E+00 0.  1.
         11    1    3    3    0    0 -0.63173091958E+02 -0.23024431546E+02 -0.46666964423E+02  0.81846011289E+02  0.00000000000E+00 0. -1.
</event>
<event>
 8    1  0.9181008E-006  0.1014035E+03  0.7561462E-02  0.1277372E+00
          1   -1    0    0  501    0  0.00000000000E+00  0.00000000000E+00  0.49470228783E+02  0.49470228783E+02  0.00000000000E+00 0. -1.
         -1   -1    0    0    0  501 -0.00000000000E+00 -0.00000000000E+00 -0.24496272820E+03  0.24496272820E+03  0.00000000000E+00 0.  1.
         23    2    1    2    0    0  0.20117367911E+02 -0.70742273496E+01 -0.73218723508E+02  0.11821360447E+03  0.90325642129E+02 0.  0.
         23    2    1    2    0    0 -0.20117367911E+02  0.70742273496E+01 -0.12227377591E+03  0.17621935251E+03  0.12509049021E+03 0.  0.
          5    1    4    4  502    0 -0.50518815684E+02 -0.32647633152E+02 -0.22180780330E+02  0.64245452015E+02  0.41800000000E+01 0.  1.
         -5    1    4    4    0  502  0.30401447774E+02  0.39721860501E+02 -0.10009299557E+03  0.11197390049E+03  0.41800000000E+01 0.  1.
        -11    1    3    3    0    0  0.29325332990E+02  0.37044829035E+02 -0.43539766555E+02  0.64249558636E+02  0.00000000000E+00 0. -1.
         11    1    3    3    0    0 -0.92079650799E+01 -0.44119056385E+02 -0.29678956953E+02  0.53964045836E+02  0.00000000000E+00 0.  1.
</event>
<event>
 8    1  0.9181008E-006  0.1455193E+03  0.7561462E-02  0.1206089E+00
          1   -1    0    0  501    0  0.00000000000E+00  0.00000000000E+00  0.85455899864E+02  0.85455899864E+02  0.00000000000E+00 0. -1.
         -1   -1    0    0    0  501 -0.00000000000E+00 -0.00000000000E+00 -0.38952448449E+03  0.38952448449E+03  0.00000000000E+00 0.  1.
         23    2    1    2    0    0  0.59017276552E+02  0.10020934130E+03 -0.25990697546E+03  0.29856569670E+03  0.89804723356E+02 0.  0.
         23    2    1    2    0    0 -0.59017276552E+02 -0.10020934130E+03 -0.44161609162E+02  0.17641468765E+03  0.12508774233E+03 0.  0.
          5    1    4    4  502    0 -0.84739009437E+02 -0.11048713964E+03 -0.49615670681E+02  0.14787594437E+03  0.41800000000E+01 0. -1.
         -5    1    4    4    0  502  0.25721732884E+02  0.10277798336E+02  0.54540615190E+01  0.28538743285E+02  0.41800000000E+01 0. -1.
        -11    1    3    3    0    0  0.49037520585E+02  0.10237183467E+03 -0.26415119018E+03  0.28750742987E+03  0.00000000000E+00 0.  1.
         11    1    3    3    0    0  0.99797559674E+01 -0.21624933710E+01  0.42442147142E+01  0.11058266830E+02  0.00000000000E+00 0. -1.
</event>
<event>
 8    1  0.9181008E-006  0.4701802E+02  0.7561462E-02  0.1462123E+00
         -1   -1    0    0    0  501 -0.00000000000E+00  0.00000000000E+00  0.98352209895E+02  0.98352209895E+02  0.00000000000E+00 0.  1.
          1   -1    0    0  501    0  0.00000000000E+00 -0.00000000000E+00 -0.14352833472E+03  0.14352833472E+03  0.00000000000E+00 0. -1.
         23    2    1    2    0    0 -0.20129844910E+02  0.35992851883E+01  0.25204185003E+02  0.96931168774E+02  0.91335836495E+02 0.  0.
         23    2    1    2    0    0  0.20129844910E+02 -0.35992851883E+01 -0.70380309823E+02  0.14494937584E+03  0.12505506001E+03 0.  0.
          5    1    4    4  502    0  0.42886007481E+01 -0.11925943726E+02  0.35271175437E+02  0.37711383518E+02  0.41800000000E+01 0.  1.
         -5    1    4    4    0  502  0.15841244162E+02  0.83266585375E+01 -0.10565148526E+03  0.10723799232E+03  0.41800000000E+01 0.  1.
        -11    1    3    3    0    0  0.20642348318E+02  0.59207397850E+01  0.46247479299E+02  0.50990107327E+02  0.00000000000E+00 0.  1.
         11    1    3    3    0    0 -0.40772193227E+02 -0.23214545967E+01 -0.21043294296E+02  0.45941061447E+02  0.00000000000E+00 0. -1.
</event>
<event>
 7    1  0.9181008E-006  0.1587256E+03  0.7561462E-02  0.1190143E+00
         -1   -1    0    0    0  501 -0.00000000000E+00  0.00000000000E+00  0.79277169111E+02  0.79277169111E+02  0.00000000000E+00 0.  1.
          1   -1    0    0  501    0  0.00000000000E+00 -0.00000000000E+00 -0.42137810264E+03  0.42137810264E+03  0.00000000000E+00 0. -1.
         23    2    1    2    0    0  0.10782294583E+03 -0.64697691281E+02 -0.68287318853E+02  0.16761979093E+03  0.87302104731E+02 0.  0.
          5    1    1    2  502    0 -0.69948769467E+02  0.93509284942E+02 -0.25712872672E+03  0.28243489733E+03  0.41800000000E+01 0. -1.
         -5    1    1    2    0  502 -0.37874176362E+02 -0.28811593661E+02 -0.16684887952E+02  0.50600583498E+02  0.41800000000E+01 0.  1.
        -11    1    3    3    0    0  0.63875785709E+02  0.11465034338E+02 -0.33749165984E+02  0.73147585175E+02  0.00000000000E+00 0. -1.
         11    1    3    3    0    0  0.43947160120E+02 -0.76162725619E+02 -0.34538152869E+02  0.94472205753E+02  0.00000000000E+00 0.  1.
</event>
<event>
 8    1  0.9181008E-006  0.1547468E+03  0.7561462E-02  0.1194759E+00
         -1   -1    0    0    0  501 -0.00000000000E+00  0.00000000000E+00  0.20186740466E+02  0.20186740466E+02  0.00000000000E+00 0.  1.
          1   -1    0    0  501    0  0.00000000000E+00 -0.00000000000E+00 -0.15594149705E+04  0.15594149705E+04  0.00000000000E+00 0. -1.
         23    2    1    2    0    0  0.19101768263E+02 -0.13352530652E+03 -0.53474535935E+03  0.55841364635E+03  0.87631706906E+02 0.  0.
         23    2    1    2    0    0 -0.19101768263E+02  0.13352530652E+03 -0.10044828707E+04  0.10211880647E+04  0.12508133666E+03 0.  0.
          5    1    4    4  502    0 -0.39367249428E+02  0.54145615540E+02 -0.76717841419E+03  0.77010500557E+03  0.41800000000E+01 0.  1.
         -5    1    4    4    0  502  0.20265481165E+02  0.79379690976E+02 -0.23730445654E+03  0.25108305908E+03  0.41800000000E+01 0.  1.
        -11    1    3    3    0    0  0.57509883641E+00  0.12840345554E+02 -0.32553386813E+02  0.34998974351E+02  0.00000000000E+00 0. -1.
         11    1    3    3    0    0  0.18526669426E+02 -0.14636565207E+03 -0.50219197253E+03  0.52341467200E+03  0.00000000000E+00 0.  1.
</event>
<event>
 8    1  0.9181008E-006  0.1948478E+03  0.7561462E-02  0.1154160E+00
          2   -1    0    0  501    0  0.00000000000E+00  0.00000000000E+00  0.46408078882E+03  0.46408078882E+03  0.00000000000E+00 0. -1.
         -2   -1    0    0    0  501 -0.00000000000E+00 -0.00000000000E+00 -0.89285730406E+02  0.89285730406E+02  0.00000000000E+00 0.  1.
         23    2    1    2    0    0  0.10662741118E+03  0.13492277170E+03  0.17762654417E+03  0.26337285230E+03  0.90777260351E+02 0.  0.
         23    2    1    2    0    0 -0.10662741118E+03 -0.13492277170E+03  0.19716851424E+03  0.28999366692E+03  0.12508934690E+03 0.  0.
          5    1    4    4  502    0 -0.36961005328E+02 -0.12528607849E+03  0.17012215188E+03  0.21452677301E+03  0.41800000000E+01 0.  1.
         -5    1    4    4    0  502 -0.69666405849E+02 -0.96366932171E+01  0.27046362361E+02  0.75466893915E+02  0.41800000000E+01 0.  1.
        -11    1    3    3    0    0  0.25605597152E+02  0.94687131687E+02  0.12437861829E+03  0.15840246273E+03  0.00000000000E+00 0. -1.
         11    1    3    3    0    0  0.81021814025E+02  0.40235640015E+02  0.53247925886E+02  0.10497038957E+03  0.00000000000E+00 0.  1.
</event>
<event>
 8    1  0.9181008E-006  0.7963215E+02  0.7561462E-02  0.1330099E+00
         -2   -1    0    0    0  501 -0.00000000000E+00  0.00000000000E+00  0.12104851689E+02  0.12104851689E+02  0.00000000000E+00 0. -1.
          2   -1    0    0  501    0  0.00000000000E+00 -0.00000000000E+00 -0.10484579997E+04  0.10484579997E+04  0.00000000000E+00 0.  1.
         23    2    1    2    0    0  0.18856774259E+02  0.64037684566E+01 -0.33297510239E+03  0.34586897979E+03  0.91413052607E+02 0.  0.
         23    2    1    2    0    0 -0.18856774259E+02 -0.64037684566E+01 -0.70337804559E+03  0.71469387157E+03  0.12510023519E+03 0.  0.
          5    1    4    4  502    0 -0.58465824144E+01 -0.34389311240E+02 -0.66186733411E+03  0.66279910050E+03  0.41800000000E+01 0. -1.
         -5    1    4    4    0  502 -0.13010191845E+02  0.27985542783E+02 -0.41510711481E+02  0.51894771070E+02  0.41800000000E+01 0. -1.
        -11    1    3    3    0    0 -0.17335865492E+02 -0.34354146626E+02 -0.15689832358E+03  0.16154820818E+03  0.00000000000E+00 0.  1.
         11    1    3    3    0    0  0.36192639751E+02  0.40757915083E+02 -0.17607677881E+03  0.18432077162E+03  0.00000000000E+00 0. -1.
</event>
<event>
 8    1  0.9181008E-006  0.1135829E+03  0.7561462E-02  0.1254075E+00
         -1   -1    0    0    0  501 -0.00000000000E+00  0.00000000000E+00  0.61638497099E+02  0.61638497099E+02  0.00000000000E+00 0.  1.
          1   -1    0    0  501    0  0.00000000000E+00 -0.00000000000E+00 -0.21373409038E+03  0.21373409038E+03  0.00000000000E+00 0. -1.
         23    2    1    2    0    0 -0.29960465484E+02  0.24829268418E+02 -0.65446586839E+02  0.11830969871E+03  0.90552785808E+02 0.  0.
         23    2    1    2    0    0  0.29960465484E+02 -0.24829268418E+02 -0.86649006446E+02  0.15706288877E+03  0.12508628482E+03 0.  0.
          5    1    4    4  502    0  0.69691277682E+02 -0.48070037992E+02 -0.54912728952E+02  0.10099744026E+03  0.41800000000E+01 0.  1.
         -5    1    4    4    0  502 -0.39730812198E+02  0.23240769573E+02 -0.31736277494E+02  0.56065448517E+02  0.41800000000E+01 0.  1.
        -11    1    3    3    0    0 -0.34970929829E+02 -0.26956839445E+02 -0.17301230809E+02  0.47423303486E+02  0.00000000000E+00 0.  1.
         11    1    3    3    0    0  0.50104643448E+01  0.51786107863E+02 -0.48145356030E+02  0.70886395224E+02  0.00000000000E+00 0. -1.
</event>
<event>
 8    1  0.9181008E-006  0.1355560E+03  0.7561462E-02  0.1219437E+00
         -2   -1    0    0    0  501 -0.00000000000E+00  0.00000000000E+00  0.17426443726E+03  0.17426443726E+03  0.00000000000E+00 0. -1.
          2   -1    0    0  501    0  0.00000000000E+00 -0.00000000000E+00 -0.14204904301E+03  0.14204904301E+03  0.00000000000E+00 0.  1.
         23    2    1    2    0    0 -0.70587113371E+02 -0.63523647108E+02  0.77902017705E+02  0.15275705195E+03  0.90819591737E+02 0.  0.
         23    2    1    2    0    0  0.70587113371E+02  0.63523647108E+02 -0.45686623454E+02  0.16355642832E+03  0.12508254621E+03 0.  0.
          5    1    4    4  502    0  0.64092913301E+01 -0.33129927121E+02 -0.31938134774E+02  0.46649629572E+02  0.41800000000E+01 0. -1.
         -5    1    4    4    0  502  0.64177822041E+02  0.96653574229E+02 -0.13748488680E+02  0.11690679875E+03  0.41800000000E+01 0. -1.
        -11    1    3    3    0    0 -0.57971755889E+02 -0.80909141861E+02  0.36318035865E+02  0.10595288314E+03  0.00000000000E+00 0.  1.
         11    1    3    3    0    0 -0.12615357482E+02  0.17385494754E+02  0.41583981841E+02  0.46804168810E+02  0.00000000000E+00 0. -1.
</event>
<event>
 8    1  0.9181008E-006  0.9876371E+02  0.7561462E-02  0.1282917E+00
         -1   -1    0    0    0  501 -0.00000000000E+00  0.00000000000E+00  0.35757574947E+02  0.35757574947E+02  0.00000000000E+00 0.  1.
          1   -1    0    0  501    0  0.00000000000E+00 -0.00000000000E+00 -0.54077470829E+03  0.54077470829E+03  0.00000000000E+00 0. -1.
         23    2    1    2    0    0  0.39318033276E+02 -0.53795164031E+02 -0.11851018334E+03  0.16485854580E+03  0.93240812697E+02 0.  0.
         23    2    1    2    0    0 -0.39318033276E+02  0.53795164031E+02 -0.38650695000E+03  0.41167373744E+03  0.12509123185E+03 0.  0.
          5    1    4    4  502    0 -0.10103709633E+02  0.66341140222E+02 -0.84579652636E+02  0.10804823865E+03  0.41800000000E+01 0.  1.
         -5    1    4    4    0  502 -0.29214323642E+02 -0.12545976191E+02 -0.30192729737E+03  0.30362549880E+03  0.41800000000E+01 0.  1.
        -11    1    3    3    0    0  0.31751539736E+01  0.17768846748E+02  0.39604503101E+01  0.18479683011E+02  0.00000000000E+00 0.  1.
         11    1    3    3    0    0  0.36142879302E+02 -0.71564010780E+02 -0.12247063365E+03  0.14637886279E+03  0.00000000000E+00 0. -1.
</event>
<event>
 8    1  0.9181008E-006  0.1820467E+03  0.7561462E-02  0.1165837E+00
          2   -1    0    0  501    0  0.00000000000E+00  0.00000000000E+00  0.10880327007E+04  0.10880327007E+04  0.00000000000E+00 0. -1.
         -2   -1    0    0    0  501 -0.00000000000E+00 -0.00000000000E+00 -0.36381895563E+02  0.36381895563E+02  0.00000000000E+00 0.  1.
         23    2    1    2    0    0 -0.15781826358E+03  0.44671221076E+02  0.42597590080E+03  0.46561354788E+03  0.91860685790E+02 0.  0.
         23    2    1    2    0    0  0.15781826358E+03 -0.44671221076E+02  0.62567490438E+03  0.65880104843E+03  0.12509041981E+03 0.  0.
          5    1    4    4  502    0  0.45009695605E+02  0.17672764685E+02  0.53335695402E+02  0.72113577876E+02  0.41800000000E+01 0.  1.
         -5    1    4    4    0  502  0.11280856798E+03 -0.62343985762E+02  0.57233920898E+03  0.58668747055E+03  0.41800000000E+01 0.  1.
        -11    1    3    3    0    0 -0.70068976742E+01 -0.20980074640E+02  0.34433217299E+02  0.40925622787E+02  0.00000000000E+00 0.  1.
         11    1    3    3    0    0 -0.15081136591E+03  0.65651295716E+02  0.39154268350E+03  0.42468792509E+03  0.00000000000E+00 0. -1.
</event>
<event>
 8    1  0.9181008E-006  0.9136846E+02  0.7561462E-02  0.1299571E+00
         -3   -1    0    0    0  501 -0.00000000000E+00  0.00000000000E+00  0.66040938888E+02  0.66040938888E+02  0.00000000000E+00 0.  1.
          3   -1    0    0  501    0  0.00000000000E+00 -0.00000000000E+00 -0.22800168563E+03  0.22800168563E+03  0.00000000000E+00 0. -1.
         23    2    1    2    0    0 -0.51933301593E+02 -0.23125579015E+02 -0.66864031713E+02  0.12694136441E+03  0.91713963175E+02 0.  0.
         23    2    1    2    0    0  0.51933301593E+02  0.23125579015E+02 -0.95096715032E+02  0.16710126011E+03  0.12509031019E+03 0.  0.
          5    1    4    4  502    0  0.49361876302E+02 -0.95704340495E+01 -0.11701805652E+03  0.12743188766E+03  0.41800000000E+01 0.  1.
         -5    1    4    4    0  502  0.25714252905E+01  0.32696013064E+02  0.21921341490E+02  0.39669372456E+02  0.41800000000E+01 0.  1.
        -11    1    3    3    0    0 -0.71097224412E+02 -0.32160997579E+02 -0.28423048065E+02  0.83048267565E+02  0.00000000000E+00 0.  1.
         11    1    3    3    0    0  0.19163922819E+02  0.90354185649E+01 -0.38440983648E+02  0.43893096841E+02  0.00000000000E+00 0. -1.
</event>
<event>
 8    1  0.9181008E-006  0.1144982E+03  0.7561462E-02  0.1252459E+00
          2   -1    0    0  501    0  0.00000000000E+00  0.00000000000E+00  0.24868087846E+03  0.24868087846E+03  0.00000000000E+00 0. -1.
         -2   -1    0    0    0  501 -0.00000000000E+00 -0.00000000000E+00 -0.71418449170E+02  0.71418449170E+02  0.00000000000E+00 0.  1.
         23    2    1    2    0    0 -0.57630590613E+01  0.63439198909E+02  0.28033125524E+02  0.11520835813E+03  0.91811572519E+02 0.  0.
         23    2    1    2    0    0  0.57630590613E+01 -0.63439198909E+02  0.14922930376E+03  0.20489096950E+03  0.12511266711E+03 0.  0.
          5    1    4    4  502    0  0.12745968217E+02 -0.10046936583E+03  0.11958941335E+03  0.15676623795E+03  0.41800000000E+01 0.  1.
         -5    1    4    4    0  502 -0.69829091559E+01  0.37030166923E+02  0.29639890415E+02  0.48124731547E+02  0.41800000000E+01 0.  1.
        -11    1    3    3    0    0 -0.19516471669E+02  0.71270889909E+02  0.49202411251E+02  0.88776740691E+02  0.00000000000E+00 0.  1.
         11    1    3    3    0    0  0.13753412607E+02 -0.78316909998E+01 -0.21169285727E+02  0.26431617439E+02  0.00000000000E+00 0. -1.
</event>
<event>
 8    1  0.9181008E-006  0.1331040E+03  0.7561462E-02  0.1222921E+00
          2   -1    0    0  501    0  0.00000000000E+00  0.00000000000E+00  0.14690619104E+03  0.14690619104E+03  0.00000000000E+00 0. -1.
         -2   -1    0    0    0  501 -0.00000000000E+00 -0.00000000000E+00 -0.16087221142E+03  0.16087221142E+03  0.00000000000E+00 0.  1.
         23    2    1    2    0    0 -0.28391673287E+02  0.85522096160E+02 -0.63087083270E+02  0.14597758095E+03  0.95965400130E+02 0.  0.
         23    2    1    2    0    0  0.28391673287E+02 -0.85522096160E+02  0.49121062891E+02  0.16180082150E+03  0.12508601431E+03 0.  0.
          5    1    4    4  502    0  0.71520987142E+02 -0.84455301957E+02  0.37492595868E+02  0.11692355099E+03  0.41800000000E+01 0. -1.
         -5    1    4    4    0  502 -0.43129313855E+02 -0.10667942029E+01  0.11628467024E+02  0.44877270514E+02  0.41800000000E+01 0. -1.
        -11    1    3    3    0    0  0.12064468699E+01  0.82336261642E+02 -0.77342241664E+02  0.11297140276E+03  0.00000000000E+00 0.  1.
         11    1    3    3    0    0 -0.29598120157E+02  0.31858345179E+01  0.14255158394E+02  0.33006178198E+02  0.00000000000E+00 0. -1.
</event>
<event>
 8    1  0.9181008E-006  0.1031058E+03  0.7561462E-02  0.1273897E+00
          2   -1    0    0  501    0  0.00000000000E+00  0.00000000000E+00  0.68330705236E+03  0.68330705236E+03  0.00000000000E+00 0. -1.
         -2   -1    0    0    0  501 -0.00000000000E+00 -0.00000000000E+00 -0.18598524313E+02  0.18598524313E+02  0.00000000000E+00 0.  1.
         23    2    1    2    0    0 -0.18447943289E+02  0.52629383122E+01  0.20888525281E+03  0.22885638762E+03  0.91510503136E+02 0.  0.
         23    2    1    2    0    0  0.18447943289E+02 -0.52629383122E+01  0.45582327524E+03  0.47304918905E+03  0.12503060377E+03 0.  0.
          5    1    4    4  502    0 -0.20885241123E+02  0.46380090946E+02  0.29810825755E+03  0.30244555172E+03  0.41800000000E+01 0.  1.
         -5    1    4    4    0  502  0.39333184412E+02 -0.51643029258E+02  0.15771501768E+03  0.17060363733E+03  0.41800000000E+01 0.  1.
        -11    1    3    3    0    0 -0.41969784072E+02  0.33264864063E+02  0.92766515555E+02  0.10711508000E+03  0.00000000000E+00 0.  1.
         11    1    3    3    0    0  0.23521840782E+02 -0.28001925751E+02  0.11611873725E+03  0.12174130762E+03  0.00000000000E+00 0. -1.
</event>
<event>
 8    1  0.9181008E-006  0.8105999E+02  0.7561462E-02  0.1326070E+00
         -3   -1    0    0    0  501 -0.00000000000E+00  0.00000000000E+00  0.34741508433E+02  0.34741508433E+02  0.00000000000E+00 0.  1.
          3   -1    0    0  501    0  0.00000000000E+00 -0.00000000000E+00 -0.52215283740E+03  0.52215283740E+03  0.00000000000E+00 0. -1.
         23    2    1    2    0    0  0.57241646487E+02 -0.20940885780E+02 -0.11239157967E+03  0.15689040465E+03  0.90926371856E+02 0.  0.
         23    2    1    2    0    0 -0.57241646487E+02  0.20940885780E+02 -0.37501974929E+03  0.40000394118E+03  0.12509282080E+03 0.  0.
          5    1    4    4  502    0 -0.16268429717E+02  0.27105925237E+02 -0.34994097670E+03  0.35139088287E+03  0.41800000000E+01 0. -1.
         -5    1    4    4    0  502 -0.40973216770E+02 -0.61650394567E+01 -0.25078772586E+02  0.48613058311E+02  0.41800000000E+01 0. -1.
        -11    1    3    3    0    0  0.65429882817E+02  0.71597271632E+00 -0.31255442259E+02  0.72515411143E+02  0.00000000000E+00 0.  1.
         11    1    3    3    0    0 -0.81882363308E+01 -0.21656858496E+02 -0.81136137415E+02  0.84374993504E+02  0.00000000000E+00 0. -1.
</event>
<event>
 8    1  0.9181008E-006  0.1973495E+03  0.7561462E-02  0.1151995E+00
          2   -1    0    0  501    0  0.00000000000E+00  0.00000000000E+00  0.25925416921E+04  0.25925416921E+04  0.00000000000E+00 0.  1.
         -2   -1    0    0    0  501 -0.00000000000E+00 -0.00000000000E+00 -0.23519088263E+02  0.23519088263E+02  0.00000000000E+00 0. -1.
         23    2    1    2    0    0  0.23627294722E+02 -0.17616900601E+03  0.54306839780E+03  0.57848094598E+03  0.90128532902E+02 0.  0.
         23    2    1    2    0    0 -0.23627294722E+02  0.17616900601E+03  0.20259542060E+04  0.20375798344E+04  0.12508944310E+03 0.  0.
          5    1    4    4  502    0  0.37601238197E+02  0.14144863288E+03  0.14252340471E+04  0.14327355409E+04  0.41800000000E+01 0. -1.
         -5    1    4    4    0  502 -0.61228532919E+02  0.34720373130E+02  0.60072015894E+03  0.60484429344E+03  0.41800000000E+01 0. -1.
        -11    1    3    3    0    0  0.15678580393E+02 -0.12600457520E+03  0.24330750903E+03  0.27444765403E+03  0.00000000000E+00 0. -1.
         11    1    3    3    0    0  0.79487143290E+01 -0.50164430813E+02  0.29976088877E+03  0.30403329196E+03  0.00000000000E+00 0.  1.
</event>
<event>
 8    1  0.9181008E-006  0.7840374E+02  0.7561462E-02  0.1333643E+00
          2   -1    0    0  501    0  0.00000000000E+00  0.00000000000E+00  0.69456001838E+02  0.69456001838E+02  0.00000000000E+00 0. -1.
         -2   -1    0    0    0  501 -0.00000000000E+00 -0.00000000000E+00 -0.17992808688E+03  0.17992808688E+03  0.00000000000E+00 0.  1.
         23    2    1    2    0    0  0.26838593070E+02  0.76870126119E+01 -0.54659567613E+02  0.10958851038E+03  0.90788617317E+02 0.  0.
         23    2    1    2    0    0 -0.26838593070E+02 -0.76870126119E+01 -0.55812517425E+02  0.13979557834E+03  0.12509343060E+03 0.  0.
          5    1    4    4  502    0 -0.17605663369E+02  0.23529195523E+02 -0.88578231180E+02  0.93419258526E+02  0.41800000000E+01 0. -1.
         -5    1    4    4    0  502 -0.92329297014E+01 -0.31216208134E+02  0.32765713756E+02  0.46376319810E+02  0.41800000000E+01 0. -1.
        -11    1    3    3    0    0 -0.10852721092E+01  0.46487764508E+02 -0.20415741170E+02  0.50784766928E+02  0.00000000000E+00 0.  1.
         11    1    3    3    0    0  0.27923865179E+02 -0.38800751896E+02 -0.34243826444E+02  0.58803743450E+02  0.00000000000E+00 0. -1.
</event>
<event>
 8    1  0.9181008E-006  0.7398081E+02  0.7561462E-02  0.1347056E+00
         -1   -1    0    0    0  501 -0.00000000000E+00  0.00000000000E+00  0.33489152152E+02  0.33489152152E+02  0.00000000000E+00 0.  1.
          1   -1    0    0  501    0  0.00000000000E+00 -0.00000000000E+00 -0.79509108116E+03  0.79509108116E+03  0.00000000000E+00 0. -1.
         23    2    1    2    0    0 -0.25606455640E+02  0.40344387206E+02 -0.78132729708E+02  0.13211667966E+03  0.95219396364E+02 0.  0.
         23    2    1    2    0    0  0.25606455640E+02 -0.40344387206E+02 -0.68346919930E+03  0.69646355365E+03  0.12509186633E+03 0.  0.
          5    1    4    4  502    0  0.42652001107E+02 -0.27701414818E+02 -0.66781775061E+03  0.66976457208E+03  0.41800000000E+01 0.  1.
         -5    1    4    4    0  502 -0.17045545467E+02 -0.12642972388E+02 -0.15651448697E+02  0.26698981579E+02  0.41800000000E+01 0.  1.
        -11    1    3    3    0    0  0.85997293992E+01 -0.10779576112E+02  0.15081753912E+02  0.20435603929E+02  0.00000000000E+00 0.  1.
         11    1    3    3    0    0 -0.34206185039E+02  0.51123963318E+02 -0.93214483620E+02  0.11168107573E+03  0.00000000000E+00 0. -1.
</event>
<event>
 8    1  0.9181008E-006  0.1066734E+03  0.7561462E-02  0.1266857E+00
         -1   -1    0    0    0  501 -0.00000000000E+00  0.00000000000E+00  0.88404644425E+02  0.88404644425E+02  0.00000000000E+00 0.  1.
          1   -1    0    0  501    0  0.00000000000E+00 -0.00000000000E+00 -0.17459548610E+03  0.17459548610E+03  0.00000000000E+00 0. -1.
         23    2    1    2    0    0 -0.12080968039E+02 -0.21683352843E+02  0.20013695980E+02  0.97039779432E+02  0.91651804053E+02 0.  0.
         23    2    1    2    0    0  0.12080968039E+02  0.21683352843E+02 -0.10620453766E+03  0.16596035109E+03  0.12508923510E+03 0.  0.
          5    1    4    4  502    0 -0.54471577243E+02 -0.34191146694E+01 -0.59047532169E+02  0.80516622679E+02  0.41800000000E+01 0.  1.
         -5    1    4    4    0  502  0.66552545282E+02  0.25102467512E+02 -0.47157005488E+02  0.85443728414E+02  0.41800000000E+01 0.  1.
        -11    1    3    3    0    0 -0.21286759210E+02  0.28927132622E+02  0.27262751456E+02  0.45090605855E+02  0.00000000000E+00 0.  1.
         11    1    3    3    0    0  0.92057911715E+01 -0.50610485465E+02 -0.72490554754E+01  0.51949173578E+02  0.00000000000E+00 0. -1.
</event>
<event>
 8    1  0.9181008E-006  0.1484948E+03  0.7561462E-02  0.1202335E+00
         -1   -1    0    0    0  501 -0.00000000000E+00  0.00000000000E+00  0.12446498136E+03  0.12446498136E+03  0.00000000000E+00 0.  1.
          1   -1    0    0  501    0  0.00000000000E+00 -0.00000000000E+00 -0.22676786599E+03  0.22676786599E+03  0.00000000000E+00 0. -1.
         23    2    1    2    0    0 -0.12309563692E+03 -0.32385916854E+00 -0.11619593175E+02  0.15368637883E+03  0.91278953643E+02 0.  0.
         23    2    1    2    0    0  0.12309563692E+03  0.32385916854E+00 -0.90683291453E+02  0.19754646852E+03  0.12509399331E+03 0.  0.
          5    1    4    4  502    0  0.10562807741E+03 -0.34381745306E+02 -0.10783376911E+03  0.15487087947E+03  0.41800000000E+01 0. -1.
         -5    1    4    4    0  502  0.17467559511E+02  0.34705604474E+02  0.17150477652E+02  0.42675589052E+02  0.41800000000E+01 0. -1.
        -11    1    3    3    0    0 -0.13576131584E+02  0.30154054369E+02 -0.21708980738E+02  0.39558288491E+02  0.00000000000E+00 0.  1.
         11    1    3    3    0    0 -0.10951950533E+03 -0.30477913537E+02  0.10089387563E+02  0.11412809034E+03  0.00000000000E+00 0. -1.
</event>
<event>
 8    1  0.9181008E-006  0.1908593E+03  0.7561462E-02  0.1157689E+00
         -2   -1    0    0    0  501 -0.00000000000E+00  0.00000000000E+00  0.11703295740E+03  0.11703295740E+03  0.00000000000E+00 0.  1.
          2   -1    0    0  501    0  0.00000000000E+00 -0.00000000000E+00 -0.43645084547E+03  0.43645084547E+03  0.00000000000E+00 0. -1.
         23    2    1    2    0    0  0.72997162841E+02  0.15490221580E+03 -0.33278858200E+02  0.19735238288E+03  0.92288668783E+02 0.  0.
         23    2    1    2    0    0 -0.72997162841E+02 -0.15490221580E+03 -0.28613902987E+03  0.35613141998E+03  0.12502304444E+03 0.  0.
          5    1    4    4  502    0  0.25238083822E+02 -0.13219767290E+02 -0.98449104252E+01  0.30432183351E+02  0.41800000000E+01 0.  1.
         -5    1    4    4    0  502 -0.98235246664E+02 -0.14168244851E+03 -0.27629411944E+03  0.32569923663E+03  0.41800000000E+01 0.  1.
        -11    1    3    3    0    0  0.38101684183E+02  0.24089172794E+02 -0.42097067146E+02  0.61678113183E+02  0.00000000000E+00 0.  1.
         11    1    3    3    0    0  0.34895478658E+02  0.13081304300E+03  0.88182089461E+01  0.13567426970E+03  0.00000000000E+00 0. -1.
</event>
<event>
 8    1  0.9181008E-006  0.1970723E+03  0.7561462E-02  0.1152233E+00
         -1   -1    0    0    0  501 -0.00000000000E+00  0.00000000000E+00  0.22195483231E+03  0.22195483231E+03  0.00000000000E+00 0.  1.
          1   -1    0    0  501    0  0.00000000000E+00 -0.00000000000E+00 -0.20721446852E+03  0.20721446852E+03  0.00000000000E+00 0. -1.
         23    2    1    2    0    0 -0.14865147386E+03  0.85355600552E+02  0.78005682987E+02  0.20773626415E+03  0.87673426051E+02 0.  0.
         23    2    1    2    0    0  0.14865147386E+03 -0.85355600552E+02 -0.63265319199E+02  0.22143303668E+03  0.12508896791E+03 0.  0.
          5    1    4    4  502    0  0.15391159579E+03 -0.31389693511E+02 -0.54677151470E+02  0.16637654723E+03  0.41800000000E+01 0.  1.
         -5    1    4    4    0  502 -0.52601219219E+01 -0.53965907040E+02 -0.85881677282E+01  0.55056489447E+02  0.41800000000E+01 0.  1.
        -11    1    3    3    0    0 -0.12840493361E+03  0.42544971935E+02  0.26633851300E+02  0.13786683302E+03  0.00000000000E+00 0. -1.
         11    1    3    3    0    0 -0.20246540255E+02  0.42810628616E+02  0.51371831687E+02  0.69869431124E+02  0.00000000000E+00 0.  1.
</event>
<event>
 8    1  0.9181008E-006  0.9593445E+02  0.7561462E-02  0.1289085E+00
         -1   -1    0    0    0  501 -0.00000000000E+00  0.00000000000E+00  0.45368162835E+03  0.45368162835E+03  0.00000000000E+00 0.  1.
          1   -1    0    0  501    0  0.00000000000E+00 -0.00000000000E+00 -0.23995435068E+02  0.23995435068E+02  0.00000000000E+00 0. -1.
         23    2    1    2    0    0 -0.16381769275E+02 -0.31036587867E+01  0.24135776469E+03  0.25836814744E+03  0.90678189059E+02 0.  0.
         23    2    1    2    0    0  0.16381769275E+02  0.31036587867E+01  0.18832842859E+03  0.21930891598E+03  0.11113419164E+03 0.  0.
          5    1    4    4  502    0  0.19255468799E+02  0.50896900466E+02  0.54575683621E+02  0.77183192461E+02  0.41800000000E+01 0. -1.
         -5    1    4    4    0  502 -0.28736995239E+01 -0.47793241680E+02  0.13375274497E+03  0.14212572352E+03  0.41800000000E+01 0.  1.
        -11    1    3    3    0    0  0.36368121652E+02 -0.28399436314E+01  0.13207515824E+03  0.13702026484E+03  0.00000000000E+00 0.  1.
         11    1    3    3    0    0 -0.52749890927E+02 -0.26371515535E+00  0.10928260645E+03  0.12134788260E+03  0.00000000000E+00 0. -1.
</event>
<event>
 8    1  0.9181008E-006  0.1442305E+03  0.7561462E-02  0.1207747E+00
          2   -1    0    0  501    0  0.00000000000E+00  0.00000000000E+00  0.18183835071E+04  0.18183835071E+04  0.00000000000E+00 0. -1.
         -2   -1    0    0    0  501 -0.00000000000E+00 -0.00000000000E+00 -0.15492175547E+02  0.15492175547E+02  0.00000000000E+00 0.  1.
         23    2    1    2    0    0  0.24916725048E+02  0.11452883671E+03  0.57454329925E+03  0.59362352456E+03  0.92472636871E+02 0.  0.
         23    2    1    2    0    0 -0.24916725048E+02 -0.11452883671E+03  0.12283480323E+04  0.12402521581E+04  0.12509528191E+03 0.  0.
          5    1    4    4  502    0  0.26835807255E+02 -0.10553127247E+02  0.63279094510E+03  0.63346142869E+03  0.41800000000E+01 0.  1.
         -5    1    4    4    0  502 -0.51752532303E+02 -0.10397570947E+03  0.59555708722E+03  0.60679072941E+03  0.41800000000E+01 0.  1.
        -11    1    3    3    0    0  0.55195710955E+02  0.67847403661E+02  0.26332875232E+03  0.27747408616E+03  0.00000000000E+00 0.  1.
         11    1    3    3    0    0 -0.30278985907E+02  0.46681433052E+02  0.31121454693E+03  0.31614943840E+03  0.00000000000E+00 0. -1.
</event>
<event>
 8    1  0.9181008E-006  0.2296102E+03  0.7561462E-02  0.1126914E+00
         -1   -1    0    0    0  501 -0.00000000000E+00  0.00000000000E+00  0.42671227894E+02  0.42671227894E+02  0.00000000000E+00 0.  1.
          1   -1    0    0  501    0  0.00000000000E+00 -0.00000000000E+00 -0.16901343552E+04  0.16901343552E+04  0.00000000000E+00 0. -1.
         23    2    1    2    0    0  0.17323530199E+03  0.14266552048E+03 -0.48133208333E+03  0.53870728398E+03  0.90338490055E+02 0.  0.
         23    2    1    2    0    0 -0.17323530199E+03 -0.14266552048E+03 -0.11661310439E+04  0.11940982991E+04  0.12508083636E+03 0.  0.
          5    1    4    4  502    0 -0.12180669683E+03 -0.90379012033E+02 -0.46500074664E+03  0.48913025257E+03  0.41800000000E+01 0. -1.
         -5    1    4    4    0  502 -0.51428605159E+02 -0.52286508450E+02 -0.70113029730E+03  0.70496804650E+03  0.41800000000E+01 0. -1.
        -11    1    3    3    0    0  0.14630578042E+03  0.82149252540E+02 -0.27646961485E+03  0.32340273501E+03  0.00000000000E+00 0.  1.
         11    1    3    3    0    0  0.26929521570E+02  0.60516267942E+02 -0.20486246847E+03  0.21530454897E+03  0.00000000000E+00 0. -1.
</event>
<event>
 8    1  0.9181008E-006  0.8981264E+02  0.7561462E-02  0.1303306E+00
         -2   -1    0    0    0  501 -0.00000000000E+00  0.00000000000E+00  0.29067036124E+03  0.29067036124E+03  0.00000000000E+00 0.  1.
          2   -1    0    0  501    0  0.00000000000E+00 -0.00000000000E+00 -0.59383483603E+02  0.59383483603E+02  0.00000000000E+00 0. -1.
         23    2    1    2    0    0 -0.23298786748E+02 -0.25658700781E+02  0.18692460132E+03  0.21287770256E+03  0.95785736295E+02 0.  0.
         23    2    1    2    0    0  0.23298786748E+02  0.25658700781E+02  0.44362276312E+02  0.13717614228E+03  0.12509228618E+03 0.  0.
          5    1    4    4  502    0  0.22740140327E+02 -0.28465916072E+02  0.68549843620E+02  0.77743011391E+02  0.41800000000E+01 0. -1.
         -5    1    4    4    0  502  0.55864642151E+00  0.54124616853E+02 -0.24187567307E+02  0.59433130891E+02  0.41800000000E+01 0. -1.
        -11    1    3    3    0    0 -0.51697381392E+02 -0.30248817709E+02  0.16821732568E+03  0.17856281493E+03  0.00000000000E+00 0.  1.
         11    1    3    3    0    0  0.28398594644E+02  0.45901169283E+01  0.18707275638E+02  0.34314887628E+02  0.00000000000E+00 0. -1.
</event>
<event>
 8    1  0.9181008E-006  0.1576942E+03  0.7561462E-02  0.1191325E+00
          1   -1    0    0  501    0  0.00000000000E+00  0.00000000000E+00  0.12071791361E+04  0.12071791361E+04  0.00000000000E+00 0. -1.
         -1   -1    0    0    0  501 -0.00000000000E+00 -0.00000000000E+00 -0.25968224893E+02  0.25968224893E+02  0.00000000000E+00 0.  1.
         23    2    1    2    0    0 -0.11246779213E+03  0.70416546038E+02  0.41325742177E+03  0.44383902879E+03  0.92757170113E+02 0.  0.
         23    2    1    2    0    0  0.11246779213E+03 -0.70416546038E+02  0.76795348941E+03  0.78930833218E+03  0.12509031586E+03 0.  0.
          5    1    4    4  502    0  0.81280000826E+02  0.11041824552E+02  0.22807186985E+03  0.24241000524E+03  0.41800000000E+01 0. -1.
         -5    1    4    4    0  502  0.31187791303E+02 -0.81458370591E+02  0.53988161957E+03  0.54689832694E+03  0.41800000000E+01 0. -1.
        -11    1    3    3    0    0 -0.67166679026E+02  0.74665632346E+02  0.17941763263E+03  0.20561373087E+03  0.00000000000E+00 0.  1.
         11    1    3    3    0    0 -0.45301113103E+02 -0.42490863082E+01  0.23383978914E+03  0.23822529791E+03  0.00000000000E+00 0. -1.
</event>
<event>
 8    1  0.9181008E-006  0.9837856E+02  0.7561462E-02  0.1283743E+00
         -2   -1    0    0    0  501 -0.00000000000E+00  0.00000000000E+00  0.79784703689E+02  0.79784703689E+02  0.00000000000E+00 0.  1.
          2   -1    0    0  501    0  0.00000000000E+00 -0.00000000000E+00 -0.20151689845E+03  0.20151689845E+03  0.00000000000E+00 0. -1.
         23    2    1    2    0    0  0.49595816831E+02 -0.37718583327E+02 -0.34784069364E+02  0.11671047331E+03  0.92352404000E+02 0.  0.
         23    2    1    2    0    0 -0.49595816831E+02  0.37718583327E+02 -0.86948125398E+02  0.16459112883E+03  0.12509127309E+03 0.  0.
          5    1    4    4  502    0  0.32017292297E+02 -0.16533960887E+02 -0.46940941139E+01  0.36578488052E+02  0.41800000000E+01 0.  1.
         -5    1    4    4    0  502 -0.81613109128E+02  0.54252544214E+02 -0.82254031285E+02  0.12801264077E+03  0.41800000000E+01 0.  1.
        -11    1    3    3    0    0  0.37511688839E+02 -0.30218806559E+02  0.25686249622E+02  0.54590168429E+02  0.00000000000E+00 0.  1.
         11    1    3    3    0    0  0.12084127991E+02 -0.74997767685E+01 -0.60470318986E+02  0.62120304886E+02  0.00000000000E+00 0. -1.
</event>
<event>
 8    1  0.9181008E-006  0.8364910E+02  0.7561462E-02  0.1319004E+00
          2   -1    0    0  501    0  0.00000000000E+00  0.00000000000E+00  0.53178481914E+03  0.53178481914E+03  0.00000000000E+00 0. -1.
         -2   -1    0    0    0  501 -0.00000000000E+00 -0.00000000000E+00 -0.38734303720E+02  0.38734303720E+02  0.00000000000E+00 0.  1.
         23    2    1    2    0    0 -0.64068162978E+02  0.29931848130E+02  0.10013195202E+03  0.15214917964E+03  0.90123914754E+02 0.  0.
         23    2    1    2    0    0  0.64068162978E+02 -0.29931848130E+02  0.39291856339E+03  0.41836994321E+03  0.12509103439E+03 0.  0.
          5    1    4    4  502    0  0.57647824199E+01 -0.33762092563E+02  0.18028397090E+02  0.38930799019E+02  0.41800000000E+01 0.  1.
         -5    1    4    4    0  502  0.58303380558E+02  0.38302444328E+01  0.37489016630E+03  0.37943914419E+03  0.41800000000E+01 0.  1.
        -11    1    3    3    0    0 -0.46274187155E+02  0.32058597147E+02  0.11553412170E+03  0.12851920995E+03  0.00000000000E+00 0. -1.
         11    1    3    3    0    0 -0.17793975824E+02 -0.21267490169E+01 -0.15402169680E+02  0.23629969696E+02  0.00000000000E+00 0.  1.
</event>
<event>
 8    1  0.9181008E-006  0.9950919E+02  0.7561462E-02  0.1281331E+00
         -1   -1    0    0    0  501 -0.00000000000E+00  0.00000000000E+00  0.15653953900E+02  0.15653953900E+02  0.00000000000E+00 0.  1.
          1   -1    0    0  501    0  0.00000000000E+00 -0.00000000000E+00 -0.10206309885E+04  0.10206309885E+04  0.00000000000E+00 0. -1.
         23    2    1    2    0    0 -0.54247264577E+02  0.12327154456E+02 -0.30338700081E+03  0.32146305019E+03  0.90554381039E+02 0.  0.
         23    2    1    2    0    0  0.54247264577E+02 -0.12327154456E+02 -0.70159003377E+03  0.71482189219E+03  0.12508811941E+03 0.  0.
          5    1    4    4  502    0 -0.26371690502E+02  0.31210185230E+01 -0.43545339884E+03  0.43628241058E+03  0.41800000000E+01 0. -1.
         -5    1    4    4    0  502  0.80618955078E+02 -0.15448172979E+02 -0.26613663493E+03  0.27853948161E+03  0.41800000000E+01 0. -1.
        -11    1    3    3    0    0 -0.49241739262E+02  0.38993751452E+02 -0.27544329290E+03  0.28251419282E+03  0.00000000000E+00 0. -1.
         11    1    3    3    0    0 -0.50055253146E+01 -0.26666596996E+02 -0.27943707908E+02  0.38948857373E+02  0.00000000000E+00 0.  1.
</event>
<event>
 8    1  0.9181008E-006  0.1233966E+03  0.7561462E-02  0.1237597E+00
         -2   -1    0    0    0  501 -0.00000000000E+00  0.00000000000E+00  0.18142592439E+03  0.18142592439E+03  0.00000000000E+00 0.  1.
          2   -1    0    0  501    0  0.00000000000E+00 -0.00000000000E+00 -0.14739170020E+03  0.14739170020E+03  0.00000000000E+00 0. -1.
         23    2    1    2    0    0  0.97136697437E+01 -0.98045941088E+02  0.87884980525E+02  0.16066230155E+03  0.91549131041E+02 0.  0.
         23    2    1    2    0    0 -0.97136697437E+01  0.98045941088E+02 -0.53850756332E+02  0.16815532304E+03  0.12517566363E+03 0.  0.
          5    1    4    4  502    0  0.20535194169E+02  0.13563637041E+02  0.34217205179E+02  0.42355117514E+02  0.41800000000E+01 0.  1.
         -5    1    4    4    0  502 -0.30248863913E+02  0.84482304047E+02 -0.88067961511E+02  0.12580020552E+03  0.41800000000E+01 0.  1.
        -11    1    3    3    0    0  0.39453766234E+02 -0.12431443580E+02  0.42475489940E+02  0.59290030403E+02  0.00000000000E+00 0.  1.
         11    1    3    3    0    0 -0.29740096490E+02 -0.85614497508E+02  0.45409490585E+02  0.10137227115E+03  0.00000000000E+00 0. -1.
</event>
<event>
 8    1  0.9181008E-006  0.1044377E+03  0.7561462E-02  0.1271231E+00
         -1   -1    0    0    0  501 -0.00000000000E+00  0.00000000000E+00  0.47348155802E+02  0.47348155802E+02  0.00000000000E+00 0.  1.
          1   -1    0    0  501    0  0.00000000000E+00 -0.00000000000E+00 -0.36891305069E+03  0.36891305069E+03  0.00000000000E+00 0. -1.
         23    2    1    2    0    0 -0.51154800540E+02  0.11243738309E+02 -0.22678034542E+03  0.25080730808E+03  0.93443809034E+02 0.  0.
         23    2    1    2    0    0  0.51154800540E+02 -0.11243738309E+02 -0.94784549475E+02  0.16545389842E+03  0.12509055286E+03 0.  0.
          5    1    4    4  502    0 -0.41304742725E+02 -0.10882739778E+01 -0.20345143447E+02  0.46245684920E+02  0.41800000000E+01 0.  1.
         -5    1    4    4    0  502  0.92459543265E+02 -0.10155464331E+02 -0.74439406028E+02  0.11920821350E+03  0.41800000000E+01 0.  1.
        -11    1    3    3    0    0  0.18647972718E+01 -0.14973051232E+02  0.13359152750E+01  0.15147752364E+02  0.00000000000E+00 0.  1.
         11    1    3    3    0    0 -0.53019597811E+02  0.26216789541E+02 -0.22811626069E+03  0.23565955571E+03  0.00000000000E+00 0. -1.
</event>
<event>
 8    1  0.9181008E-006  0.1064376E+03  0.7561462E-02  0.1267313E+00
         -2   -1    0    0    0  501 -0.00000000000E+00  0.00000000000E+00  0.44327301817E+02  0.44327301817E+02  0.00000000000E+00 0.  1.
          2   -1    0    0  501    0  0.00000000000E+00 -0.00000000000E+00 -0.30998099509E+03  0.30998099509E+03  0.00000000000E+00 0. -1.
         23    2    1    2    0    0 -0.28124036161E+02 -0.13423908498E+02 -0.71855016572E+02  0.12154916605E+03  0.92951028142E+02 0.  0.
         23    2    1    2    0    0  0.28124036161E+02  0.13423908498E+02 -0.19379867670E+03  0.23275913086E+03  0.12509085968E+03 0.  0.
          5    1    4    4  502    0  0.22803450487E+01 -0.47916671181E+02 -0.13679977288E+03  0.14502709268E+03  0.41800000000E+01 0.  1.
         -5    1    4    4    0  502  0.25843691113E+02  0.61340579679E+02 -0.56998903823E+02  0.87732038177E+02  0.41800000000E+01 0.  1.
        -11    1    3    3    0    0  0.23324556617E+02 -0.35146995954E+02 -0.31640954922E+02  0.52730411475E+02  0.00000000000E+00 0.  1.
         11    1    3    3    0    0 -0.51448592779E+02  0.21723087455E+02 -0.40214061650E+02  0.68818754580E+02  0.00000000000E+00 0. -1.
</event>
<event>
 8    1  0.9181008E-006  0.1406205E+03  0.7561462E-02  0.1212496E+00
          1   -1    0    0  501    0  0.00000000000E+00  0.00000000000E+00  0.42021860379E+02  0.42021860379E+02  0.00000000000E+00 0. -1.
         -1   -1    0    0    0  501 -0.00000000000E+00 -0.00000000000E+00 -0.99528936931E+03  0.99528936931E+03  0.00000000000E+00 0.  1.
         23    2    1    2    0    0 -0.11567753805E+03  0.23601289365E+02 -0.77076446534E+03  0.78652670753E+03  0.10299556762E+03 0.  0.
         23    2    1    2    0    0  0.11567753805E+03 -0.23601289365E+02 -0.18250304359E+03  0.25078452216E+03  0.12508877635E+03 0.  0.
          5    1    4    4  502    0  0.10854616857E+03 -0.10565404791E+02 -0.19976086564E+03  0.22763078511E+03  0.41800000000E+01 0.  1.
         -5    1    4    4    0  502  0.71313694771E+01 -0.13035884575E+02  0.17257822054E+02  0.23153737048E+02  0.41800000000E+01 0.  1.
        -11    1    3    3    0    0 -0.13232229606E+03  0.60254461036E+01 -0.65432203558E+03  0.66759480396E+03  0.00000000000E+00 0.  1.
         11    1    3    3    0    0  0.16644758014E+02  0.17575843262E+02 -0.11644242976E+03  0.11893190356E+03  0.00000000000E+00 0. -1.
</event>
<event>
 8    1  0.9181008E-006  0.6723139E+02  0.7561462E-02  0.1369769E+00
         -1   -1    0    0    0  501 -0.00000000000E+00  0.00000000000E+00  0.16903279665E+02  0.16903279665E+02  0.00000000000E+00 0.  1.
          1   -1    0    0  501    0  0.00000000000E+00 -0.00000000000E+00 -0.77548546110E+03  0.77548546110E+03  0.00000000000E+00 0. -1.
         23    2    1    2    0    0  0.11434179485E+02 -0.14391729990E+02 -0.21509902965E+03  0.23439530582E+03  0.91300079303E+02 0.  0.
         23    2    1    2    0    0 -0.11434179485E+02  0.14391729990E+02 -0.54348315178E+03  0.55799343494E+03  0.12507947400E+03 0.  0.
          5    1    4    4  502    0 -0.34757929382E+01 -0.16957136044E+02 -0.49619315371E+01  0.18485636693E+02  0.41800000000E+01 0. -1.
         -5    1    4    4    0  502 -0.79583865471E+01  0.31348866034E+02 -0.53852122025E+03  0.53950779825E+03  0.41800000000E+01 0. -1.
        -11    1    3    3    0    0 -0.13697617255E+02  0.30029224634E+02 -0.39216095299E+02  0.51257011043E+02  0.00000000000E+00 0.  1.
         11    1    3    3    0    0  0.25131796741E+02 -0.44420954624E+02 -0.17588293435E+03  0.18313829477E+03  0.00000000000E+00 0. -1.
</event>
<event>
 8    1  0.9376370E-006  0.2509069E+03  0.7561462E-02  0.1112733E+00
          2   -1    0    0  501    0  0.00000000000E+00  0.00000000000E+00  0.11665475839E+04  0.11665475839E+04  0.00000000000E+00 0. -1.
         -2   -1    0    0    0  501 -0.00000000000E+00 -0.00000000000E+00 -0.62847778370E+02  0.62847778370E+02  0.00000000000E+00 0.  1.
         23    2    1    2    0    0 -0.17426958027E+03  0.17383836032E+03  0.47574349750E+03  0.54341693273E+03  0.91544662507E+02 0.  0.
         23    2    1    2    0    0  0.17426958027E+03 -0.17383836032E+03  0.62795630806E+03  0.68597842957E+03  0.12509044278E+03 0.  0.
          5    1    4    4  502    0  0.14876511930E+03 -0.17401619636E+03  0.61660984316E+03  0.65775213295E+03  0.41800000000E+01 0. -1.
         -5    1    4    4    0  502  0.25504460976E+02  0.17783603039E+00  0.11346464896E+02  0.28226296621E+02  0.41800000000E+01 0. -1.
        -11    1    3    3    0    0 -0.15159572110E+03  0.14062214657E+03  0.45114418670E+03  0.49627303771E+03  0.00000000000E+00 0. -1.
         11    1    3    3    0    0 -0.22673859176E+02  0.33216213750E+02  0.24599310798E+02  0.47143895019E+02  0.00000000000E+00 0.  1.
</event>
<event>
 8    1  0.9181008E-006  0.1130194E+03  0.7561462E-02  0.1255079E+00
         -2   -1    0    0    0  501 -0.00000000000E+00  0.00000000000E+00  0.16787310684E+02  0.16787310684E+02  0.00000000000E+00 0.  1.
          2   -1    0    0  501    0  0.00000000000E+00 -0.00000000000E+00 -0.10909684394E+04  0.10909684394E+04  0.00000000000E+00 0. -1.
         23    2    1    2    0    0  0.22470601608E+02  0.42598891875E+02 -0.22413973623E+03  0.24721090517E+03  0.92493333548E+02 0.  0.
         23    2    1    2    0    0 -0.22470601608E+02 -0.42598891875E+02 -0.85004139253E+03  0.86054484496E+03  0.12508983830E+03 0.  0.
          5    1    4    4  502    0 -0.69564273705E+02 -0.38204012296E+02 -0.38706188892E+03  0.39513682818E+03  0.41800000000E+01 0. -1.
         -5    1    4    4    0  502  0.47093672097E+02 -0.43948795795E+01 -0.46297950361E+03  0.46540801678E+03  0.41800000000E+01 0. -1.
        -11    1    3    3    0    0 -0.33201903452E+02  0.21445848993E+02 -0.12944434807E+03  0.13534448669E+03  0.00000000000E+00 0.  1.
         11    1    3    3    0    0  0.55672505060E+02  0.21153042882E+02 -0.94695388164E+02  0.11186641847E+03  0.00000000000E+00 0. -1.
</event>
<event>
 8    1  0.9181008E-006  0.1189333E+03  0.7561462E-02  0.1244867E+00
         -1   -1    0    0    0  501 -0.00000000000E+00  0.00000000000E+00  0.33332394437E+03  0.33332394437E+03  0.00000000000E+00 0.  1.
          1   -1    0    0  501    0  0.00000000000E+00 -0.00000000000E+00 -0.59960556818E+02  0.59960556818E+02  0.00000000000E+00 0. -1.
         23    2    1    2    0    0  0.45768416359E+02  0.30733846069E+02  0.22644697133E+03  0.24875950026E+03  0.86969770104E+02 0.  0.
         23    2    1    2    0    0 -0.45768416359E+02 -0.30733846069E+02  0.46916416221E+02  0.14452500093E+03  0.12508800324E+03 0.  0.
          5    1    4    4  502    0 -0.62844175940E+02 -0.68722350354E+02  0.21885498473E+02  0.95752803255E+02  0.41800000000E+01 0.  1.
         -5    1    4    4    0  502  0.17075759581E+02  0.37988504285E+02  0.25030917748E+02  0.48772197679E+02  0.41800000000E+01 0.  1.
        -11    1    3    3    0    0  0.27185653724E+02 -0.29285754068E+02  0.80917150780E+02  0.90245778018E+02  0.00000000000E+00 0.  1.
         11    1    3    3    0    0  0.18582762635E+02  0.60019600137E+02  0.14552982055E+03  0.15851372224E+03  0.00000000000E+00 0. -1.
</event>
<event>
 8    1  0.9181008E-006  0.1425542E+03  0.7561462E-02  0.1209933E+00
          4   -1    0    0  501    0  0.00000000000E+00  0.00000000000E+00  0.74124207716E+02  0.74124207716E+02  0.00000000000E+00 0. -1.
         -4   -1    0    0    0  501 -0.00000000000E+00 -0.00000000000E+00 -0.43041443777E+03  0.43041443777E+03  0.00000000000E+00 0.  1.
         23    2    1    2    0    0 -0.67528338071E+01  0.10785692591E+03 -0.29682660121E+03  0.32885808269E+03  0.91448838878E+02 0.  0.
         23    2    1    2    0    0  0.67528338071E+01 -0.10785692591E+03 -0.59463628841E+02  0.17568056280E+03  0.12509604214E+03 0.  0.
          5    1    4    4  502    0  0.55378215242E+02 -0.32628920838E+02 -0.56942346651E+02  0.85972649375E+02  0.41800000000E+01 0. -1.
         -5    1    4    4    0  502 -0.48625381435E+02 -0.75228005069E+02 -0.25212821904E+01  0.89707913421E+02  0.41800000000E+01 0. -1.
        -11    1    3    3    0    0 -0.40511593672E+02  0.55081856162E+02 -0.21618846950E+03  0.22674358744E+03  0.00000000000E+00 0.  1.
         11    1    3    3    0    0  0.33758759865E+02  0.52775069745E+02 -0.80638131717E+02  0.10211449525E+03  0.00000000000E+00 0. -1.
</event>
<event>
 8    1  0.9181008E-006  0.9823247E+02  0.7561462E-02  0.1284057E+00
          1   -1    0    0  501    0  0.00000000000E+00  0.00000000000E+00  0.15853996925E+04  0.15853996925E+04  0.00000000000E+00 0. -1.
         -1   -1    0    0    0  501 -0.00000000000E+00 -0.00000000000E+00 -0.91170365117E+01  0.91170365117E+01  0.00000000000E+00 0.  1.
         23    2    1    2    0    0 -0.50247264186E+00 -0.63971172259E+01  0.30632414692E+03  0.31839843591E+03  0.86613540621E+02 0.  0.
         23    2    1    2    0    0  0.50247264186E+00  0.63971172259E+01  0.12699585091E+04  0.12761182931E+04  0.12506841182E+03 0.  0.
          5    1    4    4  502    0  0.54814928350E+02  0.88455401669E-01  0.32884022758E+03  0.33340373703E+03  0.41800000000E+01 0. -1.
         -5    1    4    4    0  502 -0.54312455708E+02  0.63086618242E+01  0.94111828152E+03  0.94271455609E+03  0.41800000000E+01 0. -1.
        -11    1    3    3    0    0  0.29771133213E+02  0.27973598057E+02  0.13374436436E+03  0.13984419030E+03  0.00000000000E+00 0. -1.
         11    1    3    3    0    0 -0.30273605854E+02 -0.34370715283E+02  0.17257978255E+03  0.17855424561E+03  0.00000000000E+00 0.  1.
</event>
<event>
 7    1  0.9181008E-006  0.1037106E+03  0.7561462E-02  0.1272681E+00
         -1   -1    0    0    0  501 -0.00000000000E+00  0.00000000000E+00  0.23790174236E+03  0.23790174236E+03  0.00000000000E+00 0.  1.
          1   -1    0    0  501    0  0.00000000000E+00 -0.00000000000E+00 -0.13517607281E+04  0.13517607281E+04  0.00000000000E+00 0. -1.
         23    2    1    2    0    0  0.41901744604E+02  0.43468167624E+01  0.22294343257E+03  0.24391415059E+03  0.89530373136E+02 0.  0.
          5    1    1    2  502    0 -0.88742171495E+02  0.24602099735E+02 -0.61922156948E+03  0.62604573381E+03  0.41800000000E+01 0. -1.
         -5    1    1    2    0  502  0.46840426890E+02 -0.28948916497E+02 -0.71758084879E+03  0.71970258601E+03  0.41800000000E+01 0.  1.
        -11    1    3    3    0    0  0.19675647420E+01  0.17774552984E+02  0.89652046498E+00  0.17905579961E+02  0.00000000000E+00 0. -1.
         11    1    3    3    0    0  0.39934179862E+02 -0.13427736221E+02  0.22204691211E+03  0.22600857063E+03  0.00000000000E+00 0.  1.
</event>
<event>
 8    1  0.9181008E-006  0.1532992E+03  0.7561462E-02  0.1196477E+00
         -1   -1    0    0    0  501 -0.00000000000E+00  0.00000000000E+00  0.10249313997E+03  0.10249313997E+03  0.00000000000E+00 0.  1.
          1   -1    0    0  501    0  0.00000000000E+00 -0.00000000000E+00 -0.31961848526E+03  0.31961848526E+03  0.00000000000E+00 0. -1.
         23    2    1    2    0    0 -0.46625924692E+02 -0.13832451530E+03 -0.10578636965E+03  0.19995788205E+03  0.86514450830E+02 0.  0.
         23    2    1    2    0    0  0.46625924692E+02  0.13832451530E+03 -0.11133897563E+03  0.22215374318E+03  0.12509304428E+03 0.  0.
          5    1    4    4  502    0  0.30824494786E+02  0.39201015617E+02 -0.11092482206E+03  0.12169082814E+03  0.41800000000E+01 0.  1.
         -5    1    4    4    0  502  0.15801429906E+02  0.99123499684E+02 -0.41415357824E+00  0.10046291505E+03  0.41800000000E+01 0.  1.
        -11    1    3    3    0    0 -0.92302288794E+00 -0.88413253736E+02 -0.19930186194E+02  0.90636459160E+02  0.00000000000E+00 0.  1.
         11    1    3    3    0    0 -0.45702901804E+02 -0.49911261565E+02 -0.85856183455E+02  0.10932142289E+03  0.00000000000E+00 0. -1.
</event>
<event>
 8    1  0.9181008E-006  0.6961826E+02  0.7561462E-02  0.1361396E+00
          1   -1    0    0  501    0  0.00000000000E+00  0.00000000000E+00  0.17917428590E+03  0.17917428590E+03  0.00000000000E+00 0. -1.
         -1   -1    0    0    0  501 -0.00000000000E+00 -0.00000000000E+00 -0.10950317399E+03  0.10950317399E+03  0.00000000000E+00 0.  1.
         23    2    1    2    0    0  0.10315102086E+02  0.14467614839E+02 -0.56422834638E+02  0.11017584583E+03  0.92948736009E+02 0.  0.
         23    2    1    2    0    0 -0.10315102086E+02 -0.14467614839E+02  0.12609394655E+03  0.17850161406E+03  0.12508968645E+03 0.  0.
          5    1    4    4  502    0  0.19891056162E+02  0.19682052645E+01 -0.19864548361E+02  0.28488605245E+02  0.41800000000E+01 0. -1.
         -5    1    4    4    0  502 -0.30206158248E+02 -0.16435820104E+02  0.14595849491E+03  0.15001300882E+03  0.41800000000E+01 0. -1.
        -11    1    3    3    0    0 -0.32582598000E+02  0.23705374531E+02 -0.21061632544E+01  0.40348561285E+02  0.00000000000E+00 0. -1.
         11    1    3    3    0    0  0.42897700087E+02 -0.92377596920E+01 -0.54316671384E+02  0.69827284546E+02  0.00000000000E+00 0.  1.
</event>
<event>
 8    1  0.9181008E-006  0.1067415E+03  0.7561462E-02  0.1266726E+00
          2   -1    0    0  501    0  0.00000000000E+00  0.00000000000E+00  0.68750894766E+03  0.68750894766E+03  0.00000000000E+00 0.  1.
         -2   -1    0    0    0  501 -0.00000000000E+00 -0.00000000000E+00 -0.20642810026E+02  0.20642810026E+02  0.00000000000E+00 0. -1.
         23    2    1    2    0    0 -0.61835692880E+02  0.33351207567E+02  0.20910043571E+03  0.22868941825E+03  0.60331599067E+02 0.  0.
         23    2    1    2    0    0  0.61835692880E+02 -0.33351207567E+02  0.45776570192E+03  0.47946233943E+03  0.12409166417E+03 0.  0.
          5    1    4    4  502    0  0.82321926852E+02 -0.63731926112E+02  0.30492323555E+03  0.32223331613E+03  0.41800000000E+01 0.  1.
         -5    1    4    4    0  502 -0.20486233972E+02  0.30380718544E+02  0.15284246637E+03  0.15722902330E+03  0.41800000000E+01 0. -1.
        -11    1    3    3    0    0 -0.33961441211E+02  0.28025104484E+02  0.48113505892E+02  0.65220360469E+02  0.00000000000E+00 0. -1.
         11    1    3    3    0    0 -0.27874251669E+02  0.53261030837E+01  0.16098692982E+03  0.16346905778E+03  0.00000000000E+00 0.  1.
</event>
<event>
 8    1  0.9181008E-006  0.1205764E+03  0.7561462E-02  0.1242149E+00
          1   -1    0    0  501    0  0.00000000000E+00  0.00000000000E+00  0.51991362345E+03  0.51991362345E+03  0.00000000000E+00 0. -1.
         -1   -1    0    0    0  501 -0.00000000000E+00 -0.00000000000E+00 -0.44868529872E+02  0.44868529872E+02  0.00000000000E+00 0.  1.
         23    2    1    2    0    0 -0.61142783529E+01  0.83219233877E+02  0.10743661881E+03  0.16760986708E+03  0.97916368373E+02 0.  0.
         23    2    1    2    0    0  0.61142783529E+01 -0.83219233877E+02  0.36760847477E+03  0.39717228624E+03  0.12508800481E+03 0.  0.
          5    1    4    4  502    0  0.31817779523E+02 -0.96090866241E+02  0.34718175070E+03  0.36166070576E+03  0.41800000000E+01 0. -1.
         -5    1    4    4    0  502 -0.25703501170E+02  0.12871632364E+02  0.20426724067E+02  0.35511580481E+02  0.41800000000E+01 0. -1.
        -11    1    3    3    0    0 -0.30389278302E+02  0.75283382205E+01 -0.30991301796E+01  0.31460907805E+02  0.00000000000E+00 0.  1.
         11    1    3    3    0    0  0.24274999949E+02  0.75690895656E+02  0.11053574899E+03  0.13614895928E+03  0.00000000000E+00 0. -1.
</event>
<event>
 8    1  0.9181008E-006  0.1005113E+03  0.7561462E-02  0.1279224E+00
         -1   -1    0    0    0  501 -0.00000000000E+00  0.00000000000E+00  0.28849665746E+02  0.28849665746E+02  0.00000000000E+00 0.  1.
          1   -1    0    0  501    0  0.00000000000E+00 -0.00000000000E+00 -0.45564793777E+03  0.45564793777E+03  0.00000000000E+00 0. -1.
         23    2    1    2    0    0 -0.24398620725E+02 -0.95579097156E+01 -0.12631061361E+03  0.15795950704E+03  0.91160234879E+02 0.  0.
         23    2    1    2    0    0  0.24398620725E+02  0.95579097156E+01 -0.30048765842E+03  0.32653809648E+03  0.12509056422E+03 0.  0.
          5    1    4    4  502    0 -0.47767814118E+02  0.20189713144E+02 -0.15904421364E+03  0.16733775089E+03  0.41800000000E+01 0. -1.
         -5    1    4    4    0  502  0.72166434844E+02 -0.10631803428E+02 -0.14144344478E+03  0.15920034558E+03  0.41800000000E+01 0. -1.
        -11    1    3    3    0    0  0.51125104396E+01 -0.35966462750E+02 -0.14104705173E+02  0.38970077159E+02  0.00000000000E+00 0.  1.
         11    1    3    3    0    0 -0.29511131165E+02  0.26408553035E+02 -0.11220590843E+03  0.11898942988E+03  0.00000000000E+00 0. -1.
</event>
<event>
 8    1  0.9181008E-006  0.6848935E+02  0.7561462E-02  0.1365307E+00
          1   -1    0    0  501    0  0.00000000000E+00  0.00000000000E+00  0.12562055750E+03  0.12562055750E+03  0.00000000000E+00 0. -1.
         -1   -1    0    0    0  501 -0.00000000000E+00 -0.00000000000E+00 -0.14660173940E+03  0.14660173940E+03  0.00000000000E+00 0.  1.
         23    2    1    2    0    0  0.79427086428E+01  0.20313150586E+02 -0.86921487862E+02  0.12913955391E+03  0.92983700851E+02 0.  0.
         23    2    1    2    0    0 -0.79427086428E+01 -0.20313150586E+02  0.65940305956E+02  0.14308274299E+03  0.12509531040E+03 0.  0.
          5    1    4    4  502    0 -0.21318839941E+02 -0.43964146144E+02 -0.19918772295E+02  0.52929849540E+02  0.41800000000E+01 0.  1.
         -5    1    4    4    0  502  0.13376131298E+02  0.23650995558E+02  0.85859078251E+02  0.90152893451E+02  0.41800000000E+01 0.  1.
        -11    1    3    3    0    0  0.28748397920E+02 -0.33461783766E+01 -0.92695336518E+02  0.97108664417E+02  0.00000000000E+00 0.  1.
         11    1    3    3    0    0 -0.20805689278E+02  0.23659328963E+02  0.57738486552E+01  0.32030889491E+02  0.00000000000E+00 0. -1.
</event>
<event>
 8    1  0.9181008E-006  0.1927849E+03  0.7561462E-02  0.1155973E+00
         -2   -1    0    0    0  501 -0.00000000000E+00  0.00000000000E+00  0.25829314078E+03  0.25829314078E+03  0.00000000000E+00 0.  1.
          2   -1    0    0  501    0  0.00000000000E+00 -0.00000000000E+00 -0.16416227610E+03  0.16416227610E+03  0.00000000000E+00 0. -1.
         23    2    1    2    0    0  0.16438541180E+03 -0.24077470931E+02  0.10007741726E+03  0.21440457783E+03  0.91386789677E+02 0.  0.
         23    2    1    2    0    0 -0.16438541180E+03  0.24077470931E+02 -0.59465525807E+01  0.20805083905E+03  0.12508997530E+03 0.  0.
          5    1    4    4  502    0 -0.15762600572E+03 -0.15805145050E+02 -0.29297203237E+02  0.16115693844E+03  0.41800000000E+01 0.  1.
         -5    1    4    4    0  502 -0.67594060789E+01  0.39882615981E+02  0.23350650656E+02  0.46893900606E+02  0.41800000000E+01 0.  1.
        -11    1    3    3    0    0  0.76086655185E+02 -0.53887482996E+02  0.69611057733E+02  0.11635608828E+03  0.00000000000E+00 0.  1.
         11    1    3    3    0    0  0.88298756619E+02  0.29810012065E+02  0.30466359523E+02  0.98048489546E+02  0.00000000000E+00 0. -1.
</event>
<event>
 8    1  0.9181008E-006  0.1461047E+03  0.7561462E-02  0.1205343E+00
         -2   -1    0    0    0  501 -0.00000000000E+00  0.00000000000E+00  0.72930885141E+02  0.72930885141E+02  0.00000000000E+00 0.  1.
          2   -1    0    0  501    0  0.00000000000E+00 -0.00000000000E+00 -0.51866557391E+03  0.51866557391E+03  0.00000000000E+00 0. -1.
         23    2    1    2    0    0  0.11446458872E+03  0.89383717517E+02 -0.11740889128E+03  0.21141723812E+03  0.99099998968E+02 0.  0.
         23    2    1    2    0    0 -0.11446458872E+03 -0.89383717517E+02 -0.32832579750E+03  0.38017922094E+03  0.12508724836E+03 0.  0.
          5    1    4    4  502    0 -0.33650773921E+02 -0.28641516386E+02 -0.24532666471E+03  0.24930975886E+03  0.41800000000E+01 0. -1.
         -5    1    4    4    0  502 -0.80813814798E+02 -0.60742201131E+02 -0.82999132788E+02  0.13086946208E+03  0.41800000000E+01 0. -1.
        -11    1    3    3    0    0  0.75532086299E+02  0.70692505420E+02 -0.13027433526E+03  0.16635482803E+03  0.00000000000E+00 0. -1.
         11    1    3    3    0    0  0.38932502419E+02  0.18691212097E+02  0.12865443977E+02  0.45062410089E+02  0.00000000000E+00 0.  1.
</event>
<event>
 8    1  0.9181008E-006  0.1531651E+03  0.7561462E-02  0.1196637E+00
         -3   -1    0    0    0  501 -0.00000000000E+00  0.00000000000E+00  0.21360963411E+02  0.21360963411E+02  0.00000000000E+00 0. -1.
          3   -1    0    0  501    0  0.00000000000E+00 -0.00000000000E+00 -0.15755129123E+04  0.15755129123E+04  0.00000000000E+00 0.  1.
         23    2    1    2    0    0 -0.11294231828E+03 -0.87465929777E+02 -0.63226722430E+03  0.65563827324E+03  0.98455300965E+02 0.  0.
         23    2    1    2    0    0  0.11294231828E+03  0.87465929777E+02 -0.92188472458E+03  0.94123560245E+03  0.12508700088E+03 0.  0.
          5    1    4    4  502    0  0.67812863244E+02  0.75110546399E+01 -0.66312179656E+03  0.66663557499E+03  0.41800000000E+01 0.  1.
         -5    1    4    4    0  502  0.45129455038E+02  0.79954875137E+02 -0.25876292801E+03  0.27460002747E+03  0.41800000000E+01 0.  1.
        -11    1    3    3    0    0 -0.79370285983E+02 -0.42748269243E+02 -0.54206376922E+03  0.54950904153E+03  0.00000000000E+00 0.  1.
         11    1    3    3    0    0 -0.33572032298E+02 -0.44717660534E+02 -0.90203455080E+02  0.10612923172E+03  0.00000000000E+00 0. -1.
</event>
<event>
 8    1  0.9181008E-006  0.1269527E+03  0.7561462E-02  0.1232049E+00
         -1   -1    0    0    0  501 -0.00000000000E+00  0.00000000000E+00  0.14933302056E+03  0.14933302056E+03  0.00000000000E+00 0.  1.
          1   -1    0    0  501    0  0.00000000000E+00 -0.00000000000E+00 -0.17168060135E+03  0.17168060135E+03  0.00000000000E+00 0. -1.
         23    2    1    2    0    0  0.80969198718E+02 -0.24656753884E+02  0.70966835125E+02  0.14348670932E+03  0.91586993674E+02 0.  0.
         23    2    1    2    0    0 -0.80969198718E+02  0.24656753884E+02 -0.93314415915E+02  0.17752691259E+03  0.12507700757E+03 0.  0.
          5    1    4    4  502    0 -0.37011728293E+02  0.66628566489E+02 -0.87821826205E+02  0.11635883921E+03  0.41800000000E+01 0. -1.
         -5    1    4    4    0  502 -0.43957470425E+02 -0.41971812604E+02 -0.54925897105E+01  0.61168073381E+02  0.41800000000E+01 0. -1.
        -11    1    3    3    0    0  0.66710565040E+02 -0.52816592812E+02  0.26815360704E+02  0.89212978506E+02  0.00000000000E+00 0. -1.
         11    1    3    3    0    0  0.14258633678E+02  0.28159838928E+02  0.44151474421E+02  0.54273730813E+02  0.00000000000E+00 0.  1.
</event>
<event>
 8    1  0.9181008E-006  0.8351594E+02  0.7561462E-02  0.1319360E+00
         -2   -1    0    0    0  501 -0.00000000000E+00  0.00000000000E+00  0.58802965660E+02  0.58802965660E+02  0.00000000000E+00 0.  1.
          2   -1    0    0  501    0  0.00000000000E+00 -0.00000000000E+00 -0.20455966453E+03  0.20455966453E+03  0.00000000000E+00 0. -1.
         23    2    1    2    0    0 -0.11889907537E+02 -0.28456864082E+02 -0.48777842659E+02  0.10210626003E+03  0.84233291443E+02 0.  0.
         23    2    1    2    0    0  0.11889907537E+02  0.28456864082E+02 -0.96978856210E+02  0.16125637016E+03  0.12509018887E+03 0.  0.
          5    1    4    4  502    0 -0.31690153439E+02  0.21385037161E+02 -0.10876935361E+03  0.11536823793E+03  0.41800000000E+01 0. -1.
         -5    1    4    4    0  502  0.43580060976E+02  0.70718269206E+01  0.11790497398E+02  0.45888132230E+02  0.41800000000E+01 0. -1.
        -11    1    3    3    0    0  0.17485514952E+02 -0.46549805587E+02 -0.45585448393E+02  0.67458585358E+02  0.00000000000E+00 0.  1.
         11    1    3    3    0    0 -0.29375422489E+02  0.18092941505E+02 -0.31923942666E+01  0.34647674668E+02  0.00000000000E+00 0. -1.
</event>
<event>
 7    1  0.9181008E-006  0.1910538E+03  0.7561462E-02  0.1157514E+00
         -2   -1    0    0    0  501 -0.00000000000E+00  0.00000000000E+00  0.44352271365E+02  0.44352271365E+02  0.00000000000E+00 0.  1.
          2   -1    0    0  501    0  0.00000000000E+00 -0.00000000000E+00 -0.84995167813E+03  0.84995167813E+03  0.00000000000E+00 0. -1.
         23    2    1    2    0    0  0.57269167775E+02 -0.27948393143E+02 -0.19980699756E+03  0.23073626507E+03  0.96205600090E+02 0.  0.
          5    1    1    2  502    0  0.10398995074E+03  0.90994577818E+01 -0.29402839381E+03  0.31203666251E+03  0.41800000000E+01 0. -1.
         -5    1    1    2    0  502 -0.16125911851E+03  0.18848935361E+02 -0.31176401539E+03  0.35153102191E+03  0.41800000000E+01 0.  1.
        -11    1    3    3    0    0  0.68503083384E+02  0.15595669995E+02 -0.11563881077E+03  0.13530791518E+03  0.00000000000E+00 0. -1.
         11    1    3    3    0    0 -0.11233915609E+02 -0.43544063138E+02 -0.84168186789E+02  0.95428349886E+02  0.00000000000E+00 0.  1.
</event>
<event>
 7    1  0.9181008E-006  0.2299824E+03  0.7561462E-02  0.1126652E+00
         -2   -1    0    0    0  501 -0.00000000000E+00  0.00000000000E+00  0.45952697072E+02  0.45952697072E+02  0.00000000000E+00 0.  1.
          2   -1    0    0  501    0  0.00000000000E+00 -0.00000000000E+00 -0.12092271931E+04  0.12092271931E+04  0.00000000000E+00 0. -1.
         23    2    1    2    0    0  0.40201637626E+02 -0.18862364995E+02 -0.23291221304E+03  0.25429394413E+03  0.91898588441E+02 0.  0.
          5    1    1    2  502    0  0.15586917113E+03  0.52980243328E+02 -0.50668722907E+03  0.53277718156E+03  0.41800000000E+01 0. -1.
         -5    1    1    2    0  502 -0.19607080875E+03 -0.34117878332E+02 -0.42367505389E+03  0.46810876445E+03  0.41800000000E+01 0.  1.
        -11    1    3    3    0    0  0.61276385205E+02  0.83089455515E+01 -0.10514887319E+03  0.12198409525E+03  0.00000000000E+00 0.  1.
         11    1    3    3    0    0 -0.21074747579E+02 -0.27171310547E+02 -0.12776333984E+03  0.13230984888E+03  0.00000000000E+00 0. -1.
</event>
<event>
 8    1  0.9181008E-006  0.1659757E+03  0.7561462E-02  0.1182111E+00
         -1   -1    0    0    0  501 -0.00000000000E+00  0.00000000000E+00  0.72010725858E+02  0.72010725858E+02  0.00000000000E+00 0.  1.
          1   -1    0    0  501    0  0.00000000000E+00 -0.00000000000E+00 -0.45205274301E+03  0.45205274301E+03  0.00000000000E+00 0. -1.
         23    2    1    2    0    0 -0.10631700168E+03  0.79070830662E+02 -0.98363605869E+02  0.18858291891E+03  0.91283170618E+02 0.  0.
         23    2    1    2    0    0  0.10631700168E+03 -0.79070830662E+02 -0.28167841128E+03  0.33548054995E+03  0.12509584688E+03 0.  0.
          5    1    4    4  502    0  0.12967346969E+03 -0.70907676801E+02 -0.19184654191E+03  0.24220998207E+03  0.41800000000E+01 0. -1.
         -5    1    4    4    0  502 -0.23356468006E+02 -0.81631538609E+01 -0.89831869369E+02  0.93270567882E+02  0.41800000000E+01 0. -1.
        -11    1    3    3    0    0 -0.12206217199E+03  0.72287535124E+02 -0.95965465891E+02  0.17127180798E+03  0.00000000000E+00 0. -1.
         11    1    3    3    0    0  0.15745170308E+02  0.67832955381E+01 -0.23981399777E+01  0.17311110933E+02  0.00000000000E+00 0.  1.
</event>
<event>
 8    1  0.9181008E-006  0.1001186E+03  0.7561462E-02  0.1280047E+00
          2   -1    0    0  501    0  0.00000000000E+00  0.00000000000E+00  0.79983958015E+03  0.79983958015E+03  0.00000000000E+00 0. -1.
         -2   -1    0    0    0  501 -0.00000000000E+00 -0.00000000000E+00 -0.15911180369E+02  0.15911180369E+02  0.00000000000E+00 0.  1.
         23    2    1    2    0    0  0.13896400016E+02 -0.27102438722E+02  0.30407306909E+03  0.31892426350E+03  0.91239259023E+02 0.  0.
         23    2    1    2    0    0 -0.13896400016E+02  0.27102438722E+02  0.47985533070E+03  0.49682649702E+03  0.12509107733E+03 0.  0.
          5    1    4    4  502    0 -0.56943546073E+02  0.95925920804E+01  0.40132898455E+03  0.40548367600E+03  0.41800000000E+01 0.  1.
         -5    1    4    4    0  502  0.43047146057E+02  0.17509846641E+02  0.78526346145E+02  0.91342821021E+02  0.41800000000E+01 0.  1.
        -11    1    3    3    0    0 -0.34404169150E+02 -0.32186901612E+02  0.13338317006E+03  0.14145922927E+03  0.00000000000E+00 0. -1.
         11    1    3    3    0    0  0.48300569166E+02  0.50844628904E+01  0.17068989903E+03  0.17746503423E+03  0.00000000000E+00 0.  1.
</event>
<event>
 8    1  0.9181008E-006  0.1066001E+03  0.7561462E-02  0.1266999E+00
          1   -1    0    0  501    0  0.00000000000E+00  0.00000000000E+00  0.72981804650E+03  0.72981804650E+03  0.00000000000E+00 0. -1.
         -1   -1    0    0    0  501 -0.00000000000E+00 -0.00000000000E+00 -0.18931554869E+02  0.18931554869E+02  0.00000000000E+00 0.  1.
         23    2    1    2    0    0 -0.53085991290E+01 -0.41179024383E+02  0.25074497561E+03  0.27010388669E+03  0.91428516014E+02 0.  0.
         23    2    1    2    0    0  0.53085991290E+01  0.41179024383E+02  0.46014151602E+03  0.47864571467E+03  0.12509041584E+03 0.  0.
          5    1    4    4  502    0  0.42076794270E+01  0.86028165923E+02  0.28165414913E+03  0.29455913162E+03  0.41800000000E+01 0.  1.
         -5    1    4    4    0  502  0.11009197020E+01 -0.44849141539E+02  0.17848736689E+03  0.18408658306E+03  0.41800000000E+01 0.  1.
        -11    1    3    3    0    0  0.22183747441E+02  0.95963496818E+01  0.17558135224E+02  0.29874683100E+02  0.00000000000E+00 0. -1.
         11    1    3    3    0    0 -0.27492346570E+02 -0.50775374065E+02  0.23318684038E+03  0.24022920359E+03  0.00000000000E+00 0.  1.
</event>
<event>
 7    1  0.9181008E-006  0.1631287E+03  0.7561462E-02  0.1185209E+00
          2   -1    0    0  501    0  0.00000000000E+00  0.00000000000E+00  0.16098880124E+04  0.16098880124E+04  0.00000000000E+00 0. -1.
         -2   -1    0    0    0  501 -0.00000000000E+00 -0.00000000000E+00 -0.19472518401E+02  0.19472518401E+02  0.00000000000E+00 0.  1.
         23    2    1    2    0    0  0.12054372111E+03  0.59042785707E+02  0.70014672069E+03  0.71848625494E+03  0.89443998182E+02 0.  0.
          5    1    1    2  502    0  0.23287025937E+02  0.11302028611E+02  0.22848225412E+03  0.22998181293E+03  0.41800000000E+01 0. -1.
         -5    1    1    2    0  502 -0.14383074704E+03 -0.70344814318E+02  0.66178651921E+03  0.68089246295E+03  0.41800000000E+01 0.  1.
        -11    1    3    3    0    0  0.92651858405E+02  0.62506796175E+02  0.66049051478E+03  0.66987997922E+03  0.00000000000E+00 0.  1.
         11    1    3    3    0    0  0.27891862702E+02 -0.34640104676E+01  0.39656205904E+02  0.48606275728E+02  0.00000000000E+00 0. -1.
</event>
<event>
 8    1  0.9181008E-006  0.1188296E+03  0.7561462E-02  0.1245040E+00
          2   -1    0    0  501    0  0.00000000000E+00  0.00000000000E+00  0.28062772918E+03  0.28062772918E+03  0.00000000000E+00 0.  1.
         -2   -1    0    0    0  501 -0.00000000000E+00 -0.00000000000E+00 -0.57669945082E+02  0.57669945082E+02  0.00000000000E+00 0. -1.
         23    2    1    2    0    0  0.64636352084E+02  0.12445750220E+02  0.86402096462E+02  0.14175767294E+03  0.91088752631E+02 0.  0.
         23    2    1    2    0    0 -0.64636352084E+02 -0.12445750220E+02  0.13655568764E+03  0.19654000132E+03  0.12509101320E+03 0.  0.
          5    1    4    4  502    0 -0.49874254246E+02 -0.58353039179E+02  0.35889066405E+02  0.84841121547E+02  0.41800000000E+01 0. -1.
         -5    1    4    4    0  502 -0.14762097839E+02  0.45907288959E+02  0.10066662123E+03  0.11169887977E+03  0.41800000000E+01 0. -1.
        -11    1    3    3    0    0  0.70556018092E+02  0.42085580482E+02  0.63643889462E+02  0.10392253095E+03  0.00000000000E+00 0.  1.
         11    1    3    3    0    0 -0.59196660077E+01 -0.29639830263E+02  0.22758207000E+02  0.37835141992E+02  0.00000000000E+00 0. -1.
</event>
<event>
 7    1  0.9181008E-006  0.1459599E+03  0.7561462E-02  0.1205527E+00
         -2   -1    0    0    0  501 -0.00000000000E+00  0.00000000000E+00  0.53363695498E+02  0.53363695498E+02  0.00000000000E+00 0.  1.
          2   -1    0    0  501    0  0.00000000000E+00 -0.00000000000E+00 -0.65449888872E+03  0.65449888872E+03  0.00000000000E+00 0. -1.
         23    2    1    2    0    0  0.42228344526E+01 -0.32175636161E+00 -0.11846588198E+03  0.15584034028E+03  0.10116378111E+03 0.  0.
          5    1    1    2  502    0  0.19171685111E+02  0.93057089393E+02 -0.43462931827E+03  0.44491267918E+03  0.41800000000E+01 0. -1.
         -5    1    1    2    0  502 -0.23394519564E+02 -0.92735333031E+02 -0.48039992978E+02  0.10710956476E+03  0.41800000000E+01 0.  1.
        -11    1    3    3    0    0 -0.20427844267E+02  0.45040846683E+02 -0.62449100240E+02  0.79660936550E+02  0.00000000000E+00 0. -1.
         11    1    3    3    0    0  0.24650678719E+02 -0.45362603045E+02 -0.56016781742E+02  0.76179403733E+02  0.00000000000E+00 0.  1.
</event>
<event>
 8    1  0.9181008E-006  0.1070917E+03  0.7561462E-02  0.1266052E+00
         -1   -1    0    0    0  501 -0.00000000000E+00  0.00000000000E+00  0.43562543828E+02  0.43562543828E+02  0.00000000000E+00 0.  1.
          1   -1    0    0  501    0  0.00000000000E+00 -0.00000000000E+00 -0.43359537051E+03  0.43359537051E+03  0.00000000000E+00 0. -1.
         23    2    1    2    0    0  0.40850117264E+02  0.57624868927E+02 -0.97883638844E+02  0.15159978103E+03  0.91716570233E+02 0.  0.
         23    2    1    2    0    0 -0.40850117264E+02 -0.57624868927E+02 -0.29214918784E+03  0.32555813331E+03  0.12509033780E+03 0.  0.
          5    1    4    4  502    0  0.83045017895E+01  0.36244970208E+02 -0.83816222525E+02  0.91789401206E+02  0.41800000000E+01 0.  1.
         -5    1    4    4    0  502 -0.49154619053E+02 -0.93869839134E+02 -0.20833296531E+03  0.23376873210E+03  0.41800000000E+01 0.  1.
        -11    1    3    3    0    0  0.14617371799E+02  0.17791977090E+02 -0.10120284485E+03  0.10378939162E+03  0.00000000000E+00 0. -1.
         11    1    3    3    0    0  0.26232745465E+02  0.39832891836E+02  0.33192060083E+01  0.47810389406E+02  0.00000000000E+00 0.  1.
</event>
<event>
 8    1  0.9181008E-006  0.7978887E+02  0.7561462E-02  0.1329652E+00
          1   -1    0    0  501    0  0.00000000000E+00  0.00000000000E+00  0.20909624578E+03  0.20909624578E+03  0.00000000000E+00 0. -1.
         -1   -1    0    0    0  501 -0.00000000000E+00 -0.00000000000E+00 -0.20858282813E+03  0.20858282813E+03  0.00000000000E+00 0.  1.
         23    2    1    2    0    0  0.35433358010E+02  0.14367854117E+02 -0.17287672828E+03  0.20048581943E+03  0.94054465723E+02 0.  0.
         23    2    1    2    0    0 -0.35433358010E+02 -0.14367854117E+02  0.17339014593E+03  0.21719325448E+03  0.12508720556E+03 0.  0.
          5    1    4    4  502    0 -0.36239873252E+02 -0.32210565702E+02  0.18771397648E+03  0.19391972133E+03  0.41800000000E+01 0.  1.
         -5    1    4    4    0  502  0.80651524192E+00  0.17842711585E+02 -0.14323830550E+02  0.23273533148E+02  0.41800000000E+01 0.  1.
        -11    1    3    3    0    0  0.29132701427E+02  0.49196275076E+02 -0.14356241804E+03  0.15452881818E+03  0.00000000000E+00 0.  1.
         11    1    3    3    0    0  0.63006565835E+01 -0.34828420959E+02 -0.29314310239E+02  0.45957001258E+02  0.00000000000E+00 0. -1.
</event>
<event>
 8    1  0.9181008E-006  0.1106557E+03  0.7561462E-02  0.1259360E+00
         -3   -1    0    0    0  501 -0.00000000000E+00  0.00000000000E+00  0.16642417088E+03  0.16642417088E+03  0.00000000000E+00 0.  1.
          3   -1    0    0  501    0  0.00000000000E+00 -0.00000000000E+00 -0.17371270190E+03  0.17371270190E+03  0.00000000000E+00 0. -1.
         23    2    1    2    0    0 -0.21799066000E+02 -0.33138725055E+02  0.12327069140E+03  0.16046155425E+03  0.94756913508E+02 0.  0.
         23    2    1    2    0    0  0.21799066000E+02  0.33138725055E+02 -0.13055922242E+03  0.17967531853E+03  0.11689369167E+03 0.  0.
          5    1    4    4  502    0  0.64092018874E+02  0.45542587454E+02 -0.76230936862E+02  0.10959261969E+03  0.41800000000E+01 0. -1.
         -5    1    4    4    0  502 -0.42292952873E+02 -0.12403862399E+02 -0.54328285558E+02  0.70082698841E+02  0.41800000000E+01 0.  1.
        -11    1    3    3    0    0 -0.51530353895E+02  0.28653320504E+01  0.41201009818E+02  0.66038706153E+02  0.00000000000E+00 0.  1.
         11    1    3    3    0    0  0.29731287895E+02 -0.36004057105E+02  0.82069681583E+02  0.94422848099E+02  0.00000000000E+00 0. -1.
</event>
<event>
 8    1  0.9181008E-006  0.1360281E+03  0.7561462E-02  0.1218776E+00
         -1   -1    0    0    0  501 -0.00000000000E+00  0.00000000000E+00  0.24712585887E+02  0.24712585887E+02  0.00000000000E+00 0.  1.
          1   -1    0    0  501    0  0.00000000000E+00 -0.00000000000E+00 -0.97394337042E+03  0.97394337042E+03  0.00000000000E+00 0. -1.
         23    2    1    2    0    0  0.52763458783E+02  0.73341267710E+02 -0.27259862986E+03  0.30465235126E+03  0.10168637074E+03 0.  0.
         23    2    1    2    0    0 -0.52763458783E+02 -0.73341267710E+02 -0.67663215467E+03  0.69400360504E+03  0.12508799682E+03 0.  0.
          5    1    4    4  502    0  0.39565329627E+02 -0.38982101208E+02 -0.24559489414E+03  0.25183197563E+03  0.41800000000E+01 0. -1.
         -5    1    4    4    0  502 -0.92328788410E+02 -0.34359166502E+02 -0.43103726053E+03  0.44217162941E+03  0.41800000000E+01 0. -1.
        -11    1    3    3    0    0  0.71628008993E+02  0.48259802869E+02 -0.11424316634E+03  0.14321690299E+03  0.00000000000E+00 0.  1.
         11    1    3    3    0    0 -0.18864550211E+02  0.25081464841E+02 -0.15835546351E+03  0.16143544827E+03  0.00000000000E+00 0. -1.
</event>
<event>
 8    1  0.9181008E-006  0.9586340E+02  0.7561462E-02  0.1289243E+00
         -2   -1    0    0    0  501 -0.00000000000E+00  0.00000000000E+00  0.18840445432E+02  0.18840445432E+02  0.00000000000E+00 0.  1.
          2   -1    0    0  501    0  0.00000000000E+00 -0.00000000000E+00 -0.69510713944E+03  0.69510713944E+03  0.00000000000E+00 0. -1.
         23    2    1    2    0    0 -0.63054268221E+01 -0.20632717805E+02 -0.19206834042E+03  0.21338678735E+03  0.90433435045E+02 0.  0.
         23    2    1    2    0    0  0.63054268221E+01  0.20632717805E+02 -0.48419835359E+03  0.50056079752E+03  0.12509036311E+03 0.  0.
          5    1    4    4  502    0 -0.44495674809E+02  0.49217512098E+02 -0.21285381887E+03  0.22299428060E+03  0.41800000000E+01 0. -1.
         -5    1    4    4    0  502  0.50801101631E+02 -0.28584794293E+02 -0.27134453472E+03  0.27756651692E+03  0.41800000000E+01 0. -1.
        -11    1    3    3    0    0  0.24217982954E+02 -0.26309007166E+02 -0.25425012111E+02  0.43876027592E+02  0.00000000000E+00 0.  1.
         11    1    3    3    0    0 -0.30523409776E+02  0.56762893613E+01 -0.16664332831E+03  0.16951075976E+03  0.00000000000E+00 0. -1.
</event>
<event>
 8    1  0.9181008E-006  0.9637962E+02  0.7561462E-02  0.1288099E+00
          2   -1    0    0  501    0  0.00000000000E+00  0.00000000000E+00  0.56607712023E+03  0.56607712023E+03  0.00000000000E+00 0. -1.
         -2   -1    0    0    0  501 -0.00000000000E+00 -0.00000000000E+00 -0.24026847753E+02  0.24026847753E+02  0.00000000000E+00 0.  1.
         23    2    1    2    0    0 -0.20308353263E+02 -0.32473889107E+02  0.16704138525E+03  0.19293429839E+03  0.88621873264E+02 0.  0.
         23    2    1    2    0    0  0.20308353263E+02  0.32473889107E+02  0.37500888722E+03  0.39716966959E+03  0.12508036722E+03 0.  0.
          5    1    4    4  502    0 -0.28900625080E+02 -0.20030938890E+02  0.35680520666E+02  0.50269837853E+02  0.41800000000E+01 0.  1.
         -5    1    4    4    0  502  0.49208978343E+02  0.52504827997E+02  0.33932836655E+03  0.34689983174E+03  0.41800000000E+01 0.  1.
        -11    1    3    3    0    0 -0.27144447311E+00 -0.55067357303E+02  0.14624098601E+03  0.15626552246E+03  0.00000000000E+00 0. -1.
         11    1    3    3    0    0 -0.20036908790E+02  0.22593468197E+02  0.20800399248E+02  0.36668775926E+02  0.00000000000E+00 0.  1.
</event>
<event>
 8    1  0.9181008E-006  0.1066410E+03  0.7561462E-02  0.1266920E+00
         -1   -1    0    0    0  501 -0.00000000000E+00  0.00000000000E+00  0.36054061087E+02  0.36054061087E+02  0.00000000000E+00 0.  1.
          1   -1    0    0  501    0  0.00000000000E+00 -0.00000000000E+00 -0.68455753575E+03  0.68455753575E+03  0.00000000000E+00 0. -1.
         23    2    1    2    0    0 -0.35467763067E+02 -0.66048261584E+02 -0.10436088969E+03  0.15726534596E+03  0.90668950966E+02 0.  0.
         23    2    1    2    0    0  0.35467763067E+02  0.66048261584E+02 -0.54414258498E+03  0.56334625088E+03  0.12509000965E+03 0.  0.
          5    1    4    4  502    0 -0.16051541114E+01  0.79322056704E+02 -0.17625411066E+03  0.19333274199E+03  0.41800000000E+01 0.  1.
         -5    1    4    4    0  502  0.37072917179E+02 -0.13273795120E+02 -0.36788847432E+03  0.37001350889E+03  0.41800000000E+01 0.  1.
        -11    1    3    3    0    0  0.55966739515E+01 -0.49734636223E+02 -0.10128076281E+03  0.11297189790E+03  0.00000000000E+00 0. -1.
         11    1    3    3    0    0 -0.41064437019E+02 -0.16313625361E+02 -0.30801268808E+01  0.44293448067E+02  0.00000000000E+00 0.  1.
</event>
<event>
 8    1  0.9181008E-006  0.1257359E+03  0.7561462E-02  0.1233924E+00
         -1   -1    0    0    0  501 -0.00000000000E+00  0.00000000000E+00  0.32924337203E+03  0.32924337203E+03  0.00000000000E+00 0.  1.
          1   -1    0    0  501    0  0.00000000000E+00 -0.00000000000E+00 -0.68421207298E+02  0.68421207298E+02  0.00000000000E+00 0. -1.
         23    2    1    2    0    0  0.19077925799E+00  0.78998902800E+02  0.20589020949E+03  0.23984979146E+03  0.94320098912E+02 0.  0.
         23    2    1    2    0    0 -0.19077925799E+00 -0.78998902800E+02  0.54931955244E+02  0.15781478787E+03  0.12508846679E+03 0.  0.
          5    1    4    4  502    0 -0.32370919501E+02 -0.10217506577E+03  0.32579626802E+02  0.11210051283E+03  0.41800000000E+01 0. -1.
         -5    1    4    4    0  502  0.32180140243E+02  0.23176162966E+02  0.22352328442E+02  0.45714275043E+02  0.41800000000E+01 0. -1.
        -11    1    3    3    0    0  0.34127717481E+02  0.36985972692E+02  0.16386247075E+03  0.17141637203E+03  0.00000000000E+00 0.  1.
         11    1    3    3    0    0 -0.33936938223E+02  0.42012930109E+02  0.42027738735E+02  0.68433419434E+02  0.00000000000E+00 0. -1.
</event>
<event>
 8    1  0.9181008E-006  0.1019950E+03  0.7561462E-02  0.1276156E+00
         -1   -1    0    0    0  501 -0.00000000000E+00  0.00000000000E+00  0.11423309175E+02  0.11423309175E+02  0.00000000000E+00 0.  1.
          1   -1    0    0  501    0  0.00000000000E+00 -0.00000000000E+00 -0.11560388636E+04  0.11560388636E+04  0.00000000000E+00 0. -1.
         23    2    1    2    0    0 -0.21376029020E+02  0.16674570337E+00 -0.37107010889E+03  0.38361996158E+03  0.94943597981E+02 0.  0.
         23    2    1    2    0    0  0.21376029020E+02 -0.16674570337E+00 -0.77354544556E+03  0.78384221121E+03  0.12481623816E+03 0.  0.
          5    1    4    4  502    0 -0.21094762640E+02 -0.43584825742E+02 -0.55037908984E+03  0.55252080592E+03  0.41800000000E+01 0. -1.
         -5    1    4    4    0  502  0.42470791660E+02  0.43418080039E+02 -0.22316635572E+03  0.23132140529E+03  0.41800000000E+01 0.  1.
        -11    1    3    3    0    0 -0.49787831505E+02 -0.25749460657E+02 -0.26313114063E+03  0.26903505359E+03  0.00000000000E+00 0. -1.
         11    1    3    3    0    0  0.28411802485E+02  0.25916206361E+02 -0.10793896825E+03  0.11458490800E+03  0.00000000000E+00 0.  1.
</event>
<event>
 8    1  0.9181008E-006  0.9473398E+02  0.7561462E-02  0.1291776E+00
          2   -1    0    0  501    0  0.00000000000E+00  0.00000000000E+00  0.12109712042E+04  0.12109712042E+04  0.00000000000E+00 0. -1.
         -2   -1    0    0    0  501 -0.00000000000E+00 -0.00000000000E+00 -0.10583527259E+02  0.10583527259E+02  0.00000000000E+00 0.  1.
         23    2    1    2    0    0 -0.93463609900E+01 -0.11099922985E+02  0.36396257120E+03  0.37570183768E+03  0.92046482009E+02 0.  0.
         23    2    1    2    0    0  0.93463609900E+01  0.11099922985E+02  0.83642510577E+03  0.84585289380E+03  0.12509835187E+03 0.  0.
          5    1    4    4  502    0  0.54601102327E+02  0.17839568801E+01  0.18937078914E+03  0.19713759423E+03  0.41800000000E+01 0. -1.
         -5    1    4    4    0  502 -0.45254741337E+02  0.93159661054E+01  0.64705431662E+03  0.64871529957E+03  0.41800000000E+01 0. -1.
        -11    1    3    3    0    0  0.26684167973E+02 -0.35764128634E+02  0.12365848476E+03  0.13146306923E+03  0.00000000000E+00 0.  1.
         11    1    3    3    0    0 -0.36030528963E+02  0.24664205649E+02  0.24030408644E+03  0.24423876845E+03  0.00000000000E+00 0. -1.
</event>
<event>
 8    1  0.9181008E-006  0.1013690E+03  0.7561462E-02  0.1277443E+00
          4   -1    0    0  501    0  0.00000000000E+00  0.00000000000E+00  0.12636444672E+03  0.12636444672E+03  0.00000000000E+00 0. -1.
         -4   -1    0    0    0  501 -0.00000000000E+00 -0.00000000000E+00 -0.20042707008E+03  0.20042707008E+03  0.00000000000E+00 0.  1.
         23    2    1    2    0    0  0.46625326480E+02 -0.10579266351E+02 -0.14182391694E+03  0.17670675767E+03  0.93943668461E+02 0.  0.
         23    2    1    2    0    0 -0.46625326480E+02  0.10579266351E+02  0.67761293582E+02  0.15008475913E+03  0.12509196644E+03 0.  0.
          5    1    4    4  502    0  0.48441758707E+01 -0.45162355546E+02 -0.37160726331E+01  0.45764462131E+02  0.41800000000E+01 0.  1.
         -5    1    4    4    0  502 -0.51469502350E+02  0.55741621897E+02  0.71477366215E+02  0.10432029699E+03  0.41800000000E+01 0.  1.
        -11    1    3    3    0    0  0.59693958239E+02 -0.22163766762E+02 -0.14553273549E+03  0.15885332325E+03  0.00000000000E+00 0.  1.
         11    1    3    3    0    0 -0.13068631759E+02  0.11584500411E+02  0.37088185455E+01  0.17853434426E+02  0.00000000000E+00 0. -1.
</event>
<event>
 8    1  0.9181008E-006  0.1050996E+03  0.7561462E-02  0.1269923E+00
         -3   -1    0    0    0  501 -0.00000000000E+00  0.00000000000E+00  0.34143255280E+02  0.34143255280E+02  0.00000000000E+00 0.  1.
          3   -1    0    0  501    0  0.00000000000E+00 -0.00000000000E+00 -0.39225149063E+03  0.39225149063E+03  0.00000000000E+00 0. -1.
         23    2    1    2    0    0  0.19704891608E+02  0.27003141605E+02 -0.11074049413E+03  0.14718891034E+03  0.91014646497E+02 0.  0.
         23    2    1    2    0    0 -0.19704891608E+02 -0.27003141605E+02 -0.24736774122E+03  0.27920583557E+03  0.12509055444E+03 0.  0.
          5    1    4    4  502    0 -0.70019266935E+02 -0.22310244331E+02 -0.18311937816E+03  0.19735912394E+03  0.41800000000E+01 0.  1.
         -5    1    4    4    0  502  0.50314375326E+02 -0.46928972739E+01 -0.64248363063E+02  0.81846711636E+02  0.41800000000E+01 0.  1.
        -11    1    3    3    0    0 -0.86826347508E+00 -0.27560460918E+02 -0.74308082802E+01  0.28557832536E+02  0.00000000000E+00 0.  1.
         11    1    3    3    0    0  0.20573155084E+02  0.54563602523E+02 -0.10330968585E+03  0.11863107781E+03  0.00000000000E+00 0. -1.
</event>
<event>
 8    1  0.9181008E-006  0.1027801E+03  0.7561462E-02  0.1274556E+00
          2   -1    0    0  501    0  0.00000000000E+00  0.00000000000E+00  0.11430215942E+04  0.11430215942E+04  0.00000000000E+00 0. -1.
         -2   -1    0    0    0  501 -0.00000000000E+00 -0.00000000000E+00 -0.16095327488E+02  0.16095327488E+02  0.00000000000E+00 0.  1.
         23    2    1    2    0    0  0.60104708658E+02  0.29119455811E+01  0.27528169431E+03  0.29623414177E+03  0.91398031122E+02 0.  0.
         23    2    1    2    0    0 -0.60104708658E+02 -0.29119455811E+01  0.85164457235E+03  0.86288277988E+03  0.12508860365E+03 0.  0.
          5    1    4    4  502    0 -0.11512868545E+02  0.36473986573E+02  0.80797300056E+02  0.89490636018E+02  0.41800000000E+01 0.  1.
         -5    1    4    4    0  502 -0.48591840113E+02 -0.39385932154E+02  0.77084727229E+03  0.77339214386E+03  0.41800000000E+01 0.  1.
        -11    1    3    3    0    0  0.47729394808E+02  0.41887205290E+02  0.12132718164E+03  0.13694129436E+03  0.00000000000E+00 0.  1.
         11    1    3    3    0    0  0.12375313850E+02 -0.38975259709E+02  0.15395451268E+03  0.15929284741E+03  0.00000000000E+00 0. -1.
</event>
<event>
 8    1  0.2165920E-005  0.2815219E+03  0.7561462E-02  0.1094861E+00
          1   -1    0    0  501    0  0.00000000000E+00  0.00000000000E+00  0.41767351987E+02  0.41767351987E+02  0.00000000000E+00 0. -1.
         -1   -1    0    0    0  501 -0.00000000000E+00 -0.00000000000E+00 -0.22043184614E+04  0.22043184614E+04  0.00000000000E+00 0.  1.
         23    2    1    2    0    0 -0.23070103693E+03  0.12801978928E+03 -0.14420948344E+04  0.14687077277E+04  0.88616269030E+02 0.  0.
         23    2    1    2    0    0  0.23070103693E+03 -0.12801978928E+03 -0.72045627506E+03  0.77737808572E+03  0.12508960390E+03 0.  0.
          5    1    4    4  502    0  0.24548929414E+03 -0.12392475841E+03 -0.69400592861E+03  0.74651459505E+03  0.41800000000E+01 0.  1.
         -5    1    4    4    0  502 -0.14788257207E+02 -0.40950308623E+01 -0.26450346449E+02  0.30863490669E+02  0.41800000000E+01 0.  1.
        -11    1    3    3    0    0 -0.28924186706E+02 -0.64493808507E+01 -0.82532919096E+02  0.87691994073E+02  0.00000000000E+00 0. -1.
         11    1    3    3    0    0 -0.20177685023E+03  0.13446917013E+03 -0.13595619153E+04  0.13810157336E+04  0.00000000000E+00 0.  1.
</event>
<event>
 8    1  0.9181008E-006  0.1505778E+03  0.7561462E-02  0.1199765E+00
          1   -1    0    0  501    0  0.00000000000E+00  0.00000000000E+00  0.88584045078E+02  0.88584045078E+02  0.00000000000E+00 0. -1.
         -1   -1    0    0    0  501 -0.00000000000E+00 -0.00000000000E+00 -0.29297708266E+03  0.29297708266E+03  0.00000000000E+00 0.  1.
         23    2    1    2    0    0  0.10553055913E+03 -0.53093641512E+02 -0.77710285535E+02  0.16789802685E+03  0.90527483460E+02 0.  0.
         23    2    1    2    0    0 -0.10553055913E+03  0.53093641512E+02 -0.12668275204E+03  0.21366310089E+03  0.12509103619E+03 0.  0.
          5    1    4    4  502    0  0.39994990851E+01  0.47880159770E+02 -0.82102020188E+02  0.95219324780E+02  0.41800000000E+01 0. -1.
         -5    1    4    4    0  502 -0.10953005822E+03  0.52134817425E+01 -0.44580731856E+02  0.11844377611E+03  0.41800000000E+01 0. -1.
        -11    1    3    3    0    0  0.92253742326E+02 -0.40045303769E+01 -0.27295623536E+02  0.96290395684E+02  0.00000000000E+00 0. -1.
         11    1    3    3    0    0  0.13276816809E+02 -0.49089111136E+02 -0.50414661999E+02  0.71607631165E+02  0.00000000000E+00 0.  1.
</event>
<event>
 6    1  0.9181008E-006  0.2517319E+03  0.7561462E-02  0.1112215E+00
         -2   -1    0    0    0  501 -0.00000000000E+00  0.00000000000E+00  0.12619120606E+03  0.12619120606E+03  0.00000000000E+00 0.  1.
          2   -1    0    0  501    0  0.00000000000E+00 -0.00000000000E+00 -0.14006290759E+04  0.14006290759E+04  0.00000000000E+00 0. -1.
          5    1    1    2  502    0 -0.19404351022E+03  0.92753762428E+02 -0.81764643893E+03  0.84546987871E+03  0.41800000000E+01 0. -1.
         -5    1    1    2    0  502  0.13166321363E+03 -0.93722928515E+02 -0.49516756753E+03  0.52089114169E+03  0.41800000000E+01 0.  1.
        -11    1    1    2    0    0  0.20724115322E+02  0.54816484141E+02  0.64856823909E+02  0.87411346500E+02  0.00000000000E+00 0.  1.
         11    1    1    2    0    0  0.41656181266E+02 -0.53847318055E+02 -0.26480687325E+02  0.73047915101E+02  0.00000000000E+00 0. -1.
</event>
<event>
 8    1  0.9181008E-006  0.7836508E+02  0.7561462E-02  0.1333756E+00
          1   -1    0    0  501    0  0.00000000000E+00  0.00000000000E+00  0.10510252108E+04  0.10510252108E+04  0.00000000000E+00 0. -1.
         -1   -1    0    0    0  501 -0.00000000000E+00 -0.00000000000E+00 -0.11999409485E+02  0.11999409485E+02  0.00000000000E+00 0.  1.
         23    2    1    2    0    0 -0.20393813715E+02 -0.22282925299E+01  0.32816850984E+03  0.34095370832E+03  0.90188621438E+02 0.  0.
         23    2    1    2    0    0  0.20393813715E+02  0.22282925299E+01  0.71085729151E+03  0.72207091200E+03  0.12508972838E+03 0.  0.
          5    1    4    4  502    0  0.17207459476E+02  0.30790761236E+02  0.67497251619E+03  0.67590645629E+03  0.41800000000E+01 0. -1.
         -5    1    4    4    0  502  0.31863542396E+01 -0.28562468706E+02  0.35884775317E+02  0.46164455715E+02  0.41800000000E+01 0. -1.
        -11    1    3    3    0    0 -0.46450417808E+02 -0.29040129388E+02  0.20883380474E+03  0.21589934792E+03  0.00000000000E+00 0. -1.
         11    1    3    3    0    0  0.26056604093E+02  0.26811836859E+02  0.11933470511E+03  0.12505436040E+03  0.00000000000E+00 0.  1.
</event>
<event>
 8    1  0.9181008E-006  0.8667093E+02  0.7561462E-02  0.1311120E+00
          3   -1    0    0  501    0  0.00000000000E+00  0.00000000000E+00  0.49142492015E+02  0.49142492015E+02  0.00000000000E+00 0. -1.
         -3   -1    0    0    0  501 -0.00000000000E+00 -0.00000000000E+00 -0.44364636954E+03  0.44364636954E+03  0.00000000000E+00 0.  1.
         23    2    1    2    0    0  0.44519386520E+02  0.56555301155E+02 -0.29660415507E+03  0.31840042563E+03  0.90688082854E+02 0.  0.
         23    2    1    2    0    0 -0.44519386520E+02 -0.56555301155E+02 -0.97899722451E+02  0.17438843592E+03  0.12508594270E+03 0.  0.
          5    1    4    4  502    0 -0.62372404004E+02 -0.32779991778E+02 -0.11853282669E+03  0.13795777631E+03  0.41800000000E+01 0.  1.
         -5    1    4    4    0  502  0.17853017484E+02 -0.23775309378E+02  0.20633104236E+02  0.36430659611E+02  0.41800000000E+01 0.  1.
        -11    1    3    3    0    0  0.67335912515E+01  0.15693508968E+02 -0.47181165782E+00  0.17083620258E+02  0.00000000000E+00 0. -1.
         11    1    3    3    0    0  0.37785795269E+02  0.40861792187E+02 -0.29613234342E+03  0.30131680538E+03  0.00000000000E+00 0.  1.
</event>
<event>
 8    1  0.9181008E-006  0.1105643E+03  0.7561462E-02  0.1259528E+00
          2   -1    0    0  501    0  0.00000000000E+00  0.00000000000E+00  0.69535112445E+03  0.69535112445E+03  0.00000000000E+00 0. -1.
         -2   -1    0    0    0  501 -0.00000000000E+00 -0.00000000000E+00 -0.24104868223E+02  0.24104868223E+02  0.00000000000E+00 0.  1.
         23    2    1    2    0    0 -0.50676300343E+02 -0.52859366322E+02  0.20312840804E+03  0.22940003007E+03  0.77466274090E+02 0.  0.
         23    2    1    2    0    0  0.50676300343E+02  0.52859366322E+02  0.46811784819E+03  0.49005596260E+03  0.12513323564E+03 0.  0.
          5    1    4    4  502    0 -0.22643193914E+02  0.36673660642E+02  0.54259081365E+02  0.69420399927E+02  0.41800000000E+01 0. -1.
         -5    1    4    4    0  502  0.73319494257E+02  0.16185705680E+02  0.41385876682E+03  0.42063556267E+03  0.41800000000E+01 0. -1.
        -11    1    3    3    0    0 -0.61499488633E+01 -0.57526584680E+02  0.82774854712E+02  0.10098913995E+03  0.00000000000E+00 0.  1.
         11    1    3    3    0    0 -0.44526351480E+02  0.46672183580E+01  0.12035355332E+03  0.12841089012E+03  0.00000000000E+00 0. -1.
</event>
<event>
 7    1  0.9181008E-006  0.3528647E+03  0.7561462E-02  0.1061445E+00
         -2   -1    0    0    0  501 -0.00000000000E+00  0.00000000000E+00  0.70434009349E+02  0.70434009349E+02  0.00000000000E+00 0.  1.
          2   -1    0    0  501    0  0.00000000000E+00 -0.00000000000E+00 -0.18578397232E+04  0.18578397232E+04  0.00000000000E+00 0. -1.
         23    2    1    2    0    0  0.23327296249E+03 -0.22693340838E+03 -0.67020238253E+03  0.75048280950E+03  0.90211789354E+02 0.  0.
          5    1    1    2  502    0 -0.23413673240E+03  0.25347873878E+03 -0.10126494741E+04  0.10698354594E+04  0.41800000000E+01 0. -1.
         -5    1    1    2    0  502  0.86376990757E+00 -0.26545330404E+02 -0.10455385731E+03  0.10795546370E+03  0.41800000000E+01 0.  1.
        -11    1    3    3    0    0  0.99512298584E+02 -0.14828623708E+03 -0.30085158127E+03  0.34986165784E+03  0.00000000000E+00 0.  1.
         11    1    3    3    0    0  0.13376066391E+03 -0.78647171294E+02 -0.36935080126E+03  0.40062115165E+03  0.00000000000E+00 0. -1.
</event>
<event>
 8    1  0.9181008E-006  0.1138450E+03  0.7561462E-02  0.1253611E+00
          1   -1    0    0  501    0  0.00000000000E+00  0.00000000000E+00  0.18976680879E+03  0.18976680879E+03  0.00000000000E+00 0. -1.
         -1   -1    0    0    0  501 -0.00000000000E+00 -0.00000000000E+00 -0.79310155143E+02  0.79310155143E+02  0.00000000000E+00 0.  1.
         23    2    1    2    0    0 -0.33116972908E+02  0.40478643045E+02  0.22067535285E+02  0.10722389668E+03  0.90965561996E+02 0.  0.
         23    2    1    2    0    0  0.33116972908E+02 -0.40478643045E+02  0.88389118365E+02  0.16185306725E+03  0.12509406339E+03 0.  0.
          5    1    4    4  502    0  0.55799538542E+02 -0.70521269536E+02  0.35432379379E+02  0.96745872610E+02  0.41800000000E+01 0. -1.
         -5    1    4    4    0  502 -0.22682565634E+02  0.30042626491E+02  0.52956738985E+02  0.65107194642E+02  0.41800000000E+01 0. -1.
        -11    1    3    3    0    0 -0.22606043804E+02  0.67293716239E+02  0.30424820571E+02  0.77234365204E+02  0.00000000000E+00 0. -1.
         11    1    3    3    0    0 -0.10510929104E+02 -0.26815073194E+02 -0.83572852863E+01  0.29989531480E+02  0.00000000000E+00 0.  1.
</event>
<event>
 8    1  0.9181008E-006  0.9043418E+02  0.7561462E-02  0.1301804E+00
         -1   -1    0    0    0  501 -0.00000000000E+00  0.00000000000E+00  0.45530739636E+02  0.45530739636E+02  0.00000000000E+00 0.  1.
          1   -1    0    0  501    0  0.00000000000E+00 -0.00000000000E+00 -0.36728491957E+03  0.36728491957E+03  0.00000000000E+00 0. -1.
         23    2    1    2    0    0  0.50121369886E+02 -0.45383806715E+02 -0.11161846474E+03  0.15909140832E+03  0.90992048556E+02 0.  0.
         23    2    1    2    0    0 -0.50121369886E+02  0.45383806715E+02 -0.21013571519E+03  0.25372425088E+03  0.12508850888E+03 0.  0.
          5    1    4    4  502    0 -0.13387461846E+01  0.48307721065E+02 -0.12497660371E+02  0.50090838190E+02  0.41800000000E+01 0. -1.
         -5    1    4    4    0  502 -0.48782623702E+02 -0.29239143498E+01 -0.19763805482E+03  0.20363341269E+03  0.41800000000E+01 0. -1.
        -11    1    3    3    0    0 -0.34793434961E+00 -0.30768034176E+02 -0.10087197388E+03  0.10546064716E+03  0.00000000000E+00 0. -1.
         11    1    3    3    0    0  0.50469304236E+02 -0.14615772539E+02 -0.10746490859E+02  0.53630761161E+02  0.00000000000E+00 0.  1.
</event>
<event>
 8    1  0.9181008E-006  0.8782113E+02  0.7561462E-02  0.1308216E+00
          1   -1    0    0  501    0  0.00000000000E+00  0.00000000000E+00  0.85961321201E+03  0.85961321201E+03  0.00000000000E+00 0. -1.
         -1   -1    0    0    0  501 -0.00000000000E+00 -0.00000000000E+00 -0.14824086829E+02  0.14824086829E+02  0.00000000000E+00 0.  1.
         23    2    1    2    0    0 -0.20454466498E+02  0.24400078368E+02  0.37477256656E+03  0.38702014499E+03  0.91194116919E+02 0.  0.
         23    2    1    2    0    0  0.20454466498E+02 -0.24400078368E+02  0.47001655862E+03  0.48741715385E+03  0.12508464119E+03 0.  0.
          5    1    4    4  502    0  0.52722474918E+01 -0.49658617779E+02  0.68893867929E+02  0.85191621369E+02  0.41800000000E+01 0. -1.
         -5    1    4    4    0  502  0.15182219006E+02  0.25258539411E+02  0.40112269070E+03  0.40222553248E+03  0.41800000000E+01 0. -1.
        -11    1    3    3    0    0  0.33124180865E+02  0.26081227680E+02  0.14027128298E+03  0.14647004685E+03  0.00000000000E+00 0.  1.
         11    1    3    3    0    0 -0.53578647363E+02 -0.16811493117E+01  0.23450128358E+03  0.24055009814E+03  0.00000000000E+00 0. -1.
</event>
<event>
 7    1  0.9181008E-006  0.1170507E+03  0.7561462E-02  0.1248043E+00
          2   -1    0    0  501    0  0.00000000000E+00  0.00000000000E+00  0.49371721384E+03  0.49371721384E+03  0.00000000000E+00 0. -1.
         -2   -1    0    0    0  501 -0.00000000000E+00 -0.00000000000E+00 -0.46203608750E+02  0.46203608750E+02  0.00000000000E+00 0.  1.
         23    2    1    2    0    0  0.77873721269E+02  0.34582046389E+02  0.23445948693E+03  0.26438642175E+03  0.87571083134E+02 0.  0.
          5    1    1    2  502    0  0.12648699212E+02  0.17510586138E+02  0.15383371499E+03  0.15539914571E+03  0.41800000000E+01 0. -1.
         -5    1    1    2    0  502 -0.90522420482E+02 -0.52092632527E+02  0.59220403176E+02  0.12013525513E+03  0.41800000000E+01 0.  1.
        -11    1    3    3    0    0  0.27874036947E+02 -0.19426136192E+02  0.24463677443E+02  0.41866552487E+02  0.00000000000E+00 0. -1.
         11    1    3    3    0    0  0.49999684322E+02  0.54008182581E+02  0.20999580948E+03  0.22251986927E+03  0.00000000000E+00 0.  1.
</event>
<event>
 8    1  0.9181008E-006  0.9580880E+02  0.7561462E-02  0.1289365E+00
          3   -1    0    0  501    0  0.00000000000E+00  0.00000000000E+00  0.13449482279E+03  0.13449482279E+03  0.00000000000E+00 0. -1.
         -3   -1    0    0    0  501 -0.00000000000E+00 -0.00000000000E+00 -0.12404339039E+03  0.12404339039E+03  0.00000000000E+00 0.  1.
         23    2    1    2    0    0  0.14511083376E+02  0.30150321465E+01 -0.65096482413E+02  0.11165487414E+03  0.89496351525E+02 0.  0.
         23    2    1    2    0    0 -0.14511083376E+02 -0.30150321465E+01  0.75547914814E+02  0.14688333905E+03  0.12509023103E+03 0.  0.
          5    1    4    4  502    0 -0.68782295642E+02  0.10721116217E+01  0.27631127110E+02  0.74250287559E+02  0.41800000000E+01 0. -1.
         -5    1    4    4    0  502  0.54271212266E+02 -0.40871437682E+01  0.47916787704E+02  0.72633051491E+02  0.41800000000E+01 0. -1.
        -11    1    3    3    0    0  0.31695402153E+02  0.24887935231E+02 -0.72432073964E+02  0.82887955557E+02  0.00000000000E+00 0.  1.
         11    1    3    3    0    0 -0.17184318777E+02 -0.21872903084E+02  0.73355915511E+01  0.28766918579E+02  0.00000000000E+00 0. -1.
</event>
<event>
 8    1  0.9181008E-006  0.1362569E+03  0.7561462E-02  0.1218456E+00
          2   -1    0    0  501    0  0.00000000000E+00  0.00000000000E+00  0.74905302412E+03  0.74905302412E+03  0.00000000000E+00 0. -1.
         -2   -1    0    0    0  501 -0.00000000000E+00 -0.00000000000E+00 -0.31163747391E+02  0.31163747391E+02  0.00000000000E+00 0.  1.
         23    2    1    2    0    0 -0.88047619954E+02  0.51718324862E+02  0.25576303068E+03  0.29068833614E+03  0.93047366452E+02 0.  0.
         23    2    1    2    0    0  0.88047619954E+02 -0.51718324862E+02  0.46212624605E+03  0.48952843537E+03  0.12510097216E+03 0.  0.
          5    1    4    4  502    0  0.11915756307E+03 -0.51641989606E+02  0.38059000374E+03  0.40215872896E+03  0.41800000000E+01 0. -1.
         -5    1    4    4    0  502 -0.31109943118E+02 -0.76335256149E-01  0.81536242310E+02  0.87369706409E+02  0.41800000000E+01 0. -1.
        -11    1    3    3    0    0 -0.37846171238E+02 -0.17001034543E+01  0.18117754799E+02  0.41993762252E+02  0.00000000000E+00 0.  1.
         11    1    3    3    0    0 -0.50201448717E+02  0.53418428316E+02  0.23764527588E+03  0.24869457389E+03  0.00000000000E+00 0. -1.
</event>
<event>
 8    1  0.9181008E-006  0.1602653E+03  0.7561462E-02  0.1188398E+00
         -2   -1    0    0    0  501 -0.00000000000E+00  0.00000000000E+00  0.32454932514E+02  0.32454932514E+02  0.00000000000E+00 0.  1.
          2   -1    0    0  501    0  0.00000000000E+00 -0.00000000000E+00 -0.10504264676E+04  0.10504264676E+04  0.00000000000E+00 0. -1.
         23    2    1    2    0    0 -0.13837766854E+03  0.50120588904E+02 -0.41091607204E+03  0.44583808834E+03  0.90879756660E+02 0.  0.
         23    2    1    2    0    0  0.13837766854E+03 -0.50120588904E+02 -0.60705546300E+03  0.63704331173E+03  0.12508954106E+03 0.  0.
          5    1    4    4  502    0  0.85618647780E+02 -0.27719295180E+02 -0.54526733895E+03  0.55265980087E+03  0.41800000000E+01 0.  1.
         -5    1    4    4    0  502  0.52759020755E+02 -0.22401293724E+02 -0.61788124051E+02  0.84383510862E+02  0.41800000000E+01 0.  1.
        -11    1    3    3    0    0 -0.88733963076E+02  0.76137593048E+02 -0.27649425929E+03  0.30019947484E+03  0.00000000000E+00 0.  1.
         11    1    3    3    0    0 -0.49643705460E+02 -0.26017004144E+02 -0.13442181276E+03  0.14563861350E+03  0.00000000000E+00 0. -1.
</event>
<event>
 8    1  0.9181008E-006  0.9512263E+02  0.7561462E-02  0.1290900E+00
          2   -1    0    0  501    0  0.00000000000E+00  0.00000000000E+00  0.84245704160E+02  0.84245704160E+02  0.00000000000E+00 0.  1.
         -2   -1    0    0    0  501 -0.00000000000E+00 -0.00000000000E+00 -0.19483194987E+03  0.19483194987E+03  0.00000000000E+00 0. -1.
         23    2    1    2    0    0 -0.25473999691E+01 -0.30381180100E+02 -0.11661780598E+03  0.15018546466E+03  0.89590489295E+02 0.  0.
         23    2    1    2    0    0  0.25473999691E+01  0.30381180100E+02  0.60315602721E+01  0.12889218937E+03  0.12508921380E+03 0.  0.
          5    1    4    4  502    0  0.31403283872E+02 -0.38453008062E+02  0.18418803454E+02  0.53118026956E+02  0.41800000000E+01 0.  1.
         -5    1    4    4    0  502 -0.28855883903E+02  0.68834188163E+02 -0.12387243182E+02  0.75774162414E+02  0.41800000000E+01 0.  1.
        -11    1    3    3    0    0  0.20572644164E+02 -0.36369699336E+02 -0.11905844709E+03  0.12617805888E+03  0.00000000000E+00 0. -1.
         11    1    3    3    0    0 -0.23120044134E+02  0.59885192357E+01  0.24406411118E+01  0.24007405783E+02  0.00000000000E+00 0.  1.
</event>
<event>
 8    1  0.9181008E-006  0.1757122E+03  0.7561462E-02  0.1172018E+00
          1   -1    0    0  501    0  0.00000000000E+00  0.00000000000E+00  0.13555284963E+03  0.13555284963E+03  0.00000000000E+00 0. -1.
         -1   -1    0    0    0  501 -0.00000000000E+00 -0.00000000000E+00 -0.23792288634E+03  0.23792288634E+03  0.00000000000E+00 0.  1.
         23    2    1    2    0    0 -0.13345527368E+03 -0.51182973598E+02 -0.46335727918E+02  0.17544184570E+03  0.90569501939E+02 0.  0.
         23    2    1    2    0    0  0.13345527368E+03  0.51182973598E+02 -0.56034308796E+02  0.19803389027E+03  0.12509025171E+03 0.  0.
          5    1    4    4  502    0  0.87920550858E+02 -0.28640033484E+02 -0.51512248219E+02  0.10593044368E+03  0.41800000000E+01 0. -1.
         -5    1    4    4    0  502  0.45534722826E+02  0.79823007082E+02 -0.45220605771E+01  0.92103446593E+02  0.41800000000E+01 0. -1.
        -11    1    3    3    0    0 -0.75634704719E+01  0.20604382550E+02 -0.16555586475E+02  0.27492437312E+02  0.00000000000E+00 0.  1.
         11    1    3    3    0    0 -0.12589180321E+03 -0.71787356148E+02 -0.29780141443E+02  0.14794940839E+03  0.00000000000E+00 0. -1.
</event>
<event>
 8    1  0.9181008E-006  0.1016048E+03  0.7561462E-02  0.1276957E+00
         -1   -1    0    0    0  501 -0.00000000000E+00  0.00000000000E+00  0.22795958765E+02  0.22795958765E+02  0.00000000000E+00 0.  1.
          1   -1    0    0  501    0  0.00000000000E+00 -0.00000000000E+00 -0.60566151830E+03  0.60566151830E+03  0.00000000000E+00 0. -1.
         23    2    1    2    0    0 -0.41381676416E+02  0.85001359206E+01 -0.22424691886E+03  0.24630693609E+03  0.92713163528E+02 0.  0.
         23    2    1    2    0    0  0.41381676416E+02 -0.85001359206E+01 -0.35861864067E+03  0.38215054098E+03  0.12508801333E+03 0.  0.
          5    1    4    4  502    0 -0.31199013964E+02 -0.20945245663E+02 -0.39740238413E+02  0.54852900902E+02  0.41800000000E+01 0. -1.
         -5    1    4    4    0  502  0.72580690380E+02  0.12445109742E+02 -0.31887840226E+03  0.32729764008E+03  0.41800000000E+01 0. -1.
        -11    1    3    3    0    0  0.19899257166E+00  0.39672928492E+02 -0.15337671304E+03  0.15842473593E+03  0.00000000000E+00 0. -1.
         11    1    3    3    0    0 -0.41580668987E+02 -0.31172792572E+02 -0.70870205825E+02  0.87882200153E+02  0.00000000000E+00 0.  1.
</event>
<event>
 8    1  0.9181008E-006  0.9089933E+02  0.7561462E-02  0.1300688E+00
         -1   -1    0    0    0  501 -0.00000000000E+00  0.00000000000E+00  0.42321008753E+02  0.42321008753E+02  0.00000000000E+00 0.  1.
          1   -1    0    0  501    0  0.00000000000E+00 -0.00000000000E+00 -0.37910630209E+03  0.37910630209E+03  0.00000000000E+00 0. -1.
         23    2    1    2    0    0  0.41044924614E+02 -0.45759743691E+01 -0.67579284939E+02  0.12171866386E+03  0.92427528370E+02 0.  0.
         23    2    1    2    0    0 -0.41044924614E+02  0.45759743691E+01 -0.26920600839E+03  0.29970864698E+03  0.12509105780E+03 0.  0.
          5    1    4    4  502    0 -0.65070809127E+02 -0.42569897559E+02 -0.17579429409E+03  0.19226937513E+03  0.41800000000E+01 0. -1.
         -5    1    4    4    0  502  0.24025884512E+02  0.47145871928E+02 -0.93411714305E+02  0.10743927185E+03  0.41800000000E+01 0. -1.
        -11    1    3    3    0    0  0.13254455157E+02 -0.16021066977E+02  0.20167778739E+02  0.28967127367E+02  0.00000000000E+00 0.  1.
         11    1    3    3    0    0  0.27790469457E+02  0.11445092608E+02 -0.87747063678E+02  0.92751536491E+02  0.00000000000E+00 0. -1.
</event>
<event>
 8    1  0.9181008E-006  0.1140333E+03  0.7561462E-02  0.1253278E+00
         -1   -1    0    0    0  501 -0.00000000000E+00  0.00000000000E+00  0.26570314122E+02  0.26570314122E+02  0.00000000000E+00 0.  1.
          1   -1    0    0  501    0  0.00000000000E+00 -0.00000000000E+00 -0.55291368836E+03  0.55291368836E+03  0.00000000000E+00 0. -1.
         23    2    1    2    0    0  0.33767262297E+02  0.25967638575E+02 -0.14427902509E+03  0.17521258824E+03  0.89824649954E+02 0.  0.
         23    2    1    2    0    0 -0.33767262297E+02 -0.25967638575E+02 -0.38206434914E+03  0.40427141424E+03  0.12509062007E+03 0.  0.
          5    1    4    4  502    0  0.39313973774E+02  0.21351696570E+02 -0.13519130320E+03  0.14246278230E+03  0.41800000000E+01 0.  1.
         -5    1    4    4    0  502 -0.73081236071E+02 -0.47319335144E+02 -0.24687304594E+03  0.26180863194E+03  0.41800000000E+01 0.  1.
        -11    1    3    3    0    0  0.31375785182E+02 -0.27938085851E+02 -0.41079861422E+02  0.58758246666E+02  0.00000000000E+00 0.  1.
         11    1    3    3    0    0  0.23914771148E+01  0.53905724426E+02 -0.10319916367E+03  0.11645434157E+03  0.00000000000E+00 0. -1.
</event>
<event>
 8    1  0.9181008E-006  0.1099575E+03  0.7561462E-02  0.1260649E+00
         -1   -1    0    0    0  501 -0.00000000000E+00  0.00000000000E+00  0.16212718652E+03  0.16212718652E+03  0.00000000000E+00 0.  1.
          1   -1    0    0  501    0  0.00000000000E+00 -0.00000000000E+00 -0.76717794969E+02  0.76717794969E+02  0.00000000000E+00 0. -1.
         23    2    1    2    0    0 -0.22822370784E+02  0.14301926937E+02  0.28678546521E+02  0.98876718749E+02  0.90712406857E+02 0.  0.
         23    2    1    2    0    0  0.22822370784E+02 -0.14301926937E+02  0.56730845025E+02  0.13996826274E+03  0.12508924843E+03 0.  0.
          5    1    4    4  502    0  0.17547850236E+02 -0.68811333112E+02  0.43813091755E+02  0.83546310641E+02  0.41800000000E+01 0. -1.
         -5    1    4    4    0  502  0.52745205478E+01  0.54509406176E+02  0.12917753271E+02  0.56421952095E+02  0.41800000000E+01 0. -1.
        -11    1    3    3    0    0  0.11876484912E+02  0.45603179878E+02  0.80998177572E+01  0.47815352729E+02  0.00000000000E+00 0. -1.
         11    1    3    3    0    0 -0.34698855696E+02 -0.31301252942E+02  0.20578728764E+02  0.51061366020E+02  0.00000000000E+00 0.  1.
</event>
<event>
 8    1  0.9181008E-006  0.1396008E+03  0.7561462E-02  0.1213867E+00
         -1   -1    0    0    0  501 -0.00000000000E+00  0.00000000000E+00  0.37181263101E+02  0.37181263101E+02  0.00000000000E+00 0. -1.
          1   -1    0    0  501    0  0.00000000000E+00 -0.00000000000E+00 -0.72012037903E+03  0.72012037903E+03  0.00000000000E+00 0.  1.
         23    2    1    2    0    0  0.54855228600E+02 -0.10390140772E+03 -0.20852657548E+03  0.25280077070E+03  0.81365215877E+02 0.  0.
         23    2    1    2    0    0 -0.54855228600E+02  0.10390140772E+03 -0.47441254044E+03  0.50450087142E+03  0.12509705076E+03 0.  0.
          5    1    4    4  502    0  0.18110523412E+02  0.18213840916E+02 -0.12155578482E+02  0.28722213484E+02  0.41800000000E+01 0. -1.
         -5    1    4    4    0  502 -0.72965752011E+02  0.85687566801E+02 -0.46225696196E+03  0.47577865794E+03  0.41800000000E+01 0. -1.
        -11    1    3    3    0    0 -0.18728405238E+02 -0.35268520157E+02 -0.81427970467E+02  0.90692535808E+02  0.00000000000E+00 0.  1.
         11    1    3    3    0    0  0.73583633838E+02 -0.68632887560E+02 -0.12709860501E+03  0.16210823489E+03  0.00000000000E+00 0. -1.
</event>
<event>
 8    1  0.9181008E-006  0.1525030E+03  0.7561462E-02  0.1197431E+00
          2   -1    0    0  501    0  0.00000000000E+00  0.00000000000E+00  0.12756312784E+04  0.12756312784E+04  0.00000000000E+00 0. -1.
         -2   -1    0    0    0  501 -0.00000000000E+00 -0.00000000000E+00 -0.20036869017E+02  0.20036869017E+02  0.00000000000E+00 0.  1.
         23    2    1    2    0    0 -0.10023026637E+03  0.57601579182E+02  0.51893192512E+03  0.53957087640E+03  0.92099617436E+02 0.  0.
         23    2    1    2    0    0  0.10023026637E+03 -0.57601579182E+02  0.73666248430E+03  0.75609727105E+03  0.12508964504E+03 0.  0.
          5    1    4    4  502    0  0.23918552324E+02  0.36082748350E+02  0.11866117479E+03  0.12638041255E+03  0.41800000000E+01 0.  1.
         -5    1    4    4    0  502  0.76311714043E+02 -0.93684327532E+02  0.61800130951E+03  0.62971685850E+03  0.41800000000E+01 0.  1.
        -11    1    3    3    0    0 -0.88441687774E+01  0.47901472184E+02  0.26685884934E+03  0.27126816221E+03  0.00000000000E+00 0. -1.
         11    1    3    3    0    0 -0.91386097589E+02  0.97001069981E+01  0.25207307578E+03  0.26830271419E+03  0.00000000000E+00 0.  1.
</event>
<event>
 8    1  0.9181008E-006  0.1224510E+03  0.7561462E-02  0.1239108E+00
          1   -1    0    0  501    0  0.00000000000E+00  0.00000000000E+00  0.13241121460E+04  0.13241121460E+04  0.00000000000E+00 0. -1.
         -1   -1    0    0    0  501 -0.00000000000E+00 -0.00000000000E+00 -0.25538025782E+02  0.25538025782E+02  0.00000000000E+00 0.  1.
         23    2    1    2    0    0 -0.87327928528E+02 -0.39871348263E+01  0.18420413481E+03  0.22486669523E+03  0.94825117967E+02 0.  0.
         23    2    1    2    0    0  0.87327928528E+02  0.39871348263E+01  0.11143699854E+04  0.11247834765E+04  0.12520119967E+03 0.  0.
          5    1    4    4  502    0  0.95646642059E+02 -0.30330745580E+02  0.53637465244E+03  0.54569540446E+03  0.41800000000E+01 0.  1.
         -5    1    4    4    0  502 -0.83187135314E+01  0.34317880406E+02  0.57799533293E+03  0.57908807206E+03  0.41800000000E+01 0.  1.
        -11    1    3    3    0    0 -0.52984801800E+02 -0.34292229070E+02  0.42871182099E+02  0.76297342358E+02  0.00000000000E+00 0.  1.
         11    1    3    3    0    0 -0.34343126728E+02  0.30305094244E+02  0.14133295272E+03  0.14856935288E+03  0.00000000000E+00 0. -1.
</event>
<event>
 8    1  0.9181008E-006  0.9261455E+02  0.7561462E-02  0.1296641E+00
          2   -1    0    0  501    0  0.00000000000E+00  0.00000000000E+00  0.10045327003E+04  0.10045327003E+04  0.00000000000E+00 0. -1.
         -2   -1    0    0    0  501 -0.00000000000E+00 -0.00000000000E+00 -0.16039982659E+02  0.16039982659E+02  0.00000000000E+00 0.  1.
         23    2    1    2    0    0 -0.19026283782E+02  0.43467189869E+02  0.26164481212E+03  0.28151437406E+03  0.92417200924E+02 0.  0.
         23    2    1    2    0    0  0.19026283782E+02 -0.43467189869E+02  0.72684790553E+03  0.73905830890E+03  0.12509160689E+03 0.  0.
          5    1    4    4  502    0  0.43873913247E+02 -0.31318895564E+02  0.69318411752E+03  0.69528949846E+03  0.41800000000E+01 0. -1.
         -5    1    4    4    0  502 -0.24847629465E+02 -0.12148294306E+02  0.33663788009E+02  0.43768810444E+02  0.41800000000E+01 0. -1.
        -11    1    3    3    0    0  0.35220255084E+02  0.26843077325E+01  0.10556999763E+03  0.11132248773E+03  0.00000000000E+00 0.  1.
         11    1    3    3    0    0 -0.54246538866E+02  0.40782882137E+02  0.15607481449E+03  0.17019188633E+03  0.00000000000E+00 0. -1.
</event>
<event>
 8    1  0.9181008E-006  0.1100172E+03  0.7561462E-02  0.1260538E+00
          2   -1    0    0  501    0  0.00000000000E+00  0.00000000000E+00  0.12813118554E+03  0.12813118554E+03  0.00000000000E+00 0. -1.
         -2   -1    0    0    0  501 -0.00000000000E+00 -0.00000000000E+00 -0.14201452374E+03  0.14201452374E+03  0.00000000000E+00 0.  1.
         23    2    1    2    0    0 -0.43115080971E+02  0.60894263409E+02 -0.36123733264E+02  0.12280744613E+03  0.90607522853E+02 0.  0.
         23    2    1    2    0    0  0.43115080971E+02 -0.60894263409E+02  0.22240395061E+02  0.14733826314E+03  0.12508759767E+03 0.  0.
          5    1    4    4  502    0 -0.15130933450E+02  0.59591980297E+01 -0.36991767122E+02  0.40624135967E+02  0.41800000000E+01 0. -1.
         -5    1    4    4    0  502  0.58246014421E+02 -0.66853461439E+02  0.59232162183E+02  0.10671412718E+03  0.41800000000E+01 0. -1.
        -11    1    3    3    0    0 -0.20463006608E+02 -0.21111093166E+02 -0.21641798420E+02  0.36507264113E+02  0.00000000000E+00 0.  1.
         11    1    3    3    0    0 -0.22652074363E+02  0.82005356576E+02 -0.14481934844E+02  0.86300182021E+02  0.00000000000E+00 0. -1.
</event>
<event>
 8    1  0.9181008E-006  0.1435432E+03  0.7561462E-02  0.1208639E+00
          1   -1    0    0  501    0  0.00000000000E+00  0.00000000000E+00  0.12192123200E+04  0.12192123200E+04  0.00000000000E+00 0. -1.
         -1   -1    0    0    0  501 -0.00000000000E+00 -0.00000000000E+00 -0.18188443945E+02  0.18188443945E+02  0.00000000000E+00 0.  1.
         23    2    1    2    0    0 -0.83737166027E+02 -0.50250122754E+02  0.43346088292E+03  0.45360331457E+03  0.91272351549E+02 0.  0.
         23    2    1    2    0    0  0.83737166027E+02  0.50250122754E+02  0.76756299311E+03  0.78379744935E+03  0.12509398628E+03 0.  0.
          5    1    4    4  502    0 -0.71870699534E+01 -0.32031550119E+02  0.23269237738E+03  0.23503380410E+03  0.41800000000E+01 0. -1.
         -5    1    4    4    0  502  0.90924235980E+02  0.82281672873E+02  0.53487061572E+03  0.54876364524E+03  0.41800000000E+01 0. -1.
        -11    1    3    3    0    0 -0.43257585312E+02 -0.73004688428E+02  0.31868719747E+03  0.32979149936E+03  0.00000000000E+00 0.  1.
         11    1    3    3    0    0 -0.40479580715E+02  0.22754565674E+02  0.11477368545E+03  0.12381181521E+03  0.00000000000E+00 0. -1.
</event>
<event>
 8    1  0.9181008E-006  0.7731756E+02  0.7561462E-02  0.1336841E+00
         -1   -1    0    0    0  501 -0.00000000000E+00  0.00000000000E+00  0.49543269680E+03  0.49543269680E+03  0.00000000000E+00 0.  1.
          1   -1    0    0  501    0  0.00000000000E+00 -0.00000000000E+00 -0.32108921676E+02  0.32108921676E+02  0.00000000000E+00 0. -1.
         23    2    1    2    0    0  0.31002041739E+02  0.65958612158E+01  0.32080297808E+03  0.33528125440E+03  0.92164726633E+02 0.  0.
         23    2    1    2    0    0 -0.31002041739E+02 -0.65958612158E+01  0.14252079705E+03  0.19226036408E+03  0.12508892047E+03 0.  0.
          5    1    4    4  502    0 -0.45869893843E+02 -0.75095045271E+01  0.16130777471E+03  0.16792292995E+03  0.41800000000E+01 0.  1.
         -5    1    4    4    0  502  0.14867852105E+02  0.91364331130E+00 -0.18786977661E+02  0.24337434128E+02  0.41800000000E+01 0.  1.
        -11    1    3    3    0    0 -0.30096743112E+02 -0.43959955096E+01  0.16091420629E+03  0.16376361168E+03  0.00000000000E+00 0.  1.
         11    1    3    3    0    0  0.61098784851E+02  0.10991856725E+02  0.15988877178E+03  0.17151764273E+03  0.00000000000E+00 0. -1.
</event>
<event>
 8    1  0.9181008E-006  0.1490996E+03  0.7561462E-02  0.1201584E+00
          1   -1    0    0  501    0  0.00000000000E+00  0.00000000000E+00  0.14490033797E+04  0.14490033797E+04  0.00000000000E+00 0. -1.
         -1   -1    0    0    0  501 -0.00000000000E+00 -0.00000000000E+00 -0.21991061954E+02  0.21991061954E+02  0.00000000000E+00 0.  1.
         23    2    1    2    0    0 -0.49416377597E+02 -0.11579265942E+03  0.40713218992E+03  0.43578730631E+03  0.91126494064E+02 0.  0.
         23    2    1    2    0    0  0.49416377597E+02  0.11579265942E+03  0.10198801278E+04  0.10352071353E+04  0.12509364328E+03 0.  0.
          5    1    4    4  502    0  0.64319924285E+02  0.12917994252E+03  0.97795980317E+03  0.98855822248E+03  0.41800000000E+01 0. -1.
         -5    1    4    4    0  502 -0.14903546687E+02 -0.13387283102E+02  0.41920324658E+02  0.46648912872E+02  0.41800000000E+01 0. -1.
        -11    1    3    3    0    0 -0.47772310042E+02 -0.56238242600E+02  0.10813681656E+03  0.13091411166E+03  0.00000000000E+00 0.  1.
         11    1    3    3    0    0 -0.16440675554E+01 -0.59554416815E+02  0.29899537336E+03  0.30487319464E+03  0.00000000000E+00 0. -1.
</event>
<event>
 8    1  0.9181008E-006  0.1293487E+03  0.7561462E-02  0.1228425E+00
          2   -1    0    0  501    0  0.00000000000E+00  0.00000000000E+00  0.93622072958E+03  0.93622072958E+03  0.00000000000E+00 0. -1.
         -2   -1    0    0    0  501 -0.00000000000E+00 -0.00000000000E+00 -0.21373263061E+02  0.21373263061E+02  0.00000000000E+00 0.  1.
         23    2    1    2    0    0  0.87510081736E+02  0.17770450095E+02  0.37206790708E+03  0.39347410332E+03  0.91725346573E+02 0.  0.
         23    2    1    2    0    0 -0.87510081736E+02 -0.17770450095E+02  0.54277955944E+03  0.56411988932E+03  0.12509115108E+03 0.  0.
          5    1    4    4  502    0 -0.27425658450E+02 -0.66524953018E+02  0.32696715845E+03  0.33481745955E+03  0.41800000000E+01 0. -1.
         -5    1    4    4    0  502 -0.60084423286E+02  0.48754502922E+02  0.21581240099E+03  0.22930242977E+03  0.41800000000E+01 0. -1.
        -11    1    3    3    0    0  0.13316772652E+02 -0.21420202641E+02  0.21930869613E+02  0.33423413305E+02  0.00000000000E+00 0.  1.
         11    1    3    3    0    0  0.74193309085E+02  0.39190652736E+02  0.35013703747E+03  0.36005069002E+03  0.00000000000E+00 0. -1.
</event>
<event>
 8    1  0.9181008E-006  0.1052939E+03  0.7561462E-02  0.1269542E+00
         -2   -1    0    0    0  501 -0.00000000000E+00  0.00000000000E+00  0.22968259809E+02  0.22968259809E+02  0.00000000000E+00 0.  1.
          2   -1    0    0  501    0  0.00000000000E+00 -0.00000000000E+00 -0.54047414653E+03  0.54047414653E+03  0.00000000000E+00 0. -1.
         23    2    1    2    0    0  0.28108256921E+02 -0.18448392882E+01 -0.19276006307E+03  0.21429952984E+03  0.89299322697E+02 0.  0.
         23    2    1    2    0    0 -0.28108256921E+02  0.18448392882E+01 -0.32474582365E+03  0.34914287650E+03  0.12508965063E+03 0.  0.
          5    1    4    4  502    0  0.34247217117E+02 -0.36205828356E+02 -0.86526451740E+02  0.99940147778E+02  0.41800000000E+01 0.  1.
         -5    1    4    4    0  502 -0.62355474037E+02  0.38050667644E+02 -0.23821937191E+03  0.24920272872E+03  0.41800000000E+01 0.  1.
        -11    1    3    3    0    0  0.25881497488E+02  0.38833929482E+02 -0.14042674272E+03  0.14797836349E+03  0.00000000000E+00 0. -1.
         11    1    3    3    0    0  0.22267594328E+01 -0.40678768770E+02 -0.52333320350E+02  0.66321166343E+02  0.00000000000E+00 0.  1.
</event>
<event>
 8    1  0.9181008E-006  0.1040222E+03  0.7561462E-02  0.1272058E+00
         -2   -1    0    0    0  501 -0.00000000000E+00  0.00000000000E+00  0.17602631283E+02  0.17602631283E+02  0.00000000000E+00 0. -1.
          2   -1    0    0  501    0  0.00000000000E+00 -0.00000000000E+00 -0.10872140125E+04  0.10872140125E+04  0.00000000000E+00 0.  1.
         23    2    1    2    0    0 -0.56504123929E+02  0.61401171871E+02 -0.39975370143E+03  0.41828861449E+03  0.90551219072E+02 0.  0.
         23    2    1    2    0    0  0.56504123929E+02 -0.61401171871E+02 -0.66985767979E+03  0.68652802930E+03  0.12509438001E+03 0.  0.
          5    1    4    4  502    0  0.26832245109E+02 -0.40787699526E+02 -0.69320899984E+02  0.84890902839E+02  0.41800000000E+01 0.  1.
         -5    1    4    4    0  502  0.29671878820E+02 -0.20613472345E+02 -0.60053677981E+03  0.60163712646E+03  0.41800000000E+01 0.  1.
        -11    1    3    3    0    0 -0.60276939725E+02 -0.87460425575E+00 -0.21457205810E+03  0.22287943492E+03  0.00000000000E+00 0. -1.
         11    1    3    3    0    0  0.37728157959E+01  0.62275776127E+02 -0.18518164333E+03  0.19540917957E+03  0.00000000000E+00 0.  1.
</event>
<event>
 8    1  0.9181008E-006  0.1160657E+03  0.7561462E-02  0.1249732E+00
         -1   -1    0    0    0  501 -0.00000000000E+00  0.00000000000E+00  0.35855985460E+02  0.35855985460E+02  0.00000000000E+00 0.  1.
          1   -1    0    0  501    0  0.00000000000E+00 -0.00000000000E+00 -0.38991481429E+03  0.38991481429E+03  0.00000000000E+00 0. -1.
         23    2    1    2    0    0  0.21520462307E+02 -0.37084372358E+02 -0.11395725659E+03  0.15166415554E+03  0.90428860297E+02 0.  0.
         23    2    1    2    0    0 -0.21520462307E+02  0.37084372358E+02 -0.24010157224E+03  0.27410664421E+03  0.12508919393E+03 0.  0.
          5    1    4    4  502    0 -0.73528582093E+02  0.29837090107E+02 -0.14943486683E+03  0.16924820872E+03  0.41800000000E+01 0.  1.
         -5    1    4    4    0  502  0.52008119785E+02  0.72472822517E+01 -0.90666705403E+02  0.10485843548E+03  0.41800000000E+01 0.  1.
        -11    1    3    3    0    0 -0.18704697178E+02 -0.53402813196E+02 -0.61360707372E+02  0.83467733663E+02  0.00000000000E+00 0. -1.
         11    1    3    3    0    0  0.40225159485E+02  0.16318440837E+02 -0.52596549222E+02  0.68196421878E+02  0.00000000000E+00 0.  1.
</event>
<event>
 8    1  0.9181008E-006  0.1131673E+03  0.7561462E-02  0.1254814E+00
         -2   -1    0    0    0  501 -0.00000000000E+00  0.00000000000E+00  0.68171390399E+02  0.68171390399E+02  0.00000000000E+00 0.  1.
          2   -1    0    0  501    0  0.00000000000E+00 -0.00000000000E+00 -0.33062799750E+03  0.33062799750E+03  0.00000000000E+00 0. -1.
         23    2    1    2    0    0  0.27034486012E+01  0.80015029222E+02 -0.36105399099E+02  0.12807209698E+03  0.93215603013E+02 0.  0.
         23    2    1    2    0    0 -0.27034486012E+01 -0.80015029222E+02 -0.22635120800E+03  0.27072729091E+03  0.12509469672E+03 0.  0.
          5    1    4    4  502    0  0.57143495075E+02 -0.25143516710E+02 -0.66016038338E+02  0.90956941350E+02  0.41800000000E+01 0.  1.
         -5    1    4    4    0  502 -0.59846943676E+02 -0.54871512511E+02 -0.16033516966E+03  0.17977034956E+03  0.41800000000E+01 0.  1.
        -11    1    3    3    0    0  0.84652045926E+01  0.15254204778E+02  0.30410051920E+02  0.35058832125E+02  0.00000000000E+00 0.  1.
         11    1    3    3    0    0 -0.57617559914E+01  0.64760824444E+02 -0.66515451019E+02  0.93013264855E+02  0.00000000000E+00 0. -1.
</event>
<event>
 8    1  0.9181008E-006  0.1020667E+03  0.7561462E-02  0.1276009E+00
         -1   -1    0    0    0  501 -0.00000000000E+00  0.00000000000E+00  0.10372299882E+03  0.10372299882E+03  0.00000000000E+00 0.  1.
          1   -1    0    0  501    0  0.00000000000E+00 -0.00000000000E+00 -0.11477433018E+03  0.11477433018E+03  0.00000000000E+00 0. -1.
         23    2    1    2    0    0 -0.23426919292E+01  0.33596580541E+02  0.17784245529E+02  0.99119820552E+02  0.91510879177E+02 0.  0.
         23    2    1    2    0    0  0.23426919292E+01 -0.33596580541E+02 -0.28835576898E+02  0.11937750845E+03  0.11083898501E+03 0.  0.
          5    1    4    4  502    0  0.50039080003E+02  0.94278539563E+01 -0.79614469970E+01  0.51707359206E+02  0.41800000000E+01 0. -1.
         -5    1    4    4    0  502 -0.47696388074E+02 -0.43024434497E+02 -0.20874129901E+02  0.67670149241E+02  0.41800000000E+01 0.  1.
        -11    1    3    3    0    0  0.39708082274E+02  0.12518187561E+02  0.29030256925E+02  0.50756207846E+02  0.00000000000E+00 0.  1.
         11    1    3    3    0    0 -0.42050774203E+02  0.21078392979E+02 -0.11246011396E+02  0.48363612706E+02  0.00000000000E+00 0. -1.
</event>
<event>
 8    1  0.9181008E-006  0.2430878E+03  0.7561462E-02  0.1117753E+00
         -2   -1    0    0    0  501 -0.00000000000E+00  0.00000000000E+00  0.49448763356E+02  0.49448763356E+02  0.00000000000E+00 0. -1.
          2   -1    0    0  501    0  0.00000000000E+00 -0.00000000000E+00 -0.13173264791E+04  0.13173264791E+04  0.00000000000E+00 0.  1.
         23    2    1    2    0    0  0.22117087400E+03  0.44747194087E+02 -0.70321491586E+03  0.74596126128E+03  0.10501484921E+03 0.  0.
         23    2    1    2    0    0 -0.22117087400E+03 -0.44747194087E+02 -0.56466279983E+03  0.62081398112E+03  0.12508818795E+03 0.  0.
          5    1    4    4  502    0 -0.13130048716E+03  0.10919575346E+02 -0.42887771554E+03  0.44867875183E+03  0.41800000000E+01 0. -1.
         -5    1    4    4    0  502 -0.89870386841E+02 -0.55666769433E+02 -0.13578508429E+03  0.17213522930E+03  0.41800000000E+01 0. -1.
        -11    1    3    3    0    0  0.13012708769E+03 -0.26687323386E+02 -0.35651374369E+03  0.38045672766E+03  0.00000000000E+00 0. -1.
         11    1    3    3    0    0  0.91043786305E+02  0.71434517474E+02 -0.34670117217E+03  0.36550453362E+03  0.00000000000E+00 0.  1.
</event>
<event>
 8    1  0.9181008E-006  0.1888337E+03  0.7561462E-02  0.1159517E+00
          1   -1    0    0  501    0  0.00000000000E+00  0.00000000000E+00  0.40709698950E+03  0.40709698950E+03  0.00000000000E+00 0.  1.
         -1   -1    0    0    0  501 -0.00000000000E+00 -0.00000000000E+00 -0.12268135288E+03  0.12268135288E+03  0.00000000000E+00 0. -1.
         23    2    1    2    0    0 -0.18831564604E+02 -0.17112375770E+03  0.28062810486E+02  0.19660785379E+03  0.90714709760E+02 0.  0.
         23    2    1    2    0    0  0.18831564604E+02  0.17112375770E+03  0.25635282613E+03  0.33317048859E+03  0.12509130557E+03 0.  0.
          5    1    4    4  502    0 -0.25596562272E+02  0.15502383508E+03  0.23093810009E+03  0.27935184252E+03  0.41800000000E+01 0. -1.
         -5    1    4    4    0  502  0.44428126875E+02  0.16099922616E+02  0.25414726041E+02  0.53818646078E+02  0.41800000000E+01 0. -1.
        -11    1    3    3    0    0 -0.10383703285E+02 -0.31442718270E+02  0.44762164245E+02  0.55678695872E+02  0.00000000000E+00 0.  1.
         11    1    3    3    0    0 -0.84478613184E+01 -0.13968103943E+03 -0.16699353759E+02  0.14092915792E+03  0.00000000000E+00 0. -1.
</event>
<event>
 8    1  0.9181008E-006  0.1355102E+03  0.7561462E-02  0.1219501E+00
          3   -1    0    0  501    0  0.00000000000E+00  0.00000000000E+00  0.30689335164E+03  0.30689335164E+03  0.00000000000E+00 0. -1.
         -3   -1    0    0    0  501 -0.00000000000E+00 -0.00000000000E+00 -0.91730272792E+02  0.91730272792E+02  0.00000000000E+00 0.  1.
         23    2    1    2    0    0 -0.80836582948E+02 -0.86778272465E+02  0.42448115871E+02  0.15461207720E+03  0.89655062101E+02 0.  0.
         23    2    1    2    0    0  0.80836582948E+02  0.86778272465E+02  0.17271496298E+03  0.24401154724E+03  0.12508459151E+03 0.  0.
          5    1    4    4  502    0  0.37816390180E+02  0.94537776955E+02  0.17220037873E+03  0.20009476124E+03  0.41800000000E+01 0. -1.
         -5    1    4    4    0  502  0.43020192768E+02 -0.77595044900E+01  0.51458424783E+00  0.43916786001E+02  0.41800000000E+01 0. -1.
        -11    1    3    3    0    0 -0.34002502143E+02 -0.10313076329E+02  0.53542970610E+02  0.64260247409E+02  0.00000000000E+00 0. -1.
         11    1    3    3    0    0 -0.46834080805E+02 -0.76465196136E+02 -0.11094854739E+02  0.90351829791E+02  0.00000000000E+00 0.  1.
</event>
<event>
 8    1  0.9181008E-006  0.1174897E+03  0.7561462E-02  0.1247297E+00
          2   -1    0    0  501    0  0.00000000000E+00  0.00000000000E+00  0.15748210693E+04  0.15748210693E+04  0.00000000000E+00 0. -1.
         -2   -1    0    0    0  501 -0.00000000000E+00 -0.00000000000E+00 -0.11061008348E+02  0.11061008348E+02  0.00000000000E+00 0.  1.
         23    2    1    2    0    0 -0.30222251005E+00 -0.58103968183E+02  0.41766780248E+03  0.43151994471E+03  0.91580057855E+02 0.  0.
         23    2    1    2    0    0  0.30222251005E+00  0.58103968183E+02  0.11460922585E+04  0.11543621330E+04  0.12509319156E+03 0.  0.
          5    1    4    4  502    0 -0.28502060014E+02  0.84411431158E+02  0.96255376071E+03  0.96667723247E+03  0.41800000000E+01 0. -1.
         -5    1    4    4    0  502  0.28804282524E+02 -0.26307462974E+02  0.18353849779E+03  0.18768490048E+03  0.41800000000E+01 0. -1.
        -11    1    3    3    0    0 -0.44538661011E+02 -0.35018702149E+02  0.18145800368E+03  0.19009736696E+03  0.00000000000E+00 0. -1.
         11    1    3    3    0    0  0.44236438501E+02 -0.23085266035E+02  0.23620979880E+03  0.24142257775E+03  0.00000000000E+00 0.  1.
</event>
<event>
 8    1  0.9181008E-006  0.8322727E+02  0.7561462E-02  0.1320135E+00
          2   -1    0    0  501    0  0.00000000000E+00  0.00000000000E+00  0.49196782832E+02  0.49196782832E+02  0.00000000000E+00 0. -1.
         -2   -1    0    0    0  501 -0.00000000000E+00 -0.00000000000E+00 -0.28401254963E+03  0.28401254963E+03  0.00000000000E+00 0.  1.
         23    2    1    2    0    0 -0.33860455566E+02 -0.25868930660E+02 -0.12869946229E+03  0.16373057484E+03  0.91806413264E+02 0.  0.
         23    2    1    2    0    0  0.33860455566E+02  0.25868930660E+02 -0.10611630450E+03  0.16947875763E+03  0.12508655875E+03 0.  0.
          5    1    4    4  502    0  0.38755873290E+02  0.60406648421E+02 -0.17268224286E+02  0.73936762560E+02  0.41800000000E+01 0.  1.
         -5    1    4    4    0  502 -0.48954177244E+01 -0.34537717761E+02 -0.88848080217E+02  0.95541995065E+02  0.41800000000E+01 0.  1.
        -11    1    3    3    0    0 -0.22223401704E+01 -0.27652596801E+02  0.33397998767E+01  0.27942068085E+02  0.00000000000E+00 0. -1.
         11    1    3    3    0    0 -0.31638115396E+02  0.17836661415E+01 -0.13203926217E+03  0.13578850675E+03  0.00000000000E+00 0.  1.
</event>
<event>
 8    1  0.9181008E-006  0.1038144E+03  0.7561462E-02  0.1272473E+00
         -3   -1    0    0    0  501 -0.00000000000E+00  0.00000000000E+00  0.41120194285E+02  0.41120194285E+02  0.00000000000E+00 0.  1.
          3   -1    0    0  501    0  0.00000000000E+00 -0.00000000000E+00 -0.51592404524E+03  0.51592404524E+03  0.00000000000E+00 0. -1.
         23    2    1    2    0    0 -0.68303392798E+02 -0.29638465556E+02 -0.98841002211E+02  0.15388198291E+03  0.91467638207E+02 0.  0.
         23    2    1    2    0    0  0.68303392798E+02  0.29638465556E+02 -0.37596284875E+03  0.40316225661E+03  0.12509176397E+03 0.  0.
          5    1    4    4  502    0  0.36536506600E+02  0.58195810657E+02 -0.34078289769E+03  0.34766668585E+03  0.41800000000E+01 0. -1.
         -5    1    4    4    0  502  0.31766886198E+02 -0.28557345100E+02 -0.35179951056E+02  0.55495570762E+02  0.41800000000E+01 0. -1.
        -11    1    3    3    0    0 -0.70210491279E+02 -0.41771249038E+01 -0.23222440661E+02  0.74069178532E+02  0.00000000000E+00 0.  1.
         11    1    3    3    0    0  0.19070984809E+01 -0.25461340652E+02 -0.75618561549E+02  0.79812804381E+02  0.00000000000E+00 0. -1.
</event>
<event>
 8    1  0.9181008E-006  0.1743801E+03  0.7561462E-02  0.1173356E+00
          1   -1    0    0  501    0  0.00000000000E+00  0.00000000000E+00  0.33554001891E+03  0.33554001891E+03  0.00000000000E+00 0. -1.
         -1   -1    0    0    0  501 -0.00000000000E+00 -0.00000000000E+00 -0.92339602059E+02  0.92339602059E+02  0.00000000000E+00 0.  1.
         23    2    1    2    0    0 -0.10495597361E+03 -0.86974739139E+02  0.10346908846E+03  0.19603477944E+03  0.95621236335E+02 0.  0.
         23    2    1    2    0    0  0.10495597361E+03  0.86974739139E+02  0.13973132840E+03  0.23184484154E+03  0.12508726860E+03 0.  0.
          5    1    4    4  502    0 -0.16920125870E+02 -0.17233141951E+02  0.21001372924E+02  0.32276956264E+02  0.41800000000E+01 0.  1.
         -5    1    4    4    0  502  0.12187609948E+03  0.10420788109E+03  0.11872995547E+03  0.19956788527E+03  0.41800000000E+01 0.  1.
        -11    1    3    3    0    0 -0.60600026352E+02  0.59331412639E+01  0.21984019669E+02  0.64736871101E+02  0.00000000000E+00 0.  1.
         11    1    3    3    0    0 -0.44355947256E+02 -0.92907880403E+02  0.81485068788E+02  0.13129790834E+03  0.00000000000E+00 0. -1.
</event>
<event>
 8    1  0.9181008E-006  0.1338658E+03  0.7561462E-02  0.1221830E+00
          1   -1    0    0  501    0  0.00000000000E+00  0.00000000000E+00  0.98305174563E+02  0.98305174563E+02  0.00000000000E+00 0. -1.
         -1   -1    0    0    0  501 -0.00000000000E+00 -0.00000000000E+00 -0.38610875061E+03  0.38610875061E+03  0.00000000000E+00 0.  1.
         23    2    1    2    0    0 -0.29443071224E+02  0.11652573169E+03 -0.26996280029E+03  0.31003174487E+03  0.93779681688E+02 0.  0.
         23    2    1    2    0    0  0.29443071224E+02 -0.11652573169E+03 -0.17840775760E+02  0.17438218030E+03  0.12508281632E+03 0.  0.
          5    1    4    4  502    0  0.91360410358E+01 -0.31591838673E+02 -0.66514854667E+02  0.74318300626E+02  0.41800000000E+01 0.  1.
         -5    1    4    4    0  502  0.20307030188E+02 -0.84933893020E+02  0.48674078907E+02  0.10006387968E+03  0.41800000000E+01 0.  1.
        -11    1    3    3    0    0 -0.52403337274E+02  0.36406435747E+02 -0.78124957179E+02  0.10087143925E+03  0.00000000000E+00 0.  1.
         11    1    3    3    0    0  0.22960266049E+02  0.80119295946E+02 -0.19183784311E+03  0.20916030562E+03  0.00000000000E+00 0. -1.
</event>
<event>
 8    1  0.9181008E-006  0.6175691E+02  0.7561462E-02  0.1390603E+00
          1   -1    0    0  501    0  0.00000000000E+00  0.00000000000E+00  0.32494147784E+03  0.32494147784E+03  0.00000000000E+00 0. -1.
         -1   -1    0    0    0  501 -0.00000000000E+00 -0.00000000000E+00 -0.35209170402E+02  0.35209170402E+02  0.00000000000E+00 0.  1.
         23    2    1    2    0    0  0.27117521696E+01 -0.93033650527E+00  0.13643313924E+03  0.16226307782E+03  0.87790009768E+02 0.  0.
         23    2    1    2    0    0 -0.27117521696E+01  0.93033650527E+00  0.15329916820E+03  0.19788757043E+03  0.12510250370E+03 0.  0.
          5    1    4    4  502    0  0.14795581958E+02  0.33274913384E+02  0.15649862399E+03  0.16073400641E+03  0.41800000000E+01 0. -1.
         -5    1    4    4    0  502 -0.17507334128E+02 -0.32344576879E+02 -0.31994557863E+01  0.37153564016E+02  0.41800000000E+01 0. -1.
        -11    1    3    3    0    0  0.14301204497E+02 -0.21740984566E+02  0.13597063093E+03  0.13843846047E+03  0.00000000000E+00 0. -1.
         11    1    3    3    0    0 -0.11589452328E+02  0.20810648061E+02  0.46250830252E+00  0.23824617350E+02  0.00000000000E+00 0.  1.
</event>
<event>
 8    1  0.2755308E-005  0.3190756E+03  0.7561462E-02  0.1076076E+00
         -1   -1    0    0    0  501 -0.00000000000E+00  0.00000000000E+00  0.10229207261E+03  0.10229207261E+03  0.00000000000E+00 0.  1.
          1   -1    0    0  501    0  0.00000000000E+00 -0.00000000000E+00 -0.14855858284E+04  0.14855858284E+04  0.00000000000E+00 0. -1.
         23    2    1    2    0    0 -0.38174855293E+02  0.30474570084E+03 -0.23514056300E+03  0.39279204289E+03  0.68317222077E+02 0.  0.
         23    2    1    2    0    0  0.38174855293E+02 -0.30474570084E+03 -0.11481531927E+04  0.11950858581E+04  0.12508873817E+03 0.  0.
          5    1    4    4  502    0 -0.35349503981E+02 -0.87739445964E+02 -0.46434199414E+03  0.47389741266E+03  0.41800000000E+01 0.  1.
         -5    1    4    4    0  502  0.73524359275E+02 -0.21700625487E+03 -0.68381119861E+03  0.72118844542E+03  0.41800000000E+01 0.  1.
        -11    1    3    3    0    0 -0.57421701271E+02  0.21662447036E+03 -0.17568665916E+03  0.28476168131E+03  0.00000000000E+00 0.  1.
         11    1    3    3    0    0  0.19246845977E+02  0.88121230479E+02 -0.59453903848E+02  0.10803036158E+03  0.00000000000E+00 0. -1.
</event>
<event>
 8    1  0.9181008E-006  0.9595459E+02  0.7561462E-02  0.1289040E+00
         -2   -1    0    0    0  501 -0.00000000000E+00  0.00000000000E+00  0.21699455176E+02  0.21699455176E+02  0.00000000000E+00 0.  1.
          2   -1    0    0  501    0  0.00000000000E+00 -0.00000000000E+00 -0.58298601471E+03  0.58298601471E+03  0.00000000000E+00 0. -1.
         23    2    1    2    0    0 -0.20301797801E+02  0.29568784999E+02 -0.17581812572E+03  0.19784348813E+03  0.83328005033E+02 0.  0.
         23    2    1    2    0    0  0.20301797801E+02 -0.29568784999E+02 -0.38546843381E+03  0.40684198175E+03  0.12509200060E+03 0.  0.
          5    1    4    4  502    0  0.59240160409E+02 -0.42928290066E+02 -0.32763985489E+03  0.33573439145E+03  0.41800000000E+01 0. -1.
         -5    1    4    4    0  502 -0.38938362608E+02  0.13359505068E+02 -0.57828578922E+02  0.71107590301E+02  0.41800000000E+01 0. -1.
        -11    1    3    3    0    0  0.22053268964E+02  0.26941232835E+02 -0.13329878035E+03  0.13777061204E+03  0.00000000000E+00 0. -1.
         11    1    3    3    0    0 -0.42355066764E+02  0.26275521639E+01 -0.42519345371E+02  0.60072876091E+02  0.00000000000E+00 0.  1.
</event>
<event>
 8    1  0.9181008E-006  0.7534140E+02  0.7561462E-02  0.1342817E+00
          1   -1    0    0  501    0  0.00000000000E+00  0.00000000000E+00  0.16629066468E+03  0.16629066468E+03  0.00000000000E+00 0. -1.
         -1   -1    0    0    0  501 -0.00000000000E+00 -0.00000000000E+00 -0.81302595773E+02  0.81302595773E+02  0.00000000000E+00 0.  1.
         23    2    1    2    0    0  0.17474474835E+02 -0.35287006870E+02  0.13305007390E+02  0.98140273325E+02  0.88904217572E+02 0.  0.
         23    2    1    2    0    0 -0.17474474835E+02  0.35287006870E+02  0.71683061515E+02  0.14945298713E+03  0.12508878418E+03 0.  0.
          5    1    4    4  502    0 -0.27317438376E+02  0.38046904251E+02 -0.24234477879E+02  0.52901717180E+02  0.41800000000E+01 0.  1.
         -5    1    4    4    0  502  0.98429635417E+01 -0.27598973814E+01  0.95917539394E+02  0.96551269946E+02  0.41800000000E+01 0.  1.
        -11    1    3    3    0    0  0.12173858247E+02 -0.63118921319E+02 -0.48913699775E+01  0.64468027373E+02  0.00000000000E+00 0.  1.
         11    1    3    3    0    0  0.53006165876E+01  0.27831914450E+02  0.18196377367E+02  0.33672245952E+02  0.00000000000E+00 0. -1.
</event>
<event>
 8    1  0.9181008E-006  0.8259707E+02  0.7561462E-02  0.1321839E+00
         -4   -1    0    0    0  501 -0.00000000000E+00  0.00000000000E+00  0.12335811555E+03  0.12335811555E+03  0.00000000000E+00 0.  1.
          4   -1    0    0  501    0  0.00000000000E+00 -0.00000000000E+00 -0.11864188636E+03  0.11864188636E+03  0.00000000000E+00 0. -1.
         23    2    1    2    0    0 -0.30229133530E+02 -0.20153813713E+02  0.38057399918E+02  0.10753157588E+03  0.93780047998E+02 0.  0.
         23    2    1    2    0    0  0.30229133530E+02  0.20153813713E+02 -0.33341170734E+02  0.13446842603E+03  0.12510054841E+03 0.  0.
          5    1    4    4  502    0 -0.64234811200E+01  0.40897146323E+02  0.34806929978E+02  0.54247879788E+02  0.41800000000E+01 0. -1.
         -5    1    4    4    0  502  0.36652614650E+02 -0.20743332610E+02 -0.68148100712E+02  0.80220546240E+02  0.41800000000E+01 0. -1.
        -11    1    3    3    0    0 -0.33450782946E+02 -0.45076747697E+02  0.53902884589E+02  0.77822805331E+02  0.00000000000E+00 0.  1.
         11    1    3    3    0    0  0.32216494155E+01  0.24922933984E+02 -0.15845484671E+02  0.29708770553E+02  0.00000000000E+00 0. -1.
</event>
<event>
 8    1  0.9181008E-006  0.8987142E+02  0.7561462E-02  0.1303163E+00
         -1   -1    0    0    0  501 -0.00000000000E+00  0.00000000000E+00  0.39204061046E+02  0.39204061046E+02  0.00000000000E+00 0.  1.
          1   -1    0    0  501    0  0.00000000000E+00 -0.00000000000E+00 -0.35229141055E+03  0.35229141055E+03  0.00000000000E+00 0. -1.
         23    2    1    2    0    0 -0.21158829943E+01  0.85856656364E+01 -0.85764792844E+02  0.13187804704E+03  0.99789924267E+02 0.  0.
         23    2    1    2    0    0  0.21158829943E+01 -0.85856656364E+01 -0.22732255666E+03  0.25961742455E+03  0.12508985470E+03 0.  0.
          5    1    4    4  502    0 -0.34153341102E+02 -0.30225046122E+02 -0.20800530569E+03  0.21298752010E+03  0.41800000000E+01 0.  1.
         -5    1    4    4    0  502  0.36269224096E+02  0.21639380485E+02 -0.19317250965E+02  0.46629904452E+02  0.41800000000E+01 0.  1.
        -11    1    3    3    0    0  0.39255679207E+02  0.25497454993E+02 -0.70546211270E+02  0.84663430628E+02  0.00000000000E+00 0. -1.
         11    1    3    3    0    0 -0.41371562201E+02 -0.16911789357E+02 -0.15218581574E+02  0.47214616416E+02  0.00000000000E+00 0.  1.
</event>
<event>
 8    1  0.9181008E-006  0.1042194E+03  0.7561462E-02  0.1271665E+00
         -1   -1    0    0    0  501 -0.00000000000E+00  0.00000000000E+00  0.32803857636E+02  0.32803857636E+02  0.00000000000E+00 0.  1.
          1   -1    0    0  501    0  0.00000000000E+00 -0.00000000000E+00 -0.43936804833E+03  0.43936804833E+03  0.00000000000E+00 0. -1.
         23    2    1    2    0    0  0.49556445056E+02  0.12342782215E+02 -0.17477242360E+03  0.20387337491E+03  0.91710236222E+02 0.  0.
         23    2    1    2    0    0 -0.49556445056E+02 -0.12342782215E+02 -0.23179176710E+03  0.26829853106E+03  0.12509393652E+03 0.  0.
          5    1    4    4  502    0  0.66959335671E+01  0.37521370685E+02 -0.19427478115E+02  0.42983579310E+02  0.41800000000E+01 0. -1.
         -5    1    4    4    0  502 -0.56252378623E+02 -0.49864152900E+02 -0.21236428899E+03  0.22531495175E+03  0.41800000000E+01 0. -1.
        -11    1    3    3    0    0  0.20814812371E+02  0.46035277930E+02 -0.13575409280E+03  0.14485053310E+03  0.00000000000E+00 0.  1.
         11    1    3    3    0    0  0.28741632685E+02 -0.33692495714E+02 -0.39018330796E+02  0.59022841807E+02  0.00000000000E+00 0. -1.
</event>
<event>
 8    1  0.9181008E-006  0.1136773E+03  0.7561462E-02  0.1253908E+00
         -1   -1    0    0    0  501 -0.00000000000E+00  0.00000000000E+00  0.10664450729E+03  0.10664450729E+03  0.00000000000E+00 0.  1.
          1   -1    0    0  501    0  0.00000000000E+00 -0.00000000000E+00 -0.13425171022E+03  0.13425171022E+03  0.00000000000E+00 0. -1.
         23    2    1    2    0    0  0.33538879455E+02 -0.33345015173E+02 -0.30049105395E+02  0.10714202042E+03  0.91322052823E+02 0.  0.
         23    2    1    2    0    0 -0.33538879455E+02  0.33345015173E+02  0.24419024667E+01  0.13375419710E+03  0.12508987122E+03 0.  0.
          5    1    4    4  502    0 -0.52111626144E+02  0.68126629192E+02 -0.20028995163E+02  0.88178751588E+02  0.41800000000E+01 0.  1.
         -5    1    4    4    0  502  0.18572746689E+02 -0.34781614019E+02  0.22470897630E+02  0.45575445512E+02  0.41800000000E+01 0.  1.
        -11    1    3    3    0    0 -0.54760279981E+01  0.28328024609E+02 -0.15413011152E+02  0.32711233142E+02  0.00000000000E+00 0. -1.
         11    1    3    3    0    0  0.39014907453E+02 -0.61673039782E+02 -0.14636094243E+02  0.74430787274E+02  0.00000000000E+00 0.  1.
</event>
<event>
 8    1  0.9181008E-006  0.1001144E+03  0.7561462E-02  0.1280055E+00
         -2   -1    0    0    0  501 -0.00000000000E+00  0.00000000000E+00  0.76005681639E+02  0.76005681639E+02  0.00000000000E+00 0.  1.
          2   -1    0    0  501    0  0.00000000000E+00 -0.00000000000E+00 -0.29968632349E+03  0.29968632349E+03  0.00000000000E+00 0. -1.
         23    2    1    2    0    0 -0.46407555440E+02 -0.37638029991E+02  0.49804240090E+01  0.10828974688E+03  0.90175285705E+02 0.  0.
         23    2    1    2    0    0  0.46407555440E+02  0.37638029991E+02 -0.22866106586E+03  0.26740225825E+03  0.12509117544E+03 0.  0.
          5    1    4    4  502    0  0.50464973336E+02  0.77913971530E+02 -0.12285055040E+03  0.15403580956E+03  0.41800000000E+01 0. -1.
         -5    1    4    4    0  502 -0.40574178962E+01 -0.40275941539E+02 -0.10581051545E+03  0.11336644869E+03  0.41800000000E+01 0. -1.
        -11    1    3    3    0    0 -0.14242460474E+02 -0.30501804140E+02  0.45161831050E+02  0.56327601759E+02  0.00000000000E+00 0.  1.
         11    1    3    3    0    0 -0.32165094966E+02 -0.71362258513E+01 -0.40181407041E+02  0.51962145119E+02  0.00000000000E+00 0. -1.
</event>
<event>
 8    1  0.9181008E-006  0.9483792E+02  0.7561462E-02  0.1291542E+00
          1   -1    0    0  501    0  0.00000000000E+00  0.00000000000E+00  0.30346185954E+03  0.30346185954E+03  0.00000000000E+00 0. -1.
         -1   -1    0    0    0  501 -0.00000000000E+00 -0.00000000000E+00 -0.64228544678E+02  0.64228544678E+02  0.00000000000E+00 0.  1.
         23    2    1    2    0    0  0.50805276757E+02  0.17603586236E+02  0.22822156995E+02  0.11201054465E+03  0.95574310708E+02 0.  0.
         23    2    1    2    0    0 -0.50805276757E+02 -0.17603586236E+02  0.21641115786E+03  0.25567985957E+03  0.12508932387E+03 0.  0.
          5    1    4    4  502    0  0.24934495286E+02 -0.47908744215E+02  0.78073434356E+02  0.95025840588E+02  0.41800000000E+01 0. -1.
         -5    1    4    4    0  502 -0.75739772043E+02  0.30305157979E+02  0.13833772351E+03  0.16065401898E+03  0.41800000000E+01 0. -1.
        -11    1    3    3    0    0  0.17132718552E+02  0.71260461899E+01 -0.37668607017E+02  0.41990886319E+02  0.00000000000E+00 0.  1.
         11    1    3    3    0    0  0.33672558205E+02  0.10477540046E+02  0.60490764012E+02  0.70019658328E+02  0.00000000000E+00 0. -1.
</event>
<event>
 8    1  0.9181008E-006  0.1152322E+03  0.7561462E-02  0.1251176E+00
         -1   -1    0    0    0  501 -0.00000000000E+00  0.00000000000E+00  0.15367057921E+03  0.15367057921E+03  0.00000000000E+00 0.  1.
          1   -1    0    0  501    0  0.00000000000E+00 -0.00000000000E+00 -0.10964764489E+03  0.10964764489E+03  0.00000000000E+00 0. -1.
         23    2    1    2    0    0 -0.76980347473E+01  0.13918408245E+02  0.79818735309E+02  0.13223010136E+03  0.10421510146E+03 0.  0.
         23    2    1    2    0    0  0.76980347473E+01 -0.13918408245E+02 -0.35795800989E+02  0.13108812274E+03  0.12509905966E+03 0.  0.
          5    1    4    4  502    0  0.59845069259E+02  0.20566724157E+02 -0.16580037922E+02  0.65549923834E+02  0.41800000000E+01 0. -1.
         -5    1    4    4    0  502 -0.52147034511E+02 -0.34485132402E+02 -0.19215763067E+02  0.65538198903E+02  0.41800000000E+01 0. -1.
        -11    1    3    3    0    0 -0.29415885138E+02  0.52462490188E+02  0.36740804927E+02  0.70480450636E+02  0.00000000000E+00 0. -1.
         11    1    3    3    0    0  0.21717850391E+02 -0.38544081943E+02  0.43077930382E+02  0.61749650723E+02  0.00000000000E+00 0.  1.
</event>
<event>
 8    1  0.9181008E-006  0.7998239E+02  0.7561462E-02  0.1329101E+00
         -2   -1    0    0    0  501 -0.00000000000E+00  0.00000000000E+00  0.10061745273E+02  0.10061745273E+02  0.00000000000E+00 0.  1.
          2   -1    0    0  501    0  0.00000000000E+00 -0.00000000000E+00 -0.13437430516E+04  0.13437430516E+04  0.00000000000E+00 0. -1.
         23    2    1    2    0    0 -0.33862201354E+02  0.32729360813E+02 -0.28933964477E+03  0.30094443598E+03  0.68060735922E+02 0.  0.
         23    2    1    2    0    0  0.33862201354E+02 -0.32729360813E+02 -0.10443416616E+04  0.10528603609E+04  0.12509026232E+03 0.  0.
          5    1    4    4  502    0 -0.13985292819E+02  0.12992048402E+02 -0.78277549046E+03  0.78301936286E+03  0.41800000000E+01 0. -1.
         -5    1    4    4    0  502  0.47847494174E+02 -0.45721409215E+02 -0.26156617113E+03  0.26984099807E+03  0.41800000000E+01 0. -1.
        -11    1    3    3    0    0  0.13765307693E+02  0.20918671563E+02 -0.42958329184E+02  0.49724164770E+02  0.00000000000E+00 0.  1.
         11    1    3    3    0    0 -0.47627509047E+02  0.11810689250E+02 -0.24638131558E+03  0.25122027121E+03  0.00000000000E+00 0. -1.
</event>
<event>
 8    1  0.9181008E-006  0.1377942E+03  0.7561462E-02  0.1216328E+00
          2   -1    0    0  501    0  0.00000000000E+00  0.00000000000E+00  0.26323882784E+03  0.26323882784E+03  0.00000000000E+00 0. -1.
         -2   -1    0    0    0  501 -0.00000000000E+00 -0.00000000000E+00 -0.73726236709E+02  0.73726236709E+02  0.00000000000E+00 0.  1.
         23    2    1    2    0    0  0.85854577701E+02 -0.51823867220E+01  0.10378604865E+03  0.16262422373E+03  0.90979275694E+02 0.  0.
         23    2    1    2    0    0 -0.85854577701E+02  0.51823867220E+01  0.85726542478E+02  0.17434084082E+03  0.12509125887E+03 0.  0.
          5    1    4    4  502    0 -0.15354298889E+01 -0.49731500913E+02  0.38799658167E+02  0.63233421558E+02  0.41800000000E+01 0. -1.
         -5    1    4    4    0  502 -0.84319147812E+02  0.54913887635E+02  0.46926884311E+02  0.11110741926E+03  0.41800000000E+01 0. -1.
        -11    1    3    3    0    0  0.59936444278E+02 -0.46714543563E+02  0.68125250563E+02  0.10205721776E+03  0.00000000000E+00 0.  1.
         11    1    3    3    0    0  0.25918133423E+02  0.41532156841E+02  0.35660798090E+02  0.60567005972E+02  0.00000000000E+00 0. -1.
</event>
<event>
 8    1  0.9181008E-006  0.1447649E+03  0.7561462E-02  0.1207058E+00
          1   -1    0    0  501    0  0.00000000000E+00  0.00000000000E+00  0.61642893811E+03  0.61642893811E+03  0.00000000000E+00 0. -1.
         -1   -1    0    0    0  501 -0.00000000000E+00 -0.00000000000E+00 -0.49440624892E+02  0.49440624892E+02  0.00000000000E+00 0.  1.
         23    2    1    2    0    0 -0.12656234376E+03 -0.50090897510E+02  0.28447629185E+03  0.32825037548E+03  0.91073725645E+02 0.  0.
         23    2    1    2    0    0  0.12656234376E+03  0.50090897510E+02  0.28251202137E+03  0.33761918753E+03  0.12508616510E+03 0.  0.
          5    1    4    4  502    0  0.95652091809E+01  0.30914219769E+02  0.15812773260E+01  0.32667339172E+02  0.41800000000E+01 0.  1.
         -5    1    4    4    0  502  0.11699713458E+03  0.19176677741E+02  0.28093074404E+03  0.30495184836E+03  0.41800000000E+01 0.  1.
        -11    1    3    3    0    0 -0.64318669193E+02 -0.12400666625E+02  0.49042219483E+02  0.81827911078E+02  0.00000000000E+00 0.  1.
         11    1    3    3    0    0 -0.62243674565E+02 -0.37690230885E+02  0.23543407237E+03  0.24642246440E+03  0.00000000000E+00 0. -1.
</event>
<event>
 8    1  0.9181008E-006  0.1404547E+03  0.7561462E-02  0.1212718E+00
         -1   -1    0    0    0  501 -0.00000000000E+00  0.00000000000E+00  0.16442724054E+03  0.16442724054E+03  0.00000000000E+00 0. -1.
          1   -1    0    0  501    0  0.00000000000E+00 -0.00000000000E+00 -0.17249685815E+03  0.17249685815E+03  0.00000000000E+00 0.  1.
         23    2    1    2    0    0 -0.27054474187E+02  0.12346872816E+03  0.19972912656E+02  0.15689038491E+03  0.90770062409E+02 0.  0.
         23    2    1    2    0    0  0.27054474187E+02 -0.12346872816E+03 -0.28042530262E+02  0.18003371379E+03  0.12509709505E+03 0.  0.
          5    1    4    4  502    0  0.51015701503E+02 -0.39164213864E+02  0.33714179091E+02  0.72736206385E+02  0.41800000000E+01 0. -1.
         -5    1    4    4    0  502 -0.23961227316E+02 -0.84304514293E+02 -0.61756709354E+02  0.10729750740E+03  0.41800000000E+01 0. -1.
        -11    1    3    3    0    0  0.41158048687E+01  0.27638188252E+02  0.45079560112E+02  0.53037496543E+02  0.00000000000E+00 0. -1.
         11    1    3    3    0    0 -0.31170279056E+02  0.95830539905E+02 -0.25106647457E+02  0.10385288836E+03  0.00000000000E+00 0.  1.
</event>
<event>
 8    1  0.1689015E-005  0.1929504E+03  0.7561462E-02  0.1155827E+00
          1   -1    0    0  501    0  0.00000000000E+00  0.00000000000E+00  0.50209157513E+03  0.50209157513E+03  0.00000000000E+00 0. -1.
         -1   -1    0    0    0  501 -0.00000000000E+00 -0.00000000000E+00 -0.93437212308E+02  0.93437212308E+02  0.00000000000E+00 0.  1.
         23    2    1    2    0    0 -0.84134518401E+02  0.16449358158E+03  0.14095067306E+03  0.24703233845E+03  0.83792174072E+02 0.  0.
         23    2    1    2    0    0  0.84134518401E+02 -0.16449358158E+03  0.26770368976E+03  0.34849644899E+03  0.12509098240E+03 0.  0.
          5    1    4    4  502    0 -0.29342627739E-01 -0.20033888652E+02 -0.11173076760E+02  0.23316680720E+02  0.41800000000E+01 0. -1.
         -5    1    4    4    0  502  0.84163861029E+02 -0.14445969293E+03  0.27887676652E+03  0.32517976827E+03  0.41800000000E+01 0. -1.
        -11    1    3    3    0    0 -0.70433406921E+02  0.59186193208E+02  0.91969819321E+02  0.13008580992E+03  0.00000000000E+00 0. -1.
         11    1    3    3    0    0 -0.13701111480E+02  0.10530738837E+03  0.48980853739E+02  0.11694652853E+03  0.00000000000E+00 0.  1.
</event>
<event>
 8    1  0.9181008E-006  0.1025320E+03  0.7561462E-02  0.1275060E+00
          1   -1    0    0  501    0  0.00000000000E+00  0.00000000000E+00  0.41833926676E+02  0.41833926676E+02  0.00000000000E+00 0. -1.
         -1   -1    0    0    0  501 -0.00000000000E+00 -0.00000000000E+00 -0.41964830007E+03  0.41964830007E+03  0.00000000000E+00 0.  1.
         23    2    1    2    0    0  0.72615726431E+02 -0.17408695579E+02 -0.19472832266E+03  0.22750205050E+03  0.90895307535E+02 0.  0.
         23    2    1    2    0    0 -0.72615726431E+02  0.17408695579E+02 -0.18308605074E+03  0.23398017624E+03  0.12510041764E+03 0.  0.
          5    1    4    4  502    0 -0.35682886642E+02 -0.26804115253E+02 -0.30752617949E+01  0.44929485071E+02  0.41800000000E+01 0.  1.
         -5    1    4    4    0  502 -0.36932839789E+02  0.44212810832E+02 -0.18001078895E+03  0.18905069117E+03  0.41800000000E+01 0.  1.
        -11    1    3    3    0    0  0.41236389568E+02 -0.44755188999E+02 -0.56132044003E+02  0.82790537689E+02  0.00000000000E+00 0. -1.
         11    1    3    3    0    0  0.31379336863E+02  0.27346493420E+02 -0.13859627865E+03  0.14471151281E+03  0.00000000000E+00 0.  1.
</event>
<event>
 8    1  0.9181008E-006  0.8298356E+02  0.7561462E-02  0.1320792E+00
          1   -1    0    0  501    0  0.00000000000E+00  0.00000000000E+00  0.20887870696E+02  0.20887870696E+02  0.00000000000E+00 0. -1.
         -1   -1    0    0    0  501 -0.00000000000E+00 -0.00000000000E+00 -0.62569597919E+03  0.62569597919E+03  0.00000000000E+00 0.  1.
         23    2    1    2    0    0  0.23025636220E+02  0.12166080910E+02 -0.32581280547E+03  0.33972280974E+03  0.92625103502E+02 0.  0.
         23    2    1    2    0    0 -0.23025636220E+02 -0.12166080910E+02 -0.27899530301E+03  0.30686104014E+03  0.12508847031E+03 0.  0.
          5    1    4    4  502    0  0.18929475699E+02 -0.25290190216E+02 -0.25425606710E+03  0.25624507571E+03  0.41800000000E+01 0.  1.
         -5    1    4    4    0  502 -0.41955111919E+02  0.13124109305E+02 -0.24739235919E+02  0.50615964429E+02  0.41800000000E+01 0.  1.
        -11    1    3    3    0    0  0.29433562320E+02  0.46491451276E+02 -0.13573491718E+03  0.14646418462E+03  0.00000000000E+00 0. -1.
         11    1    3    3    0    0 -0.64079261005E+01 -0.34325370366E+02 -0.19007788829E+03  0.19325862512E+03  0.00000000000E+00 0.  1.
</event>
<event>
 8    1  0.9181008E-006  0.1670484E+03  0.7561462E-02  0.1180961E+00
         -1   -1    0    0    0  501 -0.00000000000E+00  0.00000000000E+00  0.21375062421E+02  0.21375062421E+02  0.00000000000E+00 0.  1.
          1   -1    0    0  501    0  0.00000000000E+00 -0.00000000000E+00 -0.14149273320E+04  0.14149273320E+04  0.00000000000E+00 0. -1.
         23    2    1    2    0    0  0.12353140811E+03 -0.48129199088E+02 -0.53884772647E+03  0.56237856144E+03  0.91303589463E+02 0.  0.
         23    2    1    2    0    0 -0.12353140811E+03  0.48129199088E+02 -0.85470454314E+03  0.87392383301E+03  0.12508629521E+03 0.  0.
          5    1    4    4  502    0 -0.37547852818E+02  0.75874839150E+02 -0.53496222132E+03  0.54163537838E+03  0.41800000000E+01 0. -1.
         -5    1    4    4    0  502 -0.85983555295E+02 -0.27745640063E+02 -0.31974232182E+03  0.33228845464E+03  0.41800000000E+01 0. -1.
        -11    1    3    3    0    0  0.13525074255E+03 -0.32054289614E+02 -0.49652667814E+03  0.51561515004E+03  0.00000000000E+00 0. -1.
         11    1    3    3    0    0 -0.11719334436E+02 -0.16074909474E+02 -0.42321048332E+02  0.46763411404E+02  0.00000000000E+00 0.  1.
</event>
<event>
 8    1  0.9181008E-006  0.1382388E+03  0.7561462E-02  0.1215719E+00
         -2   -1    0    0    0  501 -0.00000000000E+00  0.00000000000E+00  0.14222599620E+03  0.14222599620E+03  0.00000000000E+00 0.  1.
          2   -1    0    0  501    0  0.00000000000E+00 -0.00000000000E+00 -0.18224822602E+03  0.18224822602E+03  0.00000000000E+00 0. -1.
         23    2    1    2    0    0 -0.93175999666E+02 -0.58437698998E+02  0.28391440185E+02  0.14440629981E+03  0.89164869602E+02 0.  0.
         23    2    1    2    0    0  0.93175999666E+02  0.58437698998E+02 -0.68413670009E+02  0.18006792241E+03  0.12508914765E+03 0.  0.
          5    1    4    4  502    0  0.19706487185E+01  0.72601995831E+02 -0.18544582496E+02  0.75075343456E+02  0.41800000000E+01 0. -1.
         -5    1    4    4    0  502  0.91205350947E+02 -0.14164296833E+02 -0.49869087512E+02  0.10499257895E+03  0.41800000000E+01 0. -1.
        -11    1    3    3    0    0 -0.21093111451E+02 -0.52017588409E+01 -0.30301980165E+02  0.37285220231E+02  0.00000000000E+00 0. -1.
         11    1    3    3    0    0 -0.72082888214E+02 -0.53235940157E+02  0.58693420350E+02  0.10712107958E+03  0.00000000000E+00 0.  1.
</event>
<event>
 8    1  0.1025373E-005  0.5640572E+02  0.7561462E-02  0.1413566E+00
          3   -1    0    0  501    0  0.00000000000E+00  0.00000000000E+00  0.72837038847E+03  0.72837038847E+03  0.00000000000E+00 0. -1.
         -3   -1    0    0    0  501 -0.00000000000E+00 -0.00000000000E+00 -0.18482190355E+02  0.18482190355E+02  0.00000000000E+00 0.  1.
         23    2    1    2    0    0  0.32390578594E+02  0.14534878881E+02  0.20377480028E+03  0.22430285642E+03  0.86759379227E+02 0.  0.
         23    2    1    2    0    0 -0.32390578594E+02 -0.14534878881E+02  0.50611339784E+03  0.52254972241E+03  0.12508808349E+03 0.  0.
          5    1    4    4  502    0 -0.17822105806E+02 -0.84321512295E+01  0.44749316711E+01  0.20645242628E+02  0.41800000000E+01 0. -1.
         -5    1    4    4    0  502 -0.14568472789E+02 -0.61027276511E+01  0.50163846617E+03  0.50190447979E+03  0.41800000000E+01 0. -1.
        -11    1    3    3    0    0  0.68349562164E+00 -0.25353734055E+02  0.16590937895E+02  0.30307395418E+02  0.00000000000E+00 0.  1.
         11    1    3    3    0    0  0.31707082973E+02  0.39888612935E+02  0.18718386238E+03  0.19399546100E+03  0.00000000000E+00 0. -1.
</event>
<event>
 8    1  0.9181008E-006  0.1048759E+03  0.7561462E-02  0.1270364E+00
          2   -1    0    0  501    0  0.00000000000E+00  0.00000000000E+00  0.28115516660E+03  0.28115516660E+03  0.00000000000E+00 0. -1.
         -2   -1    0    0    0  501 -0.00000000000E+00 -0.00000000000E+00 -0.10094449746E+03  0.10094449746E+03  0.00000000000E+00 0.  1.
         23    2    1    2    0    0 -0.71743910061E+02 -0.62256433772E+02 -0.25443346595E+01  0.14112530509E+03  0.10433995362E+03 0.  0.
         23    2    1    2    0    0  0.71743910061E+02  0.62256433772E+02  0.18275500380E+03  0.24097435896E+03  0.12508476361E+03 0.  0.
          5    1    4    4  502    0  0.38046571079E+02  0.92864252497E+01 -0.79306025095E+01  0.40176437385E+02  0.41800000000E+01 0. -1.
         -5    1    4    4    0  502  0.33697338982E+02  0.52970008522E+02  0.19068560631E+03  0.20079792158E+03  0.41800000000E+01 0. -1.
        -11    1    3    3    0    0 -0.57606035069E+02 -0.70530389185E+02 -0.40590535226E+02  0.99702470506E+02  0.00000000000E+00 0.  1.
         11    1    3    3    0    0 -0.14137874992E+02  0.82739554138E+01  0.38046200566E+02  0.41422834584E+02  0.00000000000E+00 0. -1.
</event>
<event>
 8    1  0.9181008E-006  0.1122416E+03  0.7561462E-02  0.1256474E+00
          1   -1    0    0  501    0  0.00000000000E+00  0.00000000000E+00  0.80326989802E+03  0.80326989802E+03  0.00000000000E+00 0. -1.
         -1   -1    0    0    0  501 -0.00000000000E+00 -0.00000000000E+00 -0.27718522410E+02  0.27718522410E+02  0.00000000000E+00 0.  1.
         23    2    1    2    0    0  0.40779431968E+02  0.79925631535E+02  0.21567613151E+03  0.25033414864E+03  0.89999575695E+02 0.  0.
         23    2    1    2    0    0 -0.40779431968E+02 -0.79925631535E+02  0.55987524410E+03  0.58065427179E+03  0.12509206906E+03 0.  0.
          5    1    4    4  502    0 -0.45848665074E+02 -0.45854456915E+02  0.98659420516E+02  0.11813502852E+03  0.41800000000E+01 0. -1.
         -5    1    4    4    0  502  0.50692331062E+01 -0.34071174621E+02  0.46121582358E+03  0.46251924326E+03  0.41800000000E+01 0. -1.
        -11    1    3    3    0    0  0.37077041743E+02 -0.70585381505E+01  0.44982837736E+02  0.58719551054E+02  0.00000000000E+00 0.  1.
         11    1    3    3    0    0  0.37023902249E+01  0.86984169686E+02  0.17069329377E+03  0.19161459759E+03  0.00000000000E+00 0. -1.
</event>
<event>
 8    1  0.9181008E-006  0.9285113E+02  0.7561462E-02  0.1296091E+00
          2   -1    0    0  501    0  0.00000000000E+00  0.00000000000E+00  0.42500284726E+03  0.42500284726E+03  0.00000000000E+00 0. -1.
         -2   -1    0    0    0  501 -0.00000000000E+00 -0.00000000000E+00 -0.34116394029E+02  0.34116394029E+02  0.00000000000E+00 0.  1.
         23    2    1    2    0    0  0.55700055047E+01  0.58853701093E+02  0.15244902044E+03  0.18815406526E+03  0.93093852356E+02 0.  0.
         23    2    1    2    0    0 -0.55700055047E+01 -0.58853701093E+02  0.23843743279E+03  0.27096517603E+03  0.11434567841E+03 0.  0.
          5    1    4    4  502    0 -0.39121693597E+02 -0.11859105202E+02  0.19312151931E+03  0.19744502756E+03  0.41800000000E+01 0. -1.
         -5    1    4    4    0  502  0.33551688092E+02 -0.46994595891E+02  0.45315913474E+02  0.73520148468E+02  0.41800000000E+01 0.  1.
        -11    1    3    3    0    0 -0.19624113475E+02  0.58301492046E+02  0.15084133533E+03  0.16290266496E+03  0.00000000000E+00 0.  1.
         11    1    3    3    0    0  0.25194118980E+02  0.55220904767E+00  0.16076851099E+01  0.25251400306E+02  0.00000000000E+00 0. -1.
</event>
<event>
 8    1  0.9181008E-006  0.1162126E+03  0.7561462E-02  0.1249479E+00
          1   -1    0    0  501    0  0.00000000000E+00  0.00000000000E+00  0.28506584014E+03  0.28506584014E+03  0.00000000000E+00 0. -1.
         -1   -1    0    0    0  501 -0.00000000000E+00 -0.00000000000E+00 -0.53337635276E+02  0.53337635276E+02  0.00000000000E+00 0.  1.
         23    2    1    2    0    0  0.24818558985E+02 -0.52659563355E+02  0.94231409036E+02  0.14361540003E+03  0.91415721811E+02 0.  0.
         23    2    1    2    0    0 -0.24818558985E+02  0.52659563355E+02  0.13749679582E+03  0.19478807538E+03  0.12509210593E+03 0.  0.
          5    1    4    4  502    0 -0.96177054948E+01 -0.41162182674E+02  0.49082756120E+02  0.64910822593E+02  0.41800000000E+01 0.  1.
         -5    1    4    4    0  502 -0.15200853491E+02  0.93821746028E+02  0.88414039705E+02  0.12987725279E+03  0.41800000000E+01 0.  1.
        -11    1    3    3    0    0  0.47175409403E+02 -0.12427982408E+02  0.82941014912E+02  0.96224663957E+02  0.00000000000E+00 0. -1.
         11    1    3    3    0    0 -0.22356850418E+02 -0.40231580947E+02  0.11290394124E+02  0.47390736074E+02  0.00000000000E+00 0.  1.
</event>
<event>
 8    1  0.9181008E-006  0.1200250E+03  0.7561462E-02  0.1243056E+00
         -3   -1    0    0    0  501 -0.00000000000E+00  0.00000000000E+00  0.69391257756E+02  0.69391257756E+02  0.00000000000E+00 0.  1.
          3   -1    0    0  501    0  0.00000000000E+00 -0.00000000000E+00 -0.21714049730E+03  0.21714049730E+03  0.00000000000E+00 0. -1.
         23    2    1    2    0    0 -0.36736516895E+02  0.45670833493E+02 -0.64357463199E+02  0.12514764313E+03  0.89914697387E+02 0.  0.
         23    2    1    2    0    0  0.36736516895E+02 -0.45670833493E+02 -0.83391776343E+02  0.16138411192E+03  0.12512092756E+03 0.  0.
          5    1    4    4  502    0  0.80372892408E+02 -0.37662425391E+02 -0.34736519738E+02  0.95406280317E+02  0.41800000000E+01 0. -1.
         -5    1    4    4    0  502 -0.43636375513E+02 -0.80084081020E+01 -0.48655256605E+02  0.65977831607E+02  0.41800000000E+01 0. -1.
        -11    1    3    3    0    0 -0.29475776953E+02 -0.23117602400E+02 -0.29555007428E+02  0.47715232702E+02  0.00000000000E+00 0. -1.
         11    1    3    3    0    0 -0.72607399421E+01  0.68788435893E+02 -0.34802455772E+02  0.77432410429E+02  0.00000000000E+00 0.  1.
</event>
<event>
 8    1  0.9181008E-006  0.1257963E+03  0.7561462E-02  0.1233830E+00
         -2   -1    0    0    0  501 -0.00000000000E+00  0.00000000000E+00  0.14285937573E+02  0.14285937573E+02  0.00000000000E+00 0.  1.
          2   -1    0    0  501    0  0.00000000000E+00 -0.00000000000E+00 -0.14223571659E+04  0.14223571659E+04  0.00000000000E+00 0. -1.
         23    2    1    2    0    0  0.65550061709E+02 -0.33921844292E+01 -0.31521963700E+03  0.33470165915E+03  0.91397284324E+02 0.  0.
         23    2    1    2    0    0 -0.65550061709E+02  0.33921844292E+01 -0.10928515913E+04  0.11019414443E+04  0.12506809564E+03 0.  0.
          5    1    4    4  502    0  0.68015511555E+01  0.52857939185E+02 -0.42713703607E+03  0.43046921239E+03  0.41800000000E+01 0. -1.
         -5    1    4    4    0  502 -0.72351612864E+02 -0.49465754755E+02 -0.66571455525E+03  0.67147223192E+03  0.41800000000E+01 0. -1.
        -11    1    3    3    0    0  0.80224693407E+02 -0.25214036391E+02 -0.26485887612E+03  0.27788841884E+03  0.00000000000E+00 0. -1.
         11    1    3    3    0    0 -0.14674631698E+02  0.21821851962E+02 -0.50360760876E+02  0.56813240310E+02  0.00000000000E+00 0.  1.
</event>
<event>
 7    1  0.9181008E-006  0.1171443E+03  0.7561462E-02  0.1247884E+00
         -2   -1    0    0    0  501 -0.00000000000E+00  0.00000000000E+00  0.11581869180E+03  0.11581869180E+03  0.00000000000E+00 0.  1.
          2   -1    0    0  501    0  0.00000000000E+00 -0.00000000000E+00 -0.28503493221E+03  0.28503493221E+03  0.00000000000E+00 0. -1.
         23    2    1    2    0    0  0.43441950712E+02 -0.23772711440E+02  0.64901164917E+02  0.12620983325E+03  0.96251835878E+02 0.  0.
          5    1    1    2  502    0 -0.64153142110E+02  0.58000429632E+02 -0.21140716929E+03  0.22845161218E+03  0.41800000000E+01 0. -1.
         -5    1    1    2    0  502  0.20711191399E+02 -0.34227718192E+02 -0.22710236037E+02  0.46192178587E+02  0.41800000000E+01 0.  1.
        -11    1    3    3    0    0  0.29172236328E+02 -0.60996442026E+02  0.47951013073E+02  0.82890801461E+02  0.00000000000E+00 0.  1.
         11    1    3    3    0    0  0.14269714384E+02  0.37223730586E+02  0.16950151844E+02  0.43319031786E+02  0.00000000000E+00 0. -1.
</event>
<event>
 8    1  0.9181008E-006  0.1587526E+03  0.7561462E-02  0.1190112E+00
          1   -1    0    0  501    0  0.00000000000E+00  0.00000000000E+00  0.31140685580E+03  0.31140685580E+03  0.00000000000E+00 0. -1.
         -1   -1    0    0    0  501 -0.00000000000E+00 -0.00000000000E+00 -0.82831194751E+02  0.82831194751E+02  0.00000000000E+00 0.  1.
         23    2    1    2    0    0  0.10648954867E+03  0.49764817341E+02  0.12069502260E+03  0.19149880856E+03  0.91038146844E+02 0.  0.
         23    2    1    2    0    0 -0.10648954867E+03 -0.49764817341E+02  0.10788063845E+03  0.20273924199E+03  0.12509359324E+03 0.  0.
          5    1    4    4  502    0 -0.13030174019E+03 -0.20562276029E+02  0.71079937276E+02  0.14990390447E+03  0.41800000000E+01 0.  1.
         -5    1    4    4    0  502  0.23812191520E+02 -0.29202541313E+02  0.36800701170E+02  0.52835337519E+02  0.41800000000E+01 0.  1.
        -11    1    3    3    0    0  0.51925845429E+02 -0.22893304537E+02  0.57720766645E+02  0.80944942512E+02  0.00000000000E+00 0.  1.
         11    1    3    3    0    0  0.54563703237E+02  0.72658121879E+02  0.62974255955E+02  0.11055386605E+03  0.00000000000E+00 0. -1.
</event>
<event>
 8    1  0.9181008E-006  0.9949446E+02  0.7561462E-02  0.1281363E+00
         -2   -1    0    0    0  501 -0.00000000000E+00  0.00000000000E+00  0.10649101729E+03  0.10649101729E+03  0.00000000000E+00 0.  1.
          2   -1    0    0  501    0  0.00000000000E+00 -0.00000000000E+00 -0.11756520784E+03  0.11756520784E+03  0.00000000000E+00 0. -1.
         23    2    1    2    0    0  0.73797755630E-01 -0.10785470050E+02  0.22997790944E+02  0.93960817318E+02  0.90462174374E+02 0.  0.
         23    2    1    2    0    0 -0.73797755630E-01  0.10785470050E+02 -0.34071981492E+02  0.13009540781E+03  0.12509030098E+03 0.  0.
          5    1    4    4  502    0 -0.53195465728E+02 -0.12123848379E+02 -0.45275066868E+02  0.71021471074E+02  0.41800000000E+01 0. -1.
         -5    1    4    4    0  502  0.53121667973E+02  0.22909318430E+02  0.11203085376E+02  0.59073936732E+02  0.41800000000E+01 0. -1.
        -11    1    3    3    0    0  0.24170619893E+02 -0.41016102016E+02  0.27597539183E+02  0.55028753026E+02  0.00000000000E+00 0.  1.
         11    1    3    3    0    0 -0.24096822138E+02  0.30230631966E+02 -0.45997482390E+01  0.38932064293E+02  0.00000000000E+00 0. -1.
</event>
<event>
 8    1  0.9745372E-006  0.1087943E+03  0.7561462E-02  0.1262819E+00
         -2   -1    0    0    0  501 -0.00000000000E+00  0.00000000000E+00  0.24641891460E+02  0.24641891460E+02  0.00000000000E+00 0.  1.
          2   -1    0    0  501    0  0.00000000000E+00 -0.00000000000E+00 -0.95407487666E+03  0.95407487666E+03  0.00000000000E+00 0. -1.
         23    2    1    2    0    0 -0.31375548674E+02 -0.99389707145E+02 -0.34751790176E+03  0.37445251861E+03  0.92645872597E+02 0.  0.
         23    2    1    2    0    0  0.31375548674E+02  0.99389707145E+02 -0.58191508344E+03  0.60426424951E+03  0.12508948780E+03 0.  0.
          5    1    4    4  502    0  0.31120893231E+02  0.52149728926E+02 -0.82107213905E+02  0.10221140444E+03  0.41800000000E+01 0. -1.
         -5    1    4    4    0  502  0.25465544323E+00  0.47239978219E+02 -0.49980786953E+03  0.50205284506E+03  0.41800000000E+01 0. -1.
        -11    1    3    3    0    0 -0.34871501209E+01 -0.64636194171E+02 -0.78392275288E+02  0.10166290689E+03  0.00000000000E+00 0.  1.
         11    1    3    3    0    0 -0.27888398554E+02 -0.34753512975E+02 -0.26912562647E+03  0.27278961172E+03  0.00000000000E+00 0. -1.
</event>
<event>
 7    1  0.9181008E-006  0.1031233E+03  0.7561462E-02  0.1273862E+00
         -1   -1    0    0    0  501 -0.00000000000E+00  0.00000000000E+00  0.28418426158E+02  0.28418426158E+02  0.00000000000E+00 0.  1.
          1   -1    0    0  501    0  0.00000000000E+00 -0.00000000000E+00 -0.86093519929E+03  0.86093519929E+03  0.00000000000E+00 0. -1.
         23    2    1    2    0    0  0.24261008648E+00 -0.20620190023E+02 -0.71947832146E+02  0.11770175680E+03  0.90840309927E+02 0.  0.
          5    1    1    2  502    0 -0.50622036677E+02  0.49861448109E+02 -0.37663161979E+03  0.38329832249E+03  0.41800000000E+01 0. -1.
         -5    1    1    2    0  502  0.50379426591E+02 -0.29241258086E+02 -0.38393732120E+03  0.38835354615E+03  0.41800000000E+01 0.  1.
        -11    1    3    3    0    0 -0.21092690048E+02  0.21084327036E+02 -0.63425998876E+02  0.70087857389E+02  0.00000000000E+00 0. -1.
         11    1    3    3    0    0  0.21335300135E+02 -0.41704517059E+02 -0.85218332699E+01  0.47613899413E+02  0.00000000000E+00 0.  1.
</event>
<event>
 8    1  0.9181008E-006  0.1104912E+03  0.7561462E-02  0.1259663E+00
          2   -1    0    0  501    0  0.00000000000E+00  0.00000000000E+00  0.49466020702E+03  0.49466020702E+03  0.00000000000E+00 0.  1.
         -2   -1    0    0    0  501 -0.00000000000E+00 -0.00000000000E+00 -0.39187677101E+02  0.39187677101E+02  0.00000000000E+00 0. -1.
         23    2    1    2    0    0  0.55158094782E+02 -0.66350822197E+02  0.18620573920E+03  0.22465790766E+03  0.91398857406E+02 0.  0.
         23    2    1    2    0    0 -0.55158094782E+02  0.66350822197E+02  0.26926679071E+03  0.30918997646E+03  0.12509592294E+03 0.  0.
          5    1    4    4  502    0  0.23577068121E+02  0.46005726947E+02  0.18448886276E+03  0.19164033483E+03  0.41800000000E+01 0. -1.
         -5    1    4    4    0  502 -0.78735162904E+02  0.20345095250E+02  0.84777927958E+02  0.11754964163E+03  0.41800000000E+01 0. -1.
        -11    1    3    3    0    0  0.42901397477E+02 -0.60344724714E+02  0.19488982368E+03  0.20848035658E+03  0.00000000000E+00 0.  1.
         11    1    3    3    0    0  0.12256697305E+02 -0.60060974834E+01 -0.86840844736E+01  0.16177551080E+02  0.00000000000E+00 0. -1.
</event>
<event>
 8    1  0.9181008E-006  0.1086266E+03  0.7561462E-02  0.1263135E+00
          2   -1    0    0  501    0  0.00000000000E+00  0.00000000000E+00  0.26901692627E+03  0.26901692627E+03  0.00000000000E+00 0. -1.
         -2   -1    0    0    0  501 -0.00000000000E+00 -0.00000000000E+00 -0.71442750736E+02  0.71442750736E+02  0.00000000000E+00 0.  1.
         23    2    1    2    0    0 -0.58757787979E+02 -0.44018649012E+02  0.30108220060E+02  0.11891796237E+03  0.88571201588E+02 0.  0.
         23    2    1    2    0    0  0.58757787979E+02  0.44018649012E+02  0.16746595548E+03  0.22154171464E+03  0.12508303630E+03 0.  0.
          5    1    4    4  502    0 -0.31556167743E+02  0.42506259861E+02  0.47005844195E+02  0.70919642120E+02  0.41800000000E+01 0.  1.
         -5    1    4    4    0  502  0.90313955722E+02  0.15123891511E+01  0.12046011128E+03  0.15062207252E+03  0.41800000000E+01 0.  1.
        -11    1    3    3    0    0 -0.25106863164E+02 -0.14696442860E+02  0.58976900488E+02  0.65761803518E+02  0.00000000000E+00 0. -1.
         11    1    3    3    0    0 -0.33650924815E+02 -0.29322206151E+02 -0.28868680429E+02  0.53156158855E+02  0.00000000000E+00 0.  1.
</event>
<event>
 8    1  0.9181008E-006  0.1150208E+03  0.7561462E-02  0.1251545E+00
         -2   -1    0    0    0  501 -0.00000000000E+00  0.00000000000E+00  0.18076203228E+02  0.18076203228E+02  0.00000000000E+00 0.  1.
          2   -1    0    0  501    0  0.00000000000E+00 -0.00000000000E+00 -0.10653568109E+04  0.10653568109E+04  0.00000000000E+00 0. -1.
         23    2    1    2    0    0  0.53717242046E+02  0.54630405453E+02 -0.30348792144E+03  0.32531108050E+03  0.88613527975E+02 0.  0.
         23    2    1    2    0    0 -0.53717242046E+02 -0.54630405453E+02 -0.74379268621E+03  0.75812193361E+03  0.12510508731E+03 0.  0.
          5    1    4    4  502    0 -0.33496459261E+02 -0.76838249884E+02 -0.69905937908E+03  0.70407926919E+03  0.41800000000E+01 0. -1.
         -5    1    4    4    0  502 -0.20220782785E+02  0.22207844431E+02 -0.44733307136E+02  0.54042664424E+02  0.41800000000E+01 0. -1.
        -11    1    3    3    0    0  0.28209161020E+02 -0.21521199825E+02 -0.71585425235E+02  0.79896132030E+02  0.00000000000E+00 0. -1.
         11    1    3    3    0    0  0.25508081026E+02  0.76151605277E+02 -0.23190249621E+03  0.24541494847E+03  0.00000000000E+00 0.  1.
</event>
<event>
 8    1  0.9181008E-006  0.1007507E+03  0.7561462E-02  0.1278725E+00
          2   -1    0    0  501    0  0.00000000000E+00  0.00000000000E+00  0.89890903390E+03  0.89890903390E+03  0.00000000000E+00 0. -1.
         -2   -1    0    0    0  501 -0.00000000000E+00 -0.00000000000E+00 -0.29837857370E+02  0.29837857370E+02  0.00000000000E+00 0.  1.
         23    2    1    2    0    0 -0.45999130092E+02  0.56599635246E+02  0.11416986826E+03  0.16009063796E+03  0.85292525257E+02 0.  0.
         23    2    1    2    0    0  0.45999130092E+02 -0.56599635246E+02  0.75490130827E+03  0.76865625331E+03  0.12504803815E+03 0.  0.
          5    1    4    4  502    0 -0.36079591938E+01  0.28277157816E+02  0.57158536264E+02  0.64009262545E+02  0.41800000000E+01 0.  1.
         -5    1    4    4    0  502  0.49607089285E+02 -0.84876793063E+02  0.69774277201E+03  0.70464699077E+03  0.41800000000E+01 0.  1.
        -11    1    3    3    0    0 -0.25226737348E+02  0.19941855516E+02 -0.60322761610E+01  0.32717796905E+02  0.00000000000E+00 0.  1.
         11    1    3    3    0    0 -0.20772392744E+02  0.36657779730E+02  0.12020214442E+03  0.12737284105E+03  0.00000000000E+00 0. -1.
</event>
<event>
 8    1  0.9181008E-006  0.7663759E+02  0.7561462E-02  0.1338874E+00
         -3   -1    0    0    0  501 -0.00000000000E+00  0.00000000000E+00  0.24806680737E+03  0.24806680737E+03  0.00000000000E+00 0.  1.
          3   -1    0    0  501    0  0.00000000000E+00 -0.00000000000E+00 -0.12589651340E+03  0.12589651340E+03  0.00000000000E+00 0. -1.
         23    2    1    2    0    0 -0.50674826722E+02  0.31267119757E+02  0.19100101962E+03  0.21990699620E+03  0.91280483344E+02 0.  0.
         23    2    1    2    0    0  0.50674826722E+02 -0.31267119757E+02 -0.68830725650E+02  0.15405632456E+03  0.12429847748E+03 0.  0.
          5    1    4    4  502    0  0.60783148635E+02 -0.35171935863E+02 -0.99159223785E+02  0.12157993376E+03  0.41800000000E+01 0. -1.
         -5    1    4    4    0  502 -0.10108321913E+02  0.39048161061E+01  0.30328498136E+02  0.32476390808E+02  0.41800000000E+01 0.  1.
        -11    1    3    3    0    0 -0.16816196799E+02  0.33389937382E+02  0.18059174987E+03  0.18442085705E+03  0.00000000000E+00 0.  1.
         11    1    3    3    0    0 -0.33858629923E+02 -0.21228176248E+01  0.10409269748E+02  0.35486139148E+02  0.00000000000E+00 0. -1.
</event>
<event>
 8    1  0.9181008E-006  0.9186764E+02  0.7561462E-02  0.1298391E+00
         -2   -1    0    0    0  501 -0.00000000000E+00  0.00000000000E+00  0.47236312529E+02  0.47236312529E+02  0.00000000000E+00 0.  1.
          2   -1    0    0  501    0  0.00000000000E+00 -0.00000000000E+00 -0.28084007174E+03  0.28084007174E+03  0.00000000000E+00 0. -1.
         23    2    1    2    0    0 -0.22229999238E+02  0.19972670909E+02 -0.43762045576E+02  0.10402881424E+03  0.89519814066E+02 0.  0.
         23    2    1    2    0    0  0.22229999238E+02 -0.19972670909E+02 -0.18984171364E+03  0.22404757003E+03  0.11517099005E+03 0.  0.
          5    1    4    4  502    0  0.43496990842E+02  0.24044396048E+02 -0.33233950516E+02  0.59934039248E+02  0.41800000000E+01 0.  1.
         -5    1    4    4    0  502 -0.21266991604E+02 -0.44017066958E+02 -0.15660776312E+03  0.16411353078E+03  0.41800000000E+01 0. -1.
        -11    1    3    3    0    0  0.30056462761E+02  0.56486097701E+01  0.51486478916E+01  0.31013002453E+02  0.00000000000E+00 0.  1.
         11    1    3    3    0    0 -0.52286461999E+02  0.14324061139E+02 -0.48910693467E+02  0.73015811790E+02  0.00000000000E+00 0. -1.
</event>
<event>
 8    1  0.9181008E-006  0.7517114E+02  0.7561462E-02  0.1343342E+00
         -1   -1    0    0    0  501 -0.00000000000E+00  0.00000000000E+00  0.75466104839E+03  0.75466104839E+03  0.00000000000E+00 0.  1.
          1   -1    0    0  501    0  0.00000000000E+00 -0.00000000000E+00 -0.16405469655E+02  0.16405469655E+02  0.00000000000E+00 0. -1.
         23    2    1    2    0    0  0.12716916113E+02 -0.22435822276E+02  0.32898476893E+03  0.34233333897E+03  0.91082658632E+02 0.  0.
         23    2    1    2    0    0 -0.12716916113E+02  0.22435822276E+02  0.40927080980E+03  0.42873317908E+03  0.12507780382E+03 0.  0.
          5    1    4    4  502    0 -0.25137806267E+02  0.36719449726E+02  0.40673471481E+03  0.40918312273E+03  0.41800000000E+01 0. -1.
         -5    1    4    4    0  502  0.12420890154E+02 -0.14283627450E+02  0.25360949894E+01  0.19550056347E+02  0.41800000000E+01 0. -1.
        -11    1    3    3    0    0 -0.38299733411E+01 -0.52128922717E+02  0.26260272600E+03  0.26775415026E+03  0.00000000000E+00 0.  1.
         11    1    3    3    0    0  0.16546889454E+02  0.29693100441E+02  0.66382042932E+02  0.74579188708E+02  0.00000000000E+00 0. -1.
</event>
<event>
 7    1  0.9181008E-006  0.8537478E+02  0.7561462E-02  0.1314455E+00
          2   -1    0    0  501    0  0.00000000000E+00  0.00000000000E+00  0.22882192371E+04  0.22882192371E+04  0.00000000000E+00 0. -1.
         -2   -1    0    0    0  501 -0.00000000000E+00 -0.00000000000E+00 -0.67155115247E+01  0.67155115247E+01  0.00000000000E+00 0.  1.
         23    2    1    2    0    0  0.38776159952E-01  0.37842056578E+02  0.21964670938E+04  0.22004042479E+04  0.12601244974E+03 0.  0.
          5    1    3    3  502    0  0.84025409661E+01  0.83578969036E+02  0.15237594763E+04  0.15260787859E+04  0.41800000000E+01 0. -1.
         -5    1    3    3    0  502 -0.83637648062E+01 -0.45736912458E+02  0.67270761747E+03  0.67432546202E+03  0.41800000000E+01 0.  1.
        -11    1    1    2    0    0 -0.63756267826E+01 -0.16121487767E+02  0.25459330467E+02  0.30801436534E+02  0.00000000000E+00 0. -1.
         11    1    1    2    0    0  0.63368506227E+01 -0.21720568811E+02  0.59577301283E+02  0.63729064119E+02  0.00000000000E+00 0.  1.
</event>
<event>
 8    1  0.9181008E-006  0.1419564E+03  0.7561462E-02  0.1210720E+00
         -2   -1    0    0    0  501 -0.00000000000E+00  0.00000000000E+00  0.82222159439E+02  0.82222159439E+02  0.00000000000E+00 0.  1.
          2   -1    0    0  501    0  0.00000000000E+00 -0.00000000000E+00 -0.27405655165E+03  0.27405655165E+03  0.00000000000E+00 0. -1.
         23    2    1    2    0    0 -0.28390063661E+02 -0.78210704878E+02 -0.96859955844E+02  0.17854088842E+03  0.12478817139E+03 0.  0.
         23    2    1    2    0    0  0.28390063661E+02  0.78210704878E+02 -0.94974436363E+02  0.17773782267E+03  0.12509068699E+03 0.  0.
          5    1    4    4  502    0 -0.48134575744E+02  0.29195809660E+02 -0.20126871032E+02  0.59932428795E+02  0.41800000000E+01 0.  1.
         -5    1    4    4    0  502  0.76524639405E+02  0.49014895218E+02 -0.74847565331E+02  0.11780539387E+03  0.41800000000E+01 0.  1.
        -11    1    3    3    0    0 -0.19411848378E+02  0.25690858493E+02  0.52053953890E+01  0.32618035023E+02  0.00000000000E+00 0.  1.
         11    1    3    3    0    0 -0.89782152824E+01 -0.10390156337E+03 -0.10206535123E+03  0.14592285340E+03  0.00000000000E+00 0. -1.
</event>
<event>
 8    1  0.9181008E-006  0.7409374E+02  0.7561462E-02  0.1346701E+00
         -1   -1    0    0    0  501 -0.00000000000E+00  0.00000000000E+00  0.24468314467E+02  0.24468314467E+02  0.00000000000E+00 0.  1.
          1   -1    0    0  501    0  0.00000000000E+00 -0.00000000000E+00 -0.59667476218E+03  0.59667476218E+03  0.00000000000E+00 0. -1.
         23    2    1    2    0    0 -0.28492079375E+02 -0.78426697101E+01 -0.13668693912E+03  0.16705399887E+03  0.91380595075E+02 0.  0.
         23    2    1    2    0    0  0.28492079375E+02  0.78426697101E+01 -0.43551950859E+03  0.45408907778E+03  0.12508533943E+03 0.  0.
          5    1    4    4  502    0 -0.27852600639E+02  0.53622432761E+01 -0.35234199394E+03  0.35350654040E+03  0.41800000000E+01 0. -1.
         -5    1    4    4    0  502  0.56344680014E+02  0.24804264340E+01 -0.83177514654E+02  0.10058253738E+03  0.41800000000E+01 0. -1.
        -11    1    3    3    0    0  0.41156887578E+01 -0.25535169283E+02 -0.46303894170E+00  0.25868864863E+02  0.00000000000E+00 0.  1.
         11    1    3    3    0    0 -0.32607768132E+02  0.17692499573E+02 -0.13622390018E+03  0.14118513401E+03  0.00000000000E+00 0. -1.
</event>
<event>
 8    1  0.9181008E-006  0.8869117E+02  0.7561462E-02  0.1306053E+00
         -3   -1    0    0    0  501 -0.00000000000E+00  0.00000000000E+00  0.36915064612E+02  0.36915064612E+02  0.00000000000E+00 0.  1.
          3   -1    0    0  501    0  0.00000000000E+00 -0.00000000000E+00 -0.79799116593E+03  0.79799116593E+03  0.00000000000E+00 0. -1.
         23    2    1    2    0    0 -0.44539581269E+02  0.37457118698E+02 -0.64551992725E+02  0.12484988341E+03  0.89631041391E+02 0.  0.
         23    2    1    2    0    0  0.44539581269E+02 -0.37457118698E+02 -0.69652410860E+03  0.71005634714E+03  0.12508945686E+03 0.  0.
          5    1    4    4  502    0  0.34564937888E+02  0.16201190966E+01 -0.63747300634E+03  0.63842514513E+03  0.41800000000E+01 0.  1.
         -5    1    4    4    0  502  0.99746433819E+01 -0.39077237795E+02 -0.59051102254E+02  0.71631202012E+02  0.41800000000E+01 0.  1.
        -11    1    3    3    0    0  0.21020719548E+01 -0.24411342586E+02 -0.33211091269E+02  0.41271163500E+02  0.00000000000E+00 0. -1.
         11    1    3    3    0    0 -0.46641653224E+02  0.61868461284E+02 -0.31340901457E+02  0.83578719907E+02  0.00000000000E+00 0.  1.
</event>
<event>
 8    1  0.9181008E-006  0.9896342E+02  0.7561462E-02  0.1282491E+00
         -1   -1    0    0    0  501 -0.00000000000E+00  0.00000000000E+00  0.12017230691E+02  0.12017230691E+02  0.00000000000E+00 0.  1.
          1   -1    0    0  501    0  0.00000000000E+00 -0.00000000000E+00 -0.17694971462E+04  0.17694971462E+04  0.00000000000E+00 0. -1.
         23    2    1    2    0    0 -0.57601072895E+02 -0.20949487330E+02 -0.34733823013E+03  0.36450862260E+03  0.92010462537E+02 0.  0.
         23    2    1    2    0    0  0.57601072895E+02  0.20949487330E+02 -0.14101416853E+04  0.14170057543E+04  0.12509584428E+03 0.  0.
          5    1    4    4  502    0  0.20529208560E+02  0.45421133039E+02 -0.12431665709E+04  0.12441724652E+04  0.41800000000E+01 0.  1.
         -5    1    4    4    0  502  0.37071864336E+02 -0.24471645709E+02 -0.16697511444E+03  0.17283328907E+03  0.41800000000E+01 0.  1.
        -11    1    3    3    0    0 -0.18497283334E+02 -0.50820772777E+02 -0.24574292620E+03  0.25162369963E+03  0.00000000000E+00 0.  1.
         11    1    3    3    0    0 -0.39103789562E+02  0.29871285447E+02 -0.10159530393E+03  0.11288492297E+03  0.00000000000E+00 0. -1.
</event>
<event>
 8    1  0.9181008E-006  0.1019874E+03  0.7561462E-02  0.1276171E+00
          1   -1    0    0  501    0  0.00000000000E+00  0.00000000000E+00  0.33822724405E+03  0.33822724405E+03  0.00000000000E+00 0. -1.
         -1   -1    0    0    0  501 -0.00000000000E+00 -0.00000000000E+00 -0.56042542012E+02  0.56042542012E+02  0.00000000000E+00 0.  1.
         23    2    1    2    0    0  0.38531398914E+02  0.28555736934E+02  0.44018735236E+02  0.12101029027E+03  0.10200854124E+03 0.  0.
         23    2    1    2    0    0 -0.38531398914E+02 -0.28555736934E+02  0.23816596680E+03  0.27325949579E+03  0.12509046920E+03 0.  0.
          5    1    4    4  502    0 -0.82574596509E+01 -0.76453436543E+02  0.13083041052E+03  0.15181364338E+03  0.41800000000E+01 0.  1.
         -5    1    4    4    0  502 -0.30273939263E+02  0.47897699609E+02  0.10733555628E+03  0.12144585241E+03  0.41800000000E+01 0.  1.
        -11    1    3    3    0    0  0.43185233670E+02  0.39329409431E+02 -0.15430184969E+02  0.60414050199E+02  0.00000000000E+00 0.  1.
         11    1    3    3    0    0 -0.46538347565E+01 -0.10773672497E+02  0.59448920206E+02  0.60596240070E+02  0.00000000000E+00 0. -1.
</event>
<event>
 8    1  0.9181008E-006  0.1076312E+03  0.7561462E-02  0.1265020E+00
         -2   -1    0    0    0  501 -0.00000000000E+00  0.00000000000E+00  0.58126538503E+02  0.58126538503E+02  0.00000000000E+00 0.  1.
          2   -1    0    0  501    0  0.00000000000E+00 -0.00000000000E+00 -0.27048251423E+03  0.27048251423E+03  0.00000000000E+00 0. -1.
         23    2    1    2    0    0 -0.58840584958E+02 -0.18163249461E+02 -0.86106477316E+02  0.14051327969E+03  0.92398800123E+02 0.  0.
         23    2    1    2    0    0  0.58840584958E+02  0.18163249461E+02 -0.12624949841E+03  0.18809577304E+03  0.12509582694E+03 0.  0.
          5    1    4    4  502    0  0.10470552700E+02 -0.45724279425E+02 -0.12202731492E+02  0.48648959482E+02  0.41800000000E+01 0.  1.
         -5    1    4    4    0  502  0.48370032258E+02  0.63887528886E+02 -0.11404676692E+03  0.13944681356E+03  0.41800000000E+01 0.  1.
        -11    1    3    3    0    0  0.13253202883E+02  0.11153839017E+01 -0.59992746895E+02  0.61449338059E+02  0.00000000000E+00 0. -1.
         11    1    3    3    0    0 -0.72093787841E+02 -0.19278633363E+02 -0.26113730421E+02  0.79063941630E+02  0.00000000000E+00 0.  1.
</event>
<event>
 8    1  0.9181008E-006  0.1297963E+03  0.7561462E-02  0.1227758E+00
         -2   -1    0    0    0  501 -0.00000000000E+00  0.00000000000E+00  0.80521520062E+02  0.80521520062E+02  0.00000000000E+00 0.  1.
          2   -1    0    0  501    0  0.00000000000E+00 -0.00000000000E+00 -0.22607169773E+03  0.22607169773E+03  0.00000000000E+00 0. -1.
         23    2    1    2    0    0  0.39296648611E+02 -0.57962610517E+02 -0.35263489054E+02  0.12571887738E+03  0.98274267540E+02 0.  0.
         23    2    1    2    0    0 -0.39296648611E+02  0.57962610517E+02 -0.11028668862E+03  0.18087434041E+03  0.12509389483E+03 0.  0.
          5    1    4    4  502    0  0.39997185051E+02  0.41594088028E+02 -0.68506354545E+02  0.89668478207E+02  0.41800000000E+01 0. -1.
         -5    1    4    4    0  502 -0.79293833662E+02  0.16368522489E+02 -0.41780334075E+02  0.91205862206E+02  0.41800000000E+01 0. -1.
        -11    1    3    3    0    0  0.63336129211E+02 -0.62596360811E+01 -0.17837957414E+02  0.66097208958E+02  0.00000000000E+00 0.  1.
         11    1    3    3    0    0 -0.24039480600E+02 -0.51702974436E+02 -0.17425531639E+02  0.59621668426E+02  0.00000000000E+00 0. -1.
</event>
<event>
 8    1  0.9181008E-006  0.1286893E+03  0.7561462E-02  0.1229414E+00
          1   -1    0    0  501    0  0.00000000000E+00  0.00000000000E+00  0.17367752551E+03  0.17367752551E+03  0.00000000000E+00 0. -1.
         -1   -1    0    0    0  501 -0.00000000000E+00 -0.00000000000E+00 -0.19254745503E+03  0.19254745503E+03  0.00000000000E+00 0.  1.
         23    2    1    2    0    0  0.97619014446E+02  0.11879995143E+02 -0.11757212278E+03  0.17898211791E+03  0.92416384970E+02 0.  0.
         23    2    1    2    0    0 -0.97619014446E+02 -0.11879995143E+02  0.98702193269E+02  0.18724286263E+03  0.12508861013E+03 0.  0.
          5    1    4    4  502    0 -0.87603105114E+02 -0.61205346335E+02  0.54054578879E+02  0.11983225085E+03  0.41800000000E+01 0. -1.
         -5    1    4    4    0  502 -0.10015909333E+02  0.49325351192E+02  0.44647614390E+02  0.67410611781E+02  0.41800000000E+01 0. -1.
        -11    1    3    3    0    0  0.26848165435E+02  0.11360050722E+02  0.11853389753E+02  0.31470265145E+02  0.00000000000E+00 0. -1.
         11    1    3    3    0    0  0.70770849012E+02  0.51994442058E+00 -0.12942551254E+03  0.14751185277E+03  0.00000000000E+00 0.  1.
</event>
<event>
 8    1  0.9181008E-006  0.2006159E+03  0.7561462E-02  0.1149220E+00
          1   -1    0    0  501    0  0.00000000000E+00  0.00000000000E+00  0.55191263190E+03  0.55191263190E+03  0.00000000000E+00 0. -1.
         -1   -1    0    0    0  501 -0.00000000000E+00 -0.00000000000E+00 -0.11682183708E+03  0.11682183708E+03  0.00000000000E+00 0.  1.
         23    2    1    2    0    0 -0.13911195948E+03 -0.13522898517E+03  0.50186564416E+02  0.21991657622E+03  0.90584731308E+02 0.  0.
         23    2    1    2    0    0  0.13911195948E+03  0.13522898517E+03  0.38490423040E+03  0.44881789277E+03  0.12508884279E+03 0.  0.
          5    1    4    4  502    0  0.74909380511E+02  0.49786960732E+02  0.63760546921E+02  0.11033148459E+03  0.41800000000E+01 0. -1.
         -5    1    4    4    0  502  0.64202578966E+02  0.85442024441E+02  0.32114368348E+03  0.33848640819E+03  0.41800000000E+01 0. -1.
        -11    1    3    3    0    0 -0.11558072849E+03 -0.70562635015E+02  0.63918825482E+02  0.14974513852E+03  0.00000000000E+00 0. -1.
         11    1    3    3    0    0 -0.23531230983E+02 -0.64666350157E+02 -0.13732261066E+02  0.70171437695E+02  0.00000000000E+00 0.  1.
</event>
<event>
 8    1  0.9181008E-006  0.3198430E+03  0.7561462E-02  0.1075722E+00
          2   -1    0    0  501    0  0.00000000000E+00  0.00000000000E+00  0.15203859348E+03  0.15203859348E+03  0.00000000000E+00 0. -1.
         -2   -1    0    0    0  501 -0.00000000000E+00 -0.00000000000E+00 -0.77895681563E+03  0.77895681563E+03  0.00000000000E+00 0.  1.
         23    2    1    2    0    0 -0.68704278126E+02  0.30097713236E+03 -0.45052018239E+03  0.55406599092E+03  0.93344392016E+02 0.  0.
         23    2    1    2    0    0  0.68704278126E+02 -0.30097713236E+03 -0.17639803977E+03  0.37692941819E+03  0.12510797666E+03 0.  0.
          5    1    4    4  502    0  0.48602397931E+02 -0.29805417122E+03 -0.13539504368E+03  0.33098001800E+03  0.41800000000E+01 0. -1.
         -5    1    4    4    0  502  0.20101880194E+02 -0.29229611455E+01 -0.41002996091E+02  0.45949400188E+02  0.41800000000E+01 0. -1.
        -11    1    3    3    0    0 -0.32662664268E+02  0.26126394738E+03 -0.40819864268E+03  0.48574873312E+03  0.00000000000E+00 0.  1.
         11    1    3    3    0    0 -0.36041613858E+02  0.39713184980E+02 -0.42321539702E+02  0.68317257802E+02  0.00000000000E+00 0. -1.
</event>
<event>
 8    1  0.9181008E-006  0.8254393E+02  0.7561462E-02  0.1321983E+00
          1   -1    0    0  501    0  0.00000000000E+00  0.00000000000E+00  0.59755101302E+02  0.59755101302E+02  0.00000000000E+00 0. -1.
         -1   -1    0    0    0  501 -0.00000000000E+00 -0.00000000000E+00 -0.31341340604E+03  0.31341340604E+03  0.00000000000E+00 0.  1.
         23    2    1    2    0    0 -0.63570824904E+02 -0.50266056260E+02 -0.14143774110E+03  0.18659621363E+03  0.90805209884E+02 0.  0.
         23    2    1    2    0    0  0.63570824904E+02  0.50266056260E+02 -0.11222056364E+03  0.18657229371E+03  0.12509132539E+03 0.  0.
          5    1    4    4  502    0  0.10777216373E+02  0.10888218441E+02  0.27666280270E+02  0.31899798707E+02  0.41800000000E+01 0.  1.
         -5    1    4    4    0  502  0.52793608531E+02  0.39377837819E+02 -0.13988684391E+03  0.15467249501E+03  0.41800000000E+01 0.  1.
        -11    1    3    3    0    0 -0.33681522936E+02 -0.38338557510E+02 -0.10943532216E+02  0.52192440800E+02  0.00000000000E+00 0. -1.
         11    1    3    3    0    0 -0.29889301967E+02 -0.11927498749E+02 -0.13049420888E+03  0.13440377283E+03  0.00000000000E+00 0.  1.
</event>
<event>
 8    1  0.9181008E-006  0.7866616E+02  0.7561462E-02  0.1332880E+00
         -2   -1    0    0    0  501 -0.00000000000E+00  0.00000000000E+00  0.33274996351E+03  0.33274996351E+03  0.00000000000E+00 0.  1.
          2   -1    0    0  501    0  0.00000000000E+00 -0.00000000000E+00 -0.60742543707E+02  0.60742543707E+02  0.00000000000E+00 0. -1.
         23    2    1    2    0    0 -0.18171171536E+02 -0.34834536569E+01  0.24586709837E+03  0.26435001871E+03  0.95330878559E+02 0.  0.
         23    2    1    2    0    0  0.18171171536E+02  0.34834536569E+01  0.26140321439E+02  0.12914248851E+03  0.12510851294E+03 0.  0.
          5    1    4    4  502    0 -0.26221044539E+02  0.10917233186E+02  0.64022065600E+02  0.70164281803E+02  0.41800000000E+01 0.  1.
         -5    1    4    4    0  502  0.44392216074E+02 -0.74337795294E+01 -0.37881744161E+02  0.58978206710E+02  0.41800000000E+01 0.  1.
        -11    1    3    3    0    0 -0.50331555312E+02  0.36970646019E+01  0.20853608380E+03  0.21455589480E+03  0.00000000000E+00 0.  1.
         11    1    3    3    0    0  0.32160383776E+02 -0.71805182589E+01  0.37331014567E+02  0.49794123907E+02  0.00000000000E+00 0. -1.
</event>
<event>
 8    1  0.9181008E-006  0.2425418E+03  0.7561462E-02  0.1118111E+00
         -1   -1    0    0    0  501 -0.00000000000E+00  0.00000000000E+00  0.46262325939E+02  0.46262325939E+02  0.00000000000E+00 0.  1.
          1   -1    0    0  501    0  0.00000000000E+00 -0.00000000000E+00 -0.13881157507E+04  0.13881157507E+04  0.00000000000E+00 0. -1.
         23    2    1    2    0    0 -0.22419102908E+03  0.13675153707E+02 -0.53191143451E+03  0.58461154809E+03  0.91609282511E+02 0.  0.
         23    2    1    2    0    0  0.22419102908E+03 -0.13675153707E+02 -0.80994199027E+03  0.84976652857E+03  0.12509395720E+03 0.  0.
          5    1    4    4  502    0  0.68639519863E+01 -0.35827450651E+02 -0.84440954575E+02  0.92078592879E+02  0.41800000000E+01 0.  1.
         -5    1    4    4    0  502  0.21732707710E+03  0.22152296944E+02 -0.72550103569E+03  0.75768793569E+03  0.41800000000E+01 0.  1.
        -11    1    3    3    0    0 -0.18541991462E+03 -0.77380674094E+01 -0.48862585059E+03  0.52268120713E+03  0.00000000000E+00 0.  1.
         11    1    3    3    0    0 -0.38771114465E+02  0.21413221116E+02 -0.43285583925E+02  0.61930340958E+02  0.00000000000E+00 0. -1.
</event>
<event>
 8    1  0.9181008E-006  0.1432345E+03  0.7561462E-02  0.1209042E+00
         -1   -1    0    0    0  501 -0.00000000000E+00  0.00000000000E+00  0.90010423422E+02  0.90010423422E+02  0.00000000000E+00 0. -1.
          1   -1    0    0  501    0  0.00000000000E+00 -0.00000000000E+00 -0.36158756545E+03  0.36158756545E+03  0.00000000000E+00 0.  1.
         23    2    1    2    0    0  0.12357564850E+03  0.50277267789E+02 -0.63153296719E+02  0.17431417637E+03  0.92727280985E+02 0.  0.
         23    2    1    2    0    0 -0.12357564850E+03 -0.50277267789E+02 -0.20842384531E+03  0.27728381250E+03  0.12508824415E+03 0.  0.
          5    1    4    4  502    0 -0.60507464750E+02 -0.24889631558E+02 -0.85412468082E+01  0.66114085841E+02  0.41800000000E+01 0.  1.
         -5    1    4    4    0  502 -0.63068183748E+02 -0.25387636230E+02 -0.19988259850E+03  0.21116972666E+03  0.41800000000E+01 0.  1.
        -11    1    3    3    0    0  0.67812187743E+02  0.66235220786E+02 -0.94397509912E+01  0.95261252237E+02  0.00000000000E+00 0. -1.
         11    1    3    3    0    0  0.55763460755E+02 -0.15957952997E+02 -0.53713545728E+02  0.79052924132E+02  0.00000000000E+00 0.  1.
</event>
<event>
 8    1  0.9181008E-006  0.8767701E+02  0.7561462E-02  0.1308577E+00
          2   -1    0    0  501    0  0.00000000000E+00  0.00000000000E+00  0.11099340894E+04  0.11099340894E+04  0.00000000000E+00 0. -1.
         -2   -1    0    0    0  501 -0.00000000000E+00 -0.00000000000E+00 -0.14255111036E+02  0.14255111036E+02  0.00000000000E+00 0.  1.
         23    2    1    2    0    0 -0.23490306043E+02 -0.34349992617E+02  0.24343315034E+03  0.26353225573E+03  0.91966486596E+02 0.  0.
         23    2    1    2    0    0  0.23490306043E+02  0.34349992617E+02  0.85224582800E+03  0.86065694468E+03  0.11258644950E+03 0.  0.
          5    1    4    4  502    0  0.37639860881E+02 -0.78946145675E+00  0.75870851470E+03  0.75965351645E+03  0.41800000000E+01 0. -1.
         -5    1    4    4    0  502 -0.14149554838E+02  0.35139454074E+02  0.93537313301E+02  0.10100342823E+03  0.41800000000E+01 0.  1.
        -11    1    3    3    0    0  0.34656825475E+02 -0.82390818789E+01  0.66040175184E+02  0.75035210138E+02  0.00000000000E+00 0. -1.
         11    1    3    3    0    0 -0.58147131518E+02 -0.26110910738E+02  0.17739297516E+03  0.18849704560E+03  0.00000000000E+00 0.  1.
</event>
<event>
 8    1  0.9181008E-006  0.1324297E+03  0.7561462E-02  0.1223894E+00
          2   -1    0    0  501    0  0.00000000000E+00  0.00000000000E+00  0.19824970998E+04  0.19824970998E+04  0.00000000000E+00 0. -1.
         -2   -1    0    0    0  501 -0.00000000000E+00 -0.00000000000E+00 -0.19974905444E+02  0.19974905444E+02  0.00000000000E+00 0.  1.
         23    2    1    2    0    0  0.31561149511E+01  0.80189912656E+02  0.19943117427E+03  0.23312778624E+03  0.90196387346E+02 0.  0.
         23    2    1    2    0    0 -0.31561149511E+01 -0.80189912656E+02  0.17630910201E+04  0.17693442190E+04  0.12509451260E+03 0.  0.
          5    1    4    4  502    0 -0.51456191043E+02  0.36010055132E+01  0.58908034270E+03  0.59134916031E+03  0.41800000000E+01 0.  1.
         -5    1    4    4    0  502  0.48300076091E+02 -0.83790918169E+02  0.11740106774E+04  0.11779950587E+04  0.41800000000E+01 0.  1.
        -11    1    3    3    0    0 -0.12738222073E+01  0.97970470279E+02  0.13958937724E+03  0.17054333733E+03  0.00000000000E+00 0. -1.
         11    1    3    3    0    0  0.44299371585E+01 -0.17780557623E+02  0.59841797036E+02  0.62584448908E+02  0.00000000000E+00 0.  1.
</event>
<event>
 7    1  0.9181008E-006  0.1431619E+03  0.7561462E-02  0.1209137E+00
         -1   -1    0    0    0  501 -0.00000000000E+00  0.00000000000E+00  0.29572235801E+02  0.29572235801E+02  0.00000000000E+00 0.  1.
          1   -1    0    0  501    0  0.00000000000E+00 -0.00000000000E+00 -0.10949323924E+04  0.10949323924E+04  0.00000000000E+00 0. -1.
         23    2    1    2    0    0 -0.38780407656E+02  0.88603056292E+02 -0.29702555003E+03  0.32607838023E+03  0.93533475696E+02 0.  0.
          5    1    1    2  502    0  0.21476652239E+02  0.28799727163E+02 -0.53864422808E+03  0.53985715493E+03  0.41800000000E+01 0. -1.
         -5    1    1    2    0  502  0.17303755417E+02 -0.11740278345E+03 -0.22969037850E+03  0.25856909306E+03  0.41800000000E+01 0.  1.
        -11    1    3    3    0    0  0.16493640532E+02  0.71754790720E+02 -0.20034448208E+03  0.21344484456E+03  0.00000000000E+00 0.  1.
         11    1    3    3    0    0 -0.55274048189E+02  0.16848265572E+02 -0.96681067950E+02  0.11263353566E+03  0.00000000000E+00 0. -1.
</event>
<event>
 8    1  0.9181008E-006  0.1838179E+03  0.7561462E-02  0.1164158E+00
          1   -1    0    0  501    0  0.00000000000E+00  0.00000000000E+00  0.42218917304E+03  0.42218917304E+03  0.00000000000E+00 0. -1.
         -1   -1    0    0    0  501 -0.00000000000E+00 -0.00000000000E+00 -0.93949701832E+02  0.93949701832E+02  0.00000000000E+00 0.  1.
         23    2    1    2    0    0 -0.15939697274E+03  0.36475495679E+02  0.19836286684E+03  0.27267354342E+03  0.90913022370E+02 0.  0.
         23    2    1    2    0    0  0.15939697274E+03 -0.36475495679E+02  0.12987660437E+03  0.24346533145E+03  0.12517818721E+03 0.  0.
          5    1    4    4  502    0  0.31256691015E+02 -0.41668765303E+02 -0.10479004356E+02  0.53296797909E+02  0.41800000000E+01 0. -1.
         -5    1    4    4    0  502  0.12814028172E+03  0.51932696240E+01  0.14035560873E+03  0.19016853355E+03  0.41800000000E+01 0. -1.
        -11    1    3    3    0    0 -0.15688441599E+03  0.56602213997E+02  0.17822455600E+03  0.24409121854E+03  0.00000000000E+00 0.  1.
         11    1    3    3    0    0 -0.25125567490E+01 -0.20126718318E+02  0.20138310839E+02  0.28582324873E+02  0.00000000000E+00 0. -1.
</event>
<event>
 8    1  0.9181008E-006  0.3558047E+02  0.7561462E-02  0.1543505E+00
         -4   -1    0    0    0  501 -0.00000000000E+00  0.00000000000E+00  0.17085384472E+03  0.17085384472E+03  0.00000000000E+00 0.  1.
          4   -1    0    0  501    0  0.00000000000E+00 -0.00000000000E+00 -0.70630152596E+02  0.70630152596E+02  0.00000000000E+00 0. -1.
         23    2    1    2    0    0 -0.82238880979E+01 -0.26616675535E+01  0.61751851351E+02  0.11032546618E+03  0.91014836884E+02 0.  0.
         23    2    1    2    0    0  0.82238880979E+01  0.26616675535E+01  0.38471840775E+02  0.13115853114E+03  0.12509101066E+03 0.  0.
          5    1    4    4  502    0 -0.18736341065E+01 -0.52605008854E+01 -0.45539067243E+02  0.46070190142E+02  0.41800000000E+01 0. -1.
         -5    1    4    4    0  502  0.10097522204E+02  0.79221684389E+01  0.84010908018E+02  0.85088340996E+02  0.41800000000E+01 0. -1.
        -11    1    3    3    0    0  0.61754003445E+01  0.21605129214E+02  0.75617474779E+02  0.78885484532E+02  0.00000000000E+00 0.  1.
         11    1    3    3    0    0 -0.14399288442E+02 -0.24266796767E+02 -0.13865623429E+02  0.31439981649E+02  0.00000000000E+00 0. -1.
</event>
<event>
 8    1  0.9181008E-006  0.9090313E+02  0.7561462E-02  0.1300679E+00
          2   -1    0    0  501    0  0.00000000000E+00  0.00000000000E+00  0.17368624467E+03  0.17368624467E+03  0.00000000000E+00 0. -1.
         -2   -1    0    0    0  501 -0.00000000000E+00 -0.00000000000E+00 -0.75013420061E+02  0.75013420061E+02  0.00000000000E+00 0.  1.
         23    2    1    2    0    0  0.67571731709E+01  0.58120079560E+00  0.28232755537E+01  0.90965117876E+02  0.90667991054E+02 0.  0.
         23    2    1    2    0    0 -0.67571731709E+01 -0.58120079560E+00  0.95849549052E+02  0.15773454685E+03  0.12508818503E+03 0.  0.
          5    1    4    4  502    0 -0.43337726754E+02  0.41085734886E+02  0.18857957594E+02  0.62763772480E+02  0.41800000000E+01 0.  1.
         -5    1    4    4    0  502  0.36580553583E+02 -0.41666935682E+02  0.76991591458E+02  0.94970774372E+02  0.41800000000E+01 0.  1.
        -11    1    3    3    0    0  0.10696099652E+02 -0.31886840714E+02  0.32523320102E+02  0.46786146550E+02  0.00000000000E+00 0. -1.
         11    1    3    3    0    0 -0.39389264810E+01  0.32468041510E+02 -0.29700044548E+02  0.44178971327E+02  0.00000000000E+00 0.  1.
</event>
<event>
 8    1  0.9181008E-006  0.7529850E+02  0.7561462E-02  0.1342949E+00
          2   -1    0    0  501    0  0.00000000000E+00  0.00000000000E+00  0.63147162690E+03  0.63147162690E+03  0.00000000000E+00 0. -1.
         -2   -1    0    0    0  501 -0.00000000000E+00 -0.00000000000E+00 -0.18126362303E+02  0.18126362303E+02  0.00000000000E+00 0.  1.
         23    2    1    2    0    0  0.10601255540E+02  0.11180739210E+01  0.18733678933E+03  0.20867831822E+03  0.91312272715E+02 0.  0.
         23    2    1    2    0    0 -0.10601255540E+02 -0.11180739210E+01  0.42600847526E+03  0.44091967098E+03  0.11319584160E+03 0.  0.
          5    1    4    4  502    0 -0.47274998771E+01  0.36261817954E+02  0.37734022226E+03  0.37913109136E+03  0.41800000000E+01 0. -1.
         -5    1    4    4    0  502 -0.58737556632E+01 -0.37379891875E+02  0.48668253000E+02  0.61788579626E+02  0.41800000000E+01 0.  1.
        -11    1    3    3    0    0  0.34953431530E+02 -0.22684012959E+02  0.41095376897E+02  0.58524668491E+02  0.00000000000E+00 0.  1.
         11    1    3    3    0    0 -0.24352175990E+02  0.23802086880E+02  0.14624141243E+03  0.15015364973E+03  0.00000000000E+00 0. -1.
</event>
<event>
 8    1  0.9181008E-006  0.1419302E+03  0.7561462E-02  0.1210755E+00
          3   -1    0    0  501    0  0.00000000000E+00  0.00000000000E+00  0.26018768817E+03  0.26018768817E+03  0.00000000000E+00 0. -1.
         -3   -1    0    0    0  501 -0.00000000000E+00 -0.00000000000E+00 -0.10651081798E+03  0.10651081798E+03  0.00000000000E+00 0.  1.
         23    2    1    2    0    0 -0.12115433392E+03  0.26903409838E+02  0.52965861580E+02  0.16373149552E+03  0.92738632970E+02 0.  0.
         23    2    1    2    0    0  0.12115433392E+03 -0.26903409838E+02  0.10071100861E+03  0.20296701063E+03  0.12510289388E+03 0.  0.
          5    1    4    4  502    0  0.61235724482E+01 -0.11413903089E+02  0.84626903568E+02  0.85714412619E+02  0.41800000000E+01 0. -1.
         -5    1    4    4    0  502  0.11503076147E+03 -0.15489506749E+02  0.16084105047E+02  0.11725259801E+03  0.41800000000E+01 0. -1.
        -11    1    3    3    0    0 -0.39293228148E+02  0.54967399210E+02  0.14897646425E+02  0.69190408463E+02  0.00000000000E+00 0.  1.
         11    1    3    3    0    0 -0.81861105771E+02 -0.28063989373E+02  0.38068215155E+02  0.94541087061E+02  0.00000000000E+00 0. -1.
</event>
<event>
 8    1  0.9181008E-006  0.1839536E+03  0.7561462E-02  0.1164031E+00
          2   -1    0    0  501    0  0.00000000000E+00  0.00000000000E+00  0.48971685074E+03  0.48971685074E+03  0.00000000000E+00 0. -1.
         -2   -1    0    0    0  501 -0.00000000000E+00 -0.00000000000E+00 -0.92458105110E+02  0.92458105110E+02  0.00000000000E+00 0.  1.
         23    2    1    2    0    0  0.97031178688E+02  0.13052500851E+03  0.79099495402E+02  0.20359231943E+03  0.93494785272E+02 0.  0.
         23    2    1    2    0    0 -0.97031178688E+02 -0.13052500851E+03  0.31815925023E+03  0.37858263642E+03  0.12509067356E+03 0.  0.
          5    1    4    4  502    0  0.19382290883E+02  0.10342196362E+02  0.32835251768E+02  0.39727325409E+02  0.41800000000E+01 0.  1.
         -5    1    4    4    0  502 -0.11641346957E+03 -0.14086720487E+03  0.28532399846E+03  0.33885531101E+03  0.41800000000E+01 0.  1.
        -11    1    3    3    0    0  0.87138497184E+02  0.12007772892E+03  0.99492094067E+02  0.17863497825E+03  0.00000000000E+00 0. -1.
         11    1    3    3    0    0  0.98926815038E+01  0.10447279588E+02 -0.20392598664E+02  0.24957341173E+02  0.00000000000E+00 0.  1.
</event>
<event>
 8    1  0.9181008E-006  0.1039207E+03  0.7561462E-02  0.1272261E+00
          1   -1    0    0  501    0  0.00000000000E+00  0.00000000000E+00  0.65560471762E+03  0.65560471762E+03  0.00000000000E+00 0. -1.
         -1   -1    0    0    0  501 -0.00000000000E+00 -0.00000000000E+00 -0.25138221548E+02  0.25138221548E+02  0.00000000000E+00 0.  1.
         23    2    1    2    0    0 -0.13556176405E+02  0.59861036780E+02  0.21389913070E+03  0.24149229168E+03  0.93800720609E+02 0.  0.
         23    2    1    2    0    0  0.13556176405E+02 -0.59861036780E+02  0.41656736537E+03  0.43925064748E+03  0.12508256384E+03 0.  0.
          5    1    4    4  502    0 -0.11551341890E+02 -0.79820539715E+02  0.14677727992E+03  0.16752848820E+03  0.41800000000E+01 0.  1.
         -5    1    4    4    0  502  0.25107518296E+02  0.19959502935E+02  0.26979008546E+03  0.27172215928E+03  0.41800000000E+01 0.  1.
        -11    1    3    3    0    0 -0.43469785356E+02  0.37051783997E+02  0.59109616702E+02  0.82197346203E+02  0.00000000000E+00 0.  1.
         11    1    3    3    0    0  0.29913608950E+02  0.22809252783E+02  0.15478951399E+03  0.15929494548E+03  0.00000000000E+00 0. -1.
</event>
<event>
 8    1  0.9181008E-006  0.1153656E+03  0.7561462E-02  0.1250944E+00
         -2   -1    0    0    0  501 -0.00000000000E+00  0.00000000000E+00  0.33136910523E+03  0.33136910523E+03  0.00000000000E+00 0.  1.
          2   -1    0    0  501    0  0.00000000000E+00 -0.00000000000E+00 -0.43301241378E+02  0.43301241378E+02  0.00000000000E+00 0. -1.
         23    2    1    2    0    0  0.10042848020E+02  0.50425877738E+02  0.12035892187E+03  0.15922357847E+03  0.90676622805E+02 0.  0.
         23    2    1    2    0    0 -0.10042848020E+02 -0.50425877738E+02  0.16770894197E+03  0.21544676814E+03  0.12508953889E+03 0.  0.
          5    1    4    4  502    0  0.18009778747E+02  0.34027328267E+02  0.21662780739E+02  0.44372961011E+02  0.41800000000E+01 0. -1.
         -5    1    4    4    0  502 -0.28052626768E+02 -0.84453206005E+02  0.14604616124E+03  0.17107380713E+03  0.41800000000E+01 0. -1.
        -11    1    3    3    0    0  0.28013557980E+01  0.76145656540E+02  0.99508173785E+02  0.12533110250E+03  0.00000000000E+00 0.  1.
         11    1    3    3    0    0  0.72414922221E+01 -0.25719778802E+02  0.20850748087E+02  0.33892475965E+02  0.00000000000E+00 0. -1.
</event>
<event>
 8    1  0.9181008E-006  0.2434628E+03  0.7561462E-02  0.1117507E+00
         -2   -1    0    0    0  501 -0.00000000000E+00  0.00000000000E+00  0.13924225081E+03  0.13924225081E+03  0.00000000000E+00 0.  1.
          2   -1    0    0  501    0  0.00000000000E+00 -0.00000000000E+00 -0.55744039976E+03  0.55744039976E+03  0.00000000000E+00 0. -1.
         23    2    1    2    0    0  0.22304688699E+03  0.54163909786E+02 -0.61425430747E+02  0.25433614895E+03  0.90720175274E+02 0.  0.
         23    2    1    2    0    0 -0.22304688699E+03 -0.54163909786E+02 -0.35677271820E+03  0.44234650161E+03  0.12529968918E+03 0.  0.
          5    1    4    4  502    0 -0.18503276130E+03 -0.79110025526E+02 -0.22013936837E+03  0.29828565638E+03  0.41800000000E+01 0. -1.
         -5    1    4    4    0  502 -0.38014125696E+02  0.24946115739E+02 -0.13663334983E+03  0.14406084523E+03  0.41800000000E+01 0. -1.
        -11    1    3    3    0    0  0.14669189977E+03  0.55708932164E+00 -0.81885145107E+01  0.14692132444E+03  0.00000000000E+00 0.  1.
         11    1    3    3    0    0  0.76354987225E+02  0.53606820465E+02 -0.53236916237E+02  0.10741482451E+03  0.00000000000E+00 0. -1.
</event>
<event>
 8    1  0.9181008E-006  0.1034172E+03  0.7561462E-02  0.1273270E+00
         -3   -1    0    0    0  501 -0.00000000000E+00  0.00000000000E+00  0.93529862079E+02  0.93529862079E+02  0.00000000000E+00 0.  1.
          3   -1    0    0  501    0  0.00000000000E+00 -0.00000000000E+00 -0.29124545045E+03  0.29124545045E+03  0.00000000000E+00 0. -1.
         23    2    1    2    0    0 -0.63898077121E+02 -0.65243637877E+01  0.30932615420E+02  0.11634748680E+03  0.91947699288E+02 0.  0.
         23    2    1    2    0    0  0.63898077121E+02  0.65243637877E+01 -0.22864820379E+03  0.26842782573E+03  0.12509182607E+03 0.  0.
          5    1    4    4  502    0  0.40591717865E+02 -0.57633973632E+02 -0.95851123600E+02  0.11905575488E+03  0.41800000000E+01 0. -1.
         -5    1    4    4    0  502  0.23306359255E+02  0.64158337419E+02 -0.13279708019E+03  0.14937207085E+03  0.41800000000E+01 0. -1.
        -11    1    3    3    0    0 -0.11321858237E+02  0.72924770810E+01  0.55197348849E+02  0.56816476623E+02  0.00000000000E+00 0.  1.
         11    1    3    3    0    0 -0.52576218884E+02 -0.13816840869E+02 -0.24264733429E+02  0.59531010172E+02  0.00000000000E+00 0. -1.
</event>
<event>
 8    1  0.9181008E-006  0.1144457E+03  0.7561462E-02  0.1252552E+00
         -2   -1    0    0    0  501 -0.00000000000E+00  0.00000000000E+00  0.50310730142E+02  0.50310730142E+02  0.00000000000E+00 0.  1.
          2   -1    0    0  501    0  0.00000000000E+00 -0.00000000000E+00 -0.31765081069E+03  0.31765081069E+03  0.00000000000E+00 0. -1.
         23    2    1    2    0    0 -0.53008982857E+02 -0.14265984388E+02 -0.60008544367E+02  0.11967231998E+03  0.87789339884E+02 0.  0.
         23    2    1    2    0    0  0.53008982857E+02  0.14265984388E+02 -0.20733153618E+03  0.24828922085E+03  0.12509076994E+03 0.  0.
          5    1    4    4  502    0 -0.33937120988E+02  0.18919068029E+02 -0.25556544012E+02  0.46693347041E+02  0.41800000000E+01 0. -1.
         -5    1    4    4    0  502  0.86946103844E+02 -0.46530836417E+01 -0.18177499216E+03  0.20159587381E+03  0.41800000000E+01 0. -1.
        -11    1    3    3    0    0 -0.48050320166E+02 -0.48369759353E+02 -0.32257464821E+02  0.75425532312E+02  0.00000000000E+00 0.  1.
         11    1    3    3    0    0 -0.49586626906E+01  0.34103774965E+02 -0.27751079546E+02  0.44246787664E+02  0.00000000000E+00 0. -1.
</event>
<event>
 8    1  0.1099940E-005  0.1504492E+03  0.7561462E-02  0.1199922E+00
         -1   -1    0    0    0  501 -0.00000000000E+00  0.00000000000E+00  0.63646164530E+02  0.63646164530E+02  0.00000000000E+00 0.  1.
          1   -1    0    0  501    0  0.00000000000E+00 -0.00000000000E+00 -0.46195819019E+03  0.46195819019E+03  0.00000000000E+00 0. -1.
         23    2    1    2    0    0 -0.10251786573E+03  0.61928450028E+02 -0.68673215376E+02  0.15324136149E+03  0.66497057413E+02 0.  0.
         23    2    1    2    0    0  0.10251786573E+03 -0.61928450028E+02 -0.32963881029E+03  0.37236299323E+03  0.12508959894E+03 0.  0.
          5    1    4    4  502    0 -0.10950373181E+02  0.25422223413E+02 -0.77043738449E+02  0.81972008334E+02  0.41800000000E+01 0.  1.
         -5    1    4    4    0  502  0.11346823891E+03 -0.87350673440E+02 -0.25259507184E+03  0.29039098490E+03  0.41800000000E+01 0.  1.
        -11    1    3    3    0    0 -0.77969307048E+02  0.19088426639E+02 -0.17550869424E+02  0.82168204864E+02  0.00000000000E+00 0.  1.
         11    1    3    3    0    0 -0.24548558686E+02  0.42840023389E+02 -0.51122345952E+02  0.71073156629E+02  0.00000000000E+00 0. -1.
</event>
<event>
 8    1  0.9181008E-006  0.9429546E+02  0.7561462E-02  0.1292771E+00
          2   -1    0    0  501    0  0.00000000000E+00  0.00000000000E+00  0.12307749005E+04  0.12307749005E+04  0.00000000000E+00 0. -1.
         -2   -1    0    0    0  501 -0.00000000000E+00 -0.00000000000E+00 -0.16116257344E+02  0.16116257344E+02  0.00000000000E+00 0.  1.
         23    2    1    2    0    0  0.40357291574E+02 -0.52001636004E+02  0.28565411622E+03  0.30719487829E+03  0.91856072199E+02 0.  0.
         23    2    1    2    0    0 -0.40357291574E+02  0.52001636004E+02  0.92900452689E+03  0.93969627952E+03  0.12508719208E+03 0.  0.
          5    1    4    4  502    0 -0.46866834252E+02  0.43322961203E+02  0.92528028615E+03  0.92748825301E+03  0.41800000000E+01 0. -1.
         -5    1    4    4    0  502  0.65095426781E+01  0.86786748017E+01  0.37242407375E+01  0.12208026510E+02  0.41800000000E+01 0. -1.
        -11    1    3    3    0    0 -0.28528395102E+02 -0.28225405663E+02  0.10212578660E+03  0.10972793237E+03  0.00000000000E+00 0.  1.
         11    1    3    3    0    0  0.68885686676E+02 -0.23776230341E+02  0.18352832962E+03  0.19746694592E+03  0.00000000000E+00 0. -1.
</event>
<event>
 8    1  0.9181008E-006  0.6674367E+02  0.7561462E-02  0.1371530E+00
          4   -1    0    0  501    0  0.00000000000E+00  0.00000000000E+00  0.15801161368E+03  0.15801161368E+03  0.00000000000E+00 0. -1.
         -4   -1    0    0    0  501 -0.00000000000E+00 -0.00000000000E+00 -0.10204218603E+03  0.10204218603E+03  0.00000000000E+00 0.  1.
         23    2    1    2    0    0 -0.10066097841E+02  0.24069001777E+02 -0.33780028293E+02  0.10390348524E+03  0.94732258297E+02 0.  0.
         23    2    1    2    0    0  0.10066097841E+02 -0.24069001777E+02  0.89749455950E+02  0.15615031447E+03  0.12508921893E+03 0.  0.
          5    1    4    4  502    0 -0.23745448519E+02  0.25170330980E+02 -0.13022319384E+02  0.37208132030E+02  0.41800000000E+01 0.  1.
         -5    1    4    4    0  502  0.33811546360E+02 -0.49239332757E+02  0.10277177533E+03  0.11894218244E+03  0.41800000000E+01 0.  1.
        -11    1    3    3    0    0  0.63753600267E+01  0.21108143717E+02 -0.64921585697E+02  0.68563920804E+02  0.00000000000E+00 0.  1.
         11    1    3    3    0    0 -0.16441457868E+02  0.29608580609E+01  0.31141557404E+02  0.35339564440E+02  0.00000000000E+00 0. -1.
</event>
<event>
 8    1  0.9181008E-006  0.9117897E+02  0.7561462E-02  0.1300022E+00
         -3   -1    0    0    0  501 -0.00000000000E+00  0.00000000000E+00  0.12150559987E+02  0.12150559987E+02  0.00000000000E+00 0.  1.
          3   -1    0    0  501    0  0.00000000000E+00 -0.00000000000E+00 -0.14659347949E+04  0.14659347949E+04  0.00000000000E+00 0. -1.
         23    2    1    2    0    0 -0.37821220961E+02  0.25832417193E+02 -0.30516772702E+03  0.32176973354E+03  0.91162828346E+02 0.  0.
         23    2    1    2    0    0  0.37821220961E+02 -0.25832417193E+02 -0.11486165079E+04  0.11563156213E+04  0.12509266742E+03 0.  0.
          5    1    4    4  502    0 -0.17586799890E+02 -0.26951882312E+02 -0.81081136180E+02  0.87334543765E+02  0.41800000000E+01 0. -1.
         -5    1    4    4    0  502  0.55408020851E+02  0.11194651182E+01 -0.10675353717E+04  0.10689810776E+04  0.41800000000E+01 0. -1.
        -11    1    3    3    0    0 -0.63062928232E+02  0.83259177273E+01 -0.14005021065E+03  0.15381909936E+03  0.00000000000E+00 0.  1.
         11    1    3    3    0    0  0.25241707271E+02  0.17506499466E+02 -0.16511751637E+03  0.16795063418E+03  0.00000000000E+00 0. -1.
</event>
<event>
 8    1  0.9181008E-006  0.1543486E+03  0.7561462E-02  0.1195229E+00
          2   -1    0    0  501    0  0.00000000000E+00  0.00000000000E+00  0.11796692716E+04  0.11796692716E+04  0.00000000000E+00 0.  1.
         -2   -1    0    0    0  501 -0.00000000000E+00 -0.00000000000E+00 -0.26936459362E+02  0.26936459362E+02  0.00000000000E+00 0. -1.
         23    2    1    2    0    0 -0.11720365807E+03  0.42917257251E+02  0.32659130921E+03  0.36178129766E+03  0.92979759365E+02 0.  0.
         23    2    1    2    0    0  0.11720365807E+03 -0.42917257251E+02  0.82614150300E+03  0.84482443327E+03  0.12505979225E+03 0.  0.
          5    1    4    4  502    0 -0.13759372287E+02 -0.20519530900E+02  0.37777399829E+02  0.45331841039E+02  0.41800000000E+01 0.  1.
         -5    1    4    4    0  502  0.13096303036E+03 -0.22397726351E+02  0.78836410317E+03  0.79949259223E+03  0.41800000000E+01 0.  1.
        -11    1    3    3    0    0 -0.11647128067E+03  0.90363456055E+01  0.28577234398E+03  0.30872811234E+03  0.00000000000E+00 0. -1.
         11    1    3    3    0    0 -0.73237739794E+00  0.33880911645E+02  0.40818965224E+02  0.53053185319E+02  0.00000000000E+00 0.  1.
</event>
<event>
 7    1  0.9181008E-006  0.1100071E+03  0.7561462E-02  0.1260557E+00
          1   -1    0    0  501    0  0.00000000000E+00  0.00000000000E+00  0.56997071369E+02  0.56997071369E+02  0.00000000000E+00 0. -1.
         -1   -1    0    0    0  501 -0.00000000000E+00 -0.00000000000E+00 -0.22779340316E+03  0.22779340316E+03  0.00000000000E+00 0.  1.
         23    2    1    2    0    0 -0.70055737415E+01  0.67392522670E+01 -0.67711417201E+02  0.11475918866E+03  0.92143039769E+02 0.  0.
          5    1    1    2  502    0  0.10435553495E+02 -0.66461243409E+02 -0.25716198191E+02  0.72144250649E+02  0.41800000000E+01 0. -1.
         -5    1    1    2    0  502 -0.34299797533E+01  0.59721991142E+02 -0.77368716395E+02  0.97887035218E+02  0.41800000000E+01 0.  1.
        -11    1    3    3    0    0  0.42404680815E+02 -0.20617186319E+01 -0.30123088655E+02  0.52055817243E+02  0.00000000000E+00 0. -1.
         11    1    3    3    0    0 -0.49410254556E+02  0.88009708989E+01 -0.37588328546E+02  0.62703371416E+02  0.00000000000E+00 0.  1.
</event>
<event>
 8    1  0.9181008E-006  0.5531288E+02  0.7561462E-02  0.1418625E+00
         -1   -1    0    0    0  501 -0.00000000000E+00  0.00000000000E+00  0.34071110185E+02  0.34071110185E+02  0.00000000000E+00 0.  1.
          1   -1    0    0  501    0  0.00000000000E+00 -0.00000000000E+00 -0.36196176482E+03  0.36196176482E+03  0.00000000000E+00 0. -1.
         23    2    1    2    0    0 -0.11789826063E+02  0.18862686007E+02 -0.13879285313E+03  0.16821718891E+03  0.92405441631E+02 0.  0.
         23    2    1    2    0    0  0.11789826063E+02 -0.18862686007E+02 -0.18909780151E+03  0.22781568610E+03  0.12508879796E+03 0.  0.
          5    1    4    4  502    0  0.19887959765E+02 -0.23855759412E+01  0.13390343459E+02  0.24453948846E+02  0.41800000000E+01 0. -1.
         -5    1    4    4    0  502 -0.80981337021E+01 -0.16477110066E+02 -0.20248814497E+03  0.20336173725E+03  0.41800000000E+01 0. -1.
        -11    1    3    3    0    0 -0.69450482431E+01 -0.25642424990E+02 -0.11397509936E+03  0.11703029919E+03  0.00000000000E+00 0. -1.
         11    1    3    3    0    0 -0.48447778201E+01  0.44505110997E+02 -0.24817753769E+02  0.51186889719E+02  0.00000000000E+00 0.  1.
</event>
<event>
 8    1  0.9181008E-006  0.6891655E+02  0.7561462E-02  0.1363817E+00
         -2   -1    0    0    0  501 -0.00000000000E+00  0.00000000000E+00  0.28378432790E+02  0.28378432790E+02  0.00000000000E+00 0.  1.
          2   -1    0    0  501    0  0.00000000000E+00 -0.00000000000E+00 -0.59395784851E+03  0.59395784851E+03  0.00000000000E+00 0. -1.
         23    2    1    2    0    0 -0.14340880459E+02  0.56382304756E+02 -0.15750225935E+03  0.19157027075E+03  0.92236553454E+02 0.  0.
         23    2    1    2    0    0  0.14340880459E+02 -0.56382304756E+02 -0.40807715637E+03  0.43076601055E+03  0.12509102746E+03 0.  0.
          5    1    4    4  502    0 -0.10506481691E+02 -0.63759037483E+01  0.50000133479E+01  0.13910817359E+02  0.41800000000E+01 0. -1.
         -5    1    4    4    0  502  0.24847362150E+02 -0.50006401008E+02 -0.41307716971E+03  0.41685519319E+03  0.41800000000E+01 0. -1.
        -11    1    3    3    0    0  0.10609031887E+02  0.32996111906E+02 -0.46865899807E+01  0.34975120931E+02  0.00000000000E+00 0.  1.
         11    1    3    3    0    0 -0.24949912345E+02  0.23386192850E+02 -0.15281566937E+03  0.15659514982E+03  0.00000000000E+00 0. -1.
</event>
<event>
 8    1  0.9181008E-006  0.2096725E+03  0.7561462E-02  0.1141826E+00
          2   -1    0    0  501    0  0.00000000000E+00  0.00000000000E+00  0.14792604087E+04  0.14792604087E+04  0.00000000000E+00 0.  1.
         -2   -1    0    0    0  501 -0.00000000000E+00 -0.00000000000E+00 -0.68696362151E+02  0.68696362151E+02  0.00000000000E+00 0. -1.
         23    2    1    2    0    0  0.13472154882E+03  0.14093457536E+03  0.13814837059E+03  0.25462678287E+03  0.87962355657E+02 0.  0.
         23    2    1    2    0    0 -0.13472154882E+03 -0.14093457536E+03  0.12724156759E+04  0.12933299879E+04  0.12509338560E+03 0.  0.
          5    1    4    4  502    0 -0.10957036319E+03 -0.15467522040E+03  0.89807350664E+03  0.91786904513E+03  0.41800000000E+01 0. -1.
         -5    1    4    4    0  502 -0.25151185631E+02  0.13740645042E+02  0.37434216930E+03  0.37546094281E+03  0.41800000000E+01 0. -1.
        -11    1    3    3    0    0  0.48125850191E+02  0.85046258568E+02  0.11132455129E+03  0.14812872535E+03  0.00000000000E+00 0.  1.
         11    1    3    3    0    0  0.86595698632E+02  0.55888316788E+02  0.26823819294E+02  0.10649805752E+03  0.00000000000E+00 0. -1.
</event>
<event>
 8    1  0.9181008E-006  0.7483621E+02  0.7561462E-02  0.1344379E+00
          1   -1    0    0  501    0  0.00000000000E+00  0.00000000000E+00  0.48093719099E+03  0.48093719099E+03  0.00000000000E+00 0. -1.
         -1   -1    0    0    0  501 -0.00000000000E+00 -0.00000000000E+00 -0.35491134132E+02  0.35491134132E+02  0.00000000000E+00 0.  1.
         23    2    1    2    0    0  0.38628214341E+02 -0.22863759720E+02  0.85593961190E+02  0.13281960394E+03  0.91103405789E+02 0.  0.
         23    2    1    2    0    0 -0.38628214341E+02  0.22863759720E+02  0.35985209567E+03  0.38360872118E+03  0.12508888744E+03 0.  0.
          5    1    4    4  502    0  0.97813571548E+01 -0.23348198197E+02  0.27140963832E+03  0.27261965718E+03  0.41800000000E+01 0.  1.
         -5    1    4    4    0  502 -0.48409571495E+02  0.46211957917E+02  0.88442457344E+02  0.11098906400E+03  0.41800000000E+01 0.  1.
        -11    1    3    3    0    0 -0.53319627982E+01 -0.97028882322E+01 -0.17081954814E+02  0.20356056779E+02  0.00000000000E+00 0.  1.
         11    1    3    3    0    0  0.43960177139E+02 -0.13160871488E+02  0.10267591600E+03  0.11246354716E+03  0.00000000000E+00 0. -1.
</event>
<event>
 7    1  0.9181008E-006  0.7043324E+02  0.7561462E-02  0.1358626E+00
          1   -1    0    0  501    0  0.00000000000E+00  0.00000000000E+00  0.23355582471E+03  0.23355582471E+03  0.00000000000E+00 0. -1.
         -1   -1    0    0    0  501 -0.00000000000E+00 -0.00000000000E+00 -0.84400653361E+02  0.84400653361E+02  0.00000000000E+00 0.  1.
         23    2    1    2    0    0  0.17303948042E+02 -0.30663837776E+01  0.11715839715E+03  0.17341998163E+03  0.12664742666E+03 0.  0.
          5    1    3    3  502    0 -0.27641576141E+01 -0.29440281164E+02  0.13309888641E+03  0.13640805213E+03  0.41800000000E+01 0. -1.
         -5    1    3    3    0  502  0.20068105656E+02  0.26373897386E+02 -0.15940489256E+02  0.37011929505E+02  0.41800000000E+01 0.  1.
        -11    1    1    2    0    0  0.17575238592E+02 -0.26551655893E+02 -0.44906437234E+02  0.55049682536E+02  0.00000000000E+00 0. -1.
         11    1    1    2    0    0 -0.34879186634E+02  0.29618039671E+02  0.76903211431E+02  0.89486813904E+02  0.00000000000E+00 0.  1.
</event>
<event>
 7    1  0.9181008E-006  0.3070172E+03  0.7561462E-02  0.1081784E+00
          1   -1    0    0  501    0  0.00000000000E+00  0.00000000000E+00  0.28960651734E+04  0.28960651734E+04  0.00000000000E+00 0. -1.
         -1   -1    0    0    0  501 -0.00000000000E+00 -0.00000000000E+00 -0.49361765782E+02  0.49361765782E+02  0.00000000000E+00 0.  1.
         23    2    1    2    0    0  0.58745215926E+02 -0.27491147626E+03  0.56340398700E+03  0.63613985981E+03  0.90678269176E+02 0.  0.
          5    1    1    2  502    0 -0.76774113819E+02  0.29051000505E+03  0.17632735086E+04  0.17886982043E+04  0.41800000000E+01 0. -1.
         -5    1    1    2    0  502  0.18028897893E+02 -0.15598528786E+02  0.52002591204E+03  0.52058887507E+03  0.41800000000E+01 0.  1.
        -11    1    3    3    0    0 -0.14070339506E+02 -0.21845986027E+02  0.21827543962E+02  0.33936164114E+02  0.00000000000E+00 0. -1.
         11    1    3    3    0    0  0.72815555433E+02 -0.25306549024E+03  0.54157644303E+03  0.60220369570E+03  0.00000000000E+00 0.  1.
</event>
<event>
 8    1  0.9181008E-006  0.1163075E+03  0.7561462E-02  0.1249316E+00
         -1   -1    0    0    0  501 -0.00000000000E+00  0.00000000000E+00  0.63906189018E+03  0.63906189018E+03  0.00000000000E+00 0.  1.
          1   -1    0    0  501    0  0.00000000000E+00 -0.00000000000E+00 -0.28032809392E+02  0.28032809392E+02  0.00000000000E+00 0. -1.
         23    2    1    2    0    0  0.46517329878E+02 -0.52711292820E+02  0.36957318502E+03  0.38621967230E+03  0.87401108780E+02 0.  0.
         23    2    1    2    0    0 -0.46517329878E+02  0.52711292820E+02  0.24145589577E+03  0.28087502728E+03  0.12508992355E+03 0.  0.
          5    1    4    4  502    0 -0.46829280683E+02 -0.29251357655E+02  0.59569739599E+02  0.81330496924E+02  0.41800000000E+01 0.  1.
         -5    1    4    4    0  502  0.31195080493E+00  0.81962650475E+02  0.18188615617E+03  0.19954453035E+03  0.41800000000E+01 0.  1.
        -11    1    3    3    0    0  0.46734017795E+02 -0.44879009609E+01  0.80817520851E+02  0.93464866933E+02  0.00000000000E+00 0. -1.
         11    1    3    3    0    0 -0.21668791613E+00 -0.48223391859E+02  0.28875566417E+03  0.29275480537E+03  0.00000000000E+00 0.  1.
</event>
<event>
 8    1  0.9181008E-006  0.8604005E+02  0.7561462E-02  0.1312735E+00
         -2   -1    0    0    0  501 -0.00000000000E+00  0.00000000000E+00  0.78989599096E+02  0.78989599096E+02  0.00000000000E+00 0.  1.
          2   -1    0    0  501    0  0.00000000000E+00 -0.00000000000E+00 -0.16507085270E+03  0.16507085270E+03  0.00000000000E+00 0. -1.
         23    2    1    2    0    0  0.31718610324E+02 -0.11114473839E+02 -0.26541502766E+02  0.10017478588E+03  0.90559011631E+02 0.  0.
         23    2    1    2    0    0 -0.31718610324E+02  0.11114473839E+02 -0.59539750843E+02  0.14388566592E+03  0.12660371700E+03 0.  0.
          5    1    4    4  502    0 -0.15431743006E+02  0.45315203902E+02 -0.85287163887E+02  0.97892691866E+02  0.41800000000E+01 0. -1.
         -5    1    4    4    0  502 -0.16286867318E+02 -0.34200730062E+02  0.25747413045E+02  0.45992974054E+02  0.41800000000E+01 0.  1.
        -11    1    3    3    0    0  0.20273683334E+02 -0.45426951880E+02 -0.37593579954E+02  0.62353086907E+02  0.00000000000E+00 0.  1.
         11    1    3    3    0    0  0.11444926990E+02  0.34312478041E+02  0.11052077188E+02  0.37821698974E+02  0.00000000000E+00 0. -1.
</event>
<event>
 8    1  0.9181008E-006  0.9479813E+02  0.7561462E-02  0.1291631E+00
          1   -1    0    0  501    0  0.00000000000E+00  0.00000000000E+00  0.69684238071E+02  0.69684238071E+02  0.00000000000E+00 0. -1.
         -1   -1    0    0    0  501 -0.00000000000E+00 -0.00000000000E+00 -0.23307385827E+03  0.23307385827E+03  0.00000000000E+00 0.  1.
         23    2    1    2    0    0  0.33081379397E+02  0.53433774743E+02 -0.10100440242E+03  0.14949691944E+03  0.90542220361E+02 0.  0.
         23    2    1    2    0    0 -0.33081379397E+02 -0.53433774743E+02 -0.62385217784E+02  0.15326117690E+03  0.12509007555E+03 0.  0.
          5    1    4    4  502    0 -0.23284842289E+02 -0.61790363716E+02  0.20508070312E+02  0.69269663464E+02  0.41800000000E+01 0.  1.
         -5    1    4    4    0  502 -0.97965371080E+01  0.83565889731E+01 -0.82893288096E+02  0.83991513440E+02  0.41800000000E+01 0.  1.
        -11    1    3    3    0    0 -0.10585050751E+02  0.64080132000E+02 -0.65250541794E+02  0.92064867462E+02  0.00000000000E+00 0.  1.
         11    1    3    3    0    0  0.43666430147E+02 -0.10646357257E+02 -0.35753860623E+02  0.57432051975E+02  0.00000000000E+00 0. -1.
</event>
<event>
 7    1  0.9181008E-006  0.1207890E+03  0.7561462E-02  0.1241801E+00
         -2   -1    0    0    0  501 -0.00000000000E+00  0.00000000000E+00  0.10962371410E+03  0.10962371410E+03  0.00000000000E+00 0.  1.
          2   -1    0    0  501    0  0.00000000000E+00 -0.00000000000E+00 -0.14317523586E+03  0.14317523586E+03  0.00000000000E+00 0. -1.
         23    2    1    2    0    0  0.47489800394E+02  0.14759173986E+02  0.89796451560E+01  0.10496885888E+03  0.92003874647E+02 0.  0.
          5    1    1    2  502    0 -0.11874101902E+02  0.58274619050E+02 -0.24721163032E+02  0.64540946872E+02  0.41800000000E+01 0. -1.
         -5    1    1    2    0  502 -0.35615698492E+02 -0.73033793036E+02 -0.17810003882E+02  0.83289144207E+02  0.41800000000E+01 0.  1.
        -11    1    3    3    0    0  0.54281859010E+02  0.44437305083E+02  0.19408906194E+02  0.72786674194E+02  0.00000000000E+00 0. -1.
         11    1    3    3    0    0 -0.67920586156E+01 -0.29678131097E+02 -0.10429261038E+02  0.32182184690E+02  0.00000000000E+00 0.  1.
</event>
<event>
 8    1  0.9181008E-006  0.9751968E+02  0.7561462E-02  0.1285600E+00
          2   -1    0    0  501    0  0.00000000000E+00  0.00000000000E+00  0.93618419257E+02  0.93618419257E+02  0.00000000000E+00 0. -1.
         -2   -1    0    0    0  501 -0.00000000000E+00 -0.00000000000E+00 -0.15251793143E+03  0.15251793143E+03  0.00000000000E+00 0.  1.
         23    2    1    2    0    0  0.31307570490E+02 -0.26047161559E+01 -0.62722587207E+02  0.11710900202E+03  0.93773380511E+02 0.  0.
         23    2    1    2    0    0 -0.31307570490E+02  0.26047161559E+01  0.38230750350E+01  0.12902734866E+03  0.12508593959E+03 0.  0.
          5    1    4    4  502    0  0.20463845151E+02 -0.42071373247E+02 -0.26695492774E+02  0.54026763180E+02  0.41800000000E+01 0. -1.
         -5    1    4    4    0  502 -0.51771415640E+02  0.44676089403E+02  0.30518567809E+02  0.75000585483E+02  0.41800000000E+01 0. -1.
        -11    1    3    3    0    0  0.12038605759E+02 -0.37670199441E+02 -0.66024079152E+02  0.76962009995E+02  0.00000000000E+00 0.  1.
         11    1    3    3    0    0  0.19268964730E+02  0.35065483285E+02  0.33014919444E+01  0.40146992028E+02  0.00000000000E+00 0. -1.
</event>
<event>
 7    1  0.9181008E-006  0.2418718E+03  0.7561462E-02  0.1118552E+00
          2   -1    0    0  501    0  0.00000000000E+00  0.00000000000E+00  0.80678016746E+03  0.80678016746E+03  0.00000000000E+00 0. -1.
         -2   -1    0    0    0  501 -0.00000000000E+00 -0.00000000000E+00 -0.10492537512E+03  0.10492537512E+03  0.00000000000E+00 0.  1.
         23    2    1    2    0    0  0.34293187267E+02 -0.70525724820E+02  0.23290252455E+03  0.27620338763E+03  0.12607467962E+03 0.  0.
          5    1    3    3  502    0  0.46537004351E+02 -0.27700125388E+01  0.18836861935E+03  0.19409681837E+03  0.41800000000E+01 0. -1.
         -5    1    3    3    0  502 -0.12243817083E+02 -0.67755712281E+02  0.44533905192E+02  0.82106569257E+02  0.41800000000E+01 0.  1.
        -11    1    1    2    0    0 -0.16050434348E+03 -0.73434281552E+02  0.64314677011E+02  0.18785796672E+03  0.00000000000E+00 0.  1.
         11    1    1    2    0    0  0.12621115621E+03  0.14396000637E+03  0.40463759078E+03  0.44764418824E+03  0.00000000000E+00 0. -1.
</event>
<event>
 8    1  0.9181008E-006  0.1166250E+03  0.7561462E-02  0.1248771E+00
         -1   -1    0    0    0  501 -0.00000000000E+00  0.00000000000E+00  0.45489701330E+03  0.45489701330E+03  0.00000000000E+00 0.  1.
          1   -1    0    0  501    0  0.00000000000E+00 -0.00000000000E+00 -0.44487889321E+02  0.44487889321E+02  0.00000000000E+00 0. -1.
         23    2    1    2    0    0  0.24416727009E+02 -0.86602538909E+02  0.22000628973E+03  0.25443976533E+03  0.90778027922E+02 0.  0.
         23    2    1    2    0    0 -0.24416727009E+02  0.86602538909E+02  0.19040283425E+03  0.24494513730E+03  0.12509478284E+03 0.  0.
          5    1    4    4  502    0  0.29994348061E+02  0.65292665263E+02  0.16701751454E+03  0.18186565265E+03  0.41800000000E+01 0. -1.
         -5    1    4    4    0  502 -0.54411075070E+02  0.21309873646E+02  0.23385319709E+02  0.63079484644E+02  0.41800000000E+01 0. -1.
        -11    1    3    3    0    0  0.75627165348E+01 -0.85465123394E+02  0.22144573401E+03  0.23748619983E+03  0.00000000000E+00 0.  1.
         11    1    3    3    0    0  0.16854010474E+02 -0.11374155151E+01 -0.14394442790E+01  0.16953565494E+02  0.00000000000E+00 0. -1.
</event>
<event>
 8    1  0.9181008E-006  0.1709940E+03  0.7561462E-02  0.1176815E+00
         -1   -1    0    0    0  501 -0.00000000000E+00  0.00000000000E+00  0.70906998221E+02  0.70906998221E+02  0.00000000000E+00 0.  1.
          1   -1    0    0  501    0  0.00000000000E+00 -0.00000000000E+00 -0.53648058638E+03  0.53648058638E+03  0.00000000000E+00 0. -1.
         23    2    1    2    0    0  0.11902629787E+03 -0.96609848864E+02 -0.30072199045E+03  0.34985235748E+03  0.91990401768E+02 0.  0.
         23    2    1    2    0    0 -0.11902629787E+03  0.96609848864E+02 -0.16485159772E+03  0.25753522712E+03  0.12509045310E+03 0.  0.
          5    1    4    4  502    0 -0.12343293950E+03  0.10944526805E+03 -0.10401979370E+03  0.19506805770E+03  0.41800000000E+01 0. -1.
         -5    1    4    4    0  502  0.44066416270E+01 -0.12835419189E+02 -0.60831804015E+02  0.62467169424E+02  0.41800000000E+01 0. -1.
        -11    1    3    3    0    0  0.64086802929E+02 -0.17464837100E+02 -0.19879037319E+03  0.20959425402E+03  0.00000000000E+00 0. -1.
         11    1    3    3    0    0  0.54939494939E+02 -0.79145011764E+02 -0.10193161726E+03  0.14025810347E+03  0.00000000000E+00 0.  1.
</event>
<event>
 8    1  0.9181008E-006  0.1034375E+03  0.7561462E-02  0.1273229E+00
          2   -1    0    0  501    0  0.00000000000E+00  0.00000000000E+00  0.14215802475E+04  0.14215802475E+04  0.00000000000E+00 0. -1.
         -2   -1    0    0    0  501 -0.00000000000E+00 -0.00000000000E+00 -0.14253537527E+02  0.14253537527E+02  0.00000000000E+00 0.  1.
         23    2    1    2    0    0  0.26701327791E+02  0.13603362945E+02  0.21107900884E+03  0.23269038282E+03  0.93233330377E+02 0.  0.
         23    2    1    2    0    0 -0.26701327791E+02 -0.13603362945E+02  0.11962477012E+04  0.12031434023E+04  0.12508985342E+03 0.  0.
          5    1    4    4  502    0  0.48746391426E+02  0.88437054651E+01  0.44167501749E+03  0.44446452645E+03  0.41800000000E+01 0.  1.
         -5    1    4    4    0  502 -0.75447719217E+02 -0.22447068410E+02  0.75457268369E+03  0.75867887580E+03  0.41800000000E+01 0.  1.
        -11    1    3    3    0    0  0.46933521998E+02 -0.92191818274E+01  0.51750101858E+02  0.70468587633E+02  0.00000000000E+00 0.  1.
         11    1    3    3    0    0 -0.20232194207E+02  0.22822544772E+02  0.15932890699E+03  0.16222179519E+03  0.00000000000E+00 0. -1.
</event>
<event>
 8    1  0.9181008E-006  0.9474223E+02  0.7561462E-02  0.1291758E+00
         -1   -1    0    0    0  501 -0.00000000000E+00  0.00000000000E+00  0.53250579413E+02  0.53250579413E+02  0.00000000000E+00 0.  1.
          1   -1    0    0  501    0  0.00000000000E+00 -0.00000000000E+00 -0.28114612552E+03  0.28114612552E+03  0.00000000000E+00 0. -1.
         23    2    1    2    0    0  0.36463935797E+02  0.37036865941E+02 -0.64523810867E+02  0.12217264526E+03  0.89785772977E+02 0.  0.
         23    2    1    2    0    0 -0.36463935797E+02 -0.37036865941E+02 -0.16337173524E+03  0.21222405967E+03  0.12508948627E+03 0.  0.
          5    1    4    4  502    0 -0.37860652396E+02 -0.61705226987E+02 -0.17123806700E+03  0.18595943651E+03  0.41800000000E+01 0.  1.
         -5    1    4    4    0  502  0.13967165999E+01  0.24668361046E+02  0.78663317663E+01  0.26264623154E+02  0.41800000000E+01 0.  1.
        -11    1    3    3    0    0 -0.23488474259E+02  0.15798637104E+02  0.41045732017E+01  0.28603371804E+02  0.00000000000E+00 0. -1.
         11    1    3    3    0    0  0.59952410056E+02  0.21238228837E+02 -0.68628384069E+02  0.93569273458E+02  0.00000000000E+00 0.  1.
</event>
<event>
 8    1  0.9181008E-006  0.9028544E+02  0.7561462E-02  0.1302162E+00
          1   -1    0    0  501    0  0.00000000000E+00  0.00000000000E+00  0.28765532764E+03  0.28765532764E+03  0.00000000000E+00 0. -1.
         -1   -1    0    0    0  501 -0.00000000000E+00 -0.00000000000E+00 -0.47612072702E+02  0.47612072702E+02  0.00000000000E+00 0.  1.
         23    2    1    2    0    0  0.27311760636E+02  0.39345727069E+01  0.78157296900E+02  0.12883010836E+03  0.98626673010E+02 0.  0.
         23    2    1    2    0    0 -0.27311760636E+02 -0.39345727069E+01  0.16188595804E+03  0.20643729199E+03  0.12509148245E+03 0.  0.
          5    1    4    4  502    0 -0.62162607311E+02  0.35955988607E+02  0.70465429626E+02  0.10069693162E+03  0.41800000000E+01 0.  1.
         -5    1    4    4    0  502  0.34850846675E+02 -0.39890561314E+02  0.91420528414E+02  0.10574036037E+03  0.41800000000E+01 0.  1.
        -11    1    3    3    0    0 -0.24053920586E+01 -0.18256093961E+02 -0.18011040460E+02  0.25757881437E+02  0.00000000000E+00 0.  1.
         11    1    3    3    0    0  0.29717152695E+02  0.22190666668E+02  0.96168337360E+02  0.10307222692E+03  0.00000000000E+00 0. -1.
</event>
<event>
 7    1  0.9181008E-006  0.2743902E+03  0.7561462E-02  0.1098793E+00
         -1   -1    0    0    0  501 -0.00000000000E+00  0.00000000000E+00  0.48965039490E+03  0.48965039490E+03  0.00000000000E+00 0.  1.
          1   -1    0    0  501    0  0.00000000000E+00 -0.00000000000E+00 -0.22809692306E+03  0.22809692306E+03  0.00000000000E+00 0. -1.
         23    2    1    2    0    0 -0.33810398894E+02  0.15313340099E+03  0.29099177091E+03  0.34326750550E+03  0.92538575873E+02 0.  0.
          5    1    1    2  502    0  0.14946618725E+03  0.33760202429E+02 -0.59536695976E+01  0.15340407746E+03  0.41800000000E+01 0. -1.
         -5    1    1    2    0  502 -0.11565578836E+03 -0.18689360342E+03 -0.23484629477E+02  0.22107573499E+03  0.41800000000E+01 0.  1.
        -11    1    3    3    0    0 -0.58468619208E+02  0.84648977199E+02  0.21324973168E+03  0.23676882573E+03  0.00000000000E+00 0.  1.
         11    1    3    3    0    0  0.24658220315E+02  0.68484423789E+02  0.77742039229E+02  0.10649867978E+03  0.00000000000E+00 0. -1.
</event>
<event>
 8    1  0.9181008E-006  0.1538042E+03  0.7561462E-02  0.1195875E+00
         -2   -1    0    0    0  501 -0.00000000000E+00  0.00000000000E+00  0.16310514795E+02  0.16310514795E+02  0.00000000000E+00 0. -1.
          2   -1    0    0  501    0  0.00000000000E+00 -0.00000000000E+00 -0.19767901733E+04  0.19767901733E+04  0.00000000000E+00 0.  1.
         23    2    1    2    0    0  0.38281246531E+02 -0.11207318192E+03 -0.48809856128E+03  0.51067795598E+03  0.92335893630E+02 0.  0.
         23    2    1    2    0    0 -0.38281246531E+02  0.11207318192E+03 -0.14723810972E+04  0.14824227321E+04  0.12508081111E+03 0.  0.
          5    1    4    4  502    0  0.31488147904E+02 -0.49580020597E+01 -0.17764576224E+03  0.18053136704E+03  0.41800000000E+01 0.  1.
         -5    1    4    4    0  502 -0.69769394436E+02  0.11703118397E+03 -0.12947353350E+04  0.13018913651E+04  0.41800000000E+01 0.  1.
        -11    1    3    3    0    0 -0.14451089049E+02 -0.70583413258E+02 -0.34748946072E+03  0.35487994803E+03  0.00000000000E+00 0.  1.
         11    1    3    3    0    0  0.52732335580E+02 -0.41489768657E+02 -0.14060910057E+03  0.15579800795E+03  0.00000000000E+00 0. -1.
</event>
<event>
 8    1  0.9181008E-006  0.1051901E+03  0.7561462E-02  0.1269746E+00
         -1   -1    0    0    0  501 -0.00000000000E+00  0.00000000000E+00  0.27493009322E+02  0.27493009322E+02  0.00000000000E+00 0.  1.
          1   -1    0    0  501    0  0.00000000000E+00 -0.00000000000E+00 -0.90313058065E+03  0.90313058065E+03  0.00000000000E+00 0. -1.
         23    2    1    2    0    0  0.51451778273E+02  0.59240743240E+02 -0.16062715577E+03  0.20052336261E+03  0.90839334182E+02 0.  0.
         23    2    1    2    0    0 -0.51451778273E+02 -0.59240743240E+02 -0.71501041555E+03  0.73010022736E+03  0.12509874696E+03 0.  0.
          5    1    4    4  502    0 -0.44328437027E+02  0.12509742846E+02 -0.92537190870E+02  0.10345099366E+03  0.41800000000E+01 0.  1.
         -5    1    4    4    0  502 -0.71233412463E+01 -0.71750486086E+02 -0.62247322468E+03  0.62664923370E+03  0.41800000000E+01 0.  1.
        -11    1    3    3    0    0  0.26782804213E+02  0.61555316823E+02 -0.41665506181E+02  0.79008797207E+02  0.00000000000E+00 0.  1.
         11    1    3    3    0    0  0.24668974060E+02 -0.23145735834E+01 -0.11896164959E+03  0.12151456541E+03  0.00000000000E+00 0. -1.
</event>
<event>
 8    1  0.9181008E-006  0.2048128E+03  0.7561462E-02  0.1145741E+00
          2   -1    0    0  501    0  0.00000000000E+00  0.00000000000E+00  0.46015215770E+03  0.46015215770E+03  0.00000000000E+00 0. -1.
         -2   -1    0    0    0  501 -0.00000000000E+00 -0.00000000000E+00 -0.11206602038E+03  0.11206602038E+03  0.00000000000E+00 0.  1.
         23    2    1    2    0    0 -0.79546479847E+02  0.15890353371E+03  0.53128096832E+02  0.20585054483E+03  0.89296565736E+02 0.  0.
         23    2    1    2    0    0  0.79546479847E+02 -0.15890353371E+03  0.29495804049E+03  0.36636763326E+03  0.12508805526E+03 0.  0.
          5    1    4    4  502    0  0.30577595240E+02 -0.16468295520E+03  0.21972806452E+03  0.27632111719E+03  0.41800000000E+01 0. -1.
         -5    1    4    4    0  502  0.48968884608E+02  0.57794214966E+01  0.75229975969E+02  0.90046516073E+02  0.41800000000E+01 0. -1.
        -11    1    3    3    0    0 -0.84515209264E+02  0.89829051581E+02  0.88540370716E+01  0.12365465247E+03  0.00000000000E+00 0.  1.
         11    1    3    3    0    0  0.49687294162E+01  0.69074482125E+02  0.44274059760E+02  0.82195892358E+02  0.00000000000E+00 0. -1.
</event>
<event>
 8    1  0.9181008E-006  0.1178526E+03  0.7561462E-02  0.1246682E+00
         -2   -1    0    0    0  501 -0.00000000000E+00  0.00000000000E+00  0.41637882215E+02  0.41637882215E+02  0.00000000000E+00 0.  1.
          2   -1    0    0  501    0  0.00000000000E+00 -0.00000000000E+00 -0.43539736705E+03  0.43539736705E+03  0.00000000000E+00 0. -1.
         23    2    1    2    0    0  0.24055434000E+02 -0.64397179988E+02 -0.10659111861E+03  0.15634938140E+03  0.91421014003E+02 0.  0.
         23    2    1    2    0    0 -0.24055434000E+02  0.64397179988E+02 -0.28716836622E+03  0.32068586786E+03  0.12509234427E+03 0.  0.
          5    1    4    4  502    0  0.35095285658E+02 -0.19152882984E+02 -0.76075763845E+02  0.86043629902E+02  0.41800000000E+01 0.  1.
         -5    1    4    4    0  502 -0.59150719658E+02  0.83550062973E+02 -0.21109260237E+03  0.23464223796E+03  0.41800000000E+01 0.  1.
        -11    1    3    3    0    0 -0.13499500287E+02 -0.51661264267E+02 -0.10363713731E+03  0.11658378516E+03  0.00000000000E+00 0.  1.
         11    1    3    3    0    0  0.37554934287E+02 -0.12735915722E+02 -0.29539813078E+01  0.39765596238E+02  0.00000000000E+00 0. -1.
</event>
<event>
 8    1  0.9181008E-006  0.1077923E+03  0.7561462E-02  0.1264714E+00
          1   -1    0    0  501    0  0.00000000000E+00  0.00000000000E+00  0.88447248654E+03  0.88447248654E+03  0.00000000000E+00 0. -1.
         -1   -1    0    0    0  501 -0.00000000000E+00 -0.00000000000E+00 -0.13776020436E+02  0.13776020436E+02  0.00000000000E+00 0.  1.
         23    2    1    2    0    0 -0.17090155764E+01 -0.17726090966E+02  0.33367677102E+03  0.34656523138E+03  0.91924626987E+02 0.  0.
         23    2    1    2    0    0  0.17090155764E+01  0.17726090966E+02  0.53701969508E+03  0.55168327560E+03  0.12508856315E+03 0.  0.
          5    1    4    4  502    0 -0.60575662652E+02 -0.23128828176E+01  0.25296325393E+03  0.26015887563E+03  0.41800000000E+01 0.  1.
         -5    1    4    4    0  502  0.62284678229E+02  0.20038973783E+02  0.28405644116E+03  0.29152439997E+03  0.41800000000E+01 0.  1.
        -11    1    3    3    0    0 -0.25981690878E+02 -0.45486025451E+02  0.24480693867E+03  0.25034868482E+03  0.00000000000E+00 0. -1.
         11    1    3    3    0    0  0.24272675301E+02  0.27759934485E+02  0.88869832355E+02  0.96216546559E+02  0.00000000000E+00 0.  1.
</event>
<event>
 8    1  0.9181008E-006  0.8240648E+02  0.7561462E-02  0.1322358E+00
         -1   -1    0    0    0  501 -0.00000000000E+00  0.00000000000E+00  0.31793086912E+02  0.31793086912E+02  0.00000000000E+00 0.  1.
          1   -1    0    0  501    0  0.00000000000E+00 -0.00000000000E+00 -0.46358998648E+03  0.46358998648E+03  0.00000000000E+00 0. -1.
         23    2    1    2    0    0  0.47568421371E+02 -0.25859093689E+02 -0.16567798688E+03  0.19638788611E+03  0.90485131571E+02 0.  0.
         23    2    1    2    0    0 -0.47568421371E+02  0.25859093689E+02 -0.26611891268E+03  0.29899518728E+03  0.12508956348E+03 0.  0.
          5    1    4    4  502    0  0.75867278530E+00  0.39868177935E+02 -0.14932026940E+02  0.42784167922E+02  0.41800000000E+01 0.  1.
         -5    1    4    4    0  502 -0.48327094157E+02 -0.14009084245E+02 -0.25118688574E+03  0.25621101935E+03  0.41800000000E+01 0.  1.
        -11    1    3    3    0    0  0.29200863391E+02 -0.41061791692E+02 -0.16501450709E+03  0.17253564475E+03  0.00000000000E+00 0. -1.
         11    1    3    3    0    0  0.18367557980E+02  0.15202698002E+02 -0.66347979891E+00  0.23852241365E+02  0.00000000000E+00 0.  1.
</event>
<event>
 8    1  0.9181008E-006  0.1062366E+03  0.7561462E-02  0.1267702E+00
          1   -1    0    0  501    0  0.00000000000E+00  0.00000000000E+00  0.88730998117E+03  0.88730998117E+03  0.00000000000E+00 0. -1.
         -1   -1    0    0    0  501 -0.00000000000E+00 -0.00000000000E+00 -0.22495659087E+02  0.22495659087E+02  0.00000000000E+00 0.  1.
         23    2    1    2    0    0 -0.17909220937E+02  0.62075847830E+02  0.19602092240E+03  0.22635408808E+03  0.92939873534E+02 0.  0.
         23    2    1    2    0    0  0.17909220937E+02 -0.62075847830E+02  0.66879339968E+03  0.68345155218E+03  0.12508901486E+03 0.  0.
          5    1    4    4  502    0  0.10124500240E+01 -0.91191200569E+02  0.31292015160E+03  0.32596526471E+03  0.41800000000E+01 0. -1.
         -5    1    4    4    0  502  0.16896770913E+02  0.29115352739E+02  0.35587324808E+03  0.35748628747E+03  0.41800000000E+01 0. -1.
        -11    1    3    3    0    0 -0.24291786304E+02 -0.56062763537E+00  0.44502351655E+01  0.24702424541E+02  0.00000000000E+00 0.  1.
         11    1    3    3    0    0  0.63825653668E+01  0.62636475465E+02  0.19157068724E+03  0.20165166354E+03  0.00000000000E+00 0. -1.
</event>
<event>
 8    1  0.9181008E-006  0.9339858E+02  0.7561462E-02  0.1294824E+00
         -1   -1    0    0    0  501 -0.00000000000E+00  0.00000000000E+00  0.63557621478E+02  0.63557621478E+02  0.00000000000E+00 0.  1.
          1   -1    0    0  501    0  0.00000000000E+00 -0.00000000000E+00 -0.32523643661E+03  0.32523643661E+03  0.00000000000E+00 0. -1.
         23    2    1    2    0    0  0.62050667938E+02 -0.22844500029E+02 -0.48333772252E+02  0.13279556172E+03  0.10452918778E+03 0.  0.
         23    2    1    2    0    0 -0.62050667938E+02  0.22844500029E+02 -0.21334504288E+03  0.25599849637E+03  0.12508783414E+03 0.  0.
          5    1    4    4  502    0  0.15318356786E+02 -0.17123008252E+02  0.22331020348E+01  0.23458657483E+02  0.41800000000E+01 0.  1.
         -5    1    4    4    0  502 -0.77369024724E+02  0.39967508281E+02 -0.21557814491E+03  0.23253983889E+03  0.41800000000E+01 0.  1.
        -11    1    3    3    0    0  0.26260650196E+02  0.95948992960E+01  0.29846850072E+02  0.40896433835E+02  0.00000000000E+00 0.  1.
         11    1    3    3    0    0  0.35790017742E+02 -0.32439399325E+02 -0.78180622324E+02  0.91899127883E+02  0.00000000000E+00 0. -1.
</event>
<event>
 8    1  0.9181008E-006  0.1293104E+03  0.7561462E-02  0.1228483E+00
          2   -1    0    0  501    0  0.00000000000E+00  0.00000000000E+00  0.12170170377E+04  0.12170170377E+04  0.00000000000E+00 0. -1.
         -2   -1    0    0    0  501 -0.00000000000E+00 -0.00000000000E+00 -0.47568422788E+02  0.47568422788E+02  0.00000000000E+00 0.  1.
         23    2    1    2    0    0  0.99482043994E+02  0.16853557419E+02  0.68553203502E+02  0.15202503783E+03  0.90726792853E+02 0.  0.
         23    2    1    2    0    0 -0.99482043994E+02 -0.16853557419E+02  0.11008954114E+04  0.11125604227E+04  0.12505705790E+03 0.  0.
          5    1    4    4  502    0 -0.89044379481E+02  0.33009512405E+02  0.46516146928E+03  0.47477488806E+03  0.41800000000E+01 0. -1.
         -5    1    4    4    0  502 -0.10437664513E+02 -0.49863069824E+02  0.63573394216E+03  0.63778553463E+03  0.41800000000E+01 0. -1.
        -11    1    3    3    0    0  0.17031258086E+02 -0.16306395640E+02 -0.16685536079E+02  0.28885453173E+02  0.00000000000E+00 0.  1.
         11    1    3    3    0    0  0.82450785908E+02  0.33159953059E+02  0.85238739581E+02  0.12313958466E+03  0.00000000000E+00 0. -1.
</event>
<event>
 8    1  0.9181008E-006  0.1246414E+03  0.7561462E-02  0.1235631E+00
         -2   -1    0    0    0  501 -0.00000000000E+00  0.00000000000E+00  0.50024204837E+02  0.50024204837E+02  0.00000000000E+00 0. -1.
          2   -1    0    0  501    0  0.00000000000E+00 -0.00000000000E+00 -0.36617569334E+03  0.36617569334E+03  0.00000000000E+00 0.  1.
         23    2    1    2    0    0  0.32302457951E+02  0.75157674219E+02 -0.16424785120E+03  0.20309117711E+03  0.87043350198E+02 0.  0.
         23    2    1    2    0    0 -0.32302457951E+02 -0.75157674219E+02 -0.15190363730E+03  0.21310872106E+03  0.12509391346E+03 0.  0.
          5    1    4    4  502    0 -0.52240861774E+01  0.34803077468E+02 -0.27742589274E+02  0.45007432022E+02  0.41800000000E+01 0. -1.
         -5    1    4    4    0  502 -0.27078371773E+02 -0.10996075169E+03 -0.12416104803E+03  0.16810128904E+03  0.41800000000E+01 0. -1.
        -11    1    3    3    0    0 -0.17050054137E+02  0.15008880141E+02 -0.15753583385E+01  0.22769553861E+02  0.00000000000E+00 0. -1.
         11    1    3    3    0    0  0.49352512087E+02  0.60148794078E+02 -0.16267249286E+03  0.18032162325E+03  0.00000000000E+00 0.  1.
</event>
<event>
 8    1  0.9181008E-006  0.1555509E+03  0.7561462E-02  0.1193813E+00
          2   -1    0    0  501    0  0.00000000000E+00  0.00000000000E+00  0.28002463175E+04  0.28002463175E+04  0.00000000000E+00 0. -1.
         -2   -1    0    0    0  501 -0.00000000000E+00 -0.00000000000E+00 -0.11353347115E+02  0.11353347115E+02  0.00000000000E+00 0.  1.
         23    2    1    2    0    0 -0.10930621777E+03 -0.50810844384E+02  0.72252433585E+03  0.73794214763E+03  0.89373408807E+02 0.  0.
         23    2    1    2    0    0  0.10930621777E+03  0.50810844384E+02  0.20663686346E+04  0.20736575170E+04  0.12508626148E+03 0.  0.
          5    1    4    4  502    0  0.12723814067E+03  0.59731587376E+02  0.14156326574E+04  0.14225999789E+04  0.41800000000E+01 0.  1.
         -5    1    4    4    0  502 -0.17931922893E+02 -0.89207429918E+01  0.65073597716E+03  0.65105753807E+03  0.41800000000E+01 0.  1.
        -11    1    3    3    0    0 -0.61602300488E+02 -0.74571374339E+02  0.47379558669E+03  0.48356797999E+03  0.00000000000E+00 0. -1.
         11    1    3    3    0    0 -0.47703917285E+02  0.23760529955E+02  0.24872874916E+03  0.25437416764E+03  0.00000000000E+00 0.  1.
</event>
<event>
 8    1  0.9181008E-006  0.1048470E+03  0.7561462E-02  0.1270421E+00
          2   -1    0    0  501    0  0.00000000000E+00  0.00000000000E+00  0.75102114108E+02  0.75102114108E+02  0.00000000000E+00 0. -1.
         -2   -1    0    0    0  501 -0.00000000000E+00 -0.00000000000E+00 -0.21241914422E+03  0.21241914422E+03  0.00000000000E+00 0.  1.
         23    2    1    2    0    0  0.24440693950E+02 -0.56300003392E+02 -0.81624443019E+02  0.13743348526E+03  0.91969425727E+02 0.  0.
         23    2    1    2    0    0 -0.24440693950E+02  0.56300003392E+02 -0.55692587089E+02  0.15008777307E+03  0.12513048176E+03 0.  0.
          5    1    4    4  502    0 -0.41564492574E+02 -0.29901024216E+02 -0.21595498831E+02  0.55727159104E+02  0.41800000000E+01 0.  1.
         -5    1    4    4    0  502  0.17123798624E+02  0.86201027608E+02 -0.34097088258E+02  0.94360613964E+02  0.41800000000E+01 0.  1.
        -11    1    3    3    0    0 -0.65617732576E+01 -0.26622189082E+02  0.15323785009E+02  0.31410447415E+02  0.00000000000E+00 0. -1.
         11    1    3    3    0    0  0.31002467207E+02 -0.29677814310E+02 -0.96948228028E+02  0.10602303784E+03  0.00000000000E+00 0.  1.
</event>
<event>
 8    1  0.9181008E-006  0.1351025E+03  0.7561462E-02  0.1220075E+00
         -1   -1    0    0    0  501 -0.00000000000E+00  0.00000000000E+00  0.69186474358E+02  0.69186474358E+02  0.00000000000E+00 0.  1.
          1   -1    0    0  501    0  0.00000000000E+00 -0.00000000000E+00 -0.41820601343E+03  0.41820601343E+03  0.00000000000E+00 0. -1.
         23    2    1    2    0    0 -0.70945847170E+02  0.94268732353E+02 -0.81380062999E+02  0.16927568268E+03  0.90064615488E+02 0.  0.
         23    2    1    2    0    0  0.70945847170E+02 -0.94268732353E+02 -0.26763947608E+03  0.31811680511E+03  0.12508998924E+03 0.  0.
          5    1    4    4  502    0  0.77698180541E+02 -0.70669291354E+02 -0.88941735599E+02  0.13769263136E+03  0.41800000000E+01 0. -1.
         -5    1    4    4    0  502 -0.67523333708E+01 -0.23599440999E+02 -0.17869774048E+03  0.18042417375E+03  0.41800000000E+01 0. -1.
        -11    1    3    3    0    0 -0.13305449294E+02  0.79614420975E+02 -0.73708480710E+02  0.10930887950E+03  0.00000000000E+00 0. -1.
         11    1    3    3    0    0 -0.57640397876E+02  0.14654311378E+02 -0.76715822885E+01  0.59966803184E+02  0.00000000000E+00 0.  1.
</event>
<event>
 8    1  0.9181008E-006  0.8349753E+02  0.7561462E-02  0.1319409E+00
         -2   -1    0    0    0  501 -0.00000000000E+00  0.00000000000E+00  0.20297232216E+02  0.20297232216E+02  0.00000000000E+00 0.  1.
          2   -1    0    0  501    0  0.00000000000E+00 -0.00000000000E+00 -0.59630077945E+03  0.59630077945E+03  0.00000000000E+00 0. -1.
         23    2    1    2    0    0  0.10795049932E+02 -0.14408580267E+02 -0.21815373233E+03  0.23708731387E+03  0.91078006027E+02 0.  0.
         23    2    1    2    0    0 -0.10795049932E+02  0.14408580267E+02 -0.35784981491E+03  0.37951069779E+03  0.12509092463E+03 0.  0.
          5    1    4    4  502    0 -0.16121734381E+02 -0.38526618245E+02 -0.29081028025E+03  0.29382359015E+03  0.41800000000E+01 0. -1.
         -5    1    4    4    0  502  0.53266844492E+01  0.52935198512E+02 -0.67039534659E+02  0.85687107642E+02  0.41800000000E+01 0. -1.
        -11    1    3    3    0    0  0.24388441615E+02  0.21967457925E+02 -0.28410554072E+02  0.43411114645E+02  0.00000000000E+00 0.  1.
         11    1    3    3    0    0 -0.13593391683E+02 -0.36376038192E+02 -0.18974317826E+03  0.19367619923E+03  0.00000000000E+00 0. -1.
</event>
<event>
 8    1  0.9181008E-006  0.1224062E+03  0.7561462E-02  0.1239180E+00
          1   -1    0    0  501    0  0.00000000000E+00  0.00000000000E+00  0.16396977607E+03  0.16396977607E+03  0.00000000000E+00 0. -1.
         -1   -1    0    0    0  501 -0.00000000000E+00 -0.00000000000E+00 -0.14096539053E+03  0.14096539053E+03  0.00000000000E+00 0.  1.
         23    2    1    2    0    0  0.82382347448E+02 -0.63980800858E+02 -0.87980508809E+01  0.13898450971E+03  0.91426988310E+02 0.  0.
         23    2    1    2    0    0 -0.82382347448E+02  0.63980800858E+02  0.31802436428E+02  0.16595065688E+03  0.12509129270E+03 0.  0.
          5    1    4    4  502    0 -0.69462830096E+02  0.43287834184E+02 -0.39135889838E+02  0.90818564328E+02  0.41800000000E+01 0.  1.
         -5    1    4    4    0  502 -0.12919517352E+02  0.20692966674E+02  0.70938326266E+02  0.75132092556E+02  0.41800000000E+01 0.  1.
        -11    1    3    3    0    0  0.99753620215E+02 -0.37772145917E+02 -0.13613149484E+01  0.10667414369E+03  0.00000000000E+00 0. -1.
         11    1    3    3    0    0 -0.17371272767E+02 -0.26208654941E+02 -0.74367359325E+01  0.32310366025E+02  0.00000000000E+00 0.  1.
</event>
<event>
 8    1  0.9181008E-006  0.1284435E+03  0.7561462E-02  0.1229784E+00
          2   -1    0    0  501    0  0.00000000000E+00  0.00000000000E+00  0.78105977141E+03  0.78105977141E+03  0.00000000000E+00 0. -1.
         -2   -1    0    0    0  501 -0.00000000000E+00 -0.00000000000E+00 -0.33007227888E+02  0.33007227888E+02  0.00000000000E+00 0.  1.
         23    2    1    2    0    0  0.75596556104E+02  0.36051281918E+02  0.13904293906E+03  0.18672762479E+03  0.92302398301E+02 0.  0.
         23    2    1    2    0    0 -0.75596556104E+02 -0.36051281918E+02  0.60900960446E+03  0.62733937452E+03  0.12508980081E+03 0.  0.
          5    1    4    4  502    0 -0.80085351868E+02 -0.74573934816E+02  0.39993578989E+03  0.41465774293E+03  0.41800000000E+01 0.  1.
         -5    1    4    4    0  502  0.44887957639E+01  0.38522652898E+02  0.20907381457E+03  0.21268163158E+03  0.41800000000E+01 0.  1.
        -11    1    3    3    0    0  0.86981152831E+02  0.20969881667E+02  0.65738893548E+02  0.11102728948E+03  0.00000000000E+00 0.  1.
         11    1    3    3    0    0 -0.11384596727E+02  0.15081400251E+02  0.73304045515E+02  0.75700335304E+02  0.00000000000E+00 0. -1.
</event>
<event>
 8    1  0.9181008E-006  0.1581537E+03  0.7561462E-02  0.1190797E+00
          2   -1    0    0  501    0  0.00000000000E+00  0.00000000000E+00  0.10187389734E+03  0.10187389734E+03  0.00000000000E+00 0. -1.
         -2   -1    0    0    0  501 -0.00000000000E+00 -0.00000000000E+00 -0.27992376573E+03  0.27992376573E+03  0.00000000000E+00 0.  1.
         23    2    1    2    0    0  0.25887047681E+02 -0.12476241177E+03 -0.10689691007E+03  0.18954640839E+03  0.90912556472E+02 0.  0.
         23    2    1    2    0    0 -0.25887047681E+02  0.12476241177E+03 -0.71152958317E+02  0.19225125467E+03  0.12514792374E+03 0.  0.
          5    1    4    4  502    0  0.42649620041E+02  0.13936292056E+02 -0.34707792314E+02  0.56879816924E+02  0.41800000000E+01 0. -1.
         -5    1    4    4    0  502 -0.68536667722E+02  0.11082611971E+03 -0.36445166002E+02  0.13537143775E+03  0.41800000000E+01 0. -1.
        -11    1    3    3    0    0 -0.15418361479E+02 -0.73190583775E+02 -0.14877904661E+02  0.76262307014E+02  0.00000000000E+00 0. -1.
         11    1    3    3    0    0  0.41305409160E+02 -0.51571827992E+02 -0.92019005412E+02  0.11328410138E+03  0.00000000000E+00 0.  1.
</event>
<event>
 8    1  0.9181008E-006  0.8354575E+02  0.7561462E-02  0.1319280E+00
         -1   -1    0    0    0  501 -0.00000000000E+00  0.00000000000E+00  0.19558781346E+02  0.19558781346E+02  0.00000000000E+00 0.  1.
          1   -1    0    0  501    0  0.00000000000E+00 -0.00000000000E+00 -0.62898311976E+03  0.62898311976E+03  0.00000000000E+00 0. -1.
         23    2    1    2    0    0 -0.64110892620E+01 -0.39480580371E+01 -0.19194235143E+03  0.21265225604E+03  0.91227334157E+02 0.  0.
         23    2    1    2    0    0  0.64110892620E+01  0.39480580371E+01 -0.41748198698E+03  0.43588964507E+03  0.12510748976E+03 0.  0.
          5    1    4    4  502    0  0.62235146997E+01  0.45324202869E+02 -0.57903041267E+02  0.73913801748E+02  0.41800000000E+01 0. -1.
         -5    1    4    4    0  502  0.18757456230E+00 -0.41376144832E+02 -0.35957894571E+03  0.36197584332E+03  0.41800000000E+01 0. -1.
        -11    1    3    3    0    0  0.20427430798E+02 -0.33755092993E+02 -0.42801686950E+02  0.58212289405E+02  0.00000000000E+00 0.  1.
         11    1    3    3    0    0 -0.26838520060E+02  0.29807034956E+02 -0.14914066448E+03  0.15443996663E+03  0.00000000000E+00 0. -1.
</event>
<event>
 8    1  0.9181008E-006  0.1284603E+03  0.7561462E-02  0.1229758E+00
          2   -1    0    0  501    0  0.00000000000E+00  0.00000000000E+00  0.10340590236E+03  0.10340590236E+03  0.00000000000E+00 0. -1.
         -2   -1    0    0    0  501 -0.00000000000E+00 -0.00000000000E+00 -0.16129713614E+03  0.16129713614E+03  0.00000000000E+00 0.  1.
         23    2    1    2    0    0 -0.31896664585E+02  0.63435186977E+02 -0.33392622428E+02  0.11879590313E+03  0.89196295938E+02 0.  0.
         23    2    1    2    0    0  0.31896664585E+02 -0.63435186977E+02 -0.24498611346E+02  0.14590713537E+03  0.12508912837E+03 0.  0.
          5    1    4    4  502    0 -0.20079166065E+02 -0.84294230475E+02 -0.22892917284E+02  0.89723175730E+02  0.41800000000E+01 0.  1.
         -5    1    4    4    0  502  0.51975830651E+02  0.20859043498E+02 -0.16056940620E+01  0.56183959641E+02  0.41800000000E+01 0.  1.
        -11    1    3    3    0    0 -0.60895055252E+02  0.24924526175E+02 -0.19293908806E+02  0.68568904587E+02  0.00000000000E+00 0. -1.
         11    1    3    3    0    0  0.28998390667E+02  0.38510660803E+02 -0.14098713622E+02  0.50226998542E+02  0.00000000000E+00 0.  1.
</event>
<event>
 8    1  0.9181008E-006  0.1354089E+03  0.7561462E-02  0.1219644E+00
          1   -1    0    0  501    0  0.00000000000E+00  0.00000000000E+00  0.31693720127E+03  0.31693720127E+03  0.00000000000E+00 0. -1.
         -1   -1    0    0    0  501 -0.00000000000E+00 -0.00000000000E+00 -0.63565826705E+02  0.63565826705E+02  0.00000000000E+00 0.  1.
         23    2    1    2    0    0  0.71087416725E+02 -0.51978505762E+02  0.78503634437E+02  0.15104121700E+03  0.94315654777E+02 0.  0.
         23    2    1    2    0    0 -0.71087416725E+02  0.51978505762E+02  0.17486774012E+03  0.22946181097E+03  0.11966123131E+03 0.  0.
          5    1    4    4  502    0 -0.64217352828E+02  0.85991257839E+02  0.15696143683E+03  0.19019129812E+03  0.41800000000E+01 0. -1.
         -5    1    4    4    0  502 -0.68700638961E+01 -0.34012752077E+02  0.17906303296E+02  0.39270512850E+02  0.41800000000E+01 0.  1.
        -11    1    3    3    0    0  0.81910617064E+02 -0.69796536213E+02  0.70799247237E+02  0.12881552338E+03  0.00000000000E+00 0.  1.
         11    1    3    3    0    0 -0.10823200340E+02  0.17818030451E+02  0.77043871995E+01  0.22225693619E+02  0.00000000000E+00 0. -1.
</event>
<event>
 8    1  0.9181008E-006  0.1829486E+03  0.7561462E-02  0.1164979E+00
          1   -1    0    0  501    0  0.00000000000E+00  0.00000000000E+00  0.11993137026E+04  0.11993137026E+04  0.00000000000E+00 0. -1.
         -1   -1    0    0    0  501 -0.00000000000E+00 -0.00000000000E+00 -0.33776049002E+02  0.33776049002E+02  0.00000000000E+00 0.  1.
         23    2    1    2    0    0 -0.15984894526E+03  0.48708854893E+02  0.48171680514E+03  0.51811907442E+03  0.92043778038E+02 0.  0.
         23    2    1    2    0    0  0.15984894526E+03 -0.48708854893E+02  0.68382084844E+03  0.71497067717E+03  0.12509148092E+03 0.  0.
          5    1    4    4  502    0  0.94399357333E+02 -0.15711766422E+01  0.55453932121E+03  0.56253447755E+03  0.41800000000E+01 0.  1.
         -5    1    4    4    0  502  0.65449587931E+02 -0.47137678250E+02  0.12928152723E+03  0.15243619962E+03  0.41800000000E+01 0.  1.
        -11    1    3    3    0    0 -0.96430346835E+02  0.74810476134E+02  0.29840299052E+03  0.32239690427E+03  0.00000000000E+00 0. -1.
         11    1    3    3    0    0 -0.63418598429E+02 -0.26101621242E+02  0.18331381461E+03  0.19572217015E+03  0.00000000000E+00 0.  1.
</event>
<event>
 8    1  0.9181008E-006  0.9301212E+02  0.7561462E-02  0.1295717E+00
          2   -1    0    0  501    0  0.00000000000E+00  0.00000000000E+00  0.22407331247E+03  0.22407331247E+03  0.00000000000E+00 0.  1.
         -2   -1    0    0    0  501 -0.00000000000E+00 -0.00000000000E+00 -0.10269728046E+03  0.10269728046E+03  0.00000000000E+00 0. -1.
         23    2    1    2    0    0 -0.11970679008E+02 -0.24223724184E+02 -0.42782093840E+02  0.11862501923E+03  0.10729166633E+03 0.  0.
         23    2    1    2    0    0  0.11970679008E+02  0.24223724184E+02  0.16415812585E+03  0.20814557370E+03  0.12508638454E+03 0.  0.
          5    1    4    4  502    0  0.35098603850E+02  0.47706430458E+02  0.23896110601E+02  0.64002437463E+02  0.41800000000E+01 0. -1.
         -5    1    4    4    0  502 -0.23127924843E+02 -0.23482706275E+02  0.14026201525E+03  0.14414313623E+03  0.41800000000E+01 0. -1.
        -11    1    3    3    0    0 -0.46054861500E+02 -0.34816478336E+02  0.61475907715E+01  0.58060574436E+02  0.00000000000E+00 0.  1.
         11    1    3    3    0    0  0.34084182492E+02  0.10592754153E+02 -0.48929684612E+02  0.60564444791E+02  0.00000000000E+00 0. -1.
</event>
<event>
 8    1  0.9181008E-006  0.1383896E+03  0.7561462E-02  0.1215512E+00
          1   -1    0    0  501    0  0.00000000000E+00  0.00000000000E+00  0.71701954715E+03  0.71701954715E+03  0.00000000000E+00 0. -1.
         -1   -1    0    0    0  501 -0.00000000000E+00 -0.00000000000E+00 -0.55531814959E+02  0.55531814959E+02  0.00000000000E+00 0.  1.
         23    2    1    2    0    0  0.10896701294E+03 -0.61794812623E+02  0.10209472781E+03  0.18581048367E+03  0.91704926902E+02 0.  0.
         23    2    1    2    0    0 -0.10896701294E+03  0.61794812623E+02  0.55939300437E+03  0.58674087844E+03  0.12510761893E+03 0.  0.
          5    1    4    4  502    0 -0.42036679048E+02  0.29788530932E+02  0.45867442140E+03  0.46157787664E+03  0.41800000000E+01 0.  1.
         -5    1    4    4    0  502 -0.66930333888E+02  0.32006281691E+02  0.10071858298E+03  0.12516300180E+03  0.41800000000E+01 0.  1.
        -11    1    3    3    0    0  0.12083789355E+03 -0.42435525123E+02  0.10094573021E+03  0.16307240955E+03  0.00000000000E+00 0. -1.
         11    1    3    3    0    0 -0.11870880613E+02 -0.19359287500E+02  0.11489976086E+01  0.22738074117E+02  0.00000000000E+00 0.  1.
</event>
<event>
 8    1  0.9181008E-006  0.9338244E+02  0.7561462E-02  0.1294861E+00
          1   -1    0    0  501    0  0.00000000000E+00  0.00000000000E+00  0.10159165083E+04  0.10159165083E+04  0.00000000000E+00 0. -1.
         -1   -1    0    0    0  501 -0.00000000000E+00 -0.00000000000E+00 -0.13806351139E+02  0.13806351139E+02  0.00000000000E+00 0.  1.
         23    2    1    2    0    0  0.47937535261E+02  0.22285933301E+01  0.46735418539E+03  0.47843900554E+03  0.90448734145E+02 0.  0.
         23    2    1    2    0    0 -0.47937535261E+02 -0.22285933301E+01  0.53475597180E+03  0.55128385392E+03  0.12508782637E+03 0.  0.
          5    1    4    4  502    0 -0.56352729430E+02  0.22333764222E+02  0.51453528224E+03  0.51811046718E+03  0.41800000000E+01 0. -1.
         -5    1    4    4    0  502  0.84151941686E+01 -0.24562357552E+02  0.20220689563E+02  0.33173386740E+02  0.41800000000E+01 0. -1.
        -11    1    3    3    0    0  0.40899417368E+02 -0.39813907083E+02  0.31967504141E+03  0.32473072174E+03  0.00000000000E+00 0. -1.
         11    1    3    3    0    0  0.70381178930E+01  0.42042500413E+02  0.14767914397E+03  0.15370828380E+03  0.00000000000E+00 0.  1.
</event>
<event>
 8    1  0.9181008E-006  0.1750095E+03  0.7561462E-02  0.1172722E+00
          2   -1    0    0  501    0  0.00000000000E+00  0.00000000000E+00  0.16662037762E+04  0.16662037762E+04  0.00000000000E+00 0.  1.
         -2   -1    0    0    0  501 -0.00000000000E+00 -0.00000000000E+00 -0.24148236290E+02  0.24148236290E+02  0.00000000000E+00 0. -1.
         23    2    1    2    0    0 -0.92019434095E+02 -0.13073920679E+03  0.56072974650E+03  0.59013665404E+03  0.91011567312E+02 0.  0.
         23    2    1    2    0    0  0.92019434095E+02  0.13073920679E+03  0.10813257934E+04  0.11002153585E+04  0.12509215418E+03 0.  0.
          5    1    4    4  502    0 -0.10241135782E+02  0.70732011001E+01  0.89455776983E+01  0.15887315577E+02  0.41800000000E+01 0.  1.
         -5    1    4    4    0  502  0.10226056988E+03  0.12366600569E+03  0.10723802157E+04  0.10843280429E+04  0.41800000000E+01 0.  1.
        -11    1    3    3    0    0 -0.21197209527E+00 -0.61185644765E+02  0.12123779623E+03  0.13580254523E+03  0.00000000000E+00 0.  1.
         11    1    3    3    0    0 -0.91807462000E+02 -0.69553562028E+02  0.43949195027E+03  0.45433410881E+03  0.00000000000E+00 0. -1.
</event>
<event>
 8    1  0.9181008E-006  0.1368894E+03  0.7561462E-02  0.1217577E+00
          2   -1    0    0  501    0  0.00000000000E+00  0.00000000000E+00  0.62739652218E+03  0.62739652218E+03  0.00000000000E+00 0.  1.
         -2   -1    0    0    0  501 -0.00000000000E+00 -0.00000000000E+00 -0.41020467540E+02  0.41020467540E+02  0.00000000000E+00 0. -1.
         23    2    1    2    0    0  0.85400895724E+02 -0.22696452563E+02  0.10864592864E+03  0.16673800075E+03  0.90494094463E+02 0.  0.
         23    2    1    2    0    0 -0.85400895724E+02  0.22696452563E+02  0.47773012600E+03  0.50167898898E+03  0.12508913919E+03 0.  0.
          5    1    4    4  502    0  0.63829125095E+01 -0.37098451770E+02  0.71431286833E+02  0.80851331680E+02  0.41800000000E+01 0.  1.
         -5    1    4    4    0  502 -0.91783808233E+02  0.59794904333E+02  0.40629883917E+03  0.42082765730E+03  0.41800000000E+01 0.  1.
        -11    1    3    3    0    0 -0.10928675341E+02 -0.27744532823E+02  0.21756912823E+02  0.36912847382E+02  0.00000000000E+00 0.  1.
         11    1    3    3    0    0  0.96329571064E+02  0.50480802597E+01  0.86889015819E+02  0.12982515336E+03  0.00000000000E+00 0. -1.
</event>
<event>
 8    1  0.9181008E-006  0.2019229E+03  0.7561462E-02  0.1148127E+00
         -2   -1    0    0    0  501 -0.00000000000E+00  0.00000000000E+00  0.26219354272E+03  0.26219354272E+03  0.00000000000E+00 0.  1.
          2   -1    0    0  501    0  0.00000000000E+00 -0.00000000000E+00 -0.18044547509E+03  0.18044547509E+03  0.00000000000E+00 0. -1.
         23    2    1    2    0    0  0.98362913517E+02  0.15732308832E+03  0.78721515412E+02  0.21884696036E+03  0.85270734706E+02 0.  0.
         23    2    1    2    0    0 -0.98362913517E+02 -0.15732308832E+03  0.30265522171E+01  0.22379205744E+03  0.12509159877E+03 0.  0.
          5    1    4    4  502    0 -0.10881012808E+03 -0.16778938047E+03  0.19847440168E+02  0.20100824225E+03  0.41800000000E+01 0. -1.
         -5    1    4    4    0  502  0.10447214561E+02  0.10466292149E+02 -0.16820887951E+02  0.22783815196E+02  0.41800000000E+01 0. -1.
        -11    1    3    3    0    0  0.58134360499E+02  0.12104749231E+03  0.92369465383E+02  0.16298532879E+03  0.00000000000E+00 0.  1.
         11    1    3    3    0    0  0.40228553018E+02  0.36275596012E+02 -0.13647949971E+02  0.55861631576E+02  0.00000000000E+00 0. -1.
</event>
<event>
 8    1  0.9181008E-006  0.1689996E+03  0.7561462E-02  0.1178895E+00
         -4   -1    0    0    0  501 -0.00000000000E+00  0.00000000000E+00  0.31101293090E+03  0.31101293090E+03  0.00000000000E+00 0.  1.
          4   -1    0    0  501    0  0.00000000000E+00 -0.00000000000E+00 -0.13818135868E+03  0.13818135868E+03  0.00000000000E+00 0. -1.
         23    2    1    2    0    0  0.57468730372E+02  0.14643520127E+03 -0.28933050538E+01  0.18222499099E+03  0.91932872175E+02 0.  0.
         23    2    1    2    0    0 -0.57468730372E+02 -0.14643520127E+03  0.17572487727E+03  0.26696929859E+03  0.12508977080E+03 0.  0.
          5    1    4    4  502    0 -0.33176026565E+02 -0.14878742614E+03  0.88544109560E+02  0.17634023549E+03  0.41800000000E+01 0. -1.
         -5    1    4    4    0  502 -0.24292703807E+02  0.23522248731E+01  0.87180767708E+02  0.90629063099E+02  0.41800000000E+01 0. -1.
        -11    1    3    3    0    0  0.15211396932E+02  0.83881480893E+02  0.41325638364E+02  0.94738048426E+02  0.00000000000E+00 0.  1.
         11    1    3    3    0    0  0.42257333440E+02  0.62553720375E+02 -0.44218943418E+02  0.87486942564E+02  0.00000000000E+00 0. -1.
</event>
<event>
 8    1  0.9181008E-006  0.8980979E+02  0.7561462E-02  0.1303313E+00
          2   -1    0    0  501    0  0.00000000000E+00  0.00000000000E+00  0.29862140879E+03  0.29862140879E+03  0.00000000000E+00 0. -1.
         -2   -1    0    0    0  501 -0.00000000000E+00 -0.00000000000E+00 -0.54408023247E+02  0.54408023247E+02  0.00000000000E+00 0.  1.
         23    2    1    2    0    0 -0.55557868724E+02  0.21520404270E+02  0.44471574488E+02  0.10993947771E+03  0.80988661205E+02 0.  0.
         23    2    1    2    0    0  0.55557868724E+02 -0.21520404270E+02  0.19974181105E+03  0.24308995433E+03  0.12508449238E+03 0.  0.
          5    1    4    4  502    0  0.74666068995E+02  0.48511179454E+01  0.50712012275E+02  0.90486108290E+02  0.41800000000E+01 0. -1.
         -5    1    4    4    0  502 -0.19108200271E+02 -0.26371522215E+02  0.14902979878E+03  0.15260384604E+03  0.41800000000E+01 0. -1.
        -11    1    3    3    0    0 -0.15515830169E+02 -0.12008271828E+02 -0.19293347023E+02  0.27516773384E+02  0.00000000000E+00 0.  1.
         11    1    3    3    0    0 -0.40042038555E+02  0.33528676098E+02  0.63764921511E+02  0.82422704322E+02  0.00000000000E+00 0. -1.
</event>
<event>
 8    1  0.9181008E-006  0.9287382E+02  0.7561462E-02  0.1296038E+00
          3   -1    0    0  501    0  0.00000000000E+00  0.00000000000E+00  0.48391680089E+03  0.48391680089E+03  0.00000000000E+00 0. -1.
         -3   -1    0    0    0  501 -0.00000000000E+00 -0.00000000000E+00 -0.28414958289E+02  0.28414958289E+02  0.00000000000E+00 0.  1.
         23    2    1    2    0    0 -0.27786309611E+02  0.29367091406E+02  0.15609450121E+03  0.18533507968E+03  0.91373373536E+02 0.  0.
         23    2    1    2    0    0  0.27786309611E+02 -0.29367091406E+02  0.29940734139E+03  0.32699667950E+03  0.12509023650E+03 0.  0.
          5    1    4    4  502    0 -0.44132765221E+02  0.75546873176E+01  0.15563043688E+03  0.16199715908E+03  0.41800000000E+01 0. -1.
         -5    1    4    4    0  502  0.71919074832E+02 -0.36921778723E+02  0.14377690450E+03  0.16499952042E+03  0.41800000000E+01 0. -1.
        -11    1    3    3    0    0  0.67950403269E+00  0.31289350730E+02  0.51496726016E+01  0.31717571199E+02  0.00000000000E+00 0.  1.
         11    1    3    3    0    0 -0.28465813644E+02 -0.19222593241E+01  0.15094482861E+03  0.15361750848E+03  0.00000000000E+00 0. -1.
</event>
<event>
 8    1  0.9181008E-006  0.1220599E+03  0.7561462E-02  0.1239737E+00
          2   -1    0    0  501    0  0.00000000000E+00  0.00000000000E+00  0.14124315032E+03  0.14124315032E+03  0.00000000000E+00 0. -1.
         -2   -1    0    0    0  501 -0.00000000000E+00 -0.00000000000E+00 -0.11913133915E+03  0.11913133915E+03  0.00000000000E+00 0.  1.
         23    2    1    2    0    0  0.53775729632E+02 -0.37060937470E+02 -0.10747724740E+02  0.11548642300E+03  0.94637509091E+02 0.  0.
         23    2    1    2    0    0 -0.53775729632E+02  0.37060937470E+02  0.32859535912E+02  0.14488806647E+03  0.12508980983E+03 0.  0.
          5    1    4    4  502    0 -0.77823344257E+01 -0.41559003204E+02  0.32852242693E+02  0.53707147815E+02  0.41800000000E+01 0. -1.
         -5    1    4    4    0  502 -0.45993395206E+02  0.78619940675E+02  0.72932195817E-02  0.91180918659E+02  0.41800000000E+01 0. -1.
        -11    1    3    3    0    0  0.78761123836E+02 -0.31676433574E+02  0.57148042273E+01  0.85084487771E+02  0.00000000000E+00 0.  1.
         11    1    3    3    0    0 -0.24985394204E+02 -0.53845038966E+01 -0.16462528967E+02  0.30401935230E+02  0.00000000000E+00 0. -1.
</event>
<event>
 8    1  0.9181008E-006  0.8855257E+02  0.7561462E-02  0.1306395E+00
          2   -1    0    0  501    0  0.00000000000E+00  0.00000000000E+00  0.21277394402E+03  0.21277394402E+03  0.00000000000E+00 0. -1.
         -2   -1    0    0    0  501 -0.00000000000E+00 -0.00000000000E+00 -0.61319021210E+02  0.61319021210E+02  0.00000000000E+00 0.  1.
         23    2    1    2    0    0 -0.17151170639E+02  0.27264968076E+02  0.31720645461E+02  0.97969520140E+02  0.86915397886E+02 0.  0.
         23    2    1    2    0    0  0.17151170639E+02 -0.27264968076E+02  0.11973427735E+03  0.17612344509E+03  0.12508249118E+03 0.  0.
          5    1    4    4  502    0  0.40374678359E+02  0.37846368830E+02  0.31020868530E+02  0.63578526018E+02  0.41800000000E+01 0. -1.
         -5    1    4    4    0  502 -0.23223507720E+02 -0.65111336906E+02  0.88713408822E+02  0.11254491907E+03  0.41800000000E+01 0. -1.
        -11    1    3    3    0    0  0.71119183236E+01  0.27174243745E+02 -0.24158951398E+02  0.37049613197E+02  0.00000000000E+00 0.  1.
         11    1    3    3    0    0 -0.24263088963E+02  0.90724330746E-01  0.55879596859E+02  0.60919906944E+02  0.00000000000E+00 0. -1.
</event>
<event>
 8    1  0.9181008E-006  0.1887487E+03  0.7561462E-02  0.1159595E+00
          1   -1    0    0  501    0  0.00000000000E+00  0.00000000000E+00  0.21805698447E+03  0.21805698447E+03  0.00000000000E+00 0. -1.
         -1   -1    0    0    0  501 -0.00000000000E+00 -0.00000000000E+00 -0.20150468478E+03  0.20150468478E+03  0.00000000000E+00 0.  1.
         23    2    1    2    0    0 -0.82648557005E+02  0.15341524058E+03 -0.34846093574E+02  0.19898358776E+03  0.89516467442E+02 0.  0.
         23    2    1    2    0    0  0.82648557005E+02 -0.15341524058E+03  0.51398393257E+02  0.22057808149E+03  0.12508347287E+03 0.  0.
          5    1    4    4  502    0  0.47121137368E+02 -0.15899284948E+03  0.10875175787E+02  0.16623738936E+03  0.41800000000E+01 0.  1.
         -5    1    4    4    0  502  0.35527419637E+02  0.55776088946E+01  0.40523217470E+02  0.54340692130E+02  0.41800000000E+01 0.  1.
        -11    1    3    3    0    0 -0.60470736851E+02  0.12873720194E+03  0.10699642973E+02  0.14263400555E+03  0.00000000000E+00 0. -1.
         11    1    3    3    0    0 -0.22177820154E+02  0.24678038639E+02 -0.45545736547E+02  0.56349582212E+02  0.00000000000E+00 0.  1.
</event>
<event>
 7    1  0.9181008E-006  0.1511422E+03  0.7561462E-02  0.1199077E+00
         -1   -1    0    0    0  501 -0.00000000000E+00  0.00000000000E+00  0.27699947203E+03  0.27699947203E+03  0.00000000000E+00 0.  1.
          1   -1    0    0  501    0  0.00000000000E+00 -0.00000000000E+00 -0.28826739597E+03  0.28826739597E+03  0.00000000000E+00 0. -1.
         23    2    1    2    0    0  0.37600532516E+02  0.56920253166E+01  0.12747586775E+03  0.16197161829E+03  0.92404053346E+02 0.  0.
          5    1    1    2  502    0  0.49035694840E+02 -0.89244635374E+02 -0.23041091494E+03  0.25194397479E+03  0.41800000000E+01 0. -1.
         -5    1    1    2    0  502 -0.86636227355E+02  0.83552610057E+02  0.91667123244E+02  0.15135127493E+03  0.41800000000E+01 0.  1.
        -11    1    3    3    0    0  0.21893006164E+02  0.38088493045E+02  0.11622526221E+03  0.12425115129E+03  0.00000000000E+00 0.  1.
         11    1    3    3    0    0  0.15707526351E+02 -0.32396467728E+02  0.11250605535E+02  0.37720466994E+02  0.00000000000E+00 0. -1.
</event>
<event>
 8    1  0.9181008E-006  0.8680382E+02  0.7561462E-02  0.1310782E+00
         -1   -1    0    0    0  501 -0.00000000000E+00  0.00000000000E+00  0.15840952820E+02  0.15840952820E+02  0.00000000000E+00 0.  1.
          1   -1    0    0  501    0  0.00000000000E+00 -0.00000000000E+00 -0.80508466479E+03  0.80508466479E+03  0.00000000000E+00 0. -1.
         23    2    1    2    0    0 -0.27744834348E+02 -0.18218626489E+02 -0.32112052202E+03  0.33524217261E+03  0.90372730678E+02 0.  0.
         23    2    1    2    0    0  0.27744834348E+02  0.18218626489E+02 -0.46812318995E+03  0.48568344500E+03  0.12508954230E+03 0.  0.
          5    1    4    4  502    0  0.52788732042E+02  0.19105313784E+02 -0.45222037127E+03  0.45571087307E+03  0.41800000000E+01 0. -1.
         -5    1    4    4    0  502 -0.25043897694E+02 -0.88668729458E+00 -0.15902818684E+02  0.29972571931E+02  0.41800000000E+01 0. -1.
        -11    1    3    3    0    0  0.14682133111E+02  0.26480469701E+02 -0.15784821208E+03  0.16072597290E+03  0.00000000000E+00 0. -1.
         11    1    3    3    0    0 -0.42426967458E+02 -0.44699096190E+02 -0.16327230994E+03  0.17451619971E+03  0.00000000000E+00 0.  1.
</event>
<event>
 8    1  0.9181008E-006  0.1489004E+03  0.7561462E-02  0.1201831E+00
          2   -1    0    0  501    0  0.00000000000E+00  0.00000000000E+00  0.12915081351E+03  0.12915081351E+03  0.00000000000E+00 0. -1.
         -2   -1    0    0    0  501 -0.00000000000E+00 -0.00000000000E+00 -0.21238825729E+03  0.21238825729E+03  0.00000000000E+00 0.  1.
         23    2    1    2    0    0 -0.62163043268E+02  0.92878633143E+02 -0.96026334476E+02  0.17329264068E+03  0.91206348227E+02 0.  0.
         23    2    1    2    0    0  0.62163043268E+02 -0.92878633143E+02  0.12788890696E+02  0.16824643012E+03  0.12511043554E+03 0.  0.
          5    1    4    4  502    0  0.90489319745E+02 -0.92215005518E+02  0.32734102515E+02  0.13334510901E+03  0.41800000000E+01 0. -1.
         -5    1    4    4    0  502 -0.28326276477E+02 -0.66362762473E+00 -0.19945211819E+02  0.34901321109E+02  0.41800000000E+01 0. -1.
        -11    1    3    3    0    0  0.14711835209E+02  0.49470228224E+02 -0.15731507389E+02  0.53955740200E+02  0.00000000000E+00 0. -1.
         11    1    3    3    0    0 -0.76874878477E+02  0.43408404918E+02 -0.80294827087E+02  0.11933690048E+03  0.00000000000E+00 0.  1.
</event>
<event>
 8    1  0.9181008E-006  0.6183877E+02  0.7561462E-02  0.1390273E+00
         -2   -1    0    0    0  501 -0.00000000000E+00  0.00000000000E+00  0.21007477367E+02  0.21007477367E+02  0.00000000000E+00 0.  1.
          2   -1    0    0  501    0  0.00000000000E+00 -0.00000000000E+00 -0.64923931995E+03  0.64923931995E+03  0.00000000000E+00 0. -1.
         23    2    1    2    0    0 -0.35748274620E+02 -0.14615612561E+02 -0.22555879458E+03  0.24682388868E+03  0.92486252717E+02 0.  0.
         23    2    1    2    0    0  0.35748274620E+02  0.14615612561E+02 -0.40267304800E+03  0.42342290863E+03  0.12509924341E+03 0.  0.
          5    1    4    4  502    0  0.13523409554E+01  0.92140431593E+01  0.69194331438E+01  0.12332006018E+02  0.41800000000E+01 0.  1.
         -5    1    4    4    0  502  0.34395933665E+02  0.54015694017E+01 -0.40959248114E+03  0.41109090262E+03  0.41800000000E+01 0.  1.
        -11    1    3    3    0    0 -0.81938115346E+01  0.27153671104E+02 -0.18638187298E+02  0.33938804158E+02  0.00000000000E+00 0.  1.
         11    1    3    3    0    0 -0.27554463086E+02 -0.41769283665E+02 -0.20692060729E+03  0.21288508452E+03  0.00000000000E+00 0. -1.
</event>
<event>
 8    1  0.9181008E-006  0.6767607E+02  0.7561462E-02  0.1368179E+00
          3   -1    0    0  501    0  0.00000000000E+00  0.00000000000E+00  0.36449286201E+02  0.36449286201E+02  0.00000000000E+00 0. -1.
         -3   -1    0    0    0  501 -0.00000000000E+00 -0.00000000000E+00 -0.33580817962E+03  0.33580817962E+03  0.00000000000E+00 0.  1.
         23    2    1    2    0    0 -0.16152707303E+02 -0.53657882940E+01 -0.15866601414E+03  0.18323083720E+03  0.90049619777E+02 0.  0.
         23    2    1    2    0    0  0.16152707303E+02  0.53657882940E+01 -0.14069287927E+03  0.18902662861E+03  0.12508748302E+03 0.  0.
          5    1    4    4  502    0 -0.32389049345E+02  0.15352720069E+02 -0.13408386056E+03  0.13885499845E+03  0.41800000000E+01 0.  1.
         -5    1    4    4    0  502  0.48541756648E+02 -0.99869317754E+01 -0.66090187096E+01  0.50171630161E+02  0.41800000000E+01 0.  1.
        -11    1    3    3    0    0 -0.15839780097E+02 -0.25162038180E+02 -0.16060814750E+03  0.16333708655E+03  0.00000000000E+00 0.  1.
         11    1    3    3    0    0 -0.31292720601E+00  0.19796249886E+02  0.19421333633E+01  0.19893750652E+02  0.00000000000E+00 0. -1.
</event>
<event>
 8    1  0.9181008E-006  0.1330250E+03  0.7561462E-02  0.1223035E+00
          2   -1    0    0  501    0  0.00000000000E+00  0.00000000000E+00  0.45546080096E+03  0.45546080096E+03  0.00000000000E+00 0. -1.
         -2   -1    0    0    0  501 -0.00000000000E+00 -0.00000000000E+00 -0.70041958895E+02  0.70041958895E+02  0.00000000000E+00 0.  1.
         23    2    1    2    0    0 -0.81142627161E+02  0.56809309974E+02  0.30584317567E+02  0.13644408858E+03  0.88713951474E+02 0.  0.
         23    2    1    2    0    0  0.81142627161E+02 -0.56809309974E+02  0.35483452450E+03  0.38905867127E+03  0.12509071218E+03 0.  0.
          5    1    4    4  502    0 -0.24079990758E+02 -0.43904759906E+02  0.15298136276E+03  0.16102249423E+03  0.41800000000E+01 0. -1.
         -5    1    4    4    0  502  0.10522261792E+03 -0.12904550068E+02  0.20185316174E+03  0.22803617704E+03  0.41800000000E+01 0. -1.
        -11    1    3    3    0    0 -0.53501233278E+02  0.61669231012E+02  0.55658194517E+02  0.98809466311E+02  0.00000000000E+00 0. -1.
         11    1    3    3    0    0 -0.27641393883E+02 -0.48599210379E+01 -0.25073876950E+02  0.37634622273E+02  0.00000000000E+00 0.  1.
</event>
<event>
 8    1  0.9181008E-006  0.1715331E+03  0.7561462E-02  0.1176258E+00
         -2   -1    0    0    0  501 -0.00000000000E+00  0.00000000000E+00  0.45799932234E+02  0.45799932234E+02  0.00000000000E+00 0.  1.
          2   -1    0    0  501    0  0.00000000000E+00 -0.00000000000E+00 -0.73952772333E+03  0.73952772333E+03  0.00000000000E+00 0. -1.
         23    2    1    2    0    0 -0.32546983661E+02  0.14181633546E+03 -0.26924730814E+03  0.31949460514E+03  0.91714288019E+02 0.  0.
         23    2    1    2    0    0  0.32546983661E+02 -0.14181633546E+03 -0.42448048296E+03  0.46583305042E+03  0.12508225817E+03 0.  0.
          5    1    4    4  502    0  0.76852677602E+02 -0.71642100848E+02 -0.19136893965E+03  0.21835399728E+03  0.41800000000E+01 0. -1.
         -5    1    4    4    0  502 -0.44305693941E+02 -0.70174234607E+02 -0.23311154331E+03  0.24747905314E+03  0.41800000000E+01 0. -1.
        -11    1    3    3    0    0 -0.42367167105E+02  0.66379537342E+02 -0.66931277534E+02  0.10334899970E+03  0.00000000000E+00 0.  1.
         11    1    3    3    0    0  0.98201834444E+01  0.75436798113E+02 -0.20231603061E+03  0.21614560545E+03  0.00000000000E+00 0. -1.
</event>
<event>
 8    1  0.9181008E-006  0.1244296E+03  0.7561462E-02  0.1235963E+00
          1   -1    0    0  501    0  0.00000000000E+00  0.00000000000E+00  0.12249941942E+04  0.12249941942E+04  0.00000000000E+00 0. -1.
         -1   -1    0    0    0  501 -0.00000000000E+00 -0.00000000000E+00 -0.16158190813E+02  0.16158190813E+02  0.00000000000E+00 0.  1.
         23    2    1    2    0    0 -0.61808559986E+02 -0.71070234117E+01  0.26459715306E+03  0.28663395406E+03  0.90975614010E+02 0.  0.
         23    2    1    2    0    0  0.61808559986E+02  0.71070234117E+01  0.94423885033E+03  0.95451843095E+03  0.12509045003E+03 0.  0.
          5    1    4    4  502    0 -0.31874552065E+02 -0.24282750006E+02  0.31253880747E+03  0.31512476512E+03  0.41800000000E+01 0.  1.
         -5    1    4    4    0  502  0.93683112050E+02  0.31389773417E+02  0.63170004286E+03  0.63939366583E+03  0.41800000000E+01 0.  1.
        -11    1    3    3    0    0 -0.80097527749E+02  0.14471799924E+02  0.20808686878E+03  0.22343945915E+03  0.00000000000E+00 0.  1.
         11    1    3    3    0    0  0.18288967763E+02 -0.21578823335E+02  0.56510284280E+02  0.63194494917E+02  0.00000000000E+00 0. -1.
</event>
<event>
 8    1  0.9181008E-006  0.1628209E+03  0.7561462E-02  0.1185548E+00
          2   -1    0    0  501    0  0.00000000000E+00  0.00000000000E+00  0.40384915714E+03  0.40384915714E+03  0.00000000000E+00 0. -1.
         -2   -1    0    0    0  501 -0.00000000000E+00 -0.00000000000E+00 -0.13749050476E+03  0.13749050476E+03  0.00000000000E+00 0.  1.
         23    2    1    2    0    0  0.10836204439E+03  0.88761173893E+02 -0.50645528253E+02  0.17288291028E+03  0.87764756477E+02 0.  0.
         23    2    1    2    0    0 -0.10836204439E+03 -0.88761173893E+02  0.31700418063E+03  0.36845675161E+03  0.12509136108E+03 0.  0.
          5    1    4    4  502    0 -0.20990011858E+00 -0.53335132438E+02  0.19218174879E+03  0.19948929139E+03  0.41800000000E+01 0. -1.
         -5    1    4    4    0  502 -0.10815214427E+03 -0.35426041455E+02  0.12482243184E+03  0.16896746022E+03  0.41800000000E+01 0. -1.
        -11    1    3    3    0    0  0.99777892888E+00 -0.11391110344E+02  0.88522750365E+01  0.14460834380E+02  0.00000000000E+00 0. -1.
         11    1    3    3    0    0  0.10736426546E+03  0.10015228424E+03 -0.59497803289E+02  0.15842207590E+03  0.00000000000E+00 0.  1.
</event>
<event>
 8    1  0.9181008E-006  0.1140175E+03  0.7561462E-02  0.1253306E+00
         -2   -1    0    0    0  501 -0.00000000000E+00  0.00000000000E+00  0.42254297294E+02  0.42254297294E+02  0.00000000000E+00 0.  1.
          2   -1    0    0  501    0  0.00000000000E+00 -0.00000000000E+00 -0.36983148287E+03  0.36983148287E+03  0.00000000000E+00 0. -1.
         23    2    1    2    0    0 -0.37337431145E+02  0.16762974779E+02 -0.67740543829E+02  0.12081530712E+03  0.91282397357E+02 0.  0.
         23    2    1    2    0    0  0.37337431145E+02 -0.16762974779E+02 -0.25983664174E+03  0.29127047305E+03  0.12509327315E+03 0.  0.
          5    1    4    4  502    0 -0.40394075564E+02 -0.32097227086E+02 -0.90208664860E+02  0.10400475442E+03  0.41800000000E+01 0.  1.
         -5    1    4    4    0  502  0.77731506708E+02  0.15334252307E+02 -0.16962797688E+03  0.18726571862E+03  0.41800000000E+01 0.  1.
        -11    1    3    3    0    0 -0.60269788667E+02  0.33114232407E+02 -0.33542071655E+02  0.76511897015E+02  0.00000000000E+00 0. -1.
         11    1    3    3    0    0  0.22932357522E+02 -0.16351257628E+02 -0.34198472173E+02  0.44303410101E+02  0.00000000000E+00 0.  1.
</event>
<event>
 8    1  0.9181008E-006  0.9318375E+02  0.7561462E-02  0.1295320E+00
          1   -1    0    0  501    0  0.00000000000E+00  0.00000000000E+00  0.72728597491E+02  0.72728597491E+02  0.00000000000E+00 0.  1.
         -1   -1    0    0    0  501 -0.00000000000E+00 -0.00000000000E+00 -0.20142271262E+03  0.20142271262E+03  0.00000000000E+00 0. -1.
         23    2    1    2    0    0  0.39125252330E+02 -0.26390496019E+02 -0.85097088648E+02  0.13352905435E+03  0.91439872091E+02 0.  0.
         23    2    1    2    0    0 -0.39125252330E+02  0.26390496019E+02 -0.43597026479E+02  0.14062225576E+03  0.12508666775E+03 0.  0.
          5    1    4    4  502    0 -0.78804302046E+02  0.40927898943E+02 -0.16976470411E+02  0.90503502034E+02  0.41800000000E+01 0.  1.
         -5    1    4    4    0  502  0.39679049716E+02 -0.14537402924E+02 -0.26620556068E+02  0.50118753730E+02  0.41800000000E+01 0.  1.
        -11    1    3    3    0    0  0.13119063381E+02  0.51788613789E+01  0.17852623466E+02  0.22751848140E+02  0.00000000000E+00 0.  1.
         11    1    3    3    0    0  0.26006188949E+02 -0.31569357398E+02 -0.10294971211E+03  0.11077720621E+03  0.00000000000E+00 0. -1.
</event>
<event>
 8    1  0.9181008E-006  0.1526588E+03  0.7561462E-02  0.1197243E+00
         -3   -1    0    0    0  501 -0.00000000000E+00  0.00000000000E+00  0.16043802219E+03  0.16043802219E+03  0.00000000000E+00 0.  1.
          3   -1    0    0  501    0  0.00000000000E+00 -0.00000000000E+00 -0.21025396722E+03  0.21025396722E+03  0.00000000000E+00 0. -1.
         23    2    1    2    0    0 -0.12839951298E+03  0.64667026303E+02  0.12059455325E+02  0.17034156205E+03  0.90567974886E+02 0.  0.
         23    2    1    2    0    0  0.12839951298E+03 -0.64667026303E+02 -0.61875400355E+02  0.20035042736E+03  0.12507385558E+03 0.  0.
          5    1    4    4  502    0  0.13338592370E+00 -0.12966979553E+02  0.30898062848E+02  0.33768669478E+02  0.41800000000E+01 0. -1.
         -5    1    4    4    0  502  0.12826612705E+03 -0.51700046751E+02 -0.92773463203E+02  0.16658175788E+03  0.41800000000E+01 0. -1.
        -11    1    3    3    0    0 -0.77345166165E+02  0.66856057079E+02 -0.27325683421E+02  0.10582391068E+03  0.00000000000E+00 0. -1.
         11    1    3    3    0    0 -0.51054346813E+02 -0.21890307758E+01  0.39385138746E+02  0.64517651370E+02  0.00000000000E+00 0.  1.
</event>
<event>
 8    1  0.9181008E-006  0.1136233E+03  0.7561462E-02  0.1254003E+00
          2   -1    0    0  501    0  0.00000000000E+00  0.00000000000E+00  0.22849919790E+03  0.22849919790E+03  0.00000000000E+00 0. -1.
         -2   -1    0    0    0  501 -0.00000000000E+00 -0.00000000000E+00 -0.59716566363E+02  0.59716566363E+02  0.00000000000E+00 0.  1.
         23    2    1    2    0    0 -0.11105142809E+02  0.23610889301E+02  0.43433357070E+02  0.10921827569E+03  0.96754208938E+02 0.  0.
         23    2    1    2    0    0  0.11105142809E+02 -0.23610889301E+02  0.12534927446E+03  0.17899748857E+03  0.12508741750E+03 0.  0.
          5    1    4    4  502    0  0.58405546241E+02  0.20956816672E+02  0.68859904573E+02  0.92787686977E+02  0.41800000000E+01 0.  1.
         -5    1    4    4    0  502 -0.47300403432E+02 -0.44567705973E+02  0.56489369891E+02  0.86209801596E+02  0.41800000000E+01 0.  1.
        -11    1    3    3    0    0  0.42942670737E+02  0.12829815795E+02  0.15435661557E+02  0.47401864848E+02  0.00000000000E+00 0.  1.
         11    1    3    3    0    0 -0.54047813546E+02  0.10781073506E+02  0.27997695513E+02  0.61816410839E+02  0.00000000000E+00 0. -1.
</event>
<event>
 8    1  0.9181008E-006  0.1781153E+03  0.7561462E-02  0.1169640E+00
         -1   -1    0    0    0  501 -0.00000000000E+00  0.00000000000E+00  0.51355640723E+02  0.51355640723E+02  0.00000000000E+00 0.  1.
          1   -1    0    0  501    0  0.00000000000E+00 -0.00000000000E+00 -0.63705026530E+03  0.63705026530E+03  0.00000000000E+00 0. -1.
         23    2    1    2    0    0  0.49798094117E+02  0.13461858430E+03 -0.26427944535E+03  0.31483202057E+03  0.93131962964E+02 0.  0.
         23    2    1    2    0    0 -0.49798094117E+02 -0.13461858430E+03 -0.32141517923E+03  0.37357388546E+03  0.12509083515E+03 0.  0.
          5    1    4    4  502    0  0.31639898955E+02 -0.46046347232E+01 -0.92628160549E+02  0.98080244665E+02  0.41800000000E+01 0.  1.
         -5    1    4    4    0  502 -0.81437993072E+02 -0.13001394957E+03 -0.22878701868E+03  0.27549364079E+03  0.41800000000E+01 0.  1.
        -11    1    3    3    0    0  0.72071121650E+02  0.63721686003E+02 -0.13607036917E+03  0.16664286726E+03  0.00000000000E+00 0.  1.
         11    1    3    3    0    0 -0.22273027534E+02  0.70896898295E+02 -0.12820907618E+03  0.14818915331E+03  0.00000000000E+00 0. -1.
</event>
<event>
 8    1  0.9181008E-006  0.9748336E+02  0.7561462E-02  0.1285679E+00
         -1   -1    0    0    0  501 -0.00000000000E+00  0.00000000000E+00  0.11002948536E+03  0.11002948536E+03  0.00000000000E+00 0.  1.
          1   -1    0    0  501    0  0.00000000000E+00 -0.00000000000E+00 -0.16052892292E+03  0.16052892292E+03  0.00000000000E+00 0. -1.
         23    2    1    2    0    0  0.59454434607E+02  0.40304464518E+02  0.17639310031E+01  0.11711183089E+03  0.92481294476E+02 0.  0.
         23    2    1    2    0    0 -0.59454434607E+02 -0.40304464518E+02 -0.52263368565E+02  0.15344657739E+03  0.12512039308E+03 0.  0.
          5    1    4    4  502    0  0.13866258215E+02 -0.28307624836E+02  0.29158893641E+02  0.43142881441E+02  0.41800000000E+01 0.  1.
         -5    1    4    4    0  502 -0.73320692822E+02 -0.11996839683E+02 -0.81422262205E+02  0.11030369595E+03  0.41800000000E+01 0.  1.
        -11    1    3    3    0    0  0.67599403624E+02  0.26259843569E+02  0.34697462730E+02  0.80393859682E+02  0.00000000000E+00 0.  1.
         11    1    3    3    0    0 -0.81449690174E+01  0.14044620949E+02 -0.32933531727E+02  0.36717971211E+02  0.00000000000E+00 0. -1.
</event>
<event>
 8    1  0.9181008E-006  0.1018501E+03  0.7561462E-02  0.1276453E+00
          2   -1    0    0  501    0  0.00000000000E+00  0.00000000000E+00  0.29959299770E+03  0.29959299770E+03  0.00000000000E+00 0.  1.
         -2   -1    0    0    0  501 -0.00000000000E+00 -0.00000000000E+00 -0.50593353653E+02  0.50593353653E+02  0.00000000000E+00 0. -1.
         23    2    1    2    0    0 -0.10495371971E+02 -0.21852578947E+02  0.10382063233E+03  0.15701999521E+03  0.11527734885E+03 0.  0.
         23    2    1    2    0    0  0.10495371971E+02  0.21852578947E+02  0.14517901172E+03  0.19316635614E+03  0.12509439501E+03 0.  0.
          5    1    4    4  502    0  0.63926622029E+02  0.27577767386E+02  0.58194424343E+02  0.90836169463E+02  0.41800000000E+01 0.  1.
         -5    1    4    4    0  502 -0.53431250057E+02 -0.57251884390E+01  0.86984587372E+02  0.10233018668E+03  0.41800000000E+01 0.  1.
        -11    1    3    3    0    0 -0.32091010815E+01 -0.50445345681E+02  0.15426574731E+01  0.50570851513E+02  0.00000000000E+00 0. -1.
         11    1    3    3    0    0 -0.72862708900E+01  0.28592766734E+02  0.10227797486E+03  0.10644914370E+03  0.00000000000E+00 0.  1.
</event>
<event>
 8    1  0.9181008E-006  0.1415147E+03  0.7561462E-02  0.1211305E+00
          2   -1    0    0  501    0  0.00000000000E+00  0.00000000000E+00  0.66965551441E+03  0.66965551441E+03  0.00000000000E+00 0. -1.
         -2   -1    0    0    0  501 -0.00000000000E+00 -0.00000000000E+00 -0.45271679060E+02  0.45271679060E+02  0.00000000000E+00 0.  1.
         23    2    1    2    0    0  0.11305488359E+03  0.11340692841E+00  0.13928954620E+03  0.20136926846E+03  0.91469038665E+02 0.  0.
         23    2    1    2    0    0 -0.11305488359E+03 -0.11340692841E+00  0.48509428915E+03  0.51355792501E+03  0.12507539090E+03 0.  0.
          5    1    4    4  502    0 -0.33121894022E+02 -0.55685554571E+02  0.12964106960E+03  0.14499041409E+03  0.41800000000E+01 0.  1.
         -5    1    4    4    0  502 -0.79932989571E+02  0.55572147643E+02  0.35545321955E+03  0.36856751092E+03  0.41800000000E+01 0.  1.
        -11    1    3    3    0    0  0.41553171195E+02 -0.20377703167E+02  0.33382406964E+01  0.46401084832E+02  0.00000000000E+00 0.  1.
         11    1    3    3    0    0  0.71501712398E+02  0.20491110095E+02  0.13595130550E+03  0.15496818363E+03  0.00000000000E+00 0. -1.
</event>
<event>
 8    1  0.9181008E-006  0.5134047E+02  0.7561462E-02  0.1438243E+00
         -1   -1    0    0    0  501 -0.00000000000E+00  0.00000000000E+00  0.62112520539E+02  0.62112520539E+02  0.00000000000E+00 0.  1.
          1   -1    0    0  501    0  0.00000000000E+00 -0.00000000000E+00 -0.24185278599E+03  0.24185278599E+03  0.00000000000E+00 0. -1.
         23    2    1    2    0    0 -0.28088304533E+02  0.16357854017E+02 -0.19602028829E+02  0.98182868605E+02  0.90548903438E+02 0.  0.
         23    2    1    2    0    0  0.28088304533E+02 -0.16357854017E+02 -0.16013823662E+03  0.20578243792E+03  0.12508247155E+03 0.  0.
          5    1    4    4  502    0  0.40713951566E+01 -0.18593631354E+02  0.17664592816E+02  0.26302274138E+02  0.41800000000E+01 0.  1.
         -5    1    4    4    0  502  0.24016909376E+02  0.22357773370E+01 -0.17780282944E+03  0.17948016378E+03  0.41800000000E+01 0.  1.
        -11    1    3    3    0    0 -0.38604331307E+02 -0.77277560088E+00  0.27210874997E+02  0.47236884909E+02  0.00000000000E+00 0.  1.
         11    1    3    3    0    0  0.10516026774E+02  0.17130629618E+02 -0.46812903826E+02  0.50945983697E+02  0.00000000000E+00 0. -1.
</event>
<event>
 8    1  0.9181008E-006  0.1163451E+03  0.7561462E-02  0.1249251E+00
          2   -1    0    0  501    0  0.00000000000E+00  0.00000000000E+00  0.65648894822E+03  0.65648894822E+03  0.00000000000E+00 0. -1.
         -2   -1    0    0    0  501 -0.00000000000E+00 -0.00000000000E+00 -0.68928111406E+02  0.68928111406E+02  0.00000000000E+00 0.  1.
         23    2    1    2    0    0  0.39223874817E+02 -0.17521762493E+02 -0.20952630696E+02  0.10269624847E+03  0.90895446535E+02 0.  0.
         23    2    1    2    0    0 -0.39223874817E+02  0.17521762493E+02  0.60851346751E+03  0.62272081115E+03  0.12508814486E+03 0.  0.
          5    1    4    4  502    0 -0.14587507274E+02 -0.54183674073E+02  0.25005683915E+03  0.25630950257E+03  0.41800000000E+01 0. -1.
         -5    1    4    4    0  502 -0.24636367543E+02  0.71705436566E+02  0.35845662836E+03  0.36641130858E+03  0.41800000000E+01 0. -1.
        -11    1    3    3    0    0  0.68972811019E+02 -0.15340411356E+02 -0.13262163769E+02  0.71892015331E+02  0.00000000000E+00 0. -1.
         11    1    3    3    0    0 -0.29748936202E+02 -0.21813511368E+01 -0.76904669266E+01  0.30804233143E+02  0.00000000000E+00 0.  1.
</event>
<event>
 8    1  0.9181008E-006  0.1402296E+03  0.7561462E-02  0.1213020E+00
         -4   -1    0    0    0  501 -0.00000000000E+00  0.00000000000E+00  0.42477038680E+02  0.42477038680E+02  0.00000000000E+00 0. -1.
          4   -1    0    0  501    0  0.00000000000E+00 -0.00000000000E+00 -0.67825914325E+03  0.67825914325E+03  0.00000000000E+00 0.  1.
         23    2    1    2    0    0 -0.49071449696E+01  0.89792650297E+02 -0.10813902035E+03  0.17106524177E+03  0.97377970302E+02 0.  0.
         23    2    1    2    0    0  0.49071449696E+01 -0.89792650297E+02 -0.52764308421E+03  0.54967094015E+03  0.12507644868E+03 0.  0.
          5    1    4    4  502    0 -0.56045463567E+02 -0.47765197691E+02 -0.18636992737E+03  0.20043410469E+03  0.41800000000E+01 0.  1.
         -5    1    4    4    0  502  0.60952608537E+02 -0.42027452606E+02 -0.34127315685E+03  0.34923683546E+03  0.41800000000E+01 0.  1.
        -11    1    3    3    0    0  0.16232398100E+02 -0.17103865336E+02 -0.18875144352E+02  0.30204371071E+02  0.00000000000E+00 0. -1.
         11    1    3    3    0    0 -0.21139543069E+02  0.10689651563E+03 -0.89263876001E+02  0.14086087070E+03  0.00000000000E+00 0.  1.
</event>
<event>
 8    1  0.9181008E-006  0.1107022E+03  0.7561462E-02  0.1259275E+00
          1   -1    0    0  501    0  0.00000000000E+00  0.00000000000E+00  0.12207457470E+03  0.12207457470E+03  0.00000000000E+00 0. -1.
         -1   -1    0    0    0  501 -0.00000000000E+00 -0.00000000000E+00 -0.11092396696E+03  0.11092396696E+03  0.00000000000E+00 0.  1.
         23    2    1    2    0    0  0.11172604449E+02  0.24118988542E+02 -0.28954665832E+02  0.98977741240E+02  0.90838691587E+02 0.  0.
         23    2    1    2    0    0 -0.11172604449E+02 -0.24118988542E+02  0.40105273571E+02  0.13402080041E+03  0.12508632730E+03 0.  0.
          5    1    4    4  502    0  0.12280357066E+02  0.49119936506E+02  0.13944462777E+02  0.52682974235E+02  0.41800000000E+01 0. -1.
         -5    1    4    4    0  502 -0.23452961515E+02 -0.73238925048E+02  0.26160810794E+02  0.81337826178E+02  0.41800000000E+01 0. -1.
        -11    1    3    3    0    0  0.50771406835E+02  0.15136042070E+02 -0.90147964214E+01  0.53741065082E+02  0.00000000000E+00 0. -1.
         11    1    3    3    0    0 -0.39598802387E+02  0.89829464711E+01 -0.19939869410E+02  0.45236676159E+02  0.00000000000E+00 0.  1.
</event>
<event>
 8    1  0.9181008E-006  0.1184041E+03  0.7561462E-02  0.1245753E+00
         -2   -1    0    0    0  501 -0.00000000000E+00  0.00000000000E+00  0.87339288571E+02  0.87339288571E+02  0.00000000000E+00 0.  1.
          2   -1    0    0  501    0  0.00000000000E+00 -0.00000000000E+00 -0.16685354305E+03  0.16685354305E+03  0.00000000000E+00 0. -1.
         23    2    1    2    0    0 -0.39601245781E+02  0.37150515651E+02 -0.24602634027E+02  0.10718683131E+03  0.89080344216E+02 0.  0.
         23    2    1    2    0    0  0.39601245781E+02 -0.37150515651E+02 -0.54911620456E+02  0.14700600031E+03  0.12508820322E+03 0.  0.
          5    1    4    4  502    0  0.60154169446E+02  0.26547472788E+02 -0.10870081687E+02  0.66775171202E+02  0.41800000000E+01 0. -1.
         -5    1    4    4    0  502 -0.20552923665E+02 -0.63697988439E+02 -0.44041538769E+02  0.80230829109E+02  0.41800000000E+01 0. -1.
        -11    1    3    3    0    0 -0.63499305645E+02  0.48538146023E+01 -0.10144196763E+02  0.64487410101E+02  0.00000000000E+00 0. -1.
         11    1    3    3    0    0  0.23898059864E+02  0.32296701048E+02 -0.14458437264E+02  0.42699421214E+02  0.00000000000E+00 0.  1.
</event>
<event>
 7    1  0.9181008E-006  0.3526142E+03  0.7561462E-02  0.1061547E+00
          2   -1    0    0  501    0  0.00000000000E+00  0.00000000000E+00  0.17752800439E+04  0.17752800439E+04  0.00000000000E+00 0. -1.
         -2   -1    0    0    0  501 -0.00000000000E+00 -0.00000000000E+00 -0.12976141932E+03  0.12976141932E+03  0.00000000000E+00 0.  1.
         23    2    1    2    0    0  0.24422215336E+01  0.14576395036E+02  0.10895953337E+03  0.14228684889E+03  0.90304660554E+02 0.  0.
          5    1    1    2  502    0 -0.59585061075E+02 -0.31038084562E+03  0.13940807190E+04  0.14294632462E+04  0.41800000000E+01 0. -1.
         -5    1    1    2    0  502  0.57142839541E+02  0.29580445059E+03  0.14247837220E+03  0.33329136809E+03  0.41800000000E+01 0.  1.
        -11    1    3    3    0    0 -0.32898808114E+02 -0.19923483779E+02  0.28467156538E+02  0.47850347779E+02  0.00000000000E+00 0.  1.
         11    1    3    3    0    0  0.35341029648E+02  0.34499878814E+02  0.80492376831E+02  0.94436501114E+02  0.00000000000E+00 0. -1.
</event>
<event>
 8    1  0.9181008E-006  0.2465158E+03  0.7561462E-02  0.1115527E+00
         -2   -1    0    0    0  501 -0.00000000000E+00  0.00000000000E+00  0.13571252295E+03  0.13571252295E+03  0.00000000000E+00 0.  1.
          2   -1    0    0  501    0  0.00000000000E+00 -0.00000000000E+00 -0.48765065566E+03  0.48765065566E+03  0.00000000000E+00 0. -1.
         23    2    1    2    0    0 -0.82641448962E+01 -0.22953892416E+03 -0.12520175182E+03  0.27722493574E+03  0.91770215998E+02 0.  0.
         23    2    1    2    0    0  0.82641448962E+01  0.22953892416E+03 -0.22673638089E+03  0.34613824288E+03  0.12508350398E+03 0.  0.
          5    1    4    4  502    0  0.46278717635E+02  0.18299670328E+03 -0.12040629506E+03  0.22393003685E+03  0.41800000000E+01 0. -1.
         -5    1    4    4    0  502 -0.38014572739E+02  0.46542220880E+02 -0.10633008584E+03  0.12220820602E+03  0.41800000000E+01 0. -1.
        -11    1    3    3    0    0  0.36666057925E+02 -0.12337538306E+03 -0.88669403824E+02  0.15629506750E+03  0.00000000000E+00 0. -1.
         11    1    3    3    0    0 -0.44930202821E+02 -0.10616354110E+03 -0.36532347994E+02  0.12092986825E+03  0.00000000000E+00 0.  1.
</event>
<event>
 8    1  0.9181008E-006  0.1079308E+03  0.7561462E-02  0.1264450E+00
          1   -1    0    0  501    0  0.00000000000E+00  0.00000000000E+00  0.51267059048E+02  0.51267059048E+02  0.00000000000E+00 0. -1.
         -1   -1    0    0    0  501 -0.00000000000E+00 -0.00000000000E+00 -0.34881184938E+03  0.34881184938E+03  0.00000000000E+00 0.  1.
         23    2    1    2    0    0  0.35021729712E+02 -0.28918725586E+02 -0.22714550391E+03  0.24952509539E+03  0.92762487243E+02 0.  0.
         23    2    1    2    0    0 -0.35021729712E+02  0.28918725586E+02 -0.70399286413E+02  0.15055381303E+03  0.12509027480E+03 0.  0.
          5    1    4    4  502    0 -0.74247304133E+02  0.22105446168E+02 -0.77769418719E+02  0.10984929590E+03  0.41800000000E+01 0.  1.
         -5    1    4    4    0  502  0.39225574421E+02  0.68132794181E+01  0.73701323058E+01  0.40704517136E+02  0.41800000000E+01 0.  1.
        -11    1    3    3    0    0  0.58412409613E+02 -0.41533902372E+02 -0.12612633699E+03  0.14506869933E+03  0.00000000000E+00 0.  1.
         11    1    3    3    0    0 -0.23390679901E+02  0.12615176785E+02 -0.10101916693E+03  0.10445639606E+03  0.00000000000E+00 0. -1.
</event>
<event>
 8    1  0.9181008E-006  0.9303695E+02  0.7561462E-02  0.1295660E+00
          2   -1    0    0  501    0  0.00000000000E+00  0.00000000000E+00  0.64697728056E+03  0.64697728056E+03  0.00000000000E+00 0. -1.
         -2   -1    0    0    0  501 -0.00000000000E+00 -0.00000000000E+00 -0.24337288707E+02  0.24337288707E+02  0.00000000000E+00 0.  1.
         23    2    1    2    0    0  0.28079313864E+02  0.51635712961E+02  0.21503757650E+03  0.24091637795E+03  0.91350134847E+02 0.  0.
         23    2    1    2    0    0 -0.28079313864E+02 -0.51635712961E+02  0.40760241535E+03  0.43039819132E+03  0.12509268311E+03 0.  0.
          5    1    4    4  502    0  0.86905996306E+01 -0.45372682300E+02  0.41087844568E+02  0.61966847526E+02  0.41800000000E+01 0.  1.
         -5    1    4    4    0  502 -0.36769913494E+02 -0.62630306607E+01  0.36651457078E+03  0.36843134379E+03  0.41800000000E+01 0.  1.
        -11    1    3    3    0    0  0.56540956838E+02  0.20939041667E+02  0.16503738537E+03  0.17570618042E+03  0.00000000000E+00 0. -1.
         11    1    3    3    0    0 -0.28461642975E+02  0.30696671294E+02  0.50000191132E+02  0.65210197535E+02  0.00000000000E+00 0.  1.
</event>
<event>
 8    1  0.9181008E-006  0.1567082E+03  0.7561462E-02  0.1192464E+00
          3   -1    0    0  501    0  0.00000000000E+00  0.00000000000E+00  0.87240212014E+02  0.87240212014E+02  0.00000000000E+00 0. -1.
         -3   -1    0    0    0  501 -0.00000000000E+00 -0.00000000000E+00 -0.34238742541E+03  0.34238742541E+03  0.00000000000E+00 0.  1.
         23    2    1    2    0    0 -0.11777759412E+03 -0.43900848295E+02 -0.18051684449E+03  0.23722698671E+03  0.88833923268E+02 0.  0.
         23    2    1    2    0    0  0.11777759412E+03  0.43900848295E+02 -0.74630368911E+02  0.19240065072E+03  0.12509785080E+03 0.  0.
          5    1    4    4  502    0  0.82282665438E+02 -0.23542282593E+02 -0.78176973482E+02  0.11599046376E+03  0.41800000000E+01 0.  1.
         -5    1    4    4    0  502  0.35494928680E+02  0.67443130888E+02  0.35466045716E+01  0.76410186952E+02  0.41800000000E+01 0.  1.
        -11    1    3    3    0    0  0.62075603302E+01 -0.25274719546E+02 -0.16641942651E+02  0.30891738516E+02  0.00000000000E+00 0. -1.
         11    1    3    3    0    0 -0.12398515445E+03 -0.18626128750E+02 -0.16387490184E+03  0.20633524820E+03  0.00000000000E+00 0.  1.
</event>
<event>
 8    1  0.9181008E-006  0.1445066E+03  0.7561462E-02  0.1207390E+00
         -1   -1    0    0    0  501 -0.00000000000E+00  0.00000000000E+00  0.67430810314E+02  0.67430810314E+02  0.00000000000E+00 0.  1.
          1   -1    0    0  501    0  0.00000000000E+00 -0.00000000000E+00 -0.33538940590E+03  0.33538940590E+03  0.00000000000E+00 0. -1.
         23    2    1    2    0    0  0.83036996923E+02 -0.62787900970E+02 -0.13720450684E+03  0.19405534258E+03  0.89414405550E+02 0.  0.
         23    2    1    2    0    0 -0.83036996923E+02  0.62787900970E+02 -0.13075408874E+03  0.20876487363E+03  0.12509467364E+03 0.  0.
          5    1    4    4  502    0 -0.10377067107E+03  0.21224261272E+02 -0.12146272352E+03  0.16121255238E+03  0.41800000000E+01 0.  1.
         -5    1    4    4    0  502  0.20733674148E+02  0.41563639698E+02 -0.92913652235E+01  0.47552321251E+02  0.41800000000E+01 0.  1.
        -11    1    3    3    0    0  0.35600078223E+02 -0.78670779616E+02 -0.97077549138E+02  0.12992500791E+03  0.00000000000E+00 0.  1.
         11    1    3    3    0    0  0.47436918700E+02  0.15882878646E+02 -0.40126957706E+02  0.64130334667E+02  0.00000000000E+00 0. -1.
</event>
<event>
 7    1  0.9181008E-006  0.2148737E+03  0.7561462E-02  0.1137764E+00
         -2   -1    0    0    0  501 -0.00000000000E+00  0.00000000000E+00  0.52836301850E+03  0.52836301850E+03  0.00000000000E+00 0.  1.
          2   -1    0    0  501    0  0.00000000000E+00 -0.00000000000E+00 -0.10350827265E+03  0.10350827265E+03  0.00000000000E+00 0. -1.
         23    2    1    2    0    0  0.72511518903E+02 -0.16509261309E+03  0.30421006901E+03  0.36931425105E+03  0.10646951993E+03 0.  0.
          5    1    1    2  502    0 -0.11443154085E+03  0.14588993527E+03  0.84417618772E+02  0.20377010948E+03  0.41800000000E+01 0. -1.
         -5    1    1    2    0  502  0.41920021952E+02  0.19202677819E+02  0.36227058073E+02  0.58786930627E+02  0.41800000000E+01 0.  1.
        -11    1    3    3    0    0  0.90733979016E+02 -0.14290776588E+03  0.29321597775E+03  0.33857184482E+03  0.00000000000E+00 0.  1.
         11    1    3    3    0    0 -0.18222460113E+02 -0.22184847213E+02  0.10994091259E+02  0.30742406234E+02  0.00000000000E+00 0. -1.
</event>
<event>
 8    1  0.9181008E-006  0.1220566E+03  0.7561462E-02  0.1239742E+00
          1   -1    0    0  501    0  0.00000000000E+00  0.00000000000E+00  0.36685117181E+03  0.36685117181E+03  0.00000000000E+00 0. -1.
         -1   -1    0    0    0  501 -0.00000000000E+00 -0.00000000000E+00 -0.63942436881E+02  0.63942436881E+02  0.00000000000E+00 0.  1.
         23    2    1    2    0    0 -0.37897734367E+02 -0.69843244549E+02  0.37543212200E+02  0.12685349824E+03  0.91476773857E+02 0.  0.
         23    2    1    2    0    0  0.37897734367E+02  0.69843244549E+02  0.26536552273E+03  0.30394011045E+03  0.12508562270E+03 0.  0.
          5    1    4    4  502    0  0.47777153877E+02 -0.52278147267E+01  0.19364112839E+03  0.19956038055E+03  0.41800000000E+01 0. -1.
         -5    1    4    4    0  502 -0.98794195107E+01  0.75071059276E+02  0.71724394337E+02  0.10437972990E+03  0.41800000000E+01 0. -1.
        -11    1    3    3    0    0  0.29580197459E+02 -0.27392919017E+02  0.45350950721E+01  0.40570028115E+02  0.00000000000E+00 0.  1.
         11    1    3    3    0    0 -0.67477931825E+02 -0.42450325533E+02  0.33008117127E+02  0.86283470129E+02  0.00000000000E+00 0. -1.
</event>
<event>
 8    1  0.9181008E-006  0.1029696E+03  0.7561462E-02  0.1274172E+00
          2   -1    0    0  501    0  0.00000000000E+00  0.00000000000E+00  0.41489661388E+02  0.41489661388E+02  0.00000000000E+00 0. -1.
         -2   -1    0    0    0  501 -0.00000000000E+00 -0.00000000000E+00 -0.33379007298E+03  0.33379007298E+03  0.00000000000E+00 0.  1.
         23    2    1    2    0    0  0.11066693443E+02 -0.28492178622E+02 -0.12606152352E+03  0.16500148676E+03  0.10197895360E+03 0.  0.
         23    2    1    2    0    0 -0.11066693443E+02  0.28492178622E+02 -0.16623888808E+03  0.21027824761E+03  0.12508915845E+03 0.  0.
          5    1    4    4  502    0 -0.50660712148E+02  0.58027884127E+02 -0.11889389430E+03  0.14172852074E+03  0.41800000000E+01 0.  1.
         -5    1    4    4    0  502  0.39594018705E+02 -0.29535705504E+02 -0.47344993784E+02  0.68549726865E+02  0.41800000000E+01 0.  1.
        -11    1    3    3    0    0  0.20150429168E+01  0.24943485947E+02  0.28249177269E+01  0.25183686174E+02  0.00000000000E+00 0. -1.
         11    1    3    3    0    0  0.90516505262E+01 -0.53435664569E+02 -0.12888644124E+03  0.13981780059E+03  0.00000000000E+00 0.  1.
</event>
<event>
 7    1  0.9181008E-006  0.1171693E+03  0.7561462E-02  0.1247841E+00
         -2   -1    0    0    0  501 -0.00000000000E+00  0.00000000000E+00  0.29592745645E+02  0.29592745645E+02  0.00000000000E+00 0.  1.
          2   -1    0    0  501    0  0.00000000000E+00 -0.00000000000E+00 -0.16930718482E+04  0.16930718482E+04  0.00000000000E+00 0. -1.
         23    2    1    2    0    0 -0.91183062486E+01  0.91769177306E+01 -0.75501515166E+02  0.12107805292E+03  0.93765968124E+02 0.  0.
          5    1    1    2  502    0 -0.77191511539E+02  0.55491406823E+01 -0.12508721997E+04  0.12532709423E+04  0.41800000000E+01 0. -1.
         -5    1    1    2    0  502  0.86309817788E+02 -0.14726058413E+02 -0.33710538775E+03  0.34831559869E+03  0.41800000000E+01 0.  1.
        -11    1    3    3    0    0 -0.35134993102E+02 -0.10373848579E+02  0.23382789475E+01  0.36709018280E+02  0.00000000000E+00 0. -1.
         11    1    3    3    0    0  0.26016686854E+02  0.19550766310E+02 -0.77839794113E+02  0.84369034638E+02  0.00000000000E+00 0.  1.
</event>
<event>
 8    1  0.9181008E-006  0.9961815E+02  0.7561462E-02  0.1281101E+00
         -3   -1    0    0    0  501 -0.00000000000E+00  0.00000000000E+00  0.34058717197E+02  0.34058717197E+02  0.00000000000E+00 0.  1.
          3   -1    0    0  501    0  0.00000000000E+00 -0.00000000000E+00 -0.45457066459E+03  0.45457066459E+03  0.00000000000E+00 0. -1.
         23    2    1    2    0    0 -0.25291740960E+02 -0.17887508454E+02 -0.85059740422E+02  0.13138337237E+03  0.95219724718E+02 0.  0.
         23    2    1    2    0    0  0.25291740960E+02  0.17887508454E+02 -0.33545220697E+03  0.35724600942E+03  0.11889866678E+03 0.  0.
          5    1    4    4  502    0  0.69209218498E+02  0.57732422903E+00 -0.25105088797E+03  0.26045012955E+03  0.41800000000E+01 0. -1.
         -5    1    4    4    0  502 -0.43917477538E+02  0.17310184225E+02 -0.84401319000E+02  0.96795879872E+02  0.41800000000E+01 0.  1.
        -11    1    3    3    0    0 -0.35775814766E+02 -0.42620091341E+02 -0.88253257907E+02  0.10433129271E+03  0.00000000000E+00 0.  1.
         11    1    3    3    0    0  0.10484073806E+02  0.24732582888E+02  0.31935174848E+01  0.27052079657E+02  0.00000000000E+00 0. -1.
</event>
<event>
 8    1  0.9181008E-006  0.1566541E+03  0.7561462E-02  0.1192527E+00
          2   -1    0    0  501    0  0.00000000000E+00  0.00000000000E+00  0.29539252712E+03  0.29539252712E+03  0.00000000000E+00 0. -1.
         -2   -1    0    0    0  501 -0.00000000000E+00 -0.00000000000E+00 -0.91553521327E+02  0.91553521327E+02  0.00000000000E+00 0.  1.
         23    2    1    2    0    0 -0.83598628271E+02  0.90369195631E+02  0.89777891700E+02  0.17763746620E+03  0.91321834147E+02 0.  0.
         23    2    1    2    0    0  0.83598628271E+02 -0.90369195631E+02  0.11406111409E+03  0.20930858224E+03  0.12507926561E+03 0.  0.
          5    1    4    4  502    0  0.31886774079E+02 -0.11275513287E+03  0.62768085124E+02  0.13299545578E+03  0.41800000000E+01 0.  1.
         -5    1    4    4    0  502  0.51711854192E+02  0.22385937234E+02  0.51293028968E+02  0.76313126462E+02  0.41800000000E+01 0.  1.
        -11    1    3    3    0    0  0.10938668145E+02  0.15439383589E+02 -0.97155596696E+01  0.21270193372E+02  0.00000000000E+00 0.  1.
         11    1    3    3    0    0 -0.94537296415E+02  0.74929812043E+02  0.99493451369E+02  0.15636727283E+03  0.00000000000E+00 0. -1.
</event>
<event>
 8    1  0.9181008E-006  0.1399763E+03  0.7561462E-02  0.1213361E+00
         -1   -1    0    0    0  501 -0.00000000000E+00  0.00000000000E+00  0.10897932157E+03  0.10897932157E+03  0.00000000000E+00 0.  1.
          1   -1    0    0  501    0  0.00000000000E+00 -0.00000000000E+00 -0.24414616617E+03  0.24414616617E+03  0.00000000000E+00 0. -1.
         23    2    1    2    0    0  0.73667955143E+02 -0.91544597701E+02 -0.31492058244E+02  0.15261925068E+03  0.92160213550E+02 0.  0.
         23    2    1    2    0    0 -0.73667955143E+02  0.91544597701E+02 -0.10367478636E+03  0.20050623706E+03  0.12508760446E+03 0.  0.
          5    1    4    4  502    0 -0.83828822705E+02  0.10325315073E+03 -0.11885013620E+03  0.17841331768E+03  0.41800000000E+01 0. -1.
         -5    1    4    4    0  502  0.10160867562E+02 -0.11708553030E+02  0.15175349840E+02  0.22092919374E+02  0.41800000000E+01 0. -1.
        -11    1    3    3    0    0  0.94981737169E+01 -0.57329418770E+02  0.22217963435E+02  0.62213466867E+02  0.00000000000E+00 0. -1.
         11    1    3    3    0    0  0.64169781426E+02 -0.34215178932E+02 -0.53710021679E+02  0.90405783810E+02  0.00000000000E+00 0.  1.
</event>
<event>
 8    1  0.9181008E-006  0.1361283E+03  0.7561462E-02  0.1218636E+00
         -1   -1    0    0    0  501 -0.00000000000E+00  0.00000000000E+00  0.15682744959E+03  0.15682744959E+03  0.00000000000E+00 0.  1.
          1   -1    0    0  501    0  0.00000000000E+00 -0.00000000000E+00 -0.16752692506E+03  0.16752692506E+03  0.00000000000E+00 0. -1.
         23    2    1    2    0    0 -0.16659862507E+02 -0.95703974591E+02  0.67329945094E+02  0.14779847241E+03  0.88737056343E+02 0.  0.
         23    2    1    2    0    0  0.16659862507E+02  0.95703974591E+02 -0.78029420571E+02  0.17655590224E+03  0.12508634765E+03 0.  0.
          5    1    4    4  502    0  0.89383898563E+01  0.11730889243E+03 -0.91966858570E+02  0.14938757154E+03  0.41800000000E+01 0.  1.
         -5    1    4    4    0  502  0.77214726507E+01 -0.21604917840E+02  0.13937437999E+02  0.27168330695E+02  0.41800000000E+01 0.  1.
        -11    1    3    3    0    0  0.71664515425E+00 -0.10920505828E+03  0.51830926514E+02  0.12088301484E+03  0.00000000000E+00 0.  1.
         11    1    3    3    0    0 -0.17376507661E+02  0.13501083685E+02  0.15499018581E+02  0.26915457569E+02  0.00000000000E+00 0. -1.
</event>
<event>
 8    1  0.9181008E-006  0.1967195E+03  0.7561462E-02  0.1152537E+00
          1   -1    0    0  501    0  0.00000000000E+00  0.00000000000E+00  0.23391146732E+03  0.23391146732E+03  0.00000000000E+00 0. -1.
         -1   -1    0    0    0  501 -0.00000000000E+00 -0.00000000000E+00 -0.19728317385E+03  0.19728317385E+03  0.00000000000E+00 0.  1.
         23    2    1    2    0    0  0.40578593069E+02 -0.18070954737E+03  0.20974640597E+02  0.20715205865E+03  0.90385159887E+02 0.  0.
         23    2    1    2    0    0 -0.40578593069E+02  0.18070954737E+03  0.15653652876E+02  0.22404258252E+03  0.12508988452E+03 0.  0.
          5    1    4    4  502    0 -0.24192170685E+02  0.15782510206E+03  0.60611111076E+02  0.17083677341E+03  0.41800000000E+01 0. -1.
         -5    1    4    4    0  502 -0.16386422383E+02  0.22884445311E+02 -0.44957458200E+02  0.53205809114E+02  0.41800000000E+01 0. -1.
        -11    1    3    3    0    0 -0.26874339672E+02 -0.30809334595E+02 -0.31911749843E+01  0.41007667927E+02  0.00000000000E+00 0. -1.
         11    1    3    3    0    0  0.67452932741E+02 -0.14990021278E+03  0.24165815581E+02  0.16614439072E+03  0.00000000000E+00 0.  1.
</event>
<event>
 8    1  0.9181008E-006  0.3239369E+03  0.7561462E-02  0.1073852E+00
         -2   -1    0    0    0  501 -0.00000000000E+00  0.00000000000E+00  0.65958490399E+02  0.65958490399E+02  0.00000000000E+00 0.  1.
          2   -1    0    0  501    0  0.00000000000E+00 -0.00000000000E+00 -0.26532577231E+04  0.26532577231E+04  0.00000000000E+00 0. -1.
         23    2    1    2    0    0 -0.29575660314E+03 -0.87870719967E+02 -0.43016156206E+03  0.53653779612E+03  0.87410556897E+02 0.  0.
         23    2    1    2    0    0  0.29575660314E+03  0.87870719967E+02 -0.21571376706E+04  0.21826784174E+04  0.12509561096E+03 0.  0.
          5    1    4    4  502    0 -0.11717656401E+02 -0.15174944402E+01 -0.69109864340E+02  0.70237112768E+02  0.41800000000E+01 0.  1.
         -5    1    4    4    0  502  0.30747425954E+03  0.89388214407E+02 -0.20880278063E+04  0.21124413046E+04  0.41800000000E+01 0.  1.
        -11    1    3    3    0    0 -0.61498958608E+02  0.79525552664E+01 -0.12911414497E+03  0.14323347192E+03  0.00000000000E+00 0.  1.
         11    1    3    3    0    0 -0.23425764453E+03 -0.95823275234E+02 -0.30104741709E+03  0.39330432420E+03  0.00000000000E+00 0. -1.
</event>
<event>
 8    1  0.9181008E-006  0.1165177E+03  0.7561462E-02  0.1248955E+00
         -1   -1    0    0    0  501 -0.00000000000E+00  0.00000000000E+00  0.36659097278E+02  0.36659097278E+02  0.00000000000E+00 0.  1.
          1   -1    0    0  501    0  0.00000000000E+00 -0.00000000000E+00 -0.58448696745E+03  0.58448696745E+03  0.00000000000E+00 0. -1.
         23    2    1    2    0    0 -0.95344748168E+01  0.95806977623E+02 -0.22312351114E+03  0.26010497201E+03  0.92739484967E+02 0.  0.
         23    2    1    2    0    0  0.95344748168E+01 -0.95806977623E+02 -0.32470435903E+03  0.36104109271E+03  0.12509143329E+03 0.  0.
          5    1    4    4  502    0  0.54658892851E+01  0.10742463757E+02  0.55965280683E+01  0.13930900892E+02  0.41800000000E+01 0.  1.
         -5    1    4    4    0  502  0.40685855317E+01 -0.10654944138E+03 -0.33030088710E+03  0.34711019182E+03  0.41800000000E+01 0.  1.
        -11    1    3    3    0    0 -0.32987939090E+02  0.76074720458E+02 -0.85478691789E+02  0.11908893302E+03  0.00000000000E+00 0.  1.
         11    1    3    3    0    0  0.23453464273E+02  0.19732257165E+02 -0.13764481935E+03  0.14101603899E+03  0.00000000000E+00 0. -1.
</event>
<event>
 8    1  0.9181008E-006  0.1728695E+03  0.7561462E-02  0.1174888E+00
          2   -1    0    0  501    0  0.00000000000E+00  0.00000000000E+00  0.16060559160E+04  0.16060559160E+04  0.00000000000E+00 0. -1.
         -2   -1    0    0    0  501 -0.00000000000E+00 -0.00000000000E+00 -0.18994054399E+02  0.18994054399E+02  0.00000000000E+00 0.  1.
         23    2    1    2    0    0 -0.43191335585E+02  0.12979672329E+03  0.76602039452E+03  0.78334309292E+03  0.90146966459E+02 0.  0.
         23    2    1    2    0    0  0.43191335585E+02 -0.12979672329E+03  0.82104146709E+03  0.84170687748E+03  0.12509474841E+03 0.  0.
          5    1    4    4  502    0 -0.35914921018E+02 -0.81535835363E+02  0.48316459180E+03  0.49132827027E+03  0.41800000000E+01 0.  1.
         -5    1    4    4    0  502  0.79106256603E+02 -0.48260887926E+02  0.33787687529E+03  0.35037860721E+03  0.41800000000E+01 0.  1.
        -11    1    3    3    0    0 -0.49395265534E+02  0.19168987052E+02  0.23970571077E+03  0.24549169048E+03  0.00000000000E+00 0.  1.
         11    1    3    3    0    0  0.62039299489E+01  0.11062773624E+03  0.52631468375E+03  0.53785140244E+03  0.00000000000E+00 0. -1.
</event>
<event>
 8    1  0.9181008E-006  0.2291269E+03  0.7561462E-02  0.1127256E+00
         -1   -1    0    0    0  501 -0.00000000000E+00  0.00000000000E+00  0.73338359932E+02  0.73338359932E+02  0.00000000000E+00 0.  1.
          1   -1    0    0  501    0  0.00000000000E+00 -0.00000000000E+00 -0.76030706112E+03  0.76030706112E+03  0.00000000000E+00 0. -1.
         23    2    1    2    0    0  0.69214324599E+02  0.18808885979E+03 -0.23967199642E+03  0.32778870513E+03  0.99170194288E+02 0.  0.
         23    2    1    2    0    0 -0.69214324599E+02 -0.18808885979E+03 -0.44729670478E+03  0.50585671593E+03  0.12509449644E+03 0.  0.
          5    1    4    4  502    0  0.27850252942E+02 -0.52061324569E+01 -0.44014916021E+02  0.52512147513E+02  0.41800000000E+01 0. -1.
         -5    1    4    4    0  502 -0.97064577541E+02 -0.18288272734E+03 -0.40328178876E+03  0.45334456842E+03  0.41800000000E+01 0. -1.
        -11    1    3    3    0    0  0.81028419440E+02  0.80247220991E+02 -0.10667169830E+03  0.15615400236E+03  0.00000000000E+00 0.  1.
         11    1    3    3    0    0 -0.11814094841E+02  0.10784163880E+03 -0.13300029811E+03  0.17163470277E+03  0.00000000000E+00 0. -1.
</event>
<event>
 8    1  0.9181008E-006  0.1439196E+03  0.7561462E-02  0.1208150E+00
         -1   -1    0    0    0  501 -0.00000000000E+00  0.00000000000E+00  0.70343689068E+02  0.70343689068E+02  0.00000000000E+00 0.  1.
          1   -1    0    0  501    0  0.00000000000E+00 -0.00000000000E+00 -0.51209029093E+03  0.51209029093E+03  0.00000000000E+00 0. -1.
         23    2    1    2    0    0 -0.65754577240E+02  0.11791878716E+03 -0.90943458657E+02  0.18628058312E+03  0.90560687850E+02 0.  0.
         23    2    1    2    0    0  0.65754577240E+02 -0.11791878716E+03 -0.35080314321E+03  0.39615339688E+03  0.12508462648E+03 0.  0.
          5    1    4    4  502    0  0.38503294961E+01 -0.14130420706E+02  0.82249069817E+01  0.17309399799E+02  0.41800000000E+01 0. -1.
         -5    1    4    4    0  502  0.61904247744E+02 -0.10378836645E+03 -0.35902805019E+03  0.37884399708E+03  0.41800000000E+01 0. -1.
        -11    1    3    3    0    0 -0.79290858514E+02  0.11120747228E+03 -0.54904529524E+02  0.14720274962E+03  0.00000000000E+00 0.  1.
         11    1    3    3    0    0  0.13536281273E+02  0.67113148804E+01 -0.36038929134E+02  0.39077833502E+02  0.00000000000E+00 0. -1.
</event>
<event>
 8    1  0.9181008E-006  0.1360262E+03  0.7561462E-02  0.1218778E+00
         -2   -1    0    0    0  501 -0.00000000000E+00  0.00000000000E+00  0.25240945143E+02  0.25240945143E+02  0.00000000000E+00 0.  1.
          2   -1    0    0  501    0  0.00000000000E+00 -0.00000000000E+00 -0.13739906390E+04  0.13739906390E+04  0.00000000000E+00 0. -1.
         23    2    1    2    0    0  0.80504309823E+02 -0.35492086381E+02 -0.17794747378E+03  0.21848390977E+03  0.91264907320E+02 0.  0.
         23    2    1    2    0    0 -0.80504309823E+02  0.35492086381E+02 -0.11708022201E+04  0.11807476744E+04  0.12508636978E+03 0.  0.
          5    1    4    4  502    0 -0.35617596206E+02  0.81054778313E+02 -0.70895410036E+03  0.71447314789E+03  0.41800000000E+01 0. -1.
         -5    1    4    4    0  502 -0.44886713617E+02 -0.45562691933E+02 -0.46184811970E+03  0.46627452647E+03  0.41800000000E+01 0. -1.
        -11    1    3    3    0    0  0.71968512811E+02  0.10335846770E+02 -0.70116377383E+02  0.10100793504E+03  0.00000000000E+00 0.  1.
         11    1    3    3    0    0  0.85357970123E+01 -0.45827933151E+02 -0.10783109640E+03  0.11747597473E+03  0.00000000000E+00 0. -1.
</event>
<event>
 8    1  0.1141627E-005  0.2327100E+03  0.7561462E-02  0.1124747E+00
          1   -1    0    0  501    0  0.00000000000E+00  0.00000000000E+00  0.50376177579E+03  0.50376177579E+03  0.00000000000E+00 0. -1.
         -1   -1    0    0    0  501 -0.00000000000E+00 -0.00000000000E+00 -0.13031769897E+03  0.13031769897E+03  0.00000000000E+00 0.  1.
         23    2    1    2    0    0  0.14898492240E+03  0.16121232206E+03  0.86788580321E+02  0.25197329113E+03  0.88160999787E+02 0.  0.
         23    2    1    2    0    0 -0.14898492240E+03 -0.16121232206E+03  0.28665549650E+03  0.38210618364E+03  0.12509133470E+03 0.  0.
          5    1    4    4  502    0 -0.33417687560E+02 -0.11409109305E+03  0.19011719226E+03  0.22426666838E+03  0.41800000000E+01 0. -1.
         -5    1    4    4    0  502 -0.11556723484E+03 -0.47121229011E+02  0.96538304236E+02  0.15783951526E+03  0.41800000000E+01 0. -1.
        -11    1    3    3    0    0  0.13579887285E+03  0.13128377233E+03  0.10335579960E+03  0.21531182981E+03  0.00000000000E+00 0. -1.
         11    1    3    3    0    0  0.13186049547E+02  0.29928549728E+02 -0.16567219280E+02  0.36661461320E+02  0.00000000000E+00 0.  1.
</event>
<event>
 8    1  0.9181008E-006  0.1044970E+03  0.7561462E-02  0.1271114E+00
         -1   -1    0    0    0  501 -0.00000000000E+00  0.00000000000E+00  0.12985651664E+03  0.12985651664E+03  0.00000000000E+00 0.  1.
          1   -1    0    0  501    0  0.00000000000E+00 -0.00000000000E+00 -0.15949171481E+03  0.15949171481E+03  0.00000000000E+00 0. -1.
         23    2    1    2    0    0 -0.23582632387E+02 -0.77597837892E+02 -0.55292427983E+02  0.13808534860E+03  0.97122324465E+02 0.  0.
         23    2    1    2    0    0  0.23582632387E+02  0.77597837892E+02  0.25657229810E+02  0.15126288285E+03  0.12507838059E+03 0.  0.
          5    1    4    4  502    0  0.47056618421E+01  0.57703526451E+01 -0.46710075630E+02  0.47484142494E+02  0.41800000000E+01 0.  1.
         -5    1    4    4    0  502  0.18876970545E+02  0.71827485246E+02  0.72367305440E+02  0.10377874036E+03  0.41800000000E+01 0.  1.
        -11    1    3    3    0    0 -0.24300989745E+02  0.18143498159E+02 -0.83656358621E+01  0.31459632728E+02  0.00000000000E+00 0. -1.
         11    1    3    3    0    0  0.71835735815E+00 -0.95741336050E+02 -0.46926792121E+02  0.10662571587E+03  0.00000000000E+00 0.  1.
</event>
<event>
 8    1  0.9181008E-006  0.1083567E+03  0.7561462E-02  0.1263644E+00
          1   -1    0    0  501    0  0.00000000000E+00  0.00000000000E+00  0.50718070196E+03  0.50718070196E+03  0.00000000000E+00 0. -1.
         -1   -1    0    0    0  501 -0.00000000000E+00 -0.00000000000E+00 -0.33192570030E+02  0.33192570030E+02  0.00000000000E+00 0.  1.
         23    2    1    2    0    0  0.36607654482E+02  0.29234926472E+02  0.10080064425E+03  0.14400033012E+03  0.91545201401E+02 0.  0.
         23    2    1    2    0    0 -0.36607654482E+02 -0.29234926472E+02  0.37318748768E+03  0.39637294188E+03  0.12509119392E+03 0.  0.
          5    1    4    4  502    0 -0.68596004787E+02  0.15724970038E+02  0.27260273096E+03  0.28157131935E+03  0.41800000000E+01 0. -1.
         -5    1    4    4    0  502  0.31988350305E+02 -0.44959896510E+02  0.10058475673E+03  0.11480162253E+03  0.41800000000E+01 0. -1.
        -11    1    3    3    0    0 -0.24660116400E+02  0.62447245190E+01  0.20310861722E+01  0.25519467788E+02  0.00000000000E+00 0.  1.
         11    1    3    3    0    0  0.61267770882E+02  0.22990201953E+02  0.98769558080E+02  0.11848086233E+03  0.00000000000E+00 0. -1.
</event>
<event>
 7    1  0.9181008E-006  0.2286792E+03  0.7561462E-02  0.1127573E+00
          3   -1    0    0  501    0  0.00000000000E+00  0.00000000000E+00  0.32378165868E+03  0.32378165868E+03  0.00000000000E+00 0. -1.
         -3   -1    0    0    0  501 -0.00000000000E+00 -0.00000000000E+00 -0.20178216629E+03  0.20178216629E+03  0.00000000000E+00 0.  1.
         23    2    1    2    0    0  0.92714789205E+02 -0.16628472956E+02  0.33178794742E+01  0.13078627212E+03  0.90672500803E+02 0.  0.
          5    1    1    2  502    0 -0.17874856980E+03 -0.81335937543E+02  0.16481472634E+03  0.25641363529E+03  0.41800000000E+01 0. -1.
         -5    1    1    2    0  502  0.86033780594E+02  0.97964410499E+02 -0.46133113429E+02  0.13836391756E+03  0.41800000000E+01 0.  1.
        -11    1    3    3    0    0  0.90743505489E+02 -0.45522933309E+02  0.60102074205E+01  0.10169977305E+03  0.00000000000E+00 0. -1.
         11    1    3    3    0    0  0.19712837161E+01  0.28894460353E+02 -0.26923279464E+01  0.29086499073E+02  0.00000000000E+00 0.  1.
</event>
<event>
 8    1  0.9181008E-006  0.1064144E+03  0.7561462E-02  0.1267358E+00
         -1   -1    0    0    0  501 -0.00000000000E+00  0.00000000000E+00  0.81996133445E+01  0.81996133445E+01  0.00000000000E+00 0.  1.
          1   -1    0    0  501    0  0.00000000000E+00 -0.00000000000E+00 -0.28420275664E+04  0.28420275664E+04  0.00000000000E+00 0. -1.
         23    2    1    2    0    0  0.43043474003E+02  0.17015637245E+02 -0.39238594934E+03  0.40514456713E+03  0.89627643438E+02 0.  0.
         23    2    1    2    0    0 -0.43043474003E+02 -0.17015637245E+02 -0.24414420037E+04  0.24450826126E+04  0.12509057699E+03 0.  0.
          5    1    4    4  502    0 -0.77142394063E+02  0.36539984819E+01 -0.20774498522E+04  0.20788890450E+04  0.41800000000E+01 0. -1.
         -5    1    4    4    0  502  0.34098920060E+02 -0.20669635727E+02 -0.36399215154E+03  0.36619356763E+03  0.41800000000E+01 0. -1.
        -11    1    3    3    0    0 -0.20972062657E+02 -0.13017234722E+02 -0.52935841805E+02  0.58407868986E+02  0.00000000000E+00 0.  1.
         11    1    3    3    0    0  0.64015536659E+02  0.30032871967E+02 -0.33945010754E+03  0.34673669814E+03  0.00000000000E+00 0. -1.
</event>
<event>
 8    1  0.9181008E-006  0.1009273E+03  0.7561462E-02  0.1278358E+00
         -2   -1    0    0    0  501 -0.00000000000E+00  0.00000000000E+00  0.77946790450E+02  0.77946790450E+02  0.00000000000E+00 0.  1.
          2   -1    0    0  501    0  0.00000000000E+00 -0.00000000000E+00 -0.25936515343E+03  0.25936515343E+03  0.00000000000E+00 0. -1.
         23    2    1    2    0    0 -0.84753424204E+02  0.21729093392E+02 -0.45591877238E+02  0.13297712672E+03  0.89157167666E+02 0.  0.
         23    2    1    2    0    0  0.84753424204E+02 -0.21729093392E+02 -0.13582648574E+03  0.20433481716E+03  0.12509431187E+03 0.  0.
          5    1    4    4  502    0  0.18387418873E+02  0.15567152212E+02  0.19519537553E+02  0.31287667652E+02  0.41800000000E+01 0. -1.
         -5    1    4    4    0  502  0.66366005331E+02 -0.37296245605E+02 -0.15534602330E+03  0.17304714951E+03  0.41800000000E+01 0. -1.
        -11    1    3    3    0    0 -0.62293357648E+02 -0.91654797677E+01 -0.64689509593E+02  0.90272925497E+02  0.00000000000E+00 0. -1.
         11    1    3    3    0    0 -0.22460066556E+02  0.30894573160E+02  0.19097632354E+02  0.42704201222E+02  0.00000000000E+00 0.  1.
</event>
<event>
 8    1  0.1376863E-005  0.1227696E+03  0.7561462E-02  0.1238597E+00
          1   -1    0    0  501    0  0.00000000000E+00  0.00000000000E+00  0.12181104168E+03  0.12181104168E+03  0.00000000000E+00 0. -1.
         -1   -1    0    0    0  501 -0.00000000000E+00 -0.00000000000E+00 -0.14206275935E+03  0.14206275935E+03  0.00000000000E+00 0.  1.
         23    2    1    2    0    0  0.79882530694E+02 -0.13947876717E+02 -0.33384588143E+02  0.11422250370E+03  0.73188029423E+02 0.  0.
         23    2    1    2    0    0 -0.79882530694E+02  0.13947876717E+02  0.13132870481E+02  0.14965129733E+03  0.12508907438E+03 0.  0.
          5    1    4    4  502    0  0.27889254818E+02 -0.87166511537E+01  0.25164394561E+02  0.38788009684E+02  0.41800000000E+01 0. -1.
         -5    1    4    4    0  502 -0.10777178551E+03  0.22664527870E+02 -0.12031524080E+02  0.11086328765E+03  0.41800000000E+01 0. -1.
        -11    1    3    3    0    0  0.49549578211E+02  0.25759909006E+02 -0.34013933002E+01  0.55949111604E+02  0.00000000000E+00 0.  1.
         11    1    3    3    0    0  0.30332952482E+02 -0.39707785723E+02 -0.29983194843E+02  0.58273392095E+02  0.00000000000E+00 0. -1.
</event>
<event>
 8    1  0.9181008E-006  0.1044105E+03  0.7561462E-02  0.1271285E+00
          2   -1    0    0  501    0  0.00000000000E+00  0.00000000000E+00  0.38134962756E+03  0.38134962756E+03  0.00000000000E+00 0. -1.
         -2   -1    0    0    0  501 -0.00000000000E+00 -0.00000000000E+00 -0.38238863278E+02  0.38238863278E+02  0.00000000000E+00 0.  1.
         23    2    1    2    0    0 -0.25417740730E+02 -0.42495080860E+02  0.15139116856E+03  0.18537512493E+03  0.94830151255E+02 0.  0.
         23    2    1    2    0    0  0.25417740730E+02  0.42495080860E+02  0.19171959573E+03  0.23421336590E+03  0.12509038309E+03 0.  0.
          5    1    4    4  502    0  0.32803450441E+02  0.70325820693E+02  0.56968960320E+02  0.96357263644E+02  0.41800000000E+01 0. -1.
         -5    1    4    4    0  502 -0.73857097110E+01 -0.27830739834E+02  0.13475063541E+03  0.13785610226E+03  0.41800000000E+01 0. -1.
        -11    1    3    3    0    0 -0.15230284662E+01 -0.67447240665E+02  0.71343854976E+02  0.98190608165E+02  0.00000000000E+00 0.  1.
         11    1    3    3    0    0 -0.23894712264E+02  0.24952159805E+02  0.80047313580E+02  0.87184516770E+02  0.00000000000E+00 0. -1.
</event>
<event>
 8    1  0.9181008E-006  0.1121974E+03  0.7561462E-02  0.1256554E+00
         -1   -1    0    0    0  501 -0.00000000000E+00  0.00000000000E+00  0.34794363734E+03  0.34794363734E+03  0.00000000000E+00 0.  1.
          1   -1    0    0  501    0  0.00000000000E+00 -0.00000000000E+00 -0.63003063882E+02  0.63003063882E+02  0.00000000000E+00 0. -1.
         23    2    1    2    0    0  0.31229228928E+02  0.89815320620E+02  0.88478186759E+02  0.15937728401E+03  0.92361640139E+02 0.  0.
         23    2    1    2    0    0 -0.31229228928E+02 -0.89815320620E+02  0.19646238670E+03  0.25156941721E+03  0.12509055012E+03 0.  0.
          5    1    4    4  502    0 -0.14738102186E+02 -0.47588974263E+02  0.95025261533E-01  0.49994035216E+02  0.41800000000E+01 0. -1.
         -5    1    4    4    0  502 -0.16491126743E+02 -0.42226346358E+02  0.19636736144E+03  0.20157538199E+03  0.41800000000E+01 0. -1.
        -11    1    3    3    0    0  0.38620330720E+02  0.10506032856E+03  0.88074847724E+02  0.14243026849E+03  0.00000000000E+00 0. -1.
         11    1    3    3    0    0 -0.73911017920E+01 -0.15245007935E+02  0.40333903511E+00  0.16947015519E+02  0.00000000000E+00 0.  1.
</event>
<event>
 8    1  0.9181008E-006  0.6233203E+02  0.7561462E-02  0.1388298E+00
          1   -1    0    0  501    0  0.00000000000E+00  0.00000000000E+00  0.10844366931E+03  0.10844366931E+03  0.00000000000E+00 0. -1.
         -1   -1    0    0    0  501 -0.00000000000E+00 -0.00000000000E+00 -0.12161356164E+03  0.12161356164E+03  0.00000000000E+00 0.  1.
         23    2    1    2    0    0  0.32983296171E+02  0.11095656484E+02 -0.23438857416E+02  0.99796575657E+02  0.90548136683E+02 0.  0.
         23    2    1    2    0    0 -0.32983296171E+02 -0.11095656484E+02  0.10268965083E+02  0.13026065529E+03  0.12510545653E+03 0.  0.
          5    1    4    4  502    0 -0.17172885868E+02 -0.69606552575E+00 -0.57299653164E+02  0.59967617669E+02  0.41800000000E+01 0.  1.
         -5    1    4    4    0  502 -0.15810410303E+02 -0.10399590958E+02  0.67568618247E+02  0.70293037620E+02  0.41800000000E+01 0.  1.
        -11    1    3    3    0    0 -0.22765357726E+02  0.21002664660E+02  0.11753733173E+02  0.33128894921E+02  0.00000000000E+00 0. -1.
         11    1    3    3    0    0  0.55748653897E+02 -0.99070081755E+01 -0.35192590589E+02  0.66667680736E+02  0.00000000000E+00 0.  1.
</event>
<event>
 8    1  0.9181008E-006  0.1229891E+03  0.7561462E-02  0.1238246E+00
          1   -1    0    0  501    0  0.00000000000E+00  0.00000000000E+00  0.90884281363E+03  0.90884281363E+03  0.00000000000E+00 0. -1.
         -1   -1    0    0    0  501 -0.00000000000E+00 -0.00000000000E+00 -0.18596030116E+02  0.18596030116E+02  0.00000000000E+00 0.  1.
         23    2    1    2    0    0 -0.58964475718E+02 -0.75180945705E+01  0.27272048518E+03  0.29457282785E+03  0.94145402064E+02 0.  0.
         23    2    1    2    0    0  0.58964475718E+02  0.75180945705E+01  0.61752629834E+03  0.63286601589E+03  0.12508930328E+03 0.  0.
          5    1    4    4  502    0  0.74901863659E+02 -0.41818686070E+02  0.41229508924E+03  0.42114582355E+03  0.41800000000E+01 0. -1.
         -5    1    4    4    0  502 -0.15937387940E+02  0.49336780641E+02  0.20523120909E+03  0.21172019234E+03  0.41800000000E+01 0. -1.
        -11    1    3    3    0    0  0.19891287040E+02  0.16283642577E+02  0.38522901371E+02  0.46312355217E+02  0.00000000000E+00 0.  1.
         11    1    3    3    0    0 -0.78855762759E+02 -0.23801737147E+02  0.23419758381E+03  0.24826047264E+03  0.00000000000E+00 0. -1.
</event>
<event>
 8    1  0.9181008E-006  0.1013741E+03  0.7561462E-02  0.1277433E+00
         -1   -1    0    0    0  501 -0.00000000000E+00  0.00000000000E+00  0.31203057720E+03  0.31203057720E+03  0.00000000000E+00 0.  1.
          1   -1    0    0  501    0  0.00000000000E+00 -0.00000000000E+00 -0.39989228884E+02  0.39989228884E+02  0.00000000000E+00 0. -1.
         23    2    1    2    0    0 -0.11351455922E+02  0.59947888948E+01  0.76977358694E+02  0.11993758797E+03  0.91075343594E+02 0.  0.
         23    2    1    2    0    0  0.11351455922E+02 -0.59947888948E+01  0.19506398962E+03  0.23208221811E+03  0.12508957939E+03 0.  0.
          5    1    4    4  502    0  0.59992639224E+02 -0.13567503601E+02  0.16009374126E+03  0.17155370094E+03  0.41800000000E+01 0. -1.
         -5    1    4    4    0  502 -0.48641183302E+02  0.75727147061E+01  0.34970248359E+02  0.60528517174E+02  0.41800000000E+01 0. -1.
        -11    1    3    3    0    0 -0.11144554731E+02 -0.42124953916E+02  0.31912205698E+02  0.54010200102E+02  0.00000000000E+00 0. -1.
         11    1    3    3    0    0 -0.20690119106E+00  0.48119742811E+02  0.45065152997E+02  0.65927387867E+02  0.00000000000E+00 0.  1.
</event>
<event>
 8    1  0.9181008E-006  0.1829245E+03  0.7561462E-02  0.1165002E+00
         -1   -1    0    0    0  501 -0.00000000000E+00  0.00000000000E+00  0.23759054786E+03  0.23759054786E+03  0.00000000000E+00 0.  1.
          1   -1    0    0  501    0  0.00000000000E+00 -0.00000000000E+00 -0.24133048020E+04  0.24133048020E+04  0.00000000000E+00 0. -1.
         23    2    1    2    0    0 -0.15292737568E+03 -0.14187888314E+02  0.19993592101E+03  0.26761746365E+03  0.89758876622E+02 0.  0.
         23    2    1    2    0    0  0.15292737568E+03  0.14187888314E+02 -0.23756501751E+04  0.23832778862E+04  0.11274595245E+03 0.  0.
          5    1    4    4  502    0  0.16108584100E+03 -0.13142315085E+02 -0.20026476121E+04  0.20091630843E+04  0.41800000000E+01 0. -1.
         -5    1    4    4    0  502 -0.81584653214E+01  0.27330203399E+02 -0.37300256299E+03  0.37411480186E+03  0.41800000000E+01 0.  1.
        -11    1    3    3    0    0 -0.68361670547E+02 -0.48779064188E+02  0.11839844704E+03  0.14515821494E+03  0.00000000000E+00 0. -1.
         11    1    3    3    0    0 -0.84565705129E+02  0.34591175874E+02  0.81537473967E+02  0.12245924870E+03  0.00000000000E+00 0.  1.
</event>
<event>
 8    1  0.9181008E-006  0.7984537E+02  0.7561462E-02  0.1329491E+00
          1   -1    0    0  501    0  0.00000000000E+00  0.00000000000E+00  0.20424865751E+04  0.20424865751E+04  0.00000000000E+00 0. -1.
         -1   -1    0    0    0  501 -0.00000000000E+00 -0.00000000000E+00 -0.72854663607E+01  0.72854663607E+01  0.00000000000E+00 0.  1.
         23    2    1    2    0    0 -0.38338187139E+02 -0.16338537265E+02  0.57723691084E+03  0.58585801311E+03  0.91051611166E+02 0.  0.
         23    2    1    2    0    0  0.38338187139E+02  0.16338537265E+02  0.14579641979E+04  0.14639140284E+04  0.12509162903E+03 0.  0.
          5    1    4    4  502    0  0.31480136746E+02 -0.90666102985E+01  0.13968957819E+04  0.13972861197E+04  0.41800000000E+01 0. -1.
         -5    1    4    4    0  502  0.68580503930E+01  0.25405147564E+02  0.61068416015E+02  0.66627908661E+02  0.41800000000E+01 0. -1.
        -11    1    3    3    0    0  0.25634059768E+02  0.14012433939E+02  0.15611780561E+03  0.15882765047E+03  0.00000000000E+00 0.  1.
         11    1    3    3    0    0 -0.63972246907E+02 -0.30350971204E+02  0.42111910523E+03  0.42703036264E+03  0.00000000000E+00 0. -1.
</event>
<event>
 8    1  0.9181008E-006  0.1228081E+03  0.7561462E-02  0.1238535E+00
         -1   -1    0    0    0  501 -0.00000000000E+00  0.00000000000E+00  0.11815043553E+03  0.11815043553E+03  0.00000000000E+00 0.  1.
          1   -1    0    0  501    0  0.00000000000E+00 -0.00000000000E+00 -0.22729916750E+03  0.22729916750E+03  0.00000000000E+00 0. -1.
         23    2    1    2    0    0  0.10648969103E+03 -0.13288882677E+02  0.12235343601E+02  0.14076302761E+03  0.90265594828E+02 0.  0.
         23    2    1    2    0    0 -0.10648969103E+03  0.13288882677E+02 -0.12138407557E+03  0.20468657543E+03  0.12508337883E+03 0.  0.
          5    1    4    4  502    0  0.91283305828E+01  0.17194827425E+02  0.15633424820E+02  0.25315309222E+02  0.41800000000E+01 0. -1.
         -5    1    4    4    0  502 -0.11561802162E+03 -0.39059447483E+01 -0.13701750039E+03  0.17937126620E+03  0.41800000000E+01 0. -1.
        -11    1    3    3    0    0  0.60704885459E+02 -0.19457455463E+02 -0.36625639660E+02  0.73519474782E+02  0.00000000000E+00 0. -1.
         11    1    3    3    0    0  0.45784805575E+02  0.61685727867E+01  0.48860983261E+02  0.67243552828E+02  0.00000000000E+00 0.  1.
</event>
<event>
 8    1  0.9181008E-006  0.8802042E+02  0.7561462E-02  0.1307718E+00
         -2   -1    0    0    0  501 -0.00000000000E+00  0.00000000000E+00  0.45551883363E+02  0.45551883363E+02  0.00000000000E+00 0.  1.
          2   -1    0    0  501    0  0.00000000000E+00 -0.00000000000E+00 -0.46612479229E+03  0.46612479229E+03  0.00000000000E+00 0. -1.
         23    2    1    2    0    0  0.68500286973E+01  0.11215545614E+02 -0.20261669465E+02  0.95061611665E+02  0.91942718071E+02 0.  0.
         23    2    1    2    0    0 -0.68500286973E+01 -0.11215545614E+02 -0.40031123947E+03  0.41661506399E+03  0.11465736673E+03 0.  0.
          5    1    4    4  502    0  0.33776874586E+02 -0.38333350929E+02 -0.30659166394E+03  0.31084762159E+03  0.41800000000E+01 0. -1.
         -5    1    4    4    0  502 -0.40626903284E+02  0.27117805316E+02 -0.93719575524E+02  0.10576744240E+03  0.41800000000E+01 0.  1.
        -11    1    3    3    0    0 -0.20417243950E+02 -0.23810740071E+02  0.18255499459E+02  0.36291575520E+02  0.00000000000E+00 0. -1.
         11    1    3    3    0    0  0.27267272648E+02  0.35026285684E+02 -0.38517168924E+02  0.58770036145E+02  0.00000000000E+00 0.  1.
</event>
<event>
 8    1  0.9181008E-006  0.1989459E+03  0.7561462E-02  0.1150631E+00
         -2   -1    0    0    0  501 -0.00000000000E+00  0.00000000000E+00  0.20128459926E+03  0.20128459926E+03  0.00000000000E+00 0.  1.
          2   -1    0    0  501    0  0.00000000000E+00 -0.00000000000E+00 -0.22698747748E+03  0.22698747748E+03  0.00000000000E+00 0. -1.
         23    2    1    2    0    0 -0.18189682709E+02  0.17139342957E+03 -0.74753733812E+02  0.20973146563E+03  0.93234085501E+02 0.  0.
         23    2    1    2    0    0  0.18189682709E+02 -0.17139342957E+03  0.49050855594E+02  0.21854061111E+03  0.12508972785E+03 0.  0.
          5    1    4    4  502    0  0.62955697996E+02 -0.14726463394E+03  0.48921129889E+02  0.16751430288E+03  0.41800000000E+01 0.  1.
         -5    1    4    4    0  502 -0.44766015287E+02 -0.24128795631E+02  0.12972570499E+00  0.51026308235E+02  0.41800000000E+01 0.  1.
        -11    1    3    3    0    0  0.24203133601E+02  0.10595327233E+03 -0.74489365264E+02  0.13175945177E+03  0.00000000000E+00 0.  1.
         11    1    3    3    0    0 -0.42392816310E+02  0.65440157240E+02 -0.26436854785E+00  0.77972013857E+02  0.00000000000E+00 0. -1.
</event>
<event>
 8    1  0.9181008E-006  0.9066976E+02  0.7561462E-02  0.1301238E+00
          2   -1    0    0  501    0  0.00000000000E+00  0.00000000000E+00  0.67060350293E+03  0.67060350293E+03  0.00000000000E+00 0. -1.
         -2   -1    0    0    0  501 -0.00000000000E+00 -0.00000000000E+00 -0.20681242228E+02  0.20681242228E+02  0.00000000000E+00 0.  1.
         23    2    1    2    0    0 -0.27571468549E+02 -0.85095736863E+01  0.17486096908E+03  0.19918390352E+03  0.90913531401E+02 0.  0.
         23    2    1    2    0    0  0.27571468549E+02  0.85095736863E+01  0.47506129162E+03  0.49210084164E+03  0.12508960317E+03 0.  0.
          5    1    4    4  502    0  0.59448082532E+02 -0.23282666688E+02  0.13908251631E+03  0.15309335657E+03  0.41800000000E+01 0. -1.
         -5    1    4    4    0  502 -0.31876613983E+02  0.31792240374E+02  0.33597877531E+03  0.33900748506E+03  0.41800000000E+01 0. -1.
        -11    1    3    3    0    0 -0.32194360969E+02 -0.33656676333E+02  0.16554346666E+03  0.17197060241E+03  0.00000000000E+00 0. -1.
         11    1    3    3    0    0  0.46228924202E+01  0.25147102647E+02  0.93175024186E+01  0.27213301108E+02  0.00000000000E+00 0.  1.
</event>
<event>
 8    1  0.9181008E-006  0.7431486E+02  0.7561462E-02  0.1346006E+00
          2   -1    0    0  501    0  0.00000000000E+00  0.00000000000E+00  0.29799058891E+03  0.29799058891E+03  0.00000000000E+00 0. -1.
         -2   -1    0    0    0  501 -0.00000000000E+00 -0.00000000000E+00 -0.58675630204E+02  0.58675630204E+02  0.00000000000E+00 0.  1.
         23    2    1    2    0    0  0.51350681608E+02  0.53323056214E+02  0.12142919531E+03  0.16951553451E+03  0.92250886932E+02 0.  0.
         23    2    1    2    0    0 -0.51350681608E+02 -0.53323056214E+02  0.11788576340E+03  0.18715068461E+03  0.12509230477E+03 0.  0.
          5    1    4    4  502    0 -0.15787799948E+02 -0.17734213094E+02  0.13243445575E+03  0.13461097433E+03  0.41800000000E+01 0. -1.
         -5    1    4    4    0  502 -0.35562881660E+02 -0.35588843120E+02 -0.14548692353E+02  0.52539710275E+02  0.41800000000E+01 0. -1.
        -11    1    3    3    0    0  0.32946045782E+02  0.33497041833E+02  0.19631447138E+01  0.47024968701E+02  0.00000000000E+00 0.  1.
         11    1    3    3    0    0  0.18404635826E+02  0.19826014381E+02  0.11946605060E+03  0.12249056580E+03  0.00000000000E+00 0. -1.
</event>
<event>
 8    1  0.9181008E-006  0.1256028E+03  0.7561462E-02  0.1234130E+00
          2   -1    0    0  501    0  0.00000000000E+00  0.00000000000E+00  0.69066702820E+02  0.69066702820E+02  0.00000000000E+00 0. -1.
         -2   -1    0    0    0  501 -0.00000000000E+00 -0.00000000000E+00 -0.37408848726E+03  0.37408848726E+03  0.00000000000E+00 0.  1.
         23    2    1    2    0    0 -0.65681279410E+02 -0.33421872732E+02 -0.26470995793E+03  0.29249366457E+03  0.10025033638E+03 0.  0.
         23    2    1    2    0    0  0.65681279410E+02  0.33421872732E+02 -0.40311826514E+02  0.15066152551E+03  0.12507117922E+03 0.  0.
          5    1    4    4  502    0 -0.10538417384E+02  0.49712430618E+02 -0.50717900307E+02  0.71917743363E+02  0.41800000000E+01 0. -1.
         -5    1    4    4    0  502  0.76219696793E+02 -0.16290557886E+02  0.10406073793E+02  0.78743782150E+02  0.41800000000E+01 0. -1.
        -11    1    3    3    0    0 -0.91451568149E+02 -0.29531005035E+02 -0.18257338924E+03  0.20632138046E+03  0.00000000000E+00 0.  1.
         11    1    3    3    0    0  0.25770288739E+02 -0.38908676971E+01 -0.82136568691E+02  0.86172284114E+02  0.00000000000E+00 0. -1.
</event>
<event>
 8    1  0.9181008E-006  0.1457774E+03  0.7561462E-02  0.1205760E+00
          2   -1    0    0  501    0  0.00000000000E+00  0.00000000000E+00  0.10456249540E+04  0.10456249540E+04  0.00000000000E+00 0. -1.
         -2   -1    0    0    0  501 -0.00000000000E+00 -0.00000000000E+00 -0.30948077383E+02  0.30948077383E+02  0.00000000000E+00 0.  1.
         23    2    1    2    0    0  0.37800752064E+02  0.10955734705E+03  0.22714155438E+03  0.27078498205E+03  0.91101655466E+02 0.  0.
         23    2    1    2    0    0 -0.37800752064E+02 -0.10955734705E+03  0.78753532228E+03  0.80578804938E+03  0.12510310760E+03 0.  0.
          5    1    4    4  502    0  0.32362153357E+02 -0.91856007492E+02  0.41861837637E+03  0.42981816215E+03  0.41800000000E+01 0.  1.
         -5    1    4    4    0  502 -0.70162905420E+02 -0.17701339556E+02  0.36891694591E+03  0.37596988723E+03  0.41800000000E+01 0.  1.
        -11    1    3    3    0    0 -0.53764422665E+01  0.35204040581E+02  0.15350417823E+03  0.15758097391E+03  0.00000000000E+00 0. -1.
         11    1    3    3    0    0  0.43177194330E+02  0.74353306467E+02  0.73637376157E+02  0.11320400815E+03  0.00000000000E+00 0.  1.
</event>
<event>
 8    1  0.9181008E-006  0.1220162E+03  0.7561462E-02  0.1239808E+00
         -1   -1    0    0    0  501 -0.00000000000E+00  0.00000000000E+00  0.61221642772E+03  0.61221642772E+03  0.00000000000E+00 0.  1.
          1   -1    0    0  501    0  0.00000000000E+00 -0.00000000000E+00 -0.31263308292E+02  0.31263308292E+02  0.00000000000E+00 0. -1.
         23    2    1    2    0    0 -0.31450492322E+02 -0.75761878746E+02  0.32200998160E+03  0.34443325931E+03  0.90635788345E+02 0.  0.
         23    2    1    2    0    0  0.31450492322E+02  0.75761878746E+02  0.25894313783E+03  0.29904647671E+03  0.12509296888E+03 0.  0.
          5    1    4    4  502    0  0.64852009277E+02  0.66044793122E+02  0.24391892731E+03  0.26092453565E+03  0.41800000000E+01 0. -1.
         -5    1    4    4    0  502 -0.33401516955E+02  0.97170856245E+01  0.15024210522E+02  0.38121941054E+02  0.41800000000E+01 0. -1.
        -11    1    3    3    0    0 -0.40822969308E+01  0.18107536042E+02  0.21437857420E+02  0.28357181463E+02  0.00000000000E+00 0.  1.
         11    1    3    3    0    0 -0.27368195391E+02 -0.93869414789E+02  0.30057212418E+03  0.31607607785E+03  0.00000000000E+00 0. -1.
</event>
<event>
 8    1  0.9181008E-006  0.9010456E+02  0.7561462E-02  0.1302599E+00
          1   -1    0    0  501    0  0.00000000000E+00  0.00000000000E+00  0.99573331351E+02  0.99573331351E+02  0.00000000000E+00 0. -1.
         -1   -1    0    0    0  501 -0.00000000000E+00 -0.00000000000E+00 -0.13811993570E+03  0.13811993570E+03  0.00000000000E+00 0.  1.
         23    2    1    2    0    0 -0.21822152832E+02  0.28428491429E+02 -0.41071690861E+02  0.10755441491E+03  0.92718298609E+02 0.  0.
         23    2    1    2    0    0  0.21822152832E+02 -0.28428491429E+02  0.25250865076E+01  0.13013885215E+03  0.12508141068E+03 0.  0.
          5    1    4    4  502    0  0.47532705806E+02  0.36016023710E+02 -0.61126581731E+01  0.60094501205E+02  0.41800000000E+01 0.  1.
         -5    1    4    4    0  502 -0.25710552975E+02 -0.64444515139E+02  0.86377446807E+01  0.70044350942E+02  0.41800000000E+01 0.  1.
        -11    1    3    3    0    0  0.97444378209E+01  0.11582060486E+02 -0.63530915506E+02  0.65309076081E+02  0.00000000000E+00 0.  1.
         11    1    3    3    0    0 -0.31566590652E+02  0.16846430944E+02  0.22459224645E+02  0.42245338827E+02  0.00000000000E+00 0. -1.
</event>
<event>
 8    1  0.9181008E-006  0.1021632E+03  0.7561462E-02  0.1275812E+00
         -1   -1    0    0    0  501 -0.00000000000E+00  0.00000000000E+00  0.24806364835E+03  0.24806364835E+03  0.00000000000E+00 0.  1.
          1   -1    0    0  501    0  0.00000000000E+00 -0.00000000000E+00 -0.75222019358E+02  0.75222019358E+02  0.00000000000E+00 0. -1.
         23    2    1    2    0    0  0.68129521905E+02 -0.65443659244E+01  0.13389445224E+03  0.17547315485E+03  0.90435851591E+02 0.  0.
         23    2    1    2    0    0 -0.68129521905E+02  0.65443659244E+01  0.38947176752E+02  0.14781251286E+03  0.12508875209E+03 0.  0.
          5    1    4    4  502    0 -0.32801317149E+02  0.61747915860E+02  0.42697491966E+02  0.82032187219E+02  0.41800000000E+01 0.  1.
         -5    1    4    4    0  502 -0.35328204756E+02 -0.55203549935E+02 -0.37503152142E+01  0.65780325638E+02  0.41800000000E+01 0.  1.
        -11    1    3    3    0    0  0.47602469935E+02 -0.67633235282E+01  0.14455539091E+03  0.15234171698E+03  0.00000000000E+00 0.  1.
         11    1    3    3    0    0  0.20527051969E+02  0.21895760382E+00 -0.10660938671E+02  0.23131437879E+02  0.00000000000E+00 0. -1.
</event>
<event>
 8    1  0.9181008E-006  0.1293025E+03  0.7561462E-02  0.1228494E+00
          1   -1    0    0  501    0  0.00000000000E+00  0.00000000000E+00  0.15290024036E+03  0.15290024036E+03  0.00000000000E+00 0. -1.
         -1   -1    0    0    0  501 -0.00000000000E+00 -0.00000000000E+00 -0.17697558251E+03  0.17697558251E+03  0.00000000000E+00 0.  1.
         23    2    1    2    0    0 -0.11524966812E+03  0.34156058535E+02 -0.36207958655E+02  0.15591065928E+03  0.92455367993E+02 0.  0.
         23    2    1    2    0    0  0.11524966812E+03 -0.34156058535E+02  0.12132616505E+02  0.17396516359E+03  0.12517010595E+03 0.  0.
          5    1    4    4  502    0  0.17126820400E+02  0.13518452435E+02  0.52942905046E+02  0.57415155908E+02  0.41800000000E+01 0.  1.
         -5    1    4    4    0  502  0.98122847720E+02 -0.47674510969E+02 -0.40810288541E+02  0.11655000769E+03  0.41800000000E+01 0.  1.
        -11    1    3    3    0    0 -0.10155727949E+03  0.13521708153E+02 -0.62323602185E+02  0.11992059455E+03  0.00000000000E+00 0.  1.
         11    1    3    3    0    0 -0.13692388633E+02  0.20634350382E+02  0.26115643530E+02  0.35990064728E+02  0.00000000000E+00 0. -1.
</event>
<event>
 7    1  0.9181008E-006  0.9707749E+02  0.7561462E-02  0.1286564E+00
          2   -1    0    0  501    0  0.00000000000E+00  0.00000000000E+00  0.23386778397E+04  0.23386778397E+04  0.00000000000E+00 0. -1.
         -2   -1    0    0    0  501 -0.00000000000E+00 -0.00000000000E+00 -0.11475847093E+02  0.11475847093E+02  0.00000000000E+00 0.  1.
         23    2    1    2    0    0 -0.24593674080E+02  0.59863273285E+02  0.38928335023E+03  0.40540894344E+03  0.92878546286E+02 0.  0.
          5    1    1    2  502    0 -0.15863578647E+02 -0.18194774585E+02  0.16862449834E+04  0.16864229361E+04  0.41800000000E+01 0. -1.
         -5    1    1    2    0  502  0.40457252727E+02 -0.41668498700E+02  0.25167365893E+03  0.25832180721E+03  0.41800000000E+01 0.  1.
        -11    1    3    3    0    0 -0.58548153405E+02  0.28137020199E+02  0.19066140440E+03  0.20142330873E+03  0.00000000000E+00 0.  1.
         11    1    3    3    0    0  0.33954479325E+02  0.31726253086E+02  0.19862194583E+03  0.20398563471E+03  0.00000000000E+00 0. -1.
</event>
<event>
 8    1  0.9181008E-006  0.1829170E+03  0.7561462E-02  0.1165009E+00
         -1   -1    0    0    0  501 -0.00000000000E+00  0.00000000000E+00  0.64299603642E+03  0.64299603642E+03  0.00000000000E+00 0.  1.
          1   -1    0    0  501    0  0.00000000000E+00 -0.00000000000E+00 -0.72856211190E+02  0.72856211190E+02  0.00000000000E+00 0. -1.
         23    2    1    2    0    0  0.28901061499E+02 -0.17747865421E+03  0.31534616161E+03  0.37984478792E+03  0.11182538718E+03 0.  0.
         23    2    1    2    0    0 -0.28901061499E+02  0.17747865421E+03  0.25479366362E+03  0.33600745969E+03  0.12508899986E+03 0.  0.
          5    1    4    4  502    0 -0.24410034559E+02  0.52889143523E+02  0.72991547111E+01  0.58854577980E+02  0.41800000000E+01 0.  1.
         -5    1    4    4    0  502 -0.44910269405E+01  0.12458951069E+03  0.24749450891E+03  0.27715288171E+03  0.41800000000E+01 0.  1.
        -11    1    3    3    0    0  0.27042100983E+02 -0.67728736332E+02  0.22856682937E+03  0.23991926233E+03  0.00000000000E+00 0.  1.
         11    1    3    3    0    0  0.18589605166E+01 -0.10974991788E+03  0.86779332241E+02  0.13992552559E+03  0.00000000000E+00 0. -1.
</event>
<event>
 7    1  0.9181008E-006  0.2670022E+03  0.7561462E-02  0.1103008E+00
          2   -1    0    0  501    0  0.00000000000E+00  0.00000000000E+00  0.22230714930E+04  0.22230714930E+04  0.00000000000E+00 0. -1.
         -2   -1    0    0    0  501 -0.00000000000E+00 -0.00000000000E+00 -0.55839847239E+02  0.55839847239E+02  0.00000000000E+00 0.  1.
         23    2    1    2    0    0  0.51327991171E+02 -0.16866102297E+03  0.58151079265E+03  0.61432318821E+03  0.90316522598E+02 0.  0.
          5    1    1    2  502    0  0.12007428849E+03  0.63087975926E+02  0.13402446214E+04  0.13470972664E+04  0.41800000000E+01 0. -1.
         -5    1    1    2    0  502 -0.17140227966E+03  0.10557304705E+03  0.24547623165E+03  0.31749088561E+03  0.41800000000E+01 0.  1.
        -11    1    3    3    0    0 -0.25121966245E+02 -0.37537123453E+02  0.10748393562E+03  0.11658878694E+03  0.00000000000E+00 0. -1.
         11    1    3    3    0    0  0.76449957417E+02 -0.13112389952E+03  0.47402685704E+03  0.49773440127E+03  0.00000000000E+00 0.  1.
</event>
<event>
 8    1  0.9181008E-006  0.3018564E+03  0.7561462E-02  0.1084316E+00
          2   -1    0    0  501    0  0.00000000000E+00  0.00000000000E+00  0.25340134358E+03  0.25340134358E+03  0.00000000000E+00 0. -1.
         -2   -1    0    0    0  501 -0.00000000000E+00 -0.00000000000E+00 -0.49027078227E+03  0.49027078227E+03  0.00000000000E+00 0.  1.
         23    2    1    2    0    0  0.92470171989E+02 -0.28176918098E+03 -0.28083022938E+03  0.41882615677E+03  0.92763828112E+02 0.  0.
         23    2    1    2    0    0 -0.92470171989E+02  0.28176918098E+03  0.43960790689E+02  0.32484596909E+03  0.12509096073E+03 0.  0.
          5    1    4    4  502    0 -0.62196250951E+02  0.22116078318E+03  0.85611250306E+02  0.24520853213E+03  0.41800000000E+01 0. -1.
         -5    1    4    4    0  502 -0.30273921038E+02  0.60608397796E+02 -0.41650459617E+02  0.79637436955E+02  0.41800000000E+01 0. -1.
        -11    1    3    3    0    0  0.10429944819E+03 -0.22403384818E+03 -0.19540528059E+03  0.31504406629E+03  0.00000000000E+00 0.  1.
         11    1    3    3    0    0 -0.11829276200E+02 -0.57735332794E+02 -0.85424948786E+02  0.10378209047E+03  0.00000000000E+00 0. -1.
</event>
<event>
 8    1  0.9181008E-006  0.1046452E+03  0.7561462E-02  0.1270820E+00
          1   -1    0    0  501    0  0.00000000000E+00  0.00000000000E+00  0.76032207344E+03  0.76032207344E+03  0.00000000000E+00 0. -1.
         -1   -1    0    0    0  501 -0.00000000000E+00 -0.00000000000E+00 -0.52095921148E+02  0.52095921148E+02  0.00000000000E+00 0.  1.
         23    2    1    2    0    0 -0.12040281784E+02  0.82793012277E+02  0.39509993401E+02  0.12874758514E+03  0.89527927679E+02 0.  0.
         23    2    1    2    0    0  0.12040281784E+02 -0.82793012277E+02  0.66871615889E+03  0.68367040944E+03  0.11499685352E+03 0.  0.
          5    1    4    4  502    0 -0.19874148328E+02 -0.13696750286E+02  0.23428209105E+02  0.33895960261E+02  0.41800000000E+01 0.  1.
         -5    1    4    4    0  502  0.31914430112E+02 -0.69096261991E+02  0.64528794979E+03  0.64977444918E+03  0.41800000000E+01 0. -1.
        -11    1    3    3    0    0 -0.40518632171E+02  0.58354429270E+02  0.53250746695E+02  0.88784238421E+02  0.00000000000E+00 0.  1.
         11    1    3    3    0    0  0.28478350387E+02  0.24438583008E+02 -0.13740753295E+02  0.39963346723E+02  0.00000000000E+00 0. -1.
</event>
<event>
 7    1  0.9181008E-006  0.1290586E+03  0.7561462E-02  0.1228859E+00
         -2   -1    0    0    0  501 -0.00000000000E+00  0.00000000000E+00  0.47014582624E+02  0.47014582624E+02  0.00000000000E+00 0.  1.
          2   -1    0    0  501    0  0.00000000000E+00 -0.00000000000E+00 -0.10947331804E+04  0.10947331804E+04  0.00000000000E+00 0. -1.
         23    2    1    2    0    0  0.53324132882E+02  0.37933955767E+02 -0.39297687955E+02  0.11842905717E+03  0.90546591073E+02 0.  0.
          5    1    1    2  502    0 -0.85300704681E+02  0.16588594450E+02 -0.81853482684E+03  0.82314526473E+03  0.41800000000E+01 0. -1.
         -5    1    1    2    0  502  0.31976571799E+02 -0.54522550217E+02 -0.18988608299E+03  0.20017344115E+03  0.41800000000E+01 0.  1.
        -11    1    3    3    0    0  0.62727154486E+02  0.58113471494E+02 -0.43239121904E+02  0.95820108234E+02  0.00000000000E+00 0.  1.
         11    1    3    3    0    0 -0.94030216038E+01 -0.20179515727E+02  0.39414339492E+01  0.22608948932E+02  0.00000000000E+00 0. -1.
</event>
<event>
 8    1  0.9181008E-006  0.9703146E+02  0.7561462E-02  0.1286665E+00
         -4   -1    0    0    0  501 -0.00000000000E+00  0.00000000000E+00  0.69604964044E+02  0.69604964044E+02  0.00000000000E+00 0.  1.
          4   -1    0    0  501    0  0.00000000000E+00 -0.00000000000E+00 -0.35893112294E+03  0.35893112294E+03  0.00000000000E+00 0. -1.
         23    2    1    2    0    0  0.69358509902E+02 -0.44553047078E+01 -0.11030432628E+02  0.11560271297E+03  0.91716215393E+02 0.  0.
         23    2    1    2    0    0 -0.69358509902E+02  0.44553047078E+01 -0.27829572627E+03  0.31293337401E+03  0.12509329589E+03 0.  0.
          5    1    4    4  502    0 -0.11977627046E+02  0.16052980811E+02  0.70295700270E+01  0.21634440074E+02  0.41800000000E+01 0. -1.
         -5    1    4    4    0  502 -0.57380882857E+02 -0.11597676103E+02 -0.28532529630E+03  0.29129893394E+03  0.41800000000E+01 0. -1.
        -11    1    3    3    0    0  0.87340495471E+02  0.14778203502E+02 -0.59068912950E+01  0.88778650658E+02  0.00000000000E+00 0.  1.
         11    1    3    3    0    0 -0.17981985569E+02 -0.19233508210E+02 -0.51235413326E+01  0.26824062311E+02  0.00000000000E+00 0. -1.
</event>
<event>
 7    1  0.9181008E-006  0.1205840E+03  0.7561462E-02  0.1242137E+00
         -1   -1    0    0    0  501 -0.00000000000E+00  0.00000000000E+00  0.24094912837E+03  0.24094912837E+03  0.00000000000E+00 0.  1.
          1   -1    0    0  501    0  0.00000000000E+00 -0.00000000000E+00 -0.12251278577E+03  0.12251278577E+03  0.00000000000E+00 0. -1.
         23    2    1    2    0    0  0.77588884523E+02 -0.36138499644E+02  0.13101229999E+03  0.18010806593E+03  0.89155294321E+02 0.  0.
          5    1    1    2  502    0 -0.85819352119E+02 -0.38376944529E+01 -0.71299573775E+02  0.11171745932E+03  0.41800000000E+01 0. -1.
         -5    1    1    2    0  502  0.82304675965E+01  0.39976194097E+02  0.58723616384E+02  0.71636388885E+02  0.41800000000E+01 0.  1.
        -11    1    3    3    0    0  0.86337669799E+02 -0.48470367335E+02  0.81197722267E+02  0.12804936485E+03  0.00000000000E+00 0. -1.
         11    1    3    3    0    0 -0.87487852768E+01  0.12331867691E+02  0.49814577725E+02  0.52058701083E+02  0.00000000000E+00 0.  1.
</event>
<event>
 8    1  0.9181008E-006  0.1409256E+03  0.7561462E-02  0.1212089E+00
         -1   -1    0    0    0  501 -0.00000000000E+00  0.00000000000E+00  0.38389610493E+02  0.38389610493E+02  0.00000000000E+00 0.  1.
          1   -1    0    0  501    0  0.00000000000E+00 -0.00000000000E+00 -0.68998307523E+03  0.68998307523E+03  0.00000000000E+00 0. -1.
         23    2    1    2    0    0 -0.34574158965E+02 -0.71205509288E+02 -0.16823405778E+03  0.22285139962E+03  0.12285947701E+03 0.  0.
         23    2    1    2    0    0  0.34574158965E+02  0.71205509288E+02 -0.48335940695E+03  0.50552128610E+03  0.12509939008E+03 0.  0.
          5    1    4    4  502    0 -0.45789345479E+02  0.41953109417E+02 -0.19153868271E+03  0.20139827935E+03  0.41800000000E+01 0. -1.
         -5    1    4    4    0  502  0.80363504444E+02  0.29252399871E+02 -0.29182072423E+03  0.30412300675E+03  0.41800000000E+01 0. -1.
        -11    1    3    3    0    0  0.39294763157E+02 -0.29673819072E+02 -0.10856051497E+03  0.11920570188E+03  0.00000000000E+00 0. -1.
         11    1    3    3    0    0 -0.73868922121E+02 -0.41531690216E+02 -0.59673542819E+02  0.10364569774E+03  0.00000000000E+00 0.  1.
</event>
<event>
 8    1  0.9181008E-006  0.2378173E+03  0.7561462E-02  0.1121255E+00
         -2   -1    0    0    0  501 -0.00000000000E+00  0.00000000000E+00  0.73475262257E+02  0.73475262257E+02  0.00000000000E+00 0.  1.
          2   -1    0    0  501    0  0.00000000000E+00 -0.00000000000E+00 -0.10045327585E+04  0.10045327585E+04  0.00000000000E+00 0. -1.
         23    2    1    2    0    0  0.16292118894E+03  0.13558098590E+03 -0.19587327282E+03  0.30272438630E+03  0.91379415158E+02 0.  0.
         23    2    1    2    0    0 -0.16292118894E+03 -0.13558098590E+03 -0.73518422343E+03  0.77528363446E+03  0.12507339421E+03 0.  0.
          5    1    4    4  502    0  0.85926051560E+01  0.14183824891E+02 -0.74935780177E+02  0.76862587146E+02  0.41800000000E+01 0. -1.
         -5    1    4    4    0  502 -0.17151379409E+03 -0.14976481079E+03 -0.66024844325E+03  0.69842104732E+03  0.41800000000E+01 0. -1.
        -11    1    3    3    0    0  0.73579602798E+02  0.65735309008E+01 -0.64542303459E+02  0.98096270022E+02  0.00000000000E+00 0. -1.
         11    1    3    3    0    0  0.89341586139E+02  0.12900745500E+03 -0.13133096936E+03  0.20462811628E+03  0.00000000000E+00 0.  1.
</event>
<event>
 7    1  0.9181008E-006  0.1241093E+03  0.7561462E-02  0.1236468E+00
         -2   -1    0    0    0  501 -0.00000000000E+00  0.00000000000E+00  0.12306547348E+03  0.12306547348E+03  0.00000000000E+00 0.  1.
          2   -1    0    0  501    0  0.00000000000E+00 -0.00000000000E+00 -0.20806362355E+03  0.20806362355E+03  0.00000000000E+00 0. -1.
         23    2    1    2    0    0  0.80553651021E+02  0.17933749919E+02  0.32941106045E+02  0.12454767637E+03  0.87272545181E+02 0.  0.
          5    1    1    2  502    0  0.19295343797E+02  0.14734475651E+02 -0.96086197714E+02  0.99193975906E+02  0.41800000000E+01 0. -1.
         -5    1    1    2    0  502 -0.99848994818E+02 -0.32668225571E+02 -0.21853058400E+02  0.10738744475E+03  0.41800000000E+01 0.  1.
        -11    1    3    3    0    0 -0.94425246818E+01 -0.18957715916E+02 -0.18233884621E+01  0.21257493046E+02  0.00000000000E+00 0.  1.
         11    1    3    3    0    0  0.89996175703E+02  0.36891465835E+02  0.34764494507E+02  0.10329018332E+03  0.00000000000E+00 0. -1.
</event>
<event>
 7    1  0.9181008E-006  0.1334273E+03  0.7561462E-02  0.1222457E+00
          2   -1    0    0  501    0  0.00000000000E+00  0.00000000000E+00  0.12648823909E+04  0.12648823909E+04  0.00000000000E+00 0. -1.
         -2   -1    0    0    0  501 -0.00000000000E+00 -0.00000000000E+00 -0.25281453869E+02  0.25281453869E+02  0.00000000000E+00 0.  1.
         23    2    1    2    0    0  0.19719858889E+02  0.43255739077E+02  0.28428481846E+03  0.30176965292E+03  0.89370764896E+02 0.  0.
          5    1    1    2  502    0  0.57610577335E+02  0.27378940373E+02  0.79044056361E+03  0.79302102241E+03  0.41800000000E+01 0. -1.
         -5    1    1    2    0  502 -0.77330436224E+02 -0.70634679450E+02  0.16487555492E+03  0.19537316939E+03  0.41800000000E+01 0.  1.
        -11    1    3    3    0    0  0.53828396013E+02  0.23887037969E+02  0.13248410466E+03  0.14498318795E+03  0.00000000000E+00 0. -1.
         11    1    3    3    0    0 -0.34108537124E+02  0.19368701107E+02  0.15180071381E+03  0.15678646498E+03  0.00000000000E+00 0.  1.
</event>
<event>
 8    1  0.9181008E-006  0.1340355E+03  0.7561462E-02  0.1221588E+00
          3   -1    0    0  501    0  0.00000000000E+00  0.00000000000E+00  0.46026914990E+03  0.46026914990E+03  0.00000000000E+00 0. -1.
         -3   -1    0    0    0  501 -0.00000000000E+00 -0.00000000000E+00 -0.39827452332E+02  0.39827452332E+02  0.00000000000E+00 0.  1.
         23    2    1    2    0    0  0.35033559900E+02 -0.72109525372E+02  0.17203086716E+03  0.21064166178E+03  0.91368246416E+02 0.  0.
         23    2    1    2    0    0 -0.35033559900E+02  0.72109525372E+02  0.24841083040E+03  0.28945494045E+03  0.12509631457E+03 0.  0.
          5    1    4    4  502    0 -0.21958973721E+02 -0.34468224304E+02  0.71763351803E+02  0.82690423119E+02  0.41800000000E+01 0. -1.
         -5    1    4    4    0  502 -0.13074586178E+02  0.10657774968E+03  0.17664747860E+03  0.20676451733E+03  0.41800000000E+01 0. -1.
        -11    1    3    3    0    0 -0.23984591791E+02  0.28198677829E+01  0.20944285940E+02  0.31966786064E+02  0.00000000000E+00 0. -1.
         11    1    3    3    0    0  0.59018151691E+02 -0.74929393155E+02  0.15108658122E+03  0.17867487572E+03  0.00000000000E+00 0.  1.
</event>
<event>
 8    1  0.9181008E-006  0.1395691E+03  0.7561462E-02  0.1213910E+00
          1   -1    0    0  501    0  0.00000000000E+00  0.00000000000E+00  0.66198711105E+03  0.66198711105E+03  0.00000000000E+00 0. -1.
         -1   -1    0    0    0  501 -0.00000000000E+00 -0.00000000000E+00 -0.38899468654E+02  0.38899468654E+02  0.00000000000E+00 0.  1.
         23    2    1    2    0    0 -0.75072037849E+02 -0.55949894253E+02  0.13435134396E+03  0.18778174083E+03  0.91899385375E+02 0.  0.
         23    2    1    2    0    0  0.75072037849E+02  0.55949894253E+02  0.48873629844E+03  0.51310483887E+03  0.12508878739E+03 0.  0.
          5    1    4    4  502    0 -0.30917207138E+02 -0.59243901822E+01  0.13412947556E+03  0.13783744306E+03  0.41800000000E+01 0.  1.
         -5    1    4    4    0  502  0.10598924499E+03  0.61874284435E+02  0.35460682288E+03  0.37526739581E+03  0.41800000000E+01 0.  1.
        -11    1    3    3    0    0  0.10947403870E+02 -0.34125135632E+02  0.14522008965E+02  0.38668582567E+02  0.00000000000E+00 0. -1.
         11    1    3    3    0    0 -0.86019441719E+02 -0.21824758622E+02  0.11982933499E+03  0.14911315826E+03  0.00000000000E+00 0.  1.
</event>
<event>
 8    1  0.9181008E-006  0.1700627E+03  0.7561462E-02  0.1177783E+00
          3   -1    0    0  501    0  0.00000000000E+00  0.00000000000E+00  0.11248939931E+03  0.11248939931E+03  0.00000000000E+00 0. -1.
         -3   -1    0    0    0  501 -0.00000000000E+00 -0.00000000000E+00 -0.32910064447E+03  0.32910064447E+03  0.00000000000E+00 0.  1.
         23    2    1    2    0    0  0.19383386632E+02  0.15699492570E+03 -0.92818209156E+02  0.20495821099E+03  0.91485113147E+02 0.  0.
         23    2    1    2    0    0 -0.19383386632E+02 -0.15699492570E+03 -0.12379303600E+03  0.23663183279E+03  0.12508711426E+03 0.  0.
          5    1    4    4  502    0  0.26817648773E+02 -0.22938589882E+02  0.14629698216E+02  0.38430009906E+02  0.41800000000E+01 0. -1.
         -5    1    4    4    0  502 -0.46201035406E+02 -0.13405633582E+03 -0.13842273422E+03  0.19820182288E+03  0.41800000000E+01 0. -1.
        -11    1    3    3    0    0  0.28756723352E+02  0.77068504240E+02 -0.93430152167E+02  0.12448171278E+03  0.00000000000E+00 0.  1.
         11    1    3    3    0    0 -0.93733367199E+01  0.79926421464E+02  0.61194301155E+00  0.80476498206E+02  0.00000000000E+00 0. -1.
</event>
<event>
 8    1  0.9181008E-006  0.1489590E+03  0.7561462E-02  0.1201758E+00
         -1   -1    0    0    0  501 -0.00000000000E+00  0.00000000000E+00  0.15776030273E+03  0.15776030273E+03  0.00000000000E+00 0.  1.
          1   -1    0    0  501    0  0.00000000000E+00 -0.00000000000E+00 -0.18590387763E+03  0.18590387763E+03  0.00000000000E+00 0. -1.
         23    2    1    2    0    0 -0.33630401920E+02  0.11395365102E+03  0.44164304627E+02  0.15659849069E+03  0.91957397586E+02 0.  0.
         23    2    1    2    0    0  0.33630401920E+02 -0.11395365102E+03 -0.72307879529E+02  0.18706568967E+03  0.12509478125E+03 0.  0.
          5    1    4    4  502    0  0.24070270824E+02 -0.14121229035E+03 -0.58792519661E+02  0.15490100597E+03  0.41800000000E+01 0.  1.
         -5    1    4    4    0  502  0.95601310962E+01  0.27258639334E+02 -0.13515359868E+02  0.32164683696E+02  0.41800000000E+01 0.  1.
        -11    1    3    3    0    0 -0.41550559305E+02  0.75678777067E+02 -0.13042123541E+02  0.87314507749E+02  0.00000000000E+00 0. -1.
         11    1    3    3    0    0  0.79201573849E+01  0.38274873949E+02  0.57206428168E+02  0.69283982944E+02  0.00000000000E+00 0.  1.
</event>
<event>
 7    1  0.9181008E-006  0.8535701E+02  0.7561462E-02  0.1314502E+00
          2   -1    0    0  501    0  0.00000000000E+00  0.00000000000E+00  0.10982936758E+03  0.10982936758E+03  0.00000000000E+00 0. -1.
         -2   -1    0    0    0  501 -0.00000000000E+00 -0.00000000000E+00 -0.20842649079E+03  0.20842649079E+03  0.00000000000E+00 0.  1.
         23    2    1    2    0    0  0.33640272145E+02  0.59785076434E+02 -0.11397084283E+03  0.16224208473E+03  0.92882817391E+02 0.  0.
          5    1    1    2  502    0 -0.15368436040E+02 -0.33919108786E+02  0.77540565238E+02  0.86120302047E+02  0.41800000000E+01 0. -1.
         -5    1    1    2    0  502 -0.18271836105E+02 -0.25865967648E+02 -0.62166845621E+02  0.69893471594E+02  0.41800000000E+01 0.  1.
        -11    1    3    3    0    0 -0.12074755923E+02  0.53864821272E+02 -0.22111601791E+02  0.59465465902E+02  0.00000000000E+00 0.  1.
         11    1    3    3    0    0  0.45715028068E+02  0.59202551625E+01 -0.91859241040E+02  0.10277661882E+03  0.00000000000E+00 0. -1.
</event>
<event>
 7    1  0.9181008E-006  0.1229211E+03  0.7561462E-02  0.1238354E+00
          1   -1    0    0  501    0  0.00000000000E+00  0.00000000000E+00  0.39784096362E+02  0.39784096362E+02  0.00000000000E+00 0. -1.
         -1   -1    0    0    0  501 -0.00000000000E+00 -0.00000000000E+00 -0.44582228798E+03  0.44582228798E+03  0.00000000000E+00 0.  1.
         23    2    1    2    0    0  0.25945223749E+01  0.61431116499E+02 -0.19189824081E+03  0.22052034587E+03  0.89575523982E+02 0.  0.
          5    1    1    2  502    0 -0.60544947859E+02  0.28768041426E+01 -0.47007263600E+02  0.76818760368E+02  0.41800000000E+01 0. -1.
         -5    1    1    2    0  502  0.57950425484E+02 -0.64307920641E+02 -0.16713268721E+03  0.18826727810E+03  0.41800000000E+01 0.  1.
        -11    1    3    3    0    0 -0.35628709803E+02  0.16029562622E+02 -0.33838599208E+02  0.51685613437E+02  0.00000000000E+00 0.  1.
         11    1    3    3    0    0  0.38223232178E+02  0.45401553877E+02 -0.15805964160E+03  0.16883473243E+03  0.00000000000E+00 0. -1.
</event>
<event>
 8    1  0.9181008E-006  0.1885627E+03  0.7561462E-02  0.1159764E+00
          1   -1    0    0  501    0  0.00000000000E+00  0.00000000000E+00  0.75846408985E+03  0.75846408985E+03  0.00000000000E+00 0. -1.
         -1   -1    0    0    0  501 -0.00000000000E+00 -0.00000000000E+00 -0.67322684096E+02  0.67322684096E+02  0.00000000000E+00 0.  1.
         23    2    1    2    0    0  0.97414159047E+02 -0.12194954422E+03  0.11157656955E+03  0.21267636902E+03  0.91764357719E+02 0.  0.
         23    2    1    2    0    0 -0.97414159047E+02  0.12194954422E+03  0.57956483620E+03  0.61311040492E+03  0.12509100507E+03 0.  0.
          5    1    4    4  502    0 -0.45699609007E+02  0.13570880274E+03  0.36958353889E+03  0.39637709069E+03  0.41800000000E+01 0. -1.
         -5    1    4    4    0  502 -0.51714550040E+02 -0.13759258514E+02  0.20998129731E+03  0.21673331424E+03  0.41800000000E+01 0. -1.
        -11    1    3    3    0    0  0.74469164272E+02 -0.13471942118E+03  0.87569518215E+02  0.17709714676E+03  0.00000000000E+00 0.  1.
         11    1    3    3    0    0  0.22944994775E+02  0.12769876956E+02  0.24007051340E+02  0.35579222261E+02  0.00000000000E+00 0. -1.
</event>
<event>
 8    1  0.9181008E-006  0.2777199E+03  0.7561462E-02  0.1096941E+00
          2   -1    0    0  501    0  0.00000000000E+00  0.00000000000E+00  0.12839308600E+04  0.12839308600E+04  0.00000000000E+00 0. -1.
         -2   -1    0    0    0  501 -0.00000000000E+00 -0.00000000000E+00 -0.82959022170E+02  0.82959022170E+02  0.00000000000E+00 0.  1.
         23    2    1    2    0    0  0.24360952933E+03 -0.11657119752E+03  0.28407979299E+03  0.40290163744E+03  0.93241373864E+02 0.  0.
         23    2    1    2    0    0 -0.24360952933E+03  0.11657119752E+03  0.91689204488E+03  0.96398824476E+03  0.12509143539E+03 0.  0.
          5    1    4    4  502    0 -0.13261648865E+03  0.64169521718E+02  0.69422990756E+03  0.70970240068E+03  0.41800000000E+01 0. -1.
         -5    1    4    4    0  502 -0.11099304068E+03  0.52401675802E+02  0.22266213732E+03  0.25428584408E+03  0.41800000000E+01 0. -1.
        -11    1    3    3    0    0  0.10158786819E+03 -0.12875768533E+00  0.11230342885E+03  0.15143372040E+03  0.00000000000E+00 0. -1.
         11    1    3    3    0    0  0.14202166114E+03 -0.11644243983E+03  0.17177636414E+03  0.25146791704E+03  0.00000000000E+00 0.  1.
</event>
<event>
 8    1  0.9181008E-006  0.1836576E+03  0.7561462E-02  0.1164309E+00
         -2   -1    0    0    0  501 -0.00000000000E+00  0.00000000000E+00  0.26837040611E+02  0.26837040611E+02  0.00000000000E+00 0.  1.
          2   -1    0    0  501    0  0.00000000000E+00 -0.00000000000E+00 -0.13862928663E+04  0.13862928663E+04  0.00000000000E+00 0. -1.
         23    2    1    2    0    0  0.13811917474E+03  0.69691351188E+02 -0.54125972950E+03  0.57109245136E+03  0.96180571652E+02 0.  0.
         23    2    1    2    0    0 -0.13811917474E+03 -0.69691351188E+02 -0.81819609616E+03  0.84203745552E+03  0.12509370035E+03 0.  0.
          5    1    4    4  502    0  0.13532271567E+02 -0.22783065085E+02 -0.42530531778E+02  0.50284281457E+02  0.41800000000E+01 0. -1.
         -5    1    4    4    0  502 -0.15165144630E+03 -0.46908286104E+02 -0.77566556438E+03  0.79175317406E+03  0.41800000000E+01 0. -1.
        -11    1    3    3    0    0  0.93678345940E+02  0.92577950496E+02 -0.41009270271E+03  0.43072303657E+03  0.00000000000E+00 0.  1.
         11    1    3    3    0    0  0.44440828796E+02 -0.22886599308E+02 -0.13116702679E+03  0.14036941479E+03  0.00000000000E+00 0. -1.
</event>
<event>
 8    1  0.9181008E-006  0.1128286E+03  0.7561462E-02  0.1255420E+00
          1   -1    0    0  501    0  0.00000000000E+00  0.00000000000E+00  0.48521289937E+03  0.48521289937E+03  0.00000000000E+00 0. -1.
         -1   -1    0    0    0  501 -0.00000000000E+00 -0.00000000000E+00 -0.30225757615E+02  0.30225757615E+02  0.00000000000E+00 0.  1.
         23    2    1    2    0    0 -0.21794626491E+02 -0.38959178761E+02  0.15305035897E+03  0.18557873703E+03  0.94985429950E+02 0.  0.
         23    2    1    2    0    0  0.21794626491E+02  0.38959178761E+02  0.30193678278E+03  0.32985991996E+03  0.12509565397E+03 0.  0.
          5    1    4    4  502    0  0.43372192459E+02  0.72834582555E+02  0.14695105543E+03  0.16970005477E+03  0.41800000000E+01 0. -1.
         -5    1    4    4    0  502 -0.21577565968E+02 -0.33875403794E+02  0.15498572735E+03  0.16015986519E+03  0.41800000000E+01 0. -1.
        -11    1    3    3    0    0  0.13445192128E+02 -0.58556661449E+02  0.11684772951E+03  0.13138891765E+03  0.00000000000E+00 0. -1.
         11    1    3    3    0    0 -0.35239818619E+02  0.19597482687E+02  0.36202629469E+02  0.54189819380E+02  0.00000000000E+00 0.  1.
</event>
<event>
 8    1  0.9181008E-006  0.9787539E+02  0.7561462E-02  0.1284828E+00
          2   -1    0    0  501    0  0.00000000000E+00  0.00000000000E+00  0.34624619396E+03  0.34624619396E+03  0.00000000000E+00 0.  1.
         -2   -1    0    0    0  501 -0.00000000000E+00 -0.00000000000E+00 -0.38187399301E+02  0.38187399301E+02  0.00000000000E+00 0. -1.
         23    2    1    2    0    0  0.24338335192E+02  0.46620545334E+00  0.13336074886E+03  0.16819012371E+03  0.99550271073E+02 0.  0.
         23    2    1    2    0    0 -0.24338335192E+02 -0.46620545334E+00  0.17469804580E+03  0.21624346955E+03  0.12509699840E+03 0.  0.
          5    1    4    4  502    0  0.43762947712E+02 -0.54104243589E+01  0.23166876820E+02  0.49986446822E+02  0.41800000000E+01 0.  1.
         -5    1    4    4    0  502 -0.68101282905E+02  0.49442189056E+01  0.15153116898E+03  0.16625702273E+03  0.41800000000E+01 0.  1.
        -11    1    3    3    0    0  0.25894950932E+02  0.37725056342E+02  0.12024942276E+03  0.12866099655E+03  0.00000000000E+00 0.  1.
         11    1    3    3    0    0 -0.15566157397E+01 -0.37258850889E+02  0.13111326103E+02  0.39529127164E+02  0.00000000000E+00 0. -1.
</event>
<event>
 8    1  0.9181008E-006  0.1031031E+03  0.7561462E-02  0.1273903E+00
          1   -1    0    0  501    0  0.00000000000E+00  0.00000000000E+00  0.73603618174E+02  0.73603618174E+02  0.00000000000E+00 0. -1.
         -1   -1    0    0    0  501 -0.00000000000E+00 -0.00000000000E+00 -0.25440412841E+03  0.25440412841E+03  0.00000000000E+00 0.  1.
         23    2    1    2    0    0  0.30643870638E+02  0.49719664048E+02 -0.15246805667E+03  0.18707763384E+03  0.91326014794E+02 0.  0.
         23    2    1    2    0    0 -0.30643870638E+02 -0.49719664048E+02 -0.28332453567E+02  0.14093011274E+03  0.12508987550E+03 0.  0.
          5    1    4    4  502    0 -0.37036695680E+02 -0.87626542759E+02 -0.41334314907E+01  0.95313616439E+02  0.41800000000E+01 0.  1.
         -5    1    4    4    0  502  0.63928250428E+01  0.37906878711E+02 -0.24199022077E+02  0.45616496304E+02  0.41800000000E+01 0.  1.
        -11    1    3    3    0    0 -0.68448823148E+01  0.28343893895E+02 -0.56567890622E+00  0.29164168557E+02  0.00000000000E+00 0. -1.
         11    1    3    3    0    0  0.37488752953E+02  0.21375770154E+02 -0.15190237776E+03  0.15791346528E+03  0.00000000000E+00 0.  1.
</event>
<event>
 8    1  0.9181008E-006  0.1533728E+03  0.7561462E-02  0.1196389E+00
          1   -1    0    0  501    0  0.00000000000E+00  0.00000000000E+00  0.16598009392E+03  0.16598009392E+03  0.00000000000E+00 0. -1.
         -1   -1    0    0    0  501 -0.00000000000E+00 -0.00000000000E+00 -0.18084126659E+03  0.18084126659E+03  0.00000000000E+00 0.  1.
         23    2    1    2    0    0  0.11149171405E+03 -0.58635328787E+02 -0.54112412892E+02  0.16499847008E+03  0.91803256021E+02 0.  0.
         23    2    1    2    0    0 -0.11149171405E+03  0.58635328787E+02  0.39251240219E+02  0.18182289043E+03  0.12510155691E+03 0.  0.
          5    1    4    4  502    0  0.85683741647E+01 -0.27438927573E+02  0.54823088996E+00  0.29053136479E+02  0.41800000000E+01 0.  1.
         -5    1    4    4    0  502 -0.12006008821E+03  0.86074256360E+02  0.38703009329E+02  0.15276975395E+03  0.41800000000E+01 0.  1.
        -11    1    3    3    0    0  0.27779725001E+02 -0.31299865245E+02  0.23168674396E+02  0.47834947045E+02  0.00000000000E+00 0. -1.
         11    1    3    3    0    0  0.83711989048E+02 -0.27335463542E+02 -0.77281087288E+02  0.11716352303E+03  0.00000000000E+00 0.  1.
</event>
<event>
 8    1  0.9181008E-006  0.1602982E+03  0.7561462E-02  0.1188360E+00
         -1   -1    0    0    0  501 -0.00000000000E+00  0.00000000000E+00  0.21787884226E+02  0.21787884226E+02  0.00000000000E+00 0.  1.
          1   -1    0    0  501    0  0.00000000000E+00 -0.00000000000E+00 -0.16577693138E+04  0.16577693138E+04  0.00000000000E+00 0. -1.
         23    2    1    2    0    0  0.13525228434E+03  0.31836552558E+02 -0.45282146900E+03  0.48171739937E+03  0.87736101910E+02 0.  0.
         23    2    1    2    0    0 -0.13525228434E+03 -0.31836552558E+02 -0.11831599605E+04  0.11978397986E+04  0.12508374964E+03 0.  0.
          5    1    4    4  502    0 -0.69451813931E+02  0.20092461363E+02 -0.23336367325E+03  0.24434266482E+03  0.41800000000E+01 0.  1.
         -5    1    4    4    0  502 -0.65800470406E+02 -0.51929013921E+02 -0.94979628730E+03  0.95349713380E+03  0.41800000000E+01 0.  1.
        -11    1    3    3    0    0 -0.10887435490E+02  0.12910598841E+02 -0.42127870618E+02  0.45386972766E+02  0.00000000000E+00 0.  1.
         11    1    3    3    0    0  0.14613971983E+03  0.18925953717E+02 -0.41069359838E+03  0.43633042661E+03  0.00000000000E+00 0. -1.
</event>
<event>
 8    1  0.9181008E-006  0.1334539E+03  0.7561462E-02  0.1222419E+00
         -1   -1    0    0    0  501 -0.00000000000E+00  0.00000000000E+00  0.47872279951E+02  0.47872279951E+02  0.00000000000E+00 0.  1.
          1   -1    0    0  501    0  0.00000000000E+00 -0.00000000000E+00 -0.40549565710E+03  0.40549565710E+03  0.00000000000E+00 0. -1.
         23    2    1    2    0    0  0.58665522256E+02  0.63903883389E+02 -0.18982289164E+03  0.22680580695E+03  0.88785100440E+02 0.  0.
         23    2    1    2    0    0 -0.58665522256E+02 -0.63903883389E+02 -0.16780048551E+03  0.22656213011E+03  0.12509215022E+03 0.  0.
          5    1    4    4  502    0 -0.61009348405E+02 -0.98680266130E+02 -0.13937772459E+03  0.18139337923E+03  0.41800000000E+01 0. -1.
         -5    1    4    4    0  502  0.23438261497E+01  0.34776382741E+02 -0.28422760924E+02  0.45168750880E+02  0.41800000000E+01 0. -1.
        -11    1    3    3    0    0  0.46281070596E+02 -0.42173067437E+01 -0.11904166782E+03  0.12779139974E+03  0.00000000000E+00 0. -1.
         11    1    3    3    0    0  0.12384451660E+02  0.68121190133E+02 -0.70781223826E+02  0.99014407206E+02  0.00000000000E+00 0.  1.
</event>
<event>
 8    1  0.9181008E-006  0.1087190E+03  0.7561462E-02  0.1262961E+00
         -2   -1    0    0    0  501 -0.00000000000E+00  0.00000000000E+00  0.24591808588E+03  0.24591808588E+03  0.00000000000E+00 0.  1.
          2   -1    0    0  501    0  0.00000000000E+00 -0.00000000000E+00 -0.82700483250E+02  0.82700483250E+02  0.00000000000E+00 0. -1.
         23    2    1    2    0    0 -0.59316031055E+02  0.57831989871E+02  0.10733470192E+03  0.16848481107E+03  0.10001731215E+03 0.  0.
         23    2    1    2    0    0  0.59316031055E+02 -0.57831989871E+02  0.55882900706E+02  0.16013375806E+03  0.12512789972E+03 0.  0.
          5    1    4    4  502    0  0.31097523679E-01  0.66048864282E+00  0.74559826976E+02  0.74679832693E+02  0.41800000000E+01 0. -1.
         -5    1    4    4    0  502  0.59284933532E+02 -0.58492478514E+02 -0.18676926270E+02  0.85453925372E+02  0.41800000000E+01 0. -1.
        -11    1    3    3    0    0 -0.42396157530E+02 -0.22311104771E+02  0.41934848283E+02  0.63669074675E+02  0.00000000000E+00 0.  1.
         11    1    3    3    0    0 -0.16919873526E+02  0.80143094643E+02  0.65399853641E+02  0.10481573639E+03  0.00000000000E+00 0. -1.
</event>
<event>
 8    1  0.9181008E-006  0.7729005E+02  0.7561462E-02  0.1336923E+00
         -2   -1    0    0    0  501 -0.00000000000E+00  0.00000000000E+00  0.61817000805E+02  0.61817000805E+02  0.00000000000E+00 0.  1.
          2   -1    0    0  501    0  0.00000000000E+00 -0.00000000000E+00 -0.28591795502E+03  0.28591795502E+03  0.00000000000E+00 0. -1.
         23    2    1    2    0    0 -0.11228124192E+02  0.42955766173E+02 -0.20968280503E+02  0.10507849710E+03  0.92900770423E+02 0.  0.
         23    2    1    2    0    0  0.11228124192E+02 -0.42955766173E+02 -0.20313267371E+03  0.24265645872E+03  0.12509198700E+03 0.  0.
          5    1    4    4  502    0 -0.23177097511E+01  0.15897814925E+01 -0.19517157052E+03  0.19523655786E+03  0.41800000000E+01 0.  1.
         -5    1    4    4    0  502  0.13545833943E+02 -0.44545547666E+02 -0.79611031870E+01  0.47419900865E+02  0.41800000000E+01 0.  1.
        -11    1    3    3    0    0 -0.32802540837E+02 -0.18502640654E+02 -0.10590497528E+02  0.39121771872E+02  0.00000000000E+00 0.  1.
         11    1    3    3    0    0  0.21574416646E+02  0.61458406827E+02 -0.10377782975E+02  0.65956725228E+02  0.00000000000E+00 0. -1.
</event>
<event>
 8    1  0.9181008E-006  0.8492551E+02  0.7561462E-02  0.1315627E+00
          1   -1    0    0  501    0  0.00000000000E+00  0.00000000000E+00  0.64947613457E+03  0.64947613457E+03  0.00000000000E+00 0. -1.
         -1   -1    0    0    0  501 -0.00000000000E+00 -0.00000000000E+00 -0.27798073454E+02  0.27798073454E+02  0.00000000000E+00 0.  1.
         23    2    1    2    0    0  0.75898845779E+02  0.11891123140E+02  0.22343982888E+03  0.25284124443E+03  0.90007245009E+02 0.  0.
         23    2    1    2    0    0 -0.75898845779E+02 -0.11891123140E+02  0.39823823224E+03  0.42443296360E+03  0.12509043677E+03 0.  0.
          5    1    4    4  502    0 -0.66288220649E+01 -0.19580005069E+02  0.31536022944E+03  0.31606465256E+03  0.41800000000E+01 0.  1.
         -5    1    4    4    0  502 -0.69270023714E+02  0.76888819292E+01  0.82878002794E+02  0.10836831104E+03  0.41800000000E+01 0.  1.
        -11    1    3    3    0    0  0.63821944460E+02  0.29069008863E+01  0.22826300364E+03  0.23703520730E+03  0.00000000000E+00 0. -1.
         11    1    3    3    0    0  0.12076901319E+02  0.89842222538E+01 -0.48231747617E+01  0.15806037130E+02  0.00000000000E+00 0.  1.
</event>
<event>
 8    1  0.9181008E-006  0.1300712E+03  0.7561462E-02  0.1227350E+00
          2   -1    0    0  501    0  0.00000000000E+00  0.00000000000E+00  0.98581349723E+03  0.98581349723E+03  0.00000000000E+00 0. -1.
         -2   -1    0    0    0  501 -0.00000000000E+00 -0.00000000000E+00 -0.29307679085E+02  0.29307679085E+02  0.00000000000E+00 0.  1.
         23    2    1    2    0    0  0.99759555800E+02 -0.43424535775E+02  0.23666119718E+03  0.27643150563E+03  0.92564549219E+02 0.  0.
         23    2    1    2    0    0 -0.99759555800E+02  0.43424535775E+02  0.71984462097E+03  0.73868967069E+03  0.12509393257E+03 0.  0.
          5    1    4    4  502    0 -0.88248646766E+01 -0.27803811699E+02  0.34918038114E+03  0.35042166194E+03  0.41800000000E+01 0.  1.
         -5    1    4    4    0  502 -0.90934691123E+02  0.71228347473E+02  0.37066423983E+03  0.38826800875E+03  0.41800000000E+01 0.  1.
        -11    1    3    3    0    0  0.46740448365E+02 -0.29409479357E+00  0.18484555649E+03  0.19066367184E+03  0.00000000000E+00 0. -1.
         11    1    3    3    0    0  0.53019107434E+02 -0.43130440981E+02  0.51815640686E+02  0.85767833784E+02  0.00000000000E+00 0.  1.
</event>
<event>
 8    1  0.9181008E-006  0.2419476E+03  0.7561462E-02  0.1118502E+00
         -2   -1    0    0    0  501 -0.00000000000E+00  0.00000000000E+00  0.53577180816E+02  0.53577180816E+02  0.00000000000E+00 0. -1.
          2   -1    0    0  501    0  0.00000000000E+00 -0.00000000000E+00 -0.24412978828E+04  0.24412978828E+04  0.00000000000E+00 0.  1.
         23    2    1    2    0    0  0.15515211407E+03 -0.15850087590E+03 -0.27204710380E+03  0.36393232351E+03  0.96137418560E+02 0.  0.
         23    2    1    2    0    0 -0.15515211407E+03  0.15850087590E+03 -0.21156735982E+04  0.21309427401E+04  0.12508989324E+03 0.  0.
          5    1    4    4  502    0 -0.17354279053E+03  0.11838188829E+03 -0.17144427811E+04  0.17272703592E+04  0.41800000000E+01 0.  1.
         -5    1    4    4    0  502  0.18390676458E+02  0.40118987617E+02 -0.40123081707E+03  0.40367238092E+03  0.41800000000E+01 0.  1.
        -11    1    3    3    0    0  0.14402655219E+03 -0.11430380927E+03 -0.25686675008E+03  0.31589481770E+03  0.00000000000E+00 0.  1.
         11    1    3    3    0    0  0.11125561875E+02 -0.44197066631E+02 -0.15180353723E+02  0.48037505816E+02  0.00000000000E+00 0. -1.
</event>
<event>
 8    1  0.9181008E-006  0.1455205E+03  0.7561462E-02  0.1206088E+00
         -2   -1    0    0    0  501 -0.00000000000E+00  0.00000000000E+00  0.27551938565E+02  0.27551938565E+02  0.00000000000E+00 0.  1.
          2   -1    0    0  501    0  0.00000000000E+00 -0.00000000000E+00 -0.10009441621E+04  0.10009441621E+04  0.00000000000E+00 0. -1.
         23    2    1    2    0    0 -0.10028507806E+03  0.74566717312E+02 -0.42563843257E+03  0.45290967784E+03  0.91333503114E+02 0.  0.
         23    2    1    2    0    0  0.10028507806E+03 -0.74566717312E+02 -0.54775379099E+03  0.57558642285E+03  0.12509285515E+03 0.  0.
          5    1    4    4  502    0  0.76114617919E+02 -0.84035931594E+02 -0.22718260395E+03  0.25393873434E+03  0.41800000000E+01 0. -1.
         -5    1    4    4    0  502  0.24170460144E+02  0.94692142816E+01 -0.32057118704E+03  0.32164768851E+03  0.41800000000E+01 0. -1.
        -11    1    3    3    0    0 -0.91137344558E+02  0.93309355912E+02 -0.32625724117E+03  0.35136368465E+03  0.00000000000E+00 0.  1.
         11    1    3    3    0    0 -0.91477335052E+01 -0.18742638600E+02 -0.99381191398E+02  0.10154599319E+03  0.00000000000E+00 0. -1.
</event>
<event>
 8    1  0.9181008E-006  0.6778493E+02  0.7561462E-02  0.1367792E+00
         -2   -1    0    0    0  501 -0.00000000000E+00  0.00000000000E+00  0.26384417948E+02  0.26384417948E+02  0.00000000000E+00 0.  1.
          2   -1    0    0  501    0  0.00000000000E+00 -0.00000000000E+00 -0.60040068138E+03  0.60040068138E+03  0.00000000000E+00 0. -1.
         23    2    1    2    0    0  0.50704071362E+00  0.58168499646E+02 -0.17569384483E+03  0.20519883443E+03  0.88625070373E+02 0.  0.
         23    2    1    2    0    0 -0.50704071362E+00 -0.58168499646E+02 -0.39832241860E+03  0.42158626490E+03  0.12526131944E+03 0.  0.
          5    1    4    4  502    0 -0.84273270695E+00 -0.74931530765E+01  0.81986660446E+01  0.11897397461E+02  0.41800000000E+01 0.  1.
         -5    1    4    4    0  502  0.33569199332E+00 -0.50675346569E+02 -0.40652108465E+03  0.40968886744E+03  0.41800000000E+01 0.  1.
        -11    1    3    3    0    0 -0.22495255252E+02  0.14558447194E+02 -0.14425767254E+03  0.14672512048E+03  0.00000000000E+00 0. -1.
         11    1    3    3    0    0  0.23002295965E+02  0.43610052452E+02 -0.31436172288E+02  0.58473713946E+02  0.00000000000E+00 0.  1.
</event>
<event>
 8    1  0.9181008E-006  0.1367786E+03  0.7561462E-02  0.1217731E+00
         -1   -1    0    0    0  501 -0.00000000000E+00  0.00000000000E+00  0.35918802402E+03  0.35918802402E+03  0.00000000000E+00 0.  1.
          1   -1    0    0  501    0  0.00000000000E+00 -0.00000000000E+00 -0.61812019458E+02  0.61812019458E+02  0.00000000000E+00 0. -1.
         23    2    1    2    0    0 -0.74953314664E+01  0.93058018163E+02  0.19768989686E+03  0.23580521593E+03  0.88356266352E+02 0.  0.
         23    2    1    2    0    0  0.74953314664E+01 -0.93058018163E+02  0.99686107708E+02  0.18519482755E+03  0.12507529469E+03 0.  0.
          5    1    4    4  502    0 -0.40822881256E+02 -0.96128484193E+02  0.84118914187E+02  0.13416652798E+03  0.41800000000E+01 0.  1.
         -5    1    4    4    0  502  0.48318212722E+02  0.30704660297E+01  0.15567193522E+02  0.51028299564E+02  0.41800000000E+01 0.  1.
        -11    1    3    3    0    0  0.23292633481E+02  0.85667635421E+02  0.10309369518E+03  0.13605072774E+03  0.00000000000E+00 0. -1.
         11    1    3    3    0    0 -0.30787964948E+02  0.73903827421E+01  0.94596201676E+02  0.99754488191E+02  0.00000000000E+00 0.  1.
</event>
<event>
 8    1  0.9181008E-006  0.1632458E+03  0.7561462E-02  0.1185080E+00
         -2   -1    0    0    0  501 -0.00000000000E+00  0.00000000000E+00  0.11368307104E+03  0.11368307104E+03  0.00000000000E+00 0.  1.
          2   -1    0    0  501    0  0.00000000000E+00 -0.00000000000E+00 -0.30826436528E+03  0.30826436528E+03  0.00000000000E+00 0. -1.
         23    2    1    2    0    0 -0.39068758278E+02 -0.12165378262E+03  0.54721060289E+00  0.15727995396E+03  0.91709725662E+02 0.  0.
         23    2    1    2    0    0  0.39068758278E+02  0.12165378262E+03 -0.19512850484E+03  0.26466748236E+03  0.12509089543E+03 0.  0.
          5    1    4    4  502    0  0.46321069573E+02 -0.27847004559E+01 -0.22611939212E+02  0.51789653773E+02  0.41800000000E+01 0. -1.
         -5    1    4    4    0  502 -0.72523112948E+01  0.12443848307E+03 -0.17251656563E+03  0.21287782859E+03  0.41800000000E+01 0. -1.
        -11    1    3    3    0    0 -0.39224703990E+02 -0.61837951523E+01 -0.11079833484E+02  0.41225955849E+02  0.00000000000E+00 0. -1.
         11    1    3    3    0    0  0.15594571240E+00 -0.11546998747E+03  0.11627044087E+02  0.11605399812E+03  0.00000000000E+00 0.  1.
</event>
<event>
 8    1  0.9181008E-006  0.8978579E+02  0.7561462E-02  0.1303371E+00
          2   -1    0    0  501    0  0.00000000000E+00  0.00000000000E+00  0.15967747460E+03  0.15967747460E+03  0.00000000000E+00 0. -1.
         -2   -1    0    0    0  501 -0.00000000000E+00 -0.00000000000E+00 -0.10151979687E+03  0.10151979687E+03  0.00000000000E+00 0.  1.
         23    2    1    2    0    0  0.36881120201E+02 -0.40964456324E+02 -0.10925608051E+02  0.10803626540E+03  0.92272216957E+02 0.  0.
         23    2    1    2    0    0 -0.36881120201E+02  0.40964456324E+02  0.69083285779E+02  0.15316100606E+03  0.12508992643E+03 0.  0.
          5    1    4    4  502    0 -0.25211643404E+01 -0.11613018813E+02 -0.31825538442E+02  0.34227996913E+02  0.41800000000E+01 0.  1.
         -5    1    4    4    0  502 -0.34359955860E+02  0.52577475137E+02  0.10090882422E+03  0.11893300914E+03  0.41800000000E+01 0.  1.
        -11    1    3    3    0    0  0.65926400300E+02 -0.33911187499E+02 -0.20022891735E+02  0.76793066663E+02  0.00000000000E+00 0.  1.
         11    1    3    3    0    0 -0.29045280099E+02 -0.70532688255E+01  0.90972836846E+01  0.31243198742E+02  0.00000000000E+00 0. -1.
</event>
<event>
 8    1  0.9181008E-006  0.1306870E+03  0.7561462E-02  0.1226440E+00
          1   -1    0    0  501    0  0.00000000000E+00  0.00000000000E+00  0.54501842059E+03  0.54501842059E+03  0.00000000000E+00 0. -1.
         -1   -1    0    0    0  501 -0.00000000000E+00 -0.00000000000E+00 -0.35831715933E+02  0.35831715933E+02  0.00000000000E+00 0.  1.
         23    2    1    2    0    0  0.32258707093E+02  0.85743178070E+02  0.23848690741E+03  0.26904405673E+03  0.84357469653E+02 0.  0.
         23    2    1    2    0    0 -0.32258707093E+02 -0.85743178070E+02  0.27069979724E+03  0.31180607979E+03  0.12470819700E+03 0.  0.
          5    1    4    4  502    0 -0.43552669652E+02 -0.11493152497E+03  0.20900908834E+03  0.24250435434E+03  0.41800000000E+01 0.  1.
         -5    1    4    4    0  502  0.11293962559E+02  0.29188346902E+02  0.61690708904E+02  0.69301725450E+02  0.41800000000E+01 0.  1.
        -11    1    3    3    0    0  0.16455731859E+02 -0.29611322091E+01  0.31039324963E+01  0.17005699395E+02  0.00000000000E+00 0. -1.
         11    1    3    3    0    0  0.15802975234E+02  0.88704310279E+02  0.23538297492E+03  0.25203835734E+03  0.00000000000E+00 0.  1.
</event>
<event>
 8    1  0.9181008E-006  0.1291480E+03  0.7561462E-02  0.1228725E+00
          2   -1    0    0  501    0  0.00000000000E+00  0.00000000000E+00  0.71448883220E+02  0.71448883220E+02  0.00000000000E+00 0. -1.
         -2   -1    0    0    0  501 -0.00000000000E+00 -0.00000000000E+00 -0.25096944001E+03  0.25096944001E+03  0.00000000000E+00 0.  1.
         23    2    1    2    0    0  0.30852083518E+02 -0.63248977589E+02 -0.99298669452E+02  0.15798978475E+03  0.10073858302E+03 0.  0.
         23    2    1    2    0    0 -0.30852083518E+02  0.63248977589E+02 -0.80221887338E+02  0.16442853847E+03  0.12509559878E+03 0.  0.
          5    1    4    4  502    0  0.27290507633E+02  0.76978984350E+02 -0.59198798671E+02  0.10095794175E+03  0.41800000000E+01 0. -1.
         -5    1    4    4    0  502 -0.58142591151E+02 -0.13730006761E+02 -0.21023088667E+02  0.63470596724E+02  0.41800000000E+01 0. -1.
        -11    1    3    3    0    0  0.64309024781E+02 -0.37834299462E+02 -0.86142026676E+02  0.11396286081E+03  0.00000000000E+00 0. -1.
         11    1    3    3    0    0 -0.33456941263E+02 -0.25414678127E+02 -0.13156642776E+02  0.44026923945E+02  0.00000000000E+00 0.  1.
</event>
<event>
 8    1  0.9181008E-006  0.9857412E+02  0.7561462E-02  0.1283323E+00
          1   -1    0    0  501    0  0.00000000000E+00  0.00000000000E+00  0.65203054727E+03  0.65203054727E+03  0.00000000000E+00 0.  1.
         -1   -1    0    0    0  501 -0.00000000000E+00 -0.00000000000E+00 -0.21605593769E+02  0.21605593769E+02  0.00000000000E+00 0. -1.
         23    2    1    2    0    0  0.21597237783E+02  0.25330791566E+02  0.17463291180E+03  0.19982004890E+03  0.91232167446E+02 0.  0.
         23    2    1    2    0    0 -0.21597237783E+02 -0.25330791566E+02  0.45579204170E+03  0.47381609214E+03  0.12508882529E+03 0.  0.
          5    1    4    4  502    0 -0.26043678753E+02  0.39687023542E+02  0.86161597031E+02  0.98461293123E+02  0.41800000000E+01 0.  1.
         -5    1    4    4    0  502  0.44464409702E+01 -0.65017815108E+02  0.36963044467E+03  0.37535479902E+03  0.41800000000E+01 0.  1.
        -11    1    3    3    0    0  0.49032857832E+02  0.28270591737E+02  0.15745148663E+03  0.16731532550E+03  0.00000000000E+00 0.  1.
         11    1    3    3    0    0 -0.27435620049E+02 -0.29398001709E+01  0.17181425172E+02  0.32504723402E+02  0.00000000000E+00 0. -1.
</event>
<event>
 8    1  0.9181008E-006  0.1709320E+03  0.7561462E-02  0.1176879E+00
         -4   -1    0    0    0  501 -0.00000000000E+00  0.00000000000E+00  0.71098610436E+02  0.71098610436E+02  0.00000000000E+00 0.  1.
          4   -1    0    0  501    0  0.00000000000E+00 -0.00000000000E+00 -0.48050331976E+03  0.48050331976E+03  0.00000000000E+00 0. -1.
         23    2    1    2    0    0  0.11934029586E+03  0.75738946473E+02 -0.95069946636E+02  0.18495360429E+03  0.72048919193E+02 0.  0.
         23    2    1    2    0    0 -0.11934029586E+03 -0.75738946473E+02 -0.31433476269E+03  0.36664832591E+03  0.12508460189E+03 0.  0.
          5    1    4    4  502    0  0.18209268299E+02  0.14200601737E+02 -0.52127820348E+02  0.57166568866E+02  0.41800000000E+01 0. -1.
         -5    1    4    4    0  502 -0.13754956416E+03 -0.89939548210E+02 -0.26220694234E+03  0.30948175705E+03  0.41800000000E+01 0. -1.
        -11    1    3    3    0    0  0.41143129534E+02  0.62294479080E+02 -0.68385969412E+02  0.10124228387E+03  0.00000000000E+00 0. -1.
         11    1    3    3    0    0  0.78197166324E+02  0.13444467392E+02 -0.26683977224E+02  0.83711320412E+02  0.00000000000E+00 0.  1.
</event>
<event>
 8    1  0.9181008E-006  0.1541686E+03  0.7561462E-02  0.1195442E+00
         -2   -1    0    0    0  501 -0.00000000000E+00  0.00000000000E+00  0.10883573019E+03  0.10883573019E+03  0.00000000000E+00 0.  1.
          2   -1    0    0  501    0  0.00000000000E+00 -0.00000000000E+00 -0.30054840931E+03  0.30054840931E+03  0.00000000000E+00 0. -1.
         23    2    1    2    0    0  0.79275531749E+02  0.92804096273E+02 -0.13917648274E+02  0.16007262087E+03  0.10262715430E+03 0.  0.
         23    2    1    2    0    0 -0.79275531749E+02 -0.92804096273E+02 -0.17779503084E+03  0.24931151862E+03  0.12509176674E+03 0.  0.
          5    1    4    4  502    0  0.19263300545E+02 -0.69393926812E+02 -0.59378862229E+02  0.93434006154E+02  0.41800000000E+01 0.  1.
         -5    1    4    4    0  502 -0.98538832294E+02 -0.23410169461E+02 -0.11841616861E+03  0.15587751247E+03  0.41800000000E+01 0.  1.
        -11    1    3    3    0    0  0.29452348773E+01  0.44288756265E+02  0.35655591194E+02  0.56934080509E+02  0.00000000000E+00 0.  1.
         11    1    3    3    0    0  0.76330296872E+02  0.48515340008E+02 -0.49573239468E+02  0.10313854036E+03  0.00000000000E+00 0. -1.
</event>
<event>
 8    1  0.9181008E-006  0.1251274E+03  0.7561462E-02  0.1234870E+00
         -3   -1    0    0    0  501 -0.00000000000E+00  0.00000000000E+00  0.54817916051E+03  0.54817916051E+03  0.00000000000E+00 0.  1.
          3   -1    0    0  501    0  0.00000000000E+00 -0.00000000000E+00 -0.39897477344E+02  0.39897477344E+02  0.00000000000E+00 0. -1.
         23    2    1    2    0    0 -0.10308645706E+02  0.83764797337E+02  0.33919801081E+03  0.36145251192E+03  0.92031616236E+02 0.  0.
         23    2    1    2    0    0  0.10308645706E+02 -0.83764797337E+02  0.16908367236E+03  0.22662412594E+03  0.12508555772E+03 0.  0.
          5    1    4    4  502    0 -0.17574047623E+02  0.28897621707E+02  0.47783624995E+02  0.58691284769E+02  0.41800000000E+01 0. -1.
         -5    1    4    4    0  502  0.27882693330E+02 -0.11266241904E+03  0.12130004736E+03  0.16793284117E+03  0.41800000000E+01 0. -1.
        -11    1    3    3    0    0 -0.23898968654E+02  0.11526664386E+02  0.18272271943E+02  0.32216464991E+02  0.00000000000E+00 0. -1.
         11    1    3    3    0    0  0.13590322948E+02  0.72238132951E+02  0.32092573886E+03  0.32923604693E+03  0.00000000000E+00 0.  1.
</event>
<event>
 8    1  0.9181008E-006  0.1111211E+03  0.7561462E-02  0.1258508E+00
          2   -1    0    0  501    0  0.00000000000E+00  0.00000000000E+00  0.27799961101E+03  0.27799961101E+03  0.00000000000E+00 0. -1.
         -2   -1    0    0    0  501 -0.00000000000E+00 -0.00000000000E+00 -0.57333634894E+02  0.57333634894E+02  0.00000000000E+00 0.  1.
         23    2    1    2    0    0 -0.38504510040E+02  0.34918681067E+02  0.45011797445E+02  0.11350778374E+03  0.90310815957E+02 0.  0.
         23    2    1    2    0    0  0.38504510040E+02 -0.34918681067E+02  0.17565417867E+03  0.22182546216E+03  0.12510089368E+03 0.  0.
          5    1    4    4  502    0 -0.36148226348E+02 -0.35788437063E+02  0.11402416425E+03  0.12492593377E+03  0.41800000000E+01 0. -1.
         -5    1    4    4    0  502  0.74652736388E+02  0.86975599592E+00  0.61630014418E+02  0.96899528393E+02  0.41800000000E+01 0. -1.
        -11    1    3    3    0    0 -0.14757665924E+02  0.60059267973E+02  0.71955769859E+01  0.62262996243E+02  0.00000000000E+00 0.  1.
         11    1    3    3    0    0 -0.23746844116E+02 -0.25140586906E+02  0.37816220459E+02  0.51244787494E+02  0.00000000000E+00 0. -1.
</event>
<event>
 8    1  0.9181008E-006  0.9405993E+02  0.7561462E-02  0.1293308E+00
          1   -1    0    0  501    0  0.00000000000E+00  0.00000000000E+00  0.85652568108E+02  0.85652568108E+02  0.00000000000E+00 0. -1.
         -1   -1    0    0    0  501 -0.00000000000E+00 -0.00000000000E+00 -0.26160958015E+03  0.26160958015E+03  0.00000000000E+00 0.  1.
         23    2    1    2    0    0 -0.60581361146E+02  0.65539706143E+02 -0.13674582859E+03  0.18867286842E+03  0.94511773035E+02 0.  0.
         23    2    1    2    0    0  0.60581361146E+02 -0.65539706143E+02 -0.39211183449E+02  0.15858927983E+03  0.12508992114E+03 0.  0.
          5    1    4    4  502    0  0.48053029833E+02 -0.45577914601E+02 -0.84452527652E+02  0.10740643278E+03  0.41800000000E+01 0.  1.
         -5    1    4    4    0  502  0.12528331313E+02 -0.19961791541E+02  0.45241344204E+02  0.51182847052E+02  0.41800000000E+01 0.  1.
        -11    1    3    3    0    0 -0.21135256685E+02  0.51977094126E+02 -0.12327091083E+02  0.57448016184E+02  0.00000000000E+00 0. -1.
         11    1    3    3    0    0 -0.39446104461E+02  0.13562612016E+02 -0.12441873751E+03  0.13122485224E+03  0.00000000000E+00 0.  1.
</event>
<event>
 8    1  0.9181008E-006  0.7838678E+02  0.7561462E-02  0.1333693E+00
         -1   -1    0    0    0  501 -0.00000000000E+00  0.00000000000E+00  0.14499642504E+02  0.14499642504E+02  0.00000000000E+00 0.  1.
          1   -1    0    0  501    0  0.00000000000E+00 -0.00000000000E+00 -0.10498476382E+04  0.10498476382E+04  0.00000000000E+00 0. -1.
         23    2    1    2    0    0  0.22536726887E+02 -0.30866077311E+02 -0.24485097965E+03  0.26310154266E+03  0.88373076946E+02 0.  0.
         23    2    1    2    0    0 -0.22536726887E+02  0.30866077311E+02 -0.79049701608E+03  0.80124573808E+03  0.12509429069E+03 0.  0.
          5    1    4    4  502    0 -0.40547271670E+02 -0.51735601863E+01 -0.70946465718E+03  0.71065351554E+03  0.41800000000E+01 0.  1.
         -5    1    4    4    0  502  0.18010544784E+02  0.36039637497E+02 -0.81032358902E+02  0.90592222534E+02  0.41800000000E+01 0.  1.
        -11    1    3    3    0    0 -0.21468694367E+02 -0.71909132159E-01 -0.12972175801E+02  0.25083607272E+02  0.00000000000E+00 0.  1.
         11    1    3    3    0    0  0.44005421254E+02 -0.30794168179E+02 -0.23187880385E+03  0.23801793539E+03  0.00000000000E+00 0. -1.
</event>
<event>
 8    1  0.9181008E-006  0.1531197E+03  0.7561462E-02  0.1196691E+00
          2   -1    0    0  501    0  0.00000000000E+00  0.00000000000E+00  0.37710075600E+03  0.37710075600E+03  0.00000000000E+00 0. -1.
         -2   -1    0    0    0  501 -0.00000000000E+00 -0.00000000000E+00 -0.80043409998E+02  0.80043409998E+02  0.00000000000E+00 0.  1.
         23    2    1    2    0    0  0.73099485403E+02  0.10477001629E+03  0.80695030194E+02  0.17646509796E+03  0.91147966635E+02 0.  0.
         23    2    1    2    0    0 -0.73099485403E+02 -0.10477001629E+03  0.21636231581E+03  0.28067906804E+03  0.12509115258E+03 0.  0.
          5    1    4    4  502    0 -0.88772985961E+02 -0.50862535124E+02  0.19540631386E+03  0.22060992819E+03  0.41800000000E+01 0.  1.
         -5    1    4    4    0  502  0.15673500558E+02 -0.53907481162E+02  0.20956001942E+02  0.60069139850E+02  0.41800000000E+01 0.  1.
        -11    1    3    3    0    0  0.68957508197E+02  0.34410960606E+02  0.11909034337E+02  0.77981262143E+02  0.00000000000E+00 0.  1.
         11    1    3    3    0    0  0.41419772053E+01  0.70359055680E+02  0.68785995857E+02  0.98483835818E+02  0.00000000000E+00 0. -1.
</event>
<event>
 8    1  0.9181008E-006  0.1730159E+03  0.7561462E-02  0.1174739E+00
          1   -1    0    0  501    0  0.00000000000E+00  0.00000000000E+00  0.79943851179E+03  0.79943851179E+03  0.00000000000E+00 0. -1.
         -1   -1    0    0    0  501 -0.00000000000E+00 -0.00000000000E+00 -0.66635879461E+02  0.66635879461E+02  0.00000000000E+00 0.  1.
         23    2    1    2    0    0  0.14109610886E+03 -0.73710495082E+02  0.12122092003E+03  0.22185309008E+03  0.95827621829E+02 0.  0.
         23    2    1    2    0    0 -0.14109610886E+03  0.73710495082E+02  0.61158171230E+03  0.64422130117E+03  0.12509014765E+03 0.  0.
          5    1    4    4  502    0 -0.25507189931E+02  0.58473422062E+01  0.34299479955E+03  0.34401702439E+03  0.41800000000E+01 0.  1.
         -5    1    4    4    0  502 -0.11558891893E+03  0.67863152876E+02  0.26858691274E+03  0.30020427678E+03  0.41800000000E+01 0.  1.
        -11    1    3    3    0    0 -0.14119227365E+02 -0.13784542177E+01  0.56992005752E+01  0.15288348655E+02  0.00000000000E+00 0.  1.
         11    1    3    3    0    0  0.15521533623E+03 -0.72332040865E+02  0.11552171945E+03  0.20656474143E+03  0.00000000000E+00 0. -1.
</event>
<event>
 8    1  0.9181008E-006  0.1193799E+03  0.7561462E-02  0.1244124E+00
         -1   -1    0    0    0  501 -0.00000000000E+00  0.00000000000E+00  0.27269807493E+02  0.27269807493E+02  0.00000000000E+00 0.  1.
          1   -1    0    0  501    0  0.00000000000E+00 -0.00000000000E+00 -0.11636535345E+04  0.11636535345E+04  0.00000000000E+00 0. -1.
         23    2    1    2    0    0 -0.57048107443E+02  0.65088941040E+02 -0.16890134882E+03  0.21155351431E+03  0.93467464799E+02 0.  0.
         23    2    1    2    0    0  0.57048107443E+02 -0.65088941040E+02 -0.96748237823E+03  0.97936982772E+03  0.12510815507E+03 0.  0.
          5    1    4    4  502    0  0.50483063642E+02 -0.43053953624E+01 -0.12907593364E+03  0.13872687262E+03  0.41800000000E+01 0. -1.
         -5    1    4    4    0  502  0.65650438009E+01 -0.60783545677E+02 -0.83840644459E+03  0.84064295510E+03  0.41800000000E+01 0. -1.
        -11    1    3    3    0    0 -0.16827052419E+02  0.81486916758E+02 -0.99813182350E+02  0.12994590669E+03  0.00000000000E+00 0.  1.
         11    1    3    3    0    0 -0.40221055024E+02 -0.16397975718E+02 -0.69088166472E+02  0.81607607619E+02  0.00000000000E+00 0. -1.
</event>
<event>
 8    1  0.9181008E-006  0.2100801E+03  0.7561462E-02  0.1141503E+00
         -1   -1    0    0    0  501 -0.00000000000E+00  0.00000000000E+00  0.29718520655E+03  0.29718520655E+03  0.00000000000E+00 0.  1.
          1   -1    0    0  501    0  0.00000000000E+00 -0.00000000000E+00 -0.20761880434E+03  0.20761880434E+03  0.00000000000E+00 0. -1.
         23    2    1    2    0    0 -0.19416233515E+03 -0.77290521553E+02  0.12495607844E+03  0.25868956838E+03  0.87369526367E+02 0.  0.
         23    2    1    2    0    0  0.19416233515E+03  0.77290521553E+02 -0.35389676235E+02  0.24611444251E+03  0.12508817896E+03 0.  0.
          5    1    4    4  502    0  0.55829990833E+02  0.15914638669E+02 -0.69775019963E+02  0.90864126096E+02  0.41800000000E+01 0.  1.
         -5    1    4    4    0  502  0.13833234431E+03  0.61375882884E+02  0.34385343728E+02  0.15525031641E+03  0.41800000000E+01 0.  1.
        -11    1    3    3    0    0 -0.94988857891E+02 -0.23986910323E+02  0.11154230466E+02  0.98603609709E+02  0.00000000000E+00 0. -1.
         11    1    3    3    0    0 -0.99173477257E+02 -0.53303611231E+02  0.11380184798E+03  0.16008595867E+03  0.00000000000E+00 0.  1.
</event>
<event>
 8    1  0.9181008E-006  0.1281159E+03  0.7561462E-02  0.1230279E+00
         -1   -1    0    0    0  501 -0.00000000000E+00  0.00000000000E+00  0.30358177298E+03  0.30358177298E+03  0.00000000000E+00 0.  1.
          1   -1    0    0  501    0  0.00000000000E+00 -0.00000000000E+00 -0.62175393157E+02  0.62175393157E+02  0.00000000000E+00 0. -1.
         23    2    1    2    0    0  0.66669897462E+02  0.34358742325E+02  0.16142115825E+03  0.19942152618E+03  0.89926394189E+02 0.  0.
         23    2    1    2    0    0 -0.66669897462E+02 -0.34358742325E+02  0.79985221567E+02  0.16633563995E+03  0.12507801984E+03 0.  0.
          5    1    4    4  502    0 -0.50376122224E+02 -0.80760237395E+02  0.42332687389E+02  0.10425688685E+03  0.41800000000E+01 0.  1.
         -5    1    4    4    0  502 -0.16293775238E+02  0.46401495070E+02  0.37652534178E+02  0.62078753098E+02  0.41800000000E+01 0.  1.
        -11    1    3    3    0    0  0.29195613930E+02  0.59634737440E+02  0.12433271274E+03  0.14095144284E+03  0.00000000000E+00 0.  1.
         11    1    3    3    0    0  0.37474283532E+02 -0.25275995115E+02  0.37088445515E+02  0.58470083342E+02  0.00000000000E+00 0. -1.
</event>
<event>
 8    1  0.9181008E-006  0.1967689E+03  0.7561462E-02  0.1152494E+00
          1   -1    0    0  501    0  0.00000000000E+00  0.00000000000E+00  0.62004805370E+03  0.62004805370E+03  0.00000000000E+00 0. -1.
         -1   -1    0    0    0  501 -0.00000000000E+00 -0.00000000000E+00 -0.64449470218E+02  0.64449470218E+02  0.00000000000E+00 0.  1.
         23    2    1    2    0    0 -0.16483948823E+03  0.33628324296E+01  0.31607552580E+03  0.36794482602E+03  0.91083980291E+02 0.  0.
         23    2    1    2    0    0  0.16483948823E+03 -0.33628324296E+01  0.23952305769E+03  0.31655269790E+03  0.12510375639E+03 0.  0.
          5    1    4    4  502    0  0.48047303438E+02 -0.59125233523E+02  0.72882570078E+02  0.10551624533E+03  0.41800000000E+01 0.  1.
         -5    1    4    4    0  502  0.11679218479E+03  0.55762401093E+02  0.16664048761E+03  0.21103645257E+03  0.41800000000E+01 0.  1.
        -11    1    3    3    0    0 -0.56760948430E+02 -0.41924185893E+02  0.10469258198E+03  0.12625363104E+03  0.00000000000E+00 0.  1.
         11    1    3    3    0    0 -0.10807853980E+03  0.45287018322E+02  0.21138294382E+03  0.24169119498E+03  0.00000000000E+00 0. -1.
</event>
<event>
 8    1  0.9181008E-006  0.1612630E+03  0.7561462E-02  0.1187278E+00
         -1   -1    0    0    0  501 -0.00000000000E+00  0.00000000000E+00  0.38076727506E+03  0.38076727506E+03  0.00000000000E+00 0.  1.
          1   -1    0    0  501    0  0.00000000000E+00 -0.00000000000E+00 -0.72079427107E+02  0.72079427107E+02  0.00000000000E+00 0. -1.
         23    2    1    2    0    0  0.11361917711E+03  0.44331495832E+02  0.18179456792E+03  0.23692001595E+03  0.90593764162E+02 0.  0.
         23    2    1    2    0    0 -0.11361917711E+03 -0.44331495832E+02  0.12689328004E+03  0.21592668622E+03  0.12509128816E+03 0.  0.
          5    1    4    4  502    0 -0.13886085318E+03 -0.50435783274E+02  0.10095049509E+03  0.17898206513E+03  0.41800000000E+01 0.  1.
         -5    1    4    4    0  502  0.25241676075E+02  0.61042874425E+01  0.25942784945E+02  0.36944621083E+02  0.41800000000E+01 0.  1.
        -11    1    3    3    0    0  0.11879327925E+03  0.16281814186E+02  0.16450765037E+03  0.20356745245E+03  0.00000000000E+00 0.  1.
         11    1    3    3    0    0 -0.51741021491E+01  0.28049681646E+02  0.17286917555E+02  0.33352563500E+02  0.00000000000E+00 0. -1.
</event>
<event>
 8    1  0.9181008E-006  0.2202972E+03  0.7561462E-02  0.1133662E+00
          2   -1    0    0  501    0  0.00000000000E+00  0.00000000000E+00  0.32643260775E+04  0.32643260775E+04  0.00000000000E+00 0. -1.
         -2   -1    0    0    0  501 -0.00000000000E+00 -0.00000000000E+00 -0.38400810063E+02  0.38400810063E+02  0.00000000000E+00 0.  1.
         23    2    1    2    0    0  0.71855166252E+01  0.19759455418E+03  0.31568275489E+03  0.38309432192E+03  0.89500939987E+02 0.  0.
         23    2    1    2    0    0 -0.71855166252E+01 -0.19759455418E+03  0.29102425125E+04  0.29196325656E+04  0.12509035557E+03 0.  0.
          5    1    4    4  502    0 -0.64915916721E+02 -0.85366156448E+02  0.12556448164E+04  0.12602233271E+04  0.41800000000E+01 0. -1.
         -5    1    4    4    0  502  0.57730400096E+02 -0.11222839773E+03  0.16545976962E+04  0.16594092385E+04  0.41800000000E+01 0. -1.
        -11    1    3    3    0    0  0.30158397394E+02  0.56547781259E+02  0.15684232326E+03  0.16943050157E+03  0.00000000000E+00 0. -1.
         11    1    3    3    0    0 -0.22972880769E+02  0.14104677292E+03  0.15884043164E+03  0.21366382035E+03  0.00000000000E+00 0.  1.
</event>
<event>
 8    1  0.9181008E-006  0.1493591E+03  0.7561462E-02  0.1201263E+00
         -2   -1    0    0    0  501 -0.00000000000E+00  0.00000000000E+00  0.38241211253E+02  0.38241211253E+02  0.00000000000E+00 0.  1.
          2   -1    0    0  501    0  0.00000000000E+00 -0.00000000000E+00 -0.69595204014E+03  0.69595204014E+03  0.00000000000E+00 0. -1.
         23    2    1    2    0    0  0.12047825839E+03 -0.49351188070E+01 -0.26229867350E+03  0.30229344561E+03  0.89673669502E+02 0.  0.
         23    2    1    2    0    0 -0.12047825839E+03  0.49351188070E+01 -0.39541215539E+03  0.43189980578E+03  0.12508918202E+03 0.  0.
          5    1    4    4  502    0 -0.11771268643E+03  0.46893530332E+02 -0.33490354901E+03  0.35809655022E+03  0.41800000000E+01 0. -1.
         -5    1    4    4    0  502 -0.27655719538E+01 -0.41958411525E+02 -0.60508606380E+02  0.73803255565E+02  0.41800000000E+01 0. -1.
        -11    1    3    3    0    0  0.35223787213E+02 -0.23613596919E+02 -0.24478717921E+02  0.48964525691E+02  0.00000000000E+00 0.  1.
         11    1    3    3    0    0  0.85254471175E+02  0.18678478112E+02 -0.23781995557E+03  0.25332891992E+03  0.00000000000E+00 0. -1.
</event>
<event>
 8    1  0.9181008E-006  0.1673346E+03  0.7561462E-02  0.1180656E+00
          2   -1    0    0  501    0  0.00000000000E+00  0.00000000000E+00  0.12324095541E+04  0.12324095541E+04  0.00000000000E+00 0.  1.
         -2   -1    0    0    0  501 -0.00000000000E+00 -0.00000000000E+00 -0.35610215697E+02  0.35610215697E+02  0.00000000000E+00 0. -1.
         23    2    1    2    0    0 -0.10899891289E+03  0.80742585299E+02  0.20442604260E+03  0.25863816835E+03  0.81875314585E+02 0.  0.
         23    2    1    2    0    0  0.10899891289E+03 -0.80742585299E+02  0.99237329576E+03  0.10093816014E+04  0.12508529506E+03 0.  0.
          5    1    4    4  502    0  0.95667682843E+02  0.58413193089E+01  0.56729277983E+03  0.57534771834E+03  0.41800000000E+01 0. -1.
         -5    1    4    4    0  502  0.13331230048E+02 -0.86583904608E+02  0.42508051593E+03  0.43403388307E+03  0.41800000000E+01 0. -1.
        -11    1    3    3    0    0 -0.90434297166E+01  0.43388972859E+02  0.99785264059E+02  0.10918555541E+03  0.00000000000E+00 0. -1.
         11    1    3    3    0    0 -0.99955483174E+02  0.37353612440E+02  0.10464077855E+03  0.14945261294E+03  0.00000000000E+00 0.  1.
</event>
<event>
 8    1  0.9181008E-006  0.1657335E+03  0.7561462E-02  0.1182372E+00
          2   -1    0    0  501    0  0.00000000000E+00  0.00000000000E+00  0.13023058228E+04  0.13023058228E+04  0.00000000000E+00 0. -1.
         -2   -1    0    0    0  501 -0.00000000000E+00 -0.00000000000E+00 -0.22776143798E+02  0.22776143798E+02  0.00000000000E+00 0.  1.
         23    2    1    2    0    0  0.44893168843E+01  0.13269110122E+03  0.53751394956E+03  0.56096623075E+03  0.90193036080E+02 0.  0.
         23    2    1    2    0    0 -0.44893168843E+01 -0.13269110122E+03  0.74201572940E+03  0.76411573581E+03  0.12513365945E+03 0.  0.
          5    1    4    4  502    0  0.36369688963E+02 -0.13566440571E+03  0.54323284922E+03  0.56111227586E+03  0.41800000000E+01 0.  1.
         -5    1    4    4    0  502 -0.40859005848E+02  0.29733044874E+01  0.19878288018E+03  0.20300345995E+03  0.41800000000E+01 0.  1.
        -11    1    3    3    0    0 -0.31932277261E+02  0.48863278102E+02  0.11846004721E+03  0.13206086878E+03  0.00000000000E+00 0.  1.
         11    1    3    3    0    0  0.36421594146E+02  0.83827823118E+02  0.41905390235E+03  0.42890536197E+03  0.00000000000E+00 0. -1.
</event>
<event>
 8    1  0.9181008E-006  0.1287894E+03  0.7561462E-02  0.1229263E+00
         -2   -1    0    0    0  501 -0.00000000000E+00  0.00000000000E+00  0.19419768862E+02  0.19419768862E+02  0.00000000000E+00 0. -1.
          2   -1    0    0  501    0  0.00000000000E+00 -0.00000000000E+00 -0.11245593087E+04  0.11245593087E+04  0.00000000000E+00 0.  1.
         23    2    1    2    0    0 -0.67763257323E+02 -0.66398912453E+02 -0.35350201125E+03  0.37612023040E+03  0.86614555045E+02 0.  0.
         23    2    1    2    0    0  0.67763257323E+02  0.66398912453E+02 -0.75163752856E+03  0.76785884713E+03  0.12509020806E+03 0.  0.
          5    1    4    4  502    0  0.79913682712E+02  0.10010783063E+02 -0.60295544100E+03  0.60832487101E+03  0.41800000000E+01 0. -1.
         -5    1    4    4    0  502 -0.12150425389E+02  0.56388129390E+02 -0.14868208756E+03  0.15953397611E+03  0.41800000000E+01 0. -1.
        -11    1    3    3    0    0  0.14805310069E+02 -0.32708384364E+01 -0.12563605391E+02  0.19691108925E+02  0.00000000000E+00 0. -1.
         11    1    3    3    0    0 -0.82568567392E+02 -0.63128074017E+02 -0.34093840586E+03  0.35642912148E+03  0.00000000000E+00 0.  1.
</event>
<event>
 8    1  0.9181008E-006  0.6683077E+02  0.7561462E-02  0.1371214E+00
          3   -1    0    0  501    0  0.00000000000E+00  0.00000000000E+00  0.30626272221E+03  0.30626272221E+03  0.00000000000E+00 0. -1.
         -3   -1    0    0    0  501 -0.00000000000E+00 -0.00000000000E+00 -0.41767885226E+02  0.41767885226E+02  0.00000000000E+00 0.  1.
         23    2    1    2    0    0 -0.38397245196E+01  0.17682187468E+02  0.15179740628E+03  0.17869199983E+03  0.92525537080E+02 0.  0.
         23    2    1    2    0    0  0.38397245196E+01 -0.17682187468E+02  0.11269743071E+03  0.16933860761E+03  0.12508976737E+03 0.  0.
          5    1    4    4  502    0  0.24563615181E+02 -0.32010749055E+02  0.13150626577E+03  0.13762060014E+03  0.41800000000E+01 0. -1.
         -5    1    4    4    0  502 -0.20723890661E+02  0.14328561587E+02 -0.18808835064E+02  0.31718007468E+02  0.41800000000E+01 0. -1.
        -11    1    3    3    0    0 -0.27362674922E+01 -0.24855179608E+02  0.45453722920E+01  0.25415104218E+02  0.00000000000E+00 0.  1.
         11    1    3    3    0    0 -0.11034570275E+01  0.42537367076E+02  0.14725203398E+03  0.15327689561E+03  0.00000000000E+00 0. -1.
</event>
<event>
 8    1  0.9181008E-006  0.1207515E+03  0.7561462E-02  0.1241862E+00
          1   -1    0    0  501    0  0.00000000000E+00  0.00000000000E+00  0.10934722113E+04  0.10934722113E+04  0.00000000000E+00 0. -1.
         -1   -1    0    0    0  501 -0.00000000000E+00 -0.00000000000E+00 -0.19613990737E+02  0.19613990737E+02  0.00000000000E+00 0.  1.
         23    2    1    2    0    0 -0.70150888402E+01 -0.88533535234E+02  0.30997752368E+03  0.33395137194E+03  0.86891054219E+02 0.  0.
         23    2    1    2    0    0  0.70150888402E+01  0.88533535234E+02  0.76388069690E+03  0.77913483011E+03  0.12509982439E+03 0.  0.
          5    1    4    4  502    0 -0.35313915911E+02  0.58445737570E+02  0.65355051884E+03  0.65712154885E+03  0.41800000000E+01 0. -1.
         -5    1    4    4    0  502  0.42329004751E+02  0.30087797664E+02  0.11033017807E+03  0.12201328126E+03  0.41800000000E+01 0. -1.
        -11    1    3    3    0    0  0.35270229375E+02 -0.61206114567E+02  0.21712348504E+03  0.22832605041E+03  0.00000000000E+00 0. -1.
         11    1    3    3    0    0 -0.42285318215E+02 -0.27327420667E+02  0.92854038640E+02  0.10562532153E+03  0.00000000000E+00 0.  1.
</event>
<event>
 8    1  0.9181008E-006  0.8472258E+02  0.7561462E-02  0.1316160E+00
         -1   -1    0    0    0  501 -0.00000000000E+00  0.00000000000E+00  0.55689719322E+02  0.55689719322E+02  0.00000000000E+00 0.  1.
          1   -1    0    0  501    0  0.00000000000E+00 -0.00000000000E+00 -0.26844359237E+03  0.26844359237E+03  0.00000000000E+00 0. -1.
         23    2    1    2    0    0  0.18243678729E+02 -0.52186811433E+02 -0.94741402443E+02  0.14349507121E+03  0.92512739792E+02 0.  0.
         23    2    1    2    0    0 -0.18243678729E+02  0.52186811433E+02 -0.11801247060E+03  0.18063824048E+03  0.12508771164E+03 0.  0.
          5    1    4    4  502    0 -0.35463486903E+02  0.58275138958E+02 -0.13753414367E+03  0.15357982875E+03  0.41800000000E+01 0. -1.
         -5    1    4    4    0  502  0.17219808174E+02 -0.60883275251E+01  0.19521673070E+02  0.27058411725E+02  0.41800000000E+01 0. -1.
        -11    1    3    3    0    0 -0.19770075412E+02 -0.35948315670E+02 -0.99333124180E+00  0.41038079734E+02  0.00000000000E+00 0.  1.
         11    1    3    3    0    0  0.38013754141E+02 -0.16238495764E+02 -0.93748071202E+02  0.10245699148E+03  0.00000000000E+00 0. -1.
</event>
<event>
 8    1  0.9181008E-006  0.1703465E+03  0.7561462E-02  0.1177487E+00
          1   -1    0    0  501    0  0.00000000000E+00  0.00000000000E+00  0.24671384198E+03  0.24671384198E+03  0.00000000000E+00 0. -1.
         -1   -1    0    0    0  501 -0.00000000000E+00 -0.00000000000E+00 -0.12209212294E+03  0.12209212294E+03  0.00000000000E+00 0.  1.
         23    2    1    2    0    0 -0.82448949162E+02  0.10288078207E+03  0.34623240607E+02  0.16600294904E+03  0.94741362462E+02 0.  0.
         23    2    1    2    0    0  0.82448949162E+02 -0.10288078207E+03  0.89998478439E+02  0.20280301588E+03  0.12508817927E+03 0.  0.
          5    1    4    4  502    0 -0.32529290271E+02 -0.11316951116E+02  0.16710422428E+02  0.38508943452E+02  0.41800000000E+01 0.  1.
         -5    1    4    4    0  502  0.11497823943E+03 -0.91563830957E+02  0.73288056011E+02  0.16429407243E+03  0.41800000000E+01 0.  1.
        -11    1    3    3    0    0 -0.89410324102E+02  0.43972493369E+02  0.51631591747E+01  0.99771962202E+02  0.00000000000E+00 0. -1.
         11    1    3    3    0    0  0.69613749403E+01  0.58908288704E+02  0.29460081432E+02  0.66230986835E+02  0.00000000000E+00 0.  1.
</event>
<event>
 8    1  0.9181008E-006  0.9458178E+02  0.7561462E-02  0.1292121E+00
          1   -1    0    0  501    0  0.00000000000E+00  0.00000000000E+00  0.83576263863E+02  0.83576263863E+02  0.00000000000E+00 0. -1.
         -1   -1    0    0    0  501 -0.00000000000E+00 -0.00000000000E+00 -0.21114519112E+03  0.21114519112E+03  0.00000000000E+00 0.  1.
         23    2    1    2    0    0 -0.75430808894E+02 -0.75116315166E+00 -0.44484376659E+02  0.12667012631E+03  0.91520980962E+02 0.  0.
         23    2    1    2    0    0  0.75430808894E+02  0.75116315166E+00 -0.83084550599E+02  0.16805132868E+03  0.12509130803E+03 0.  0.
          5    1    4    4  502    0  0.31084726040E+02 -0.29635146136E+02  0.23111861512E+02  0.48950307681E+02  0.41800000000E+01 0.  1.
         -5    1    4    4    0  502  0.44346082853E+02  0.30386309288E+02 -0.10619641211E+03  0.11910102099E+03  0.41800000000E+01 0.  1.
        -11    1    3    3    0    0 -0.69293599666E+02  0.18637349931E+02 -0.65693657934E+02  0.97286229549E+02  0.00000000000E+00 0.  1.
         11    1    3    3    0    0 -0.61372092276E+01 -0.19388513083E+02  0.21209281275E+02  0.29383896761E+02  0.00000000000E+00 0. -1.
</event>
<event>
 8    1  0.9181008E-006  0.1270098E+03  0.7561462E-02  0.1231961E+00
          1   -1    0    0  501    0  0.00000000000E+00  0.00000000000E+00  0.22198931741E+03  0.22198931741E+03  0.00000000000E+00 0. -1.
         -1   -1    0    0    0  501 -0.00000000000E+00 -0.00000000000E+00 -0.92990200414E+02  0.92990200414E+02  0.00000000000E+00 0.  1.
         23    2    1    2    0    0 -0.41541527197E+02 -0.85406066000E+02  0.48089457009E+02  0.13830986110E+03  0.88301343193E+02 0.  0.
         23    2    1    2    0    0  0.41541527197E+02  0.85406066000E+02  0.80909659989E+02  0.17666965673E+03  0.12508357182E+03 0.  0.
          5    1    4    4  502    0 -0.11218285940E+02  0.71976354020E+02  0.95469194051E+02  0.12015941449E+03  0.41800000000E+01 0. -1.
         -5    1    4    4    0  502  0.52759813137E+02  0.13429711979E+02 -0.14559534062E+02  0.56510242242E+02  0.41800000000E+01 0. -1.
        -11    1    3    3    0    0 -0.66897367597E+02 -0.69784844873E+02  0.49275609184E+02  0.10850469126E+03  0.00000000000E+00 0. -1.
         11    1    3    3    0    0  0.25355840400E+02 -0.15621221127E+02 -0.11861521747E+01  0.29805169835E+02  0.00000000000E+00 0.  1.
</event>
<event>
 8    1  0.9729837E-006  0.2626578E+03  0.7561462E-02  0.1105557E+00
         -2   -1    0    0    0  501 -0.00000000000E+00  0.00000000000E+00  0.95380574374E+02  0.95380574374E+02  0.00000000000E+00 0. -1.
          2   -1    0    0  501    0  0.00000000000E+00 -0.00000000000E+00 -0.80069378058E+03  0.80069378058E+03  0.00000000000E+00 0.  1.
         23    2    1    2    0    0 -0.23686083406E+03  0.95188717592E+02 -0.37860121373E+03  0.46300311260E+03  0.76609768077E+02 0.  0.
         23    2    1    2    0    0  0.23686083406E+03 -0.95188717592E+02 -0.32671199248E+03  0.43307124236E+03  0.12508408477E+03 0.  0.
          5    1    4    4  502    0 -0.15483232477E+01  0.87260258349E+01  0.54301676959E+01  0.11202676152E+02  0.41800000000E+01 0.  1.
         -5    1    4    4    0  502  0.23840915731E+03 -0.10391474343E+03 -0.33214216017E+03  0.42186856621E+03  0.41800000000E+01 0.  1.
        -11    1    3    3    0    0 -0.91158789381E+02  0.41074528622E+02 -0.21625553415E+03  0.23825091361E+03  0.00000000000E+00 0.  1.
         11    1    3    3    0    0 -0.14570204468E+03  0.54114188971E+02 -0.16234567958E+03  0.22475219899E+03  0.00000000000E+00 0. -1.
</event>
<event>
 8    1  0.9181008E-006  0.1130808E+03  0.7561462E-02  0.1254969E+00
         -3   -1    0    0    0  501 -0.00000000000E+00  0.00000000000E+00  0.18285792066E+03  0.18285792066E+03  0.00000000000E+00 0.  1.
          3   -1    0    0  501    0  0.00000000000E+00 -0.00000000000E+00 -0.91134927058E+02  0.91134927058E+02  0.00000000000E+00 0. -1.
         23    2    1    2    0    0  0.99489250348E+01 -0.69170250486E+02  0.48653699568E+02  0.12437529221E+03  0.90656087327E+02 0.  0.
         23    2    1    2    0    0 -0.99489250348E+01  0.69170250486E+02  0.43069294034E+02  0.14961755551E+03  0.12508774586E+03 0.  0.
          5    1    4    4  502    0 -0.18546854507E+02  0.10472130160E+03  0.33487712954E+02  0.11157704128E+03  0.41800000000E+01 0.  1.
         -5    1    4    4    0  502  0.85979294724E+01 -0.35551051117E+02  0.95815810809E+01  0.38040514228E+02  0.41800000000E+01 0.  1.
        -11    1    3    3    0    0  0.27787501465E+02 -0.44680221673E+02 -0.14287336889E+02  0.54521513569E+02  0.00000000000E+00 0. -1.
         11    1    3    3    0    0 -0.17838576430E+02 -0.24490028813E+02  0.62941036457E+02  0.69853778642E+02  0.00000000000E+00 0.  1.
</event>
<event>
 8    1  0.9181008E-006  0.1367084E+03  0.7561462E-02  0.1217828E+00
         -1   -1    0    0    0  501 -0.00000000000E+00  0.00000000000E+00  0.20426284771E+03  0.20426284771E+03  0.00000000000E+00 0.  1.
          1   -1    0    0  501    0  0.00000000000E+00 -0.00000000000E+00 -0.13006736040E+03  0.13006736040E+03  0.00000000000E+00 0. -1.
         23    2    1    2    0    0 -0.56377035670E+02  0.10706722420E+03  0.24727384620E+02  0.15339553534E+03  0.90977942726E+02 0.  0.
         23    2    1    2    0    0  0.56377035670E+02 -0.10706722420E+03  0.49468102692E+02  0.18093467277E+03  0.12509397259E+03 0.  0.
          5    1    4    4  502    0  0.30306940791E+02 -0.32432244570E+02 -0.41103062228E+02  0.60640706399E+02  0.41800000000E+01 0. -1.
         -5    1    4    4    0  502  0.26070094879E+02 -0.74634979626E+02  0.90571164920E+02  0.12029396637E+03  0.41800000000E+01 0. -1.
        -11    1    3    3    0    0 -0.40662212420E+02 -0.78823912452E+00  0.17150642291E+02  0.44138207608E+02  0.00000000000E+00 0.  1.
         11    1    3    3    0    0 -0.15714823250E+02  0.10785546332E+03  0.75767423293E+01  0.10925732773E+03  0.00000000000E+00 0. -1.
</event>
<event>
 8    1  0.9181008E-006  0.2688652E+03  0.7561462E-02  0.1101931E+00
         -1   -1    0    0    0  501 -0.00000000000E+00  0.00000000000E+00  0.40103392607E+03  0.40103392607E+03  0.00000000000E+00 0.  1.
          1   -1    0    0  501    0  0.00000000000E+00 -0.00000000000E+00 -0.27098420565E+03  0.27098420565E+03  0.00000000000E+00 0. -1.
         23    2    1    2    0    0 -0.21448986301E+03 -0.13777181915E+03  0.24562833008E+03  0.36543643751E+03  0.90683724230E+02 0.  0.
         23    2    1    2    0    0  0.21448986301E+03  0.13777181915E+03 -0.11557860965E+03  0.30658169421E+03  0.12508774812E+03 0.  0.
          5    1    4    4  502    0  0.14450944895E+03  0.21756510109E+02 -0.79019840553E+02  0.16618644400E+03  0.41800000000E+01 0. -1.
         -5    1    4    4    0  502  0.69980414053E+02  0.11601530904E+03 -0.36558769101E+02  0.14039525021E+03  0.41800000000E+01 0. -1.
        -11    1    3    3    0    0 -0.12242734332E+03 -0.64885793151E+02  0.72875193450E+02  0.15655482862E+03  0.00000000000E+00 0. -1.
         11    1    3    3    0    0 -0.92062519686E+02 -0.72886025998E+02  0.17275313663E+03  0.20888160889E+03  0.00000000000E+00 0.  1.
</event>
<event>
 8    1  0.9181008E-006  0.1032920E+03  0.7561462E-02  0.1273522E+00
         -1   -1    0    0    0  501 -0.00000000000E+00  0.00000000000E+00  0.17708689508E+02  0.17708689508E+02  0.00000000000E+00 0. -1.
          1   -1    0    0  501    0  0.00000000000E+00 -0.00000000000E+00 -0.19982592492E+04  0.19982592492E+04  0.00000000000E+00 0.  1.
         23    2    1    2    0    0  0.49505590307E+02 -0.84273556463E+02 -0.31086404233E+03  0.33875199755E+03  0.92539868388E+02 0.  0.
         23    2    1    2    0    0 -0.49505590307E+02  0.84273556463E+02 -0.16696865173E+04  0.16772159411E+04  0.12508961275E+03 0.  0.
          5    1    4    4  502    0 -0.45126832787E+02  0.77233500046E+02 -0.16638307187E+04  0.16662387516E+04  0.41800000000E+01 0. -1.
         -5    1    4    4    0  502 -0.43787575196E+01  0.70400564167E+01 -0.58557986608E+01  0.10977189518E+02  0.41800000000E+01 0. -1.
        -11    1    3    3    0    0  0.25560964876E+02 -0.79269699720E+02 -0.30111050060E+03  0.31241731993E+03  0.00000000000E+00 0.  1.
         11    1    3    3    0    0  0.23944625430E+02 -0.50038567433E+01 -0.97535417296E+01  0.26334677624E+02  0.00000000000E+00 0. -1.
</event>
<event>
 8    1  0.9181008E-006  0.7888145E+02  0.7561462E-02  0.1332256E+00
         -2   -1    0    0    0  501 -0.00000000000E+00  0.00000000000E+00  0.36708606987E+03  0.36708606987E+03  0.00000000000E+00 0.  1.
          2   -1    0    0  501    0  0.00000000000E+00 -0.00000000000E+00 -0.42829728859E+02  0.42829728859E+02  0.00000000000E+00 0. -1.
         23    2    1    2    0    0 -0.53511363672E+02  0.88355896990E+01  0.20415442735E+03  0.22821962834E+03  0.86392331069E+02 0.  0.
         23    2    1    2    0    0  0.53511363672E+02 -0.88355896990E+01  0.12010191366E+03  0.18169617039E+03  0.12508994756E+03 0.  0.
          5    1    4    4  502    0  0.40812075936E+02 -0.10325271298E+02 -0.15778389972E+02  0.45151597532E+02  0.41800000000E+01 0.  1.
         -5    1    4    4    0  502  0.12699287736E+02  0.14896815988E+01  0.13588030363E+03  0.13654457285E+03  0.41800000000E+01 0.  1.
        -11    1    3    3    0    0 -0.85656220670E+01  0.44070436398E+02  0.89742157649E+02  0.10034554352E+03  0.00000000000E+00 0.  1.
         11    1    3    3    0    0 -0.44945741605E+02 -0.35234846699E+02  0.11441226970E+03  0.12787408482E+03  0.00000000000E+00 0. -1.
</event>
<event>
 8    1  0.9181008E-006  0.1358835E+03  0.7561462E-02  0.1218978E+00
          1   -1    0    0  501    0  0.00000000000E+00  0.00000000000E+00  0.11180870657E+04  0.11180870657E+04  0.00000000000E+00 0. -1.
         -1   -1    0    0    0  501 -0.00000000000E+00 -0.00000000000E+00 -0.18121192613E+02  0.18121192613E+02  0.00000000000E+00 0.  1.
         23    2    1    2    0    0  0.88989802269E+02  0.18554400791E+02  0.43610944979E+03  0.45458020669E+03  0.90489012740E+02 0.  0.
         23    2    1    2    0    0 -0.88989802269E+02 -0.18554400791E+02  0.66385642329E+03  0.68162805161E+03  0.12509196338E+03 0.  0.
          5    1    4    4  502    0 -0.21292538575E+02  0.45492673013E+02  0.36738441064E+03  0.37082574490E+03  0.41800000000E+01 0. -1.
         -5    1    4    4    0  502 -0.67697263694E+02 -0.64047073803E+02  0.29647201265E+03  0.31080230672E+03  0.41800000000E+01 0. -1.
        -11    1    3    3    0    0  0.98289555823E+02  0.38900030587E+02  0.35020992454E+03  0.36581558251E+03  0.00000000000E+00 0.  1.
         11    1    3    3    0    0 -0.92997535542E+01 -0.20345629796E+02  0.85899525248E+02  0.88764624180E+02  0.00000000000E+00 0. -1.
</event>
<event>
 8    1  0.9181008E-006  0.1089566E+03  0.7561462E-02  0.1262514E+00
         -1   -1    0    0    0  501 -0.00000000000E+00  0.00000000000E+00  0.25343083258E+03  0.25343083258E+03  0.00000000000E+00 0.  1.
          1   -1    0    0  501    0  0.00000000000E+00 -0.00000000000E+00 -0.61945075726E+02  0.61945075726E+02  0.00000000000E+00 0. -1.
         23    2    1    2    0    0  0.40594201003E+02 -0.23204170447E+01  0.14313903980E+03  0.17524022642E+03  0.92558515271E+02 0.  0.
         23    2    1    2    0    0 -0.40594201003E+02  0.23204170447E+01  0.48346717046E+02  0.14013568188E+03  0.12508929130E+03 0.  0.
          5    1    4    4  502    0 -0.59165095433E+02 -0.44650273058E+02  0.49863757546E+02  0.89431661722E+02  0.41800000000E+01 0. -1.
         -5    1    4    4    0  502  0.18570894430E+02  0.46970690102E+02 -0.15170404997E+01  0.50704020161E+02  0.41800000000E+01 0. -1.
        -11    1    3    3    0    0 -0.26003226087E+02 -0.43431145520E+01  0.13820092836E+02  0.29766178407E+02  0.00000000000E+00 0. -1.
         11    1    3    3    0    0  0.66597427090E+02  0.20226975072E+01  0.12931894697E+03  0.14547404801E+03  0.00000000000E+00 0.  1.
</event>
<event>
 8    1  0.9181008E-006  0.9179396E+02  0.7561462E-02  0.1298565E+00
         -3   -1    0    0    0  501 -0.00000000000E+00  0.00000000000E+00  0.89657683174E+02  0.89657683174E+02  0.00000000000E+00 0. -1.
          3   -1    0    0  501    0  0.00000000000E+00 -0.00000000000E+00 -0.20263066520E+03  0.20263066520E+03  0.00000000000E+00 0.  1.
         23    2    1    2    0    0  0.24723374862E+02 -0.38011403398E+02  0.12548182091E+02  0.10941535306E+03  0.98783351627E+02 0.  0.
         23    2    1    2    0    0 -0.24723374862E+02  0.38011403398E+02 -0.12552116412E+03  0.18287299531E+03  0.12502342869E+03 0.  0.
          5    1    4    4  502    0 -0.11014392671E+02 -0.23759712165E+02  0.13729887346E+02  0.29863405275E+02  0.41800000000E+01 0. -1.
         -5    1    4    4    0  502 -0.13708982191E+02  0.61771115563E+02 -0.13925105146E+03  0.15300959004E+03  0.41800000000E+01 0. -1.
        -11    1    3    3    0    0  0.45467905232E+02  0.51593170794E+01  0.33926603853E+02  0.56964580293E+02  0.00000000000E+00 0. -1.
         11    1    3    3    0    0 -0.20744530371E+02 -0.43170720477E+02 -0.21378421762E+02  0.52450772767E+02  0.00000000000E+00 0.  1.
</event>
<event>
 8    1  0.9181008E-006  0.1419248E+03  0.7561462E-02  0.1210762E+00
         -2   -1    0    0    0  501 -0.00000000000E+00  0.00000000000E+00  0.26530692524E+02  0.26530692524E+02  0.00000000000E+00 0.  1.
          2   -1    0    0  501    0  0.00000000000E+00 -0.00000000000E+00 -0.10613373375E+04  0.10613373375E+04  0.00000000000E+00 0. -1.
         23    2    1    2    0    0  0.44373984920E+02  0.11326536928E+03 -0.34716916872E+03  0.37843780851E+03  0.88829323879E+02 0.  0.
         23    2    1    2    0    0 -0.44373984920E+02 -0.11326536928E+03 -0.68763747624E+03  0.70943022151E+03  0.12509135075E+03 0.  0.
          5    1    4    4  502    0 -0.58120082528E+02 -0.92324753198E+02 -0.66920082264E+03  0.67804794629E+03  0.41800000000E+01 0.  1.
         -5    1    4    4    0  502  0.13746097608E+02 -0.20940616087E+02 -0.18436653602E+02  0.31382275213E+02  0.41800000000E+01 0.  1.
        -11    1    3    3    0    0  0.12046173108E+02 -0.13711211464E+02 -0.61536807709E+02  0.64186340520E+02  0.00000000000E+00 0. -1.
         11    1    3    3    0    0  0.32327811813E+02  0.12697658075E+03 -0.28563236101E+03  0.31425146799E+03  0.00000000000E+00 0.  1.
</event>
<event>
 8    1  0.9181008E-006  0.7893082E+02  0.7561462E-02  0.1332113E+00
          2   -1    0    0  501    0  0.00000000000E+00  0.00000000000E+00  0.12270523206E+03  0.12270523206E+03  0.00000000000E+00 0. -1.
         -2   -1    0    0    0  501 -0.00000000000E+00 -0.00000000000E+00 -0.19495785618E+03  0.19495785618E+03  0.00000000000E+00 0.  1.
         23    2    1    2    0    0 -0.16527099515E+02 -0.30031664672E+02 -0.14620949599E+03  0.16835845326E+03  0.76107201780E+02 0.  0.
         23    2    1    2    0    0  0.16527099515E+02  0.30031664672E+02  0.73956871878E+02  0.14930463498E+03  0.12508880536E+03 0.  0.
          5    1    4    4  502    0 -0.17272718465E+02 -0.20038908771E+02 -0.22790994699E+02  0.35168259940E+02  0.41800000000E+01 0.  1.
         -5    1    4    4    0  502  0.33799817980E+02  0.50070573443E+02  0.96747866577E+02  0.11413637504E+03  0.41800000000E+01 0.  1.
        -11    1    3    3    0    0 -0.39566793919E+02 -0.25410694852E+02 -0.47305058034E+02  0.66700847892E+02  0.00000000000E+00 0. -1.
         11    1    3    3    0    0  0.23039694404E+02 -0.46209698205E+01 -0.98904437961E+02  0.10165760537E+03  0.00000000000E+00 0.  1.
</event>
<event>
 8    1  0.9181008E-006  0.1005344E+03  0.7561462E-02  0.1279176E+00
          4   -1    0    0  501    0  0.00000000000E+00  0.00000000000E+00  0.25455146957E+03  0.25455146957E+03  0.00000000000E+00 0. -1.
         -4   -1    0    0    0  501 -0.00000000000E+00 -0.00000000000E+00 -0.22783717160E+03  0.22783717160E+03  0.00000000000E+00 0.  1.
         23    2    1    2    0    0 -0.17513134801E+02  0.41697535672E+02 -0.20066768252E+03  0.22470081990E+03  0.90429780943E+02 0.  0.
         23    2    1    2    0    0  0.17513134801E+02 -0.41697535672E+02  0.22738198050E+03  0.25768782127E+03  0.11249468344E+03 0.  0.
          5    1    4    4  502    0  0.57618365008E+02 -0.52816089211E+02  0.16438323855E+03  0.18206794551E+03  0.41800000000E+01 0. -1.
         -5    1    4    4    0  502 -0.40105230207E+02  0.11118553539E+02  0.62998741950E+02  0.75619875760E+02  0.41800000000E+01 0.  1.
        -11    1    3    3    0    0 -0.90259192882E+00  0.57815073383E+02 -0.64680492523E+02  0.86758074526E+02  0.00000000000E+00 0. -1.
         11    1    3    3    0    0 -0.16610542873E+02 -0.16117537710E+02 -0.13598719000E+03  0.13794274537E+03  0.00000000000E+00 0.  1.
</event>
<event>
 8    1  0.9181008E-006  0.1243692E+03  0.7561462E-02  0.1236058E+00
          1   -1    0    0  501    0  0.00000000000E+00  0.00000000000E+00  0.36412021965E+03  0.36412021965E+03  0.00000000000E+00 0.  1.
         -1   -1    0    0    0  501 -0.00000000000E+00 -0.00000000000E+00 -0.53396973584E+02  0.53396973584E+02  0.00000000000E+00 0. -1.
         23    2    1    2    0    0 -0.44739822118E+02 -0.70913357652E+02  0.10393419398E+03  0.16170512971E+03  0.91191426786E+02 0.  0.
         23    2    1    2    0    0  0.44739822118E+02  0.70913357652E+02  0.20678905209E+03  0.25581206352E+03  0.12509094214E+03 0.  0.
          5    1    4    4  502    0 -0.33092103827E+02  0.59057601975E+02  0.12496678443E+03  0.14218669874E+03  0.41800000000E+01 0.  1.
         -5    1    4    4    0  502  0.77831925944E+02  0.11855755677E+02  0.81822267651E+02  0.11362536478E+03  0.41800000000E+01 0.  1.
        -11    1    3    3    0    0 -0.35853068265E+02 -0.57570307371E+01 -0.27131544517E+01  0.36413556734E+02  0.00000000000E+00 0. -1.
         11    1    3    3    0    0 -0.88867538523E+01 -0.65156326915E+02  0.10664734843E+03  0.12529157297E+03  0.00000000000E+00 0.  1.
</event>
<event>
 8    1  0.9181008E-006  0.1990012E+03  0.7561462E-02  0.1150584E+00
          2   -1    0    0  501    0  0.00000000000E+00  0.00000000000E+00  0.11691816411E+04  0.11691816411E+04  0.00000000000E+00 0. -1.
         -2   -1    0    0    0  501 -0.00000000000E+00 -0.00000000000E+00 -0.52779620248E+02  0.52779620248E+02  0.00000000000E+00 0.  1.
         23    2    1    2    0    0  0.15529248494E+03  0.11421570230E+03  0.26521085537E+03  0.34029568285E+03  0.91122837049E+02 0.  0.
         23    2    1    2    0    0 -0.15529248494E+03 -0.11421570230E+03  0.85119116549E+03  0.88166557851E+03  0.12508720791E+03 0.  0.
          5    1    4    4  502    0 -0.13722833930E+03 -0.95301471950E+02  0.45726216329E+03  0.48684714853E+03  0.41800000000E+01 0.  1.
         -5    1    4    4    0  502 -0.18064145637E+02 -0.18914230345E+02  0.39392900221E+03  0.39481842997E+03  0.41800000000E+01 0.  1.
        -11    1    3    3    0    0  0.79292609826E+02  0.99070141423E+02  0.11490294689E+03  0.17118673459E+03  0.00000000000E+00 0.  1.
         11    1    3    3    0    0  0.75999875112E+02  0.15145560872E+02  0.15030790848E+03  0.16910894827E+03  0.00000000000E+00 0. -1.
</event>
<event>
 8    1  0.9181008E-006  0.1040450E+03  0.7561462E-02  0.1272013E+00
         -1   -1    0    0    0  501 -0.00000000000E+00  0.00000000000E+00  0.22874373877E+02  0.22874373877E+02  0.00000000000E+00 0.  1.
          1   -1    0    0  501    0  0.00000000000E+00 -0.00000000000E+00 -0.66943089704E+03  0.66943089704E+03  0.00000000000E+00 0. -1.
         23    2    1    2    0    0  0.38310054102E+02  0.23511849229E+02 -0.17513602779E+03  0.20250427396E+03  0.91185993677E+02 0.  0.
         23    2    1    2    0    0 -0.38310054102E+02 -0.23511849229E+02 -0.47142049537E+03  0.48980099695E+03  0.12508903174E+03 0.  0.
          5    1    4    4  502    0  0.13213782272E+01  0.48433871178E+02 -0.13563863309E+03  0.14409336246E+03  0.41800000000E+01 0.  1.
         -5    1    4    4    0  502 -0.39631432329E+02 -0.71945720407E+02 -0.33578186227E+03  0.34570763449E+03  0.41800000000E+01 0.  1.
        -11    1    3    3    0    0  0.48258963900E+02 -0.35408017921E+01 -0.16500150798E+03  0.17195046528E+03  0.00000000000E+00 0. -1.
         11    1    3    3    0    0 -0.99489097974E+01  0.27052651021E+02 -0.10134519817E+02  0.30553808688E+02  0.00000000000E+00 0.  1.
</event>
<event>
 8    1  0.9181008E-006  0.1059139E+03  0.7561462E-02  0.1268329E+00
          1   -1    0    0  501    0  0.00000000000E+00  0.00000000000E+00  0.50197829283E+03  0.50197829283E+03  0.00000000000E+00 0. -1.
         -1   -1    0    0    0  501 -0.00000000000E+00 -0.00000000000E+00 -0.37474871364E+02  0.37474871364E+02  0.00000000000E+00 0.  1.
         23    2    1    2    0    0 -0.77182389562E+02 -0.30957667317E+02  0.23125233778E+03  0.26202039516E+03  0.90893043352E+02 0.  0.
         23    2    1    2    0    0  0.77182389562E+02  0.30957667317E+02  0.23325108369E+03  0.27743276903E+03  0.12508946745E+03 0.  0.
          5    1    4    4  502    0 -0.23071219156E+02  0.93745975543E+01  0.12783381233E+03  0.13030395315E+03  0.41800000000E+01 0.  1.
         -5    1    4    4    0  502  0.10025360872E+03  0.21583069763E+02  0.10541727137E+03  0.14712881588E+03  0.41800000000E+01 0.  1.
        -11    1    3    3    0    0 -0.30349378032E+02 -0.18250819814E+02  0.20258882234E+03  0.20566090563E+03  0.00000000000E+00 0. -1.
         11    1    3    3    0    0 -0.46833011531E+02 -0.12706847503E+02  0.28663515440E+02  0.56359489528E+02  0.00000000000E+00 0.  1.
</event>
<event>
 8    1  0.9181008E-006  0.1264540E+03  0.7561462E-02  0.1232814E+00
         -1   -1    0    0    0  501 -0.00000000000E+00  0.00000000000E+00  0.77502175517E+03  0.77502175517E+03  0.00000000000E+00 0.  1.
          1   -1    0    0  501    0  0.00000000000E+00 -0.00000000000E+00 -0.21719796682E+02  0.21719796682E+02  0.00000000000E+00 0. -1.
         23    2    1    2    0    0 -0.47915868653E+02 -0.58395065686E+02  0.44344825717E+03  0.45911623147E+03  0.91844668024E+02 0.  0.
         23    2    1    2    0    0  0.47915868653E+02  0.58395065686E+02  0.30985370131E+03  0.33762532038E+03  0.11079542671E+03 0.  0.
          5    1    4    4  502    0  0.84078904229E+02  0.43063865885E+02  0.21491608229E+03  0.23479811223E+03  0.41800000000E+01 0. -1.
         -5    1    4    4    0  502 -0.36163035576E+02  0.15331199801E+02  0.94937619023E+02  0.10282720815E+03  0.41800000000E+01 0.  1.
        -11    1    3    3    0    0 -0.73530102925E+02 -0.26998742153E+02  0.28482569078E+03  0.29540020691E+03  0.00000000000E+00 0.  1.
         11    1    3    3    0    0  0.25614234273E+02 -0.31396323533E+02  0.15862256640E+03  0.16371602457E+03  0.00000000000E+00 0. -1.
</event>
<event>
 7    1  0.9181008E-006  0.1104968E+03  0.7561462E-02  0.1259653E+00
          1   -1    0    0  501    0  0.00000000000E+00  0.00000000000E+00  0.39035886255E+02  0.39035886255E+02  0.00000000000E+00 0. -1.
         -1   -1    0    0    0  501 -0.00000000000E+00 -0.00000000000E+00 -0.36894317687E+03  0.36894317687E+03  0.00000000000E+00 0.  1.
         23    2    1    2    0    0 -0.78636691744E+01 -0.38207366978E+02 -0.16349465283E+03  0.19151961952E+03  0.91802085893E+02 0.  0.
          5    1    1    2  502    0 -0.82647618974E+01  0.86468608644E+02 -0.11272268161E+03  0.14236924499E+03  0.41800000000E+01 0. -1.
         -5    1    1    2    0  502  0.16128431072E+02 -0.48261241665E+02 -0.53689956178E+02  0.74090198612E+02  0.41800000000E+01 0.  1.
        -11    1    3    3    0    0  0.52209278287E+01 -0.58552354666E+02 -0.15517996524E+03  0.16594112792E+03  0.00000000000E+00 0.  1.
         11    1    3    3    0    0 -0.13084597003E+02  0.20344987687E+02 -0.83146875843E+01  0.25578491597E+02  0.00000000000E+00 0. -1.
</event>
<event>
 8    1  0.9181008E-006  0.2090987E+03  0.7561462E-02  0.1142282E+00
          2   -1    0    0  501    0  0.00000000000E+00  0.00000000000E+00  0.41420425083E+03  0.41420425083E+03  0.00000000000E+00 0. -1.
         -2   -1    0    0    0  501 -0.00000000000E+00 -0.00000000000E+00 -0.11237201074E+03  0.11237201074E+03  0.00000000000E+00 0.  1.
         23    2    1    2    0    0  0.17171754118E+03  0.67445627943E+02  0.17567622703E+03  0.27045363507E+03  0.90814125002E+02 0.  0.
         23    2    1    2    0    0 -0.17171754118E+03 -0.67445627943E+02  0.12615601306E+03  0.25612262650E+03  0.12509050122E+03 0.  0.
          5    1    4    4  502    0 -0.11182125174E+03 -0.94746207094E+02  0.12074965362E+03  0.18994416903E+03  0.41800000000E+01 0.  1.
         -5    1    4    4    0  502 -0.59896289440E+02  0.27300579151E+02  0.54063594425E+01  0.66178457470E+02  0.41800000000E+01 0.  1.
        -11    1    3    3    0    0  0.10598224442E+03  0.86910061417E+02  0.11576068716E+03  0.17940493750E+03  0.00000000000E+00 0.  1.
         11    1    3    3    0    0  0.65735296756E+02 -0.19464433475E+02  0.59915539874E+02  0.91048697566E+02  0.00000000000E+00 0. -1.
</event>
<event>
 8    1  0.9181008E-006  0.1215591E+03  0.7561462E-02  0.1240547E+00
          2   -1    0    0  501    0  0.00000000000E+00  0.00000000000E+00  0.57624675627E+03  0.57624675627E+03  0.00000000000E+00 0. -1.
         -2   -1    0    0    0  501 -0.00000000000E+00 -0.00000000000E+00 -0.44854629596E+02  0.44854629596E+02  0.00000000000E+00 0.  1.
         23    2    1    2    0    0  0.90342326005E+02  0.47029927400E+02  0.12864880763E+03  0.18725372491E+03  0.90221349192E+02 0.  0.
         23    2    1    2    0    0 -0.90342326005E+02 -0.47029927400E+02  0.40274331904E+03  0.43384766095E+03  0.12509221375E+03 0.  0.
          5    1    4    4  502    0 -0.81774070844E+02 -0.41123622143E+01  0.10670918324E+03  0.13456683236E+03  0.41800000000E+01 0.  1.
         -5    1    4    4    0  502 -0.85682551608E+01 -0.42917565186E+02  0.29603413580E+03  0.29928082858E+03  0.41800000000E+01 0.  1.
        -11    1    3    3    0    0 -0.41620649889E+01  0.17754134087E+02 -0.68502064752E+01  0.19479666088E+02  0.00000000000E+00 0.  1.
         11    1    3    3    0    0  0.94504390994E+02  0.29275793313E+02  0.13549901411E+03  0.16777405883E+03  0.00000000000E+00 0. -1.
</event>
<event>
 6    1  0.9181008E-006  0.8690811E+02  0.7561462E-02  0.1310517E+00
          2   -1    0    0  501    0  0.00000000000E+00  0.00000000000E+00  0.28497248713E+03  0.28497248713E+03  0.00000000000E+00 0. -1.
         -2   -1    0    0    0  501 -0.00000000000E+00 -0.00000000000E+00 -0.71324194781E+02  0.71324194781E+02  0.00000000000E+00 0.  1.
          5    1    1    2  502    0 -0.57836230500E+02 -0.14023283763E+02  0.21878992630E+03  0.22677783466E+03  0.41800000000E+01 0. -1.
         -5    1    1    2    0  502  0.31499557765E+01  0.47682908331E+02 -0.32449056921E+02  0.57913691502E+02  0.41800000000E+01 0.  1.
        -11    1    1    2    0    0  0.27305184997E+02 -0.74931115200E+01  0.11229303516E+02  0.30460090371E+02  0.00000000000E+00 0. -1.
         11    1    1    2    0    0  0.27381089727E+02 -0.26166513047E+02  0.16078119463E+02  0.41145065380E+02  0.00000000000E+00 0.  1.
</event>
<event>
 8    1  0.9181008E-006  0.2078089E+03  0.7561462E-02  0.1143313E+00
         -2   -1    0    0    0  501 -0.00000000000E+00  0.00000000000E+00  0.80145429935E+02  0.80145429935E+02  0.00000000000E+00 0.  1.
          2   -1    0    0  501    0  0.00000000000E+00 -0.00000000000E+00 -0.68065600920E+03  0.68065600920E+03  0.00000000000E+00 0. -1.
         23    2    1    2    0    0  0.18261921880E+03 -0.26421731125E+02 -0.13791619929E+03  0.24729644719E+03  0.89926457821E+02 0.  0.
         23    2    1    2    0    0 -0.18261921880E+03  0.26421731125E+02 -0.46259437998E+03  0.51350499195E+03  0.12508368965E+03 0.  0.
          5    1    4    4  502    0  0.11383756050E+02  0.21524770932E+02 -0.26883087106E+02  0.36511346700E+02  0.41800000000E+01 0. -1.
         -5    1    4    4    0  502 -0.19400297485E+03  0.48969601934E+01 -0.43571129288E+03  0.47699364525E+03  0.41800000000E+01 0. -1.
        -11    1    3    3    0    0  0.96861837899E+00 -0.14744918333E+02  0.52852493825E+01  0.15693460397E+02  0.00000000000E+00 0. -1.
         11    1    3    3    0    0  0.18165060042E+03 -0.11676812792E+02 -0.14320144867E+03  0.23160298679E+03  0.00000000000E+00 0.  1.
</event>
<event>
 8    1  0.9181008E-006  0.2085190E+03  0.7561462E-02  0.1142744E+00
          2   -1    0    0  501    0  0.00000000000E+00  0.00000000000E+00  0.79920705674E+03  0.79920705674E+03  0.00000000000E+00 0. -1.
         -2   -1    0    0    0  501 -0.00000000000E+00 -0.00000000000E+00 -0.74304423639E+02  0.74304423639E+02  0.00000000000E+00 0.  1.
         23    2    1    2    0    0 -0.15213723350E+03 -0.12098179840E+03  0.17037826575E+03  0.27273941929E+03  0.87038520405E+02 0.  0.
         23    2    1    2    0    0  0.15213723350E+03  0.12098179840E+03  0.55452436735E+03  0.60077206108E+03  0.12508981587E+03 0.  0.
          5    1    4    4  502    0  0.30650536434E+02 -0.64576752929E+01  0.18639211538E+02  0.36688548085E+02  0.41800000000E+01 0.  1.
         -5    1    4    4    0  502  0.12148669707E+03  0.12743947369E+03  0.53588515581E+03  0.56408351300E+03  0.41800000000E+01 0.  1.
        -11    1    3    3    0    0 -0.95597553652E+02 -0.26482888105E+02  0.10601634995E+03  0.14518850534E+03  0.00000000000E+00 0.  1.
         11    1    3    3    0    0 -0.56539679850E+02 -0.94498910294E+02  0.64361915805E+02  0.12755091395E+03  0.00000000000E+00 0. -1.
</event>
<event>
 8    1  0.9181008E-006  0.1148335E+03  0.7561462E-02  0.1251872E+00
          1   -1    0    0  501    0  0.00000000000E+00  0.00000000000E+00  0.14652788996E+03  0.14652788996E+03  0.00000000000E+00 0. -1.
         -1   -1    0    0    0  501 -0.00000000000E+00 -0.00000000000E+00 -0.11170987733E+03  0.11170987733E+03  0.00000000000E+00 0.  1.
         23    2    1    2    0    0 -0.31621693324E+02  0.41422539559E+02 -0.23566517828E+02  0.11069810494E+03  0.94778327708E+02 0.  0.
         23    2    1    2    0    0  0.31621693324E+02 -0.41422539559E+02  0.58384530457E+02  0.14753966235E+03  0.12507373944E+03 0.  0.
          5    1    4    4  502    0  0.19557067083E+02 -0.79348009863E+02  0.67985997596E+02  0.10638681220E+03  0.41800000000E+01 0. -1.
         -5    1    4    4    0  502  0.12064626240E+02  0.37925470304E+02 -0.96014671384E+01  0.41152850148E+02  0.41800000000E+01 0. -1.
        -11    1    3    3    0    0  0.17663627430E+02  0.54116751786E+02 -0.16817483298E+02  0.59358691886E+02  0.00000000000E+00 0.  1.
         11    1    3    3    0    0 -0.49285320754E+02 -0.12694212228E+02 -0.67490345301E+01  0.51339413057E+02  0.00000000000E+00 0. -1.
</event>
<event>
 8    1  0.9181008E-006  0.1314501E+03  0.7561462E-02  0.1225320E+00
          3   -1    0    0  501    0  0.00000000000E+00  0.00000000000E+00  0.20346940249E+03  0.20346940249E+03  0.00000000000E+00 0. -1.
         -3   -1    0    0    0  501 -0.00000000000E+00 -0.00000000000E+00 -0.11824678539E+03  0.11824678539E+03  0.00000000000E+00 0.  1.
         23    2    1    2    0    0  0.64268163134E+02  0.56651760967E+02 -0.39029787969E+02  0.12569624266E+03  0.83285066232E+02 0.  0.
         23    2    1    2    0    0 -0.64268163134E+02 -0.56651760967E+02  0.12425240508E+03  0.19601994522E+03  0.12508133331E+03 0.  0.
          5    1    4    4  502    0 -0.41271559941E+02  0.31759360215E+02  0.16707693223E+02  0.54850870860E+02  0.41800000000E+01 0.  1.
         -5    1    4    4    0  502 -0.22996603193E+02 -0.88411121182E+02  0.10754471185E+03  0.14116907436E+03  0.41800000000E+01 0.  1.
        -11    1    3    3    0    0  0.47154560859E+02  0.78427211199E+02 -0.33522547821E+02  0.97458407943E+02  0.00000000000E+00 0.  1.
         11    1    3    3    0    0  0.17113602274E+02 -0.21775450232E+02 -0.55072401482E+01  0.28237834720E+02  0.00000000000E+00 0. -1.
</event>
<event>
 8    1  0.9181008E-006  0.1674713E+03  0.7561462E-02  0.1180511E+00
          2   -1    0    0  501    0  0.00000000000E+00  0.00000000000E+00  0.74181951133E+03  0.74181951133E+03  0.00000000000E+00 0. -1.
         -2   -1    0    0    0  501 -0.00000000000E+00 -0.00000000000E+00 -0.49311303207E+02  0.49311303207E+02  0.00000000000E+00 0.  1.
         23    2    1    2    0    0 -0.13820784035E+03  0.72235532074E+02  0.28990058895E+03  0.34161967511E+03  0.91336037348E+02 0.  0.
         23    2    1    2    0    0  0.13820784035E+03 -0.72235532074E+02  0.40260761917E+03  0.44951113943E+03  0.12509192712E+03 0.  0.
          5    1    4    4  502    0  0.16103661846E+02  0.15413938242E+02  0.17662485114E+03  0.17807506242E+03  0.41800000000E+01 0. -1.
         -5    1    4    4    0  502  0.12210417850E+03 -0.87649470317E+02  0.22598276803E+03  0.27143607701E+03  0.41800000000E+01 0. -1.
        -11    1    3    3    0    0 -0.10409751621E+03  0.31482624344E+02  0.25713166473E+03  0.27918478025E+03  0.00000000000E+00 0. -1.
         11    1    3    3    0    0 -0.34110324132E+02  0.40752907731E+02  0.32768924222E+02  0.62434894855E+02  0.00000000000E+00 0.  1.
</event>
<event>
 8    1  0.9181008E-006  0.1982318E+03  0.7561462E-02  0.1151239E+00
          1   -1    0    0  501    0  0.00000000000E+00  0.00000000000E+00  0.10411848896E+04  0.10411848896E+04  0.00000000000E+00 0. -1.
         -1   -1    0    0    0  501 -0.00000000000E+00 -0.00000000000E+00 -0.44434111703E+02  0.44434111703E+02  0.00000000000E+00 0.  1.
         23    2    1    2    0    0 -0.62545693830E+02  0.17239943067E+03  0.40147990427E+03  0.45030124226E+03  0.89171563510E+02 0.  0.
         23    2    1    2    0    0  0.62545693830E+02 -0.17239943067E+03  0.59527087359E+03  0.63531775900E+03  0.12509082480E+03 0.  0.
          5    1    4    4  502    0  0.40776770046E+02 -0.35812693297E+02  0.54127455736E+02  0.76762932728E+02  0.41800000000E+01 0. -1.
         -5    1    4    4    0  502  0.21768923784E+02 -0.13658673737E+03  0.54114341785E+03  0.55855482627E+03  0.41800000000E+01 0. -1.
        -11    1    3    3    0    0 -0.57058847777E+02  0.36687548802E+02  0.12306862722E+03  0.14052606645E+03  0.00000000000E+00 0. -1.
         11    1    3    3    0    0 -0.54868460531E+01  0.13571188187E+03  0.27841127706E+03  0.30977517582E+03  0.00000000000E+00 0.  1.
</event>
<event>
 8    1  0.9181008E-006  0.2612681E+03  0.7561462E-02  0.1106384E+00
         -1   -1    0    0    0  501 -0.00000000000E+00  0.00000000000E+00  0.74221073585E+02  0.74221073585E+02  0.00000000000E+00 0.  1.
          1   -1    0    0  501    0  0.00000000000E+00 -0.00000000000E+00 -0.10061952332E+04  0.10061952332E+04  0.00000000000E+00 0. -1.
         23    2    1    2    0    0  0.20852611531E+03 -0.11677520671E+03 -0.30477034502E+03  0.39766250145E+03  0.90171570833E+02 0.  0.
         23    2    1    2    0    0 -0.20852611531E+03  0.11677520671E+03 -0.62720381463E+03  0.68275380537E+03  0.12509414051E+03 0.  0.
          5    1    4    4  502    0 -0.19455881838E+03  0.49448462546E+02 -0.47417654415E+03  0.51493606562E+03  0.41800000000E+01 0.  1.
         -5    1    4    4    0  502 -0.13967296936E+02  0.67326744159E+02 -0.15302727048E+03  0.16781773975E+03  0.41800000000E+01 0.  1.
        -11    1    3    3    0    0  0.98326493418E+02 -0.10199912546E+03 -0.14240076089E+03  0.20087283939E+03  0.00000000000E+00 0. -1.
         11    1    3    3    0    0  0.11019962190E+03 -0.14776081246E+02 -0.16236958413E+03  0.19678966206E+03  0.00000000000E+00 0.  1.
</event>
<event>
 8    1  0.9181008E-006  0.1012452E+03  0.7561462E-02  0.1277699E+00
          3   -1    0    0  501    0  0.00000000000E+00  0.00000000000E+00  0.67624899483E+02  0.67624899483E+02  0.00000000000E+00 0. -1.
         -3   -1    0    0    0  501 -0.00000000000E+00 -0.00000000000E+00 -0.19789071330E+03  0.19789071330E+03  0.00000000000E+00 0.  1.
         23    2    1    2    0    0  0.12613974461E+02 -0.35527990950E+02 -0.10212475662E+03  0.13186987114E+03  0.74423427145E+02 0.  0.
         23    2    1    2    0    0 -0.12613974461E+02  0.35527990950E+02 -0.28141057201E+02  0.13364574164E+03  0.12509162508E+03 0.  0.
          5    1    4    4  502    0  0.49058917571E+02 -0.55423581761E+01  0.94705823731E+01  0.50444617730E+02  0.41800000000E+01 0. -1.
         -5    1    4    4    0  502 -0.61672892032E+02  0.41070349126E+02 -0.37611639574E+02  0.83201123913E+02  0.41800000000E+01 0. -1.
        -11    1    3    3    0    0 -0.28550077452E+02 -0.19398947514E+02 -0.23793714134E+02  0.41923345757E+02  0.00000000000E+00 0. -1.
         11    1    3    3    0    0  0.41164051913E+02 -0.16129043436E+02 -0.78331042485E+02  0.89946525385E+02  0.00000000000E+00 0.  1.
</event>
<event>
 8    1  0.9181008E-006  0.9492172E+02  0.7561462E-02  0.1291352E+00
          2   -1    0    0  501    0  0.00000000000E+00  0.00000000000E+00  0.10804052621E+03  0.10804052621E+03  0.00000000000E+00 0. -1.
         -2   -1    0    0    0  501 -0.00000000000E+00 -0.00000000000E+00 -0.15359833795E+03  0.15359833795E+03  0.00000000000E+00 0.  1.
         23    2    1    2    0    0  0.27931697483E+02  0.10972925602E+02 -0.80562381895E+02  0.12831647156E+03  0.95258777424E+02 0.  0.
         23    2    1    2    0    0 -0.27931697483E+02 -0.10972925602E+02  0.35004570158E+02  0.13332239260E+03  0.12509578576E+03 0.  0.
          5    1    4    4  502    0  0.19311890453E+02  0.28889357673E+02 -0.28102647711E+02  0.44886248540E+02  0.41800000000E+01 0.  1.
         -5    1    4    4    0  502 -0.47243587936E+02 -0.39862283275E+02  0.63107217868E+02  0.88436144059E+02  0.41800000000E+01 0.  1.
        -11    1    3    3    0    0 -0.64705064931E+01 -0.34930121046E+02 -0.90861755244E+01  0.36667961440E+02  0.00000000000E+00 0. -1.
         11    1    3    3    0    0  0.34402203976E+02  0.45903046648E+02 -0.71476206371E+02  0.91648510120E+02  0.00000000000E+00 0.  1.
</event>
<event>
 8    1  0.9181008E-006  0.1528426E+03  0.7561462E-02  0.1197023E+00
          2   -1    0    0  501    0  0.00000000000E+00  0.00000000000E+00  0.76593013854E+03  0.76593013854E+03  0.00000000000E+00 0. -1.
         -2   -1    0    0    0  501 -0.00000000000E+00 -0.00000000000E+00 -0.31535368655E+02  0.31535368655E+02  0.00000000000E+00 0.  1.
         23    2    1    2    0    0  0.10059105560E+03  0.41257039065E+02  0.28945501799E+03  0.32266025732E+03  0.92221095602E+02 0.  0.
         23    2    1    2    0    0 -0.10059105560E+03 -0.41257039065E+02  0.44493975190E+03  0.47480524988E+03  0.12509172137E+03 0.  0.
          5    1    4    4  502    0 -0.23005715973E+02 -0.76791957375E+02  0.21137146109E+03  0.22610093907E+03  0.41800000000E+01 0. -1.
         -5    1    4    4    0  502 -0.77585339626E+02  0.35534918311E+02  0.23356829081E+03  0.24870431081E+03  0.41800000000E+01 0. -1.
        -11    1    3    3    0    0  0.12116876385E+02  0.49645813446E+02  0.13662105650E+03  0.14586582384E+03  0.00000000000E+00 0. -1.
         11    1    3    3    0    0  0.88474179213E+02 -0.83887743815E+01  0.15283396149E+03  0.17679443347E+03  0.00000000000E+00 0.  1.
</event>
<event>
 8    1  0.9181008E-006  0.1122415E+03  0.7561462E-02  0.1256474E+00
         -3   -1    0    0    0  501 -0.00000000000E+00  0.00000000000E+00  0.42359100654E+03  0.42359100654E+03  0.00000000000E+00 0.  1.
          3   -1    0    0  501    0  0.00000000000E+00 -0.00000000000E+00 -0.56558075945E+02  0.56558075945E+02  0.00000000000E+00 0. -1.
         23    2    1    2    0    0 -0.75894823634E+02  0.31671864511E+02  0.28792010137E+03  0.31084175122E+03  0.83435473738E+02 0.  0.
         23    2    1    2    0    0  0.75894823634E+02 -0.31671864511E+02  0.79112829231E+02  0.16930733126E+03  0.12507198493E+03 0.  0.
          5    1    4    4  502    0 -0.15773767531E+01  0.19896357299E+02 -0.23232265468E+02  0.30912193549E+02  0.41800000000E+01 0.  1.
         -5    1    4    4    0  502  0.77472200387E+02 -0.51568221810E+02  0.10234509470E+03  0.13839513771E+03  0.41800000000E+01 0.  1.
        -11    1    3    3    0    0 -0.86154676391E+02  0.97210213544E+01  0.17437692222E+03  0.19474197679E+03  0.00000000000E+00 0.  1.
         11    1    3    3    0    0  0.10259852757E+02  0.21950843156E+02  0.11354317914E+03  0.11609977444E+03  0.00000000000E+00 0. -1.
</event>
<event>
 8    1  0.9181008E-006  0.1226219E+03  0.7561462E-02  0.1238833E+00
         -2   -1    0    0    0  501 -0.00000000000E+00  0.00000000000E+00  0.16799968374E+02  0.16799968374E+02  0.00000000000E+00 0. -1.
          2   -1    0    0  501    0  0.00000000000E+00 -0.00000000000E+00 -0.89657057456E+03  0.89657057456E+03  0.00000000000E+00 0.  1.
         23    2    1    2    0    0 -0.54482112126E+02 -0.32014743779E+02 -0.38651322052E+03  0.40059029990E+03  0.84183575480E+02 0.  0.
         23    2    1    2    0    0  0.54482112126E+02  0.32014743779E+02 -0.49325738567E+03  0.51278024303E+03  0.12508990673E+03 0.  0.
          5    1    4    4  502    0 -0.26570865605E+02  0.50196927456E+02 -0.20512520402E+03  0.21288392178E+03  0.41800000000E+01 0.  1.
         -5    1    4    4    0  502  0.81052977731E+02 -0.18182183677E+02 -0.28813218164E+03  0.29989632125E+03  0.41800000000E+01 0.  1.
        -11    1    3    3    0    0  0.11761847476E+00 -0.48179594161E+02 -0.16689772321E+03  0.17371280073E+03  0.00000000000E+00 0.  1.
         11    1    3    3    0    0 -0.54599730601E+02  0.16164850382E+02 -0.21961549731E+03  0.22687749917E+03  0.00000000000E+00 0. -1.
</event>
<event>
 7    1  0.9181008E-006  0.1130121E+03  0.7561462E-02  0.1255091E+00
         -1   -1    0    0    0  501 -0.00000000000E+00  0.00000000000E+00  0.33981821816E+03  0.33981821816E+03  0.00000000000E+00 0.  1.
          1   -1    0    0  501    0  0.00000000000E+00 -0.00000000000E+00 -0.15568864364E+03  0.15568864364E+03  0.00000000000E+00 0. -1.
         23    2    1    2    0    0 -0.22654084125E+02 -0.21388447323E+00  0.67003709796E+02  0.11193859314E+03  0.86761156247E+02 0.  0.
          5    1    1    2  502    0  0.81124028610E+02  0.10284465463E+02 -0.11655270675E+03  0.14243905398E+03  0.41800000000E+01 0. -1.
         -5    1    1    2    0  502 -0.58469944485E+02 -0.10070580990E+02  0.23367857147E+03  0.24112921468E+03  0.41800000000E+01 0.  1.
        -11    1    3    3    0    0 -0.11411072369E+02  0.40682481128E+02  0.51880547503E+02  0.66909401824E+02  0.00000000000E+00 0. -1.
         11    1    3    3    0    0 -0.11243011755E+02 -0.40896365601E+02  0.15123162293E+02  0.45029191314E+02  0.00000000000E+00 0.  1.
</event>
<event>
 7    1  0.9181008E-006  0.1096332E+03  0.7561462E-02  0.1261251E+00
         -2   -1    0    0    0  501 -0.00000000000E+00  0.00000000000E+00  0.48604992425E+02  0.48604992425E+02  0.00000000000E+00 0.  1.
          2   -1    0    0  501    0  0.00000000000E+00 -0.00000000000E+00 -0.14198724915E+04  0.14198724915E+04  0.00000000000E+00 0. -1.
         23    2    1    2    0    0 -0.28921311478E+02  0.32279172548E+01 -0.76857898096E+01  0.97558729666E+02  0.92799637185E+02 0.  0.
          5    1    1    2  502    0  0.58743714061E+02  0.46071864333E+02 -0.51836019079E+03  0.52372531008E+03  0.41800000000E+01 0. -1.
         -5    1    1    2    0  502 -0.29822402583E+02 -0.49299781588E+02 -0.84522151850E+03  0.84719344420E+03  0.41800000000E+01 0.  1.
        -11    1    3    3    0    0 -0.39319567390E+02 -0.31558076464E+02  0.17503382862E+02  0.53369551071E+02  0.00000000000E+00 0.  1.
         11    1    3    3    0    0  0.10398255912E+02  0.34785993719E+02 -0.25189172672E+02  0.44189178595E+02  0.00000000000E+00 0. -1.
</event>
<event>
 8    1  0.9181008E-006  0.8677288E+02  0.7561462E-02  0.1310860E+00
         -2   -1    0    0    0  501 -0.00000000000E+00  0.00000000000E+00  0.29156103211E+02  0.29156103211E+02  0.00000000000E+00 0. -1.
          2   -1    0    0  501    0  0.00000000000E+00 -0.00000000000E+00 -0.67268032600E+03  0.67268032600E+03  0.00000000000E+00 0.  1.
         23    2    1    2    0    0 -0.60705042768E+02 -0.11171475815E+02 -0.13454540292E+03  0.17408977582E+03  0.91623580538E+02 0.  0.
         23    2    1    2    0    0  0.60705042768E+02  0.11171475815E+02 -0.50897881987E+03  0.52774665338E+03  0.12508871650E+03 0.  0.
          5    1    4    4  502    0  0.47712239035E+02  0.16214618840E+01 -0.50883637433E+03  0.51108806984E+03  0.41800000000E+01 0.  1.
         -5    1    4    4    0  502  0.12992803733E+02  0.95500139310E+01 -0.14244553728E+00  0.16658583543E+02  0.41800000000E+01 0.  1.
        -11    1    3    3    0    0 -0.84515666892E+02 -0.71507763203E+01 -0.91726195938E+02  0.12493088719E+03  0.00000000000E+00 0. -1.
         11    1    3    3    0    0  0.23810624123E+02 -0.40206994947E+01 -0.42819206980E+02  0.49158888636E+02  0.00000000000E+00 0.  1.
</event>
<event>
 8    1  0.9181008E-006  0.8883598E+02  0.7561462E-02  0.1305695E+00
         -2   -1    0    0    0  501 -0.00000000000E+00  0.00000000000E+00  0.90957090090E+02  0.90957090090E+02  0.00000000000E+00 0.  1.
          2   -1    0    0  501    0  0.00000000000E+00 -0.00000000000E+00 -0.20323104079E+03  0.20323104079E+03  0.00000000000E+00 0. -1.
         23    2    1    2    0    0 -0.67011564809E+02  0.79982026555E+01  0.43954073318E+01  0.11030118701E+03  0.87135016990E+02 0.  0.
         23    2    1    2    0    0  0.67011564809E+02 -0.79982026555E+01 -0.11666935803E+03  0.18388694387E+03  0.12509255757E+03 0.  0.
          5    1    4    4  502    0  0.39042988304E+02 -0.63903191248E+01 -0.14102606371E+03  0.14652990876E+03  0.41800000000E+01 0. -1.
         -5    1    4    4    0  502  0.27968576505E+02 -0.16078835307E+01  0.24356705679E+02  0.37357035116E+02  0.41800000000E+01 0. -1.
        -11    1    3    3    0    0 -0.73314694312E+02  0.35423543543E+02 -0.19783262480E+01  0.81448054698E+02  0.00000000000E+00 0. -1.
         11    1    3    3    0    0  0.63031295030E+01 -0.27425340888E+02  0.63737335798E+01  0.28853132310E+02  0.00000000000E+00 0.  1.
</event>
<event>
 8    1  0.9181008E-006  0.1258333E+03  0.7561462E-02  0.1233773E+00
         -2   -1    0    0    0  501 -0.00000000000E+00  0.00000000000E+00  0.72225857008E+02  0.72225857008E+02  0.00000000000E+00 0.  1.
          2   -1    0    0  501    0  0.00000000000E+00 -0.00000000000E+00 -0.72277111603E+03  0.72277111603E+03  0.00000000000E+00 0. -1.
         23    2    1    2    0    0  0.56031297616E+02  0.45762545706E+02  0.15037726376E+02  0.11390769820E+03  0.86689754836E+02 0.  0.
         23    2    1    2    0    0 -0.56031297616E+02 -0.45762545706E+02 -0.66558298540E+03  0.68108927484E+03  0.12509265742E+03 0.  0.
          5    1    4    4  502    0  0.39539096812E+02 -0.11416517829E+02 -0.23988528114E+03  0.24342575370E+03  0.41800000000E+01 0. -1.
         -5    1    4    4    0  502 -0.95570394429E+02 -0.34346027877E+02 -0.42569770426E+03  0.43766352114E+03  0.41800000000E+01 0. -1.
        -11    1    3    3    0    0 -0.85592908038E+01  0.43177399891E+02  0.21417022628E+02  0.48951385870E+02  0.00000000000E+00 0. -1.
         11    1    3    3    0    0  0.64590588420E+02  0.25851458154E+01 -0.63792962513E+01  0.64956312334E+02  0.00000000000E+00 0.  1.
</event>
<event>
 8    1  0.9181008E-006  0.1474662E+03  0.7561462E-02  0.1203622E+00
          2   -1    0    0  501    0  0.00000000000E+00  0.00000000000E+00  0.23091711226E+04  0.23091711226E+04  0.00000000000E+00 0. -1.
         -2   -1    0    0    0  501 -0.00000000000E+00 -0.00000000000E+00 -0.18444115728E+02  0.18444115728E+02  0.00000000000E+00 0.  1.
         23    2    1    2    0    0  0.82780606283E+02  0.77547446700E+02  0.34332664229E+03  0.37290783590E+03  0.91218613785E+02 0.  0.
         23    2    1    2    0    0 -0.82780606283E+02 -0.77547446700E+02  0.19474003646E+04  0.19547074025E+04  0.12508642564E+03 0.  0.
          5    1    4    4  502    0  0.97140583909E+01  0.26987072082E+02  0.37492219783E+03  0.37604094433E+03  0.41800000000E+01 0. -1.
         -5    1    4    4    0  502 -0.92494664674E+02 -0.10453451878E+03  0.15724781668E+04  0.15786664581E+04  0.41800000000E+01 0. -1.
        -11    1    3    3    0    0  0.57157914663E+01  0.40312024175E+02  0.37579884833E+02  0.55407375946E+02  0.00000000000E+00 0.  1.
         11    1    3    3    0    0  0.77064814817E+02  0.37235422525E+02  0.30574675746E+03  0.31750045995E+03  0.00000000000E+00 0. -1.
</event>
<event>
 8    1  0.9181008E-006  0.1572315E+03  0.7561462E-02  0.1191858E+00
         -2   -1    0    0    0  501 -0.00000000000E+00  0.00000000000E+00  0.17935383278E+03  0.17935383278E+03  0.00000000000E+00 0.  1.
          2   -1    0    0  501    0  0.00000000000E+00 -0.00000000000E+00 -0.25188906345E+03  0.25188906345E+03  0.00000000000E+00 0. -1.
         23    2    1    2    0    0 -0.10818195766E+03  0.72390539776E+02  0.97391152447E+02  0.18331771728E+03  0.84714949569E+02 0.  0.
         23    2    1    2    0    0  0.10818195766E+03 -0.72390539776E+02 -0.16992638312E+03  0.24792517895E+03  0.12509273547E+03 0.  0.
          5    1    4    4  502    0  0.95725443314E+02  0.10680203250E+02 -0.88967779721E+02  0.13118752024E+03  0.41800000000E+01 0.  1.
         -5    1    4    4    0  502  0.12456514346E+02 -0.83070743026E+02 -0.80958603396E+02  0.11673765871E+03  0.41800000000E+01 0.  1.
        -11    1    3    3    0    0 -0.35906338168E+02  0.42759354732E+02 -0.32368517104E+01  0.55929462242E+02  0.00000000000E+00 0. -1.
         11    1    3    3    0    0 -0.72275619493E+02  0.29631185044E+02  0.10062800416E+03  0.12738825503E+03  0.00000000000E+00 0.  1.
</event>
<event>
 8    1  0.9181008E-006  0.1332274E+03  0.7561462E-02  0.1222744E+00
          2   -1    0    0  501    0  0.00000000000E+00  0.00000000000E+00  0.43258360483E+02  0.43258360483E+02  0.00000000000E+00 0. -1.
         -2   -1    0    0    0  501 -0.00000000000E+00 -0.00000000000E+00 -0.66595691759E+03  0.66595691759E+03  0.00000000000E+00 0.  1.
         23    2    1    2    0    0 -0.10152606262E+03 -0.64015547455E+02 -0.35325372523E+03  0.38881897721E+03  0.10948274268E+03 0.  0.
         23    2    1    2    0    0  0.10152606262E+03  0.64015547455E+02 -0.26944483188E+03  0.32039630086E+03  0.12509092882E+03 0.  0.
          5    1    4    4  502    0  0.45568468158E+02 -0.16140821813E+02 -0.20064717085E+02  0.52507872655E+02  0.41800000000E+01 0.  1.
         -5    1    4    4    0  502  0.55957594462E+02  0.80156369268E+02 -0.24938011479E+03  0.26788842821E+03  0.41800000000E+01 0.  1.
        -11    1    3    3    0    0 -0.39573150983E+02 -0.22718676671E+02 -0.24605007943E+02  0.51841864977E+02  0.00000000000E+00 0. -1.
         11    1    3    3    0    0 -0.61952911637E+02 -0.41296870784E+02 -0.32864871728E+03  0.33697711223E+03  0.00000000000E+00 0.  1.
</event>
<event>
 8    1  0.9181008E-006  0.7518363E+02  0.7561462E-02  0.1343303E+00
         -2   -1    0    0    0  501 -0.00000000000E+00  0.00000000000E+00  0.25860601651E+02  0.25860601651E+02  0.00000000000E+00 0.  1.
          2   -1    0    0  501    0  0.00000000000E+00 -0.00000000000E+00 -0.43095856839E+03  0.43095856839E+03  0.00000000000E+00 0. -1.
         23    2    1    2    0    0 -0.16762646836E+02 -0.19233694103E+02 -0.14173848470E+03  0.16987670503E+03  0.90096479105E+02 0.  0.
         23    2    1    2    0    0  0.16762646836E+02  0.19233694103E+02 -0.26335948203E+03  0.28694246501E+03  0.11102630379E+03 0.  0.
          5    1    4    4  502    0  0.49594573700E+02  0.58074440396E+01 -0.23780154687E+03  0.24302344792E+03  0.41800000000E+01 0. -1.
         -5    1    4    4    0  502 -0.32831926864E+02  0.13426250063E+02 -0.25557935168E+02  0.43919017093E+02  0.41800000000E+01 0.  1.
        -11    1    3    3    0    0 -0.56346217944E+01  0.21546658733E+02 -0.12055414339E+03  0.12259408205E+03  0.00000000000E+00 0. -1.
         11    1    3    3    0    0 -0.11128025042E+02 -0.40780352836E+02 -0.21184341315E+02  0.47282622978E+02  0.00000000000E+00 0.  1.
</event>
<event>
 8    1  0.9181008E-006  0.1126983E+03  0.7561462E-02  0.1255653E+00
          1   -1    0    0  501    0  0.00000000000E+00  0.00000000000E+00  0.66179102072E+02  0.66179102072E+02  0.00000000000E+00 0. -1.
         -1   -1    0    0    0  501 -0.00000000000E+00 -0.00000000000E+00 -0.20433108266E+03  0.20433108266E+03  0.00000000000E+00 0.  1.
         23    2    1    2    0    0  0.34337802609E+01 -0.34408182732E+02 -0.89107581605E+02  0.13176966928E+03  0.90704855193E+02 0.  0.
         23    2    1    2    0    0 -0.34337802609E+01  0.34408182732E+02 -0.49044398985E+02  0.13874051546E+03  0.12509142126E+03 0.  0.
          5    1    4    4  502    0  0.59958272582E+02  0.68124978702E+01 -0.21380511394E+02  0.64156085025E+02  0.41800000000E+01 0. -1.
         -5    1    4    4    0  502 -0.63392052843E+02  0.27595684861E+02 -0.27663887591E+02  0.74584430435E+02  0.41800000000E+01 0. -1.
        -11    1    3    3    0    0 -0.19912704562E+00  0.30566622815E+02 -0.18420647106E+02  0.35688630146E+02  0.00000000000E+00 0. -1.
         11    1    3    3    0    0  0.36329073065E+01 -0.64974805546E+02 -0.70686934499E+02  0.96081039129E+02  0.00000000000E+00 0.  1.
</event>
<event>
 8    1  0.9181008E-006  0.1254782E+03  0.7561462E-02  0.1234324E+00
         -1   -1    0    0    0  501 -0.00000000000E+00  0.00000000000E+00  0.71518241365E+02  0.71518241365E+02  0.00000000000E+00 0.  1.
          1   -1    0    0  501    0  0.00000000000E+00 -0.00000000000E+00 -0.37888319239E+03  0.37888319239E+03  0.00000000000E+00 0. -1.
         23    2    1    2    0    0  0.16840559259E+02  0.78858520163E+02 -0.15205885906E+02  0.12251981954E+03  0.90981407850E+02 0.  0.
         23    2    1    2    0    0 -0.16840559259E+02 -0.78858520163E+02 -0.29215906512E+03  0.32788161422E+03  0.12508862048E+03 0.  0.
          5    1    4    4  502    0  0.44908393214E+01  0.33196498243E+02 -0.83021117398E+02  0.89622282204E+02  0.41800000000E+01 0. -1.
         -5    1    4    4    0  502 -0.21331398581E+02 -0.11205501841E+03 -0.20913794772E+03  0.23825933201E+03  0.41800000000E+01 0. -1.
        -11    1    3    3    0    0 -0.24284202531E+02  0.21226484149E+02  0.25263086011E+02  0.40969618460E+02  0.00000000000E+00 0.  1.
         11    1    3    3    0    0  0.41124761791E+02  0.57632036014E+02 -0.40468971918E+02  0.81550201076E+02  0.00000000000E+00 0. -1.
</event>
<event>
 8    1  0.9181008E-006  0.1305458E+03  0.7561462E-02  0.1226648E+00
          2   -1    0    0  501    0  0.00000000000E+00  0.00000000000E+00  0.84921032135E+03  0.84921032135E+03  0.00000000000E+00 0. -1.
         -2   -1    0    0    0  501 -0.00000000000E+00 -0.00000000000E+00 -0.21185655374E+02  0.21185655374E+02  0.00000000000E+00 0.  1.
         23    2    1    2    0    0 -0.72547440708E+02 -0.17577390876E+02  0.29757711074E+03  0.32030992718E+03  0.92055509279E+02 0.  0.
         23    2    1    2    0    0  0.72547440708E+02  0.17577390876E+02  0.53044755523E+03  0.55008604954E+03  0.12509179520E+03 0.  0.
          5    1    4    4  502    0  0.96880609669E+02  0.46573001449E+02  0.39496801151E+03  0.40935571269E+03  0.41800000000E+01 0. -1.
         -5    1    4    4    0  502 -0.24333168962E+02 -0.28995610572E+02  0.13547954373E+03  0.14073033686E+03  0.41800000000E+01 0. -1.
        -11    1    3    3    0    0 -0.11886747060E+02 -0.46668060074E+02  0.16123264767E+03  0.16827111832E+03  0.00000000000E+00 0. -1.
         11    1    3    3    0    0 -0.60660693648E+02  0.29090669197E+02  0.13634446307E+03  0.15203880886E+03  0.00000000000E+00 0.  1.
</event>
<event>
 8    1  0.9181008E-006  0.2529472E+03  0.7561462E-02  0.1111456E+00
          1   -1    0    0  501    0  0.00000000000E+00  0.00000000000E+00  0.18184913939E+04  0.18184913939E+04  0.00000000000E+00 0. -1.
         -1   -1    0    0    0  501 -0.00000000000E+00 -0.00000000000E+00 -0.36308624879E+02  0.36308624879E+02  0.00000000000E+00 0.  1.
         23    2    1    2    0    0 -0.22829719654E+03 -0.43536116611E+02  0.83802621608E+03  0.87444398530E+03  0.91374729550E+02 0.  0.
         23    2    1    2    0    0  0.22829719654E+03  0.43536116611E+02  0.94415655293E+03  0.98035603346E+03  0.12510536562E+03 0.  0.
          5    1    4    4  502    0  0.52300403123E+01  0.39598231908E+02  0.12096899542E+03  0.12746114523E+03  0.41800000000E+01 0.  1.
         -5    1    4    4    0  502  0.22306715623E+03  0.39378847033E+01  0.82318755751E+03  0.85289488823E+03  0.41800000000E+01 0.  1.
        -11    1    3    3    0    0 -0.60070923533E+02 -0.43839251015E+02  0.16986717467E+03  0.18543260990E+03  0.00000000000E+00 0.  1.
         11    1    3    3    0    0 -0.16822627301E+03  0.30313440420E+00  0.66815904140E+03  0.68901137540E+03  0.00000000000E+00 0. -1.
</event>
<event>
 8    1  0.9181008E-006  0.8480427E+02  0.7561462E-02  0.1315945E+00
          2   -1    0    0  501    0  0.00000000000E+00  0.00000000000E+00  0.14670225066E+03  0.14670225066E+03  0.00000000000E+00 0. -1.
         -2   -1    0    0    0  501 -0.00000000000E+00 -0.00000000000E+00 -0.10334591372E+03  0.10334591372E+03  0.00000000000E+00 0.  1.
         23    2    1    2    0    0  0.40281707294E+01 -0.53232033291E+01 -0.39861981284E+02  0.99658464965E+02  0.91094837583E+02 0.  0.
         23    2    1    2    0    0 -0.40281707294E+01  0.53232033291E+01  0.83218318216E+02  0.15038969941E+03  0.12508881065E+03 0.  0.
          5    1    4    4  502    0 -0.23862547963E+01  0.56513302806E+02  0.51824043982E+01  0.56954168604E+02  0.41800000000E+01 0.  1.
         -5    1    4    4    0  502 -0.16419159331E+01 -0.51190099477E+02  0.78035913818E+02  0.93435530811E+02  0.41800000000E+01 0.  1.
        -11    1    3    3    0    0  0.29855330861E+02  0.99851014557E+01 -0.56980057389E+02  0.65098156440E+02  0.00000000000E+00 0.  1.
         11    1    3    3    0    0 -0.25827160131E+02 -0.15308304785E+02  0.17118076105E+02  0.34560308525E+02  0.00000000000E+00 0. -1.
</event>
<event>
 8    1  0.9181008E-006  0.1263994E+03  0.7561462E-02  0.1232898E+00
          1   -1    0    0  501    0  0.00000000000E+00  0.00000000000E+00  0.15807716865E+03  0.15807716865E+03  0.00000000000E+00 0. -1.
         -1   -1    0    0    0  501 -0.00000000000E+00 -0.00000000000E+00 -0.13285150541E+03  0.13285150541E+03  0.00000000000E+00 0.  1.
         23    2    1    2    0    0  0.65991356307E+02 -0.16254958398E+01 -0.58505207074E+02  0.12658361618E+03  0.90791251154E+02 0.  0.
         23    2    1    2    0    0 -0.65991356307E+02  0.16254958398E+01  0.83730870315E+02  0.16434505788E+03  0.12506373600E+03 0.  0.
          5    1    4    4  502    0  0.72473394354E+01 -0.50650298415E+02  0.30645802909E+02  0.59788078196E+02  0.41800000000E+01 0. -1.
         -5    1    4    4    0  502 -0.73238695742E+02  0.52275794255E+02  0.53085067406E+02  0.10455697968E+03  0.41800000000E+01 0. -1.
        -11    1    3    3    0    0  0.32421053152E+02 -0.45667715038E+02 -0.21556749818E+02  0.60011318491E+02  0.00000000000E+00 0. -1.
         11    1    3    3    0    0  0.33570303155E+02  0.44042219198E+02 -0.36948457256E+02  0.66572297688E+02  0.00000000000E+00 0.  1.
</event>
<event>
 8    1  0.9181008E-006  0.8101391E+02  0.7561462E-02  0.1326198E+00
         -2   -1    0    0    0  501 -0.00000000000E+00  0.00000000000E+00  0.42311507086E+02  0.42311507086E+02  0.00000000000E+00 0.  1.
          2   -1    0    0  501    0  0.00000000000E+00 -0.00000000000E+00 -0.28527145464E+03  0.28527145464E+03  0.00000000000E+00 0. -1.
         23    2    1    2    0    0  0.22205084797E+02 -0.11683413095E+02 -0.97063659796E+02  0.13377245620E+03  0.88567195131E+02 0.  0.
         23    2    1    2    0    0 -0.22205084797E+02  0.11683413095E+02 -0.14589628776E+03  0.19381050552E+03  0.12508883778E+03 0.  0.
          5    1    4    4  502    0 -0.39577327245E+02  0.39096313961E+02 -0.15073950823E+03  0.16073194561E+03  0.41800000000E+01 0.  1.
         -5    1    4    4    0  502  0.17372242448E+02 -0.27412900865E+02  0.48432204713E+01  0.33078559915E+02  0.41800000000E+01 0.  1.
        -11    1    3    3    0    0  0.30103156991E+02  0.23039094937E+02 -0.92595505093E+01  0.39022291475E+02  0.00000000000E+00 0.  1.
         11    1    3    3    0    0 -0.78980721940E+01 -0.34722508032E+02 -0.87804109287E+02  0.94750164728E+02  0.00000000000E+00 0. -1.
</event>
<event>
 8    1  0.9181008E-006  0.1199798E+03  0.7561462E-02  0.1243130E+00
         -2   -1    0    0    0  501 -0.00000000000E+00  0.00000000000E+00  0.62724716381E+02  0.62724716381E+02  0.00000000000E+00 0.  1.
          2   -1    0    0  501    0  0.00000000000E+00 -0.00000000000E+00 -0.36388091940E+03  0.36388091940E+03  0.00000000000E+00 0. -1.
         23    2    1    2    0    0 -0.82969407342E+02 -0.20869930087E+02 -0.53924662977E+02  0.13662019953E+03  0.91857134210E+02 0.  0.
         23    2    1    2    0    0  0.82969407342E+02  0.20869930087E+02 -0.24723154004E+03  0.28998543625E+03  0.12509453350E+03 0.  0.
          5    1    4    4  502    0 -0.92029400575E+00 -0.24283536762E+02 -0.15625352228E+03  0.15818714462E+03  0.41800000000E+01 0.  1.
         -5    1    4    4    0  502  0.83889701348E+02  0.45153466849E+02 -0.90978017761E+02  0.13179829163E+03  0.41800000000E+01 0.  1.
        -11    1    3    3    0    0  0.30270517918E+01 -0.32959618980E+02 -0.34145064515E+02  0.47554021455E+02  0.00000000000E+00 0.  1.
         11    1    3    3    0    0 -0.85996459134E+02  0.12089688893E+02 -0.19779598463E+02  0.89066178073E+02  0.00000000000E+00 0. -1.
</event>
<event>
 7    1  0.9181008E-006  0.1527246E+03  0.7561462E-02  0.1197164E+00
          2   -1    0    0  501    0  0.00000000000E+00  0.00000000000E+00  0.12555059949E+04  0.12555059949E+04  0.00000000000E+00 0. -1.
         -2   -1    0    0    0  501 -0.00000000000E+00 -0.00000000000E+00 -0.21179701709E+02  0.21179701709E+02  0.00000000000E+00 0.  1.
         23    2    1    2    0    0  0.36971689210E+02  0.25633002329E+02  0.46397743996E+03  0.48089205835E+03  0.11814461638E+03 0.  0.
          5    1    3    3  502    0  0.70125910013E+02 -0.91132784494E+01  0.35070602539E+03  0.35778888152E+03  0.41800000000E+01 0. -1.
         -5    1    3    3    0  502 -0.33154220803E+02  0.34746280778E+02  0.11327141457E+03  0.12310317682E+03  0.41800000000E+01 0.  1.
        -11    1    1    2    0    0  0.49664773501E+02  0.50673305798E+02  0.16618569129E+03  0.18069880364E+03  0.00000000000E+00 0.  1.
         11    1    1    2    0    0 -0.86636462711E+02 -0.76306308127E+02  0.60416316195E+03  0.61509483463E+03  0.00000000000E+00 0. -1.
</event>
<event>
 8    1  0.9181008E-006  0.1051301E+03  0.7561462E-02  0.1269864E+00
          1   -1    0    0  501    0  0.00000000000E+00  0.00000000000E+00  0.69463894446E+03  0.69463894446E+03  0.00000000000E+00 0. -1.
         -1   -1    0    0    0  501 -0.00000000000E+00 -0.00000000000E+00 -0.27687631485E+02  0.27687631485E+02  0.00000000000E+00 0.  1.
         23    2    1    2    0    0 -0.28613362388E+02 -0.39491076125E+02  0.11684120077E+03  0.15606674661E+03  0.91250718351E+02 0.  0.
         23    2    1    2    0    0  0.28613362388E+02  0.39491076125E+02  0.55011011220E+03  0.56625982933E+03  0.12510311414E+03 0.  0.
          5    1    4    4  502    0  0.36171851703E+02  0.68049040587E+02  0.51237335447E+03  0.51815345368E+03  0.41800000000E+01 0. -1.
         -5    1    4    4    0  502 -0.75584893155E+01 -0.28557964462E+02  0.37736757724E+02  0.48106375653E+02  0.41800000000E+01 0. -1.
        -11    1    3    3    0    0 -0.31458725186E+02  0.24076467714E+02  0.49822860006E+02  0.63652533862E+02  0.00000000000E+00 0.  1.
         11    1    3    3    0    0  0.28453627980E+01 -0.63567543839E+02  0.67018340769E+02  0.92414212752E+02  0.00000000000E+00 0. -1.
</event>
<event>
 8    1  0.9181008E-006  0.1235589E+03  0.7561462E-02  0.1237339E+00
         -1   -1    0    0    0  501 -0.00000000000E+00  0.00000000000E+00  0.16801781101E+03  0.16801781101E+03  0.00000000000E+00 0.  1.
          1   -1    0    0  501    0  0.00000000000E+00 -0.00000000000E+00 -0.11309671930E+03  0.11309671930E+03  0.00000000000E+00 0. -1.
         23    2    1    2    0    0  0.73981552098E+02  0.13328255852E+02  0.65775668562E+02  0.13477498556E+03  0.90481742369E+02 0.  0.
         23    2    1    2    0    0 -0.73981552098E+02 -0.13328255852E+02 -0.10854576850E+02  0.14633954475E+03  0.12508608261E+03 0.  0.
          5    1    4    4  502    0 -0.50309810385E+02  0.44364201363E+02  0.27934720805E+02  0.72781044304E+02  0.41800000000E+01 0.  1.
         -5    1    4    4    0  502 -0.23671741713E+02 -0.57692457214E+02 -0.38789297655E+02  0.73558500445E+02  0.41800000000E+01 0.  1.
        -11    1    3    3    0    0  0.90067931217E+02 -0.83078743447E+01  0.54097147960E+02  0.10539333199E+03  0.00000000000E+00 0.  1.
         11    1    3    3    0    0 -0.16086379119E+02  0.21636130196E+02  0.11678520602E+02  0.29381653570E+02  0.00000000000E+00 0. -1.
</event>
<event>
 7    1  0.9181008E-006  0.1250513E+03  0.7561462E-02  0.1234989E+00
         -1   -1    0    0    0  501 -0.00000000000E+00  0.00000000000E+00  0.20181031151E+02  0.20181031151E+02  0.00000000000E+00 0.  1.
          1   -1    0    0  501    0  0.00000000000E+00 -0.00000000000E+00 -0.18316626574E+04  0.18316626574E+04  0.00000000000E+00 0. -1.
         23    2    1    2    0    0  0.79802769466E+01  0.35541742738E+02 -0.15648577986E+03  0.18535653182E+03  0.92424803435E+02 0.  0.
          5    1    1    2  502    0 -0.72626137934E+02 -0.63349795387E+02 -0.49263845392E+03  0.50199389554E+03  0.41800000000E+01 0. -1.
         -5    1    1    2    0  502  0.64645860987E+02  0.27808052649E+02 -0.11623573924E+04  0.11644932612E+04  0.41800000000E+01 0.  1.
        -11    1    3    3    0    0 -0.18908089764E+02  0.49398142891E+02 -0.14256028500E+03  0.15205632916E+03  0.00000000000E+00 0. -1.
         11    1    3    3    0    0  0.26888366711E+02 -0.13856400153E+02 -0.13925494868E+02  0.33300202655E+02  0.00000000000E+00 0.  1.
</event>
<event>
 8    1  0.9181008E-006  0.1628318E+03  0.7561462E-02  0.1185536E+00
          1   -1    0    0  501    0  0.00000000000E+00  0.00000000000E+00  0.18138509988E+03  0.18138509988E+03  0.00000000000E+00 0. -1.
         -1   -1    0    0    0  501 -0.00000000000E+00 -0.00000000000E+00 -0.20007754984E+03  0.20007754984E+03  0.00000000000E+00 0.  1.
         23    2    1    2    0    0 -0.55578221702E+02  0.13893559162E+03  0.36799649977E+02  0.17868752026E+03  0.90459815993E+02 0.  0.
         23    2    1    2    0    0  0.55578221702E+02 -0.13893559162E+03 -0.55492099943E+02  0.20277512947E+03  0.12508534138E+03 0.  0.
          5    1    4    4  502    0  0.15664226048E+02 -0.22241160649E+02 -0.73112103372E+02  0.78120991188E+02  0.41800000000E+01 0. -1.
         -5    1    4    4    0  502  0.39913995654E+02 -0.11669443097E+03  0.17620003429E+02  0.12465413828E+03  0.41800000000E+01 0. -1.
        -11    1    3    3    0    0  0.87991137068E+00  0.11231564418E+03  0.26805051212E+02  0.11547332568E+03  0.00000000000E+00 0. -1.
         11    1    3    3    0    0 -0.56458133073E+02  0.26619947439E+02  0.99945987648E+01  0.63214194578E+02  0.00000000000E+00 0.  1.
</event>
<event>
 8    1  0.9181008E-006  0.1005407E+03  0.7561462E-02  0.1279163E+00
         -1   -1    0    0    0  501 -0.00000000000E+00  0.00000000000E+00  0.71127175836E+02  0.71127175836E+02  0.00000000000E+00 0.  1.
          1   -1    0    0  501    0  0.00000000000E+00 -0.00000000000E+00 -0.20185820454E+03  0.20185820454E+03  0.00000000000E+00 0. -1.
         23    2    1    2    0    0 -0.39531431349E+02 -0.31355645520E+02 -0.39799447606E+02  0.11031507119E+03  0.89663305380E+02 0.  0.
         23    2    1    2    0    0  0.39531431349E+02  0.31355645520E+02 -0.90931581098E+02  0.16267030919E+03  0.12508863449E+03 0.  0.
          5    1    4    4  502    0  0.49278272202E+00  0.58636492823E+02  0.12803384755E+01  0.58801299237E+02  0.41800000000E+01 0.  1.
         -5    1    4    4    0  502  0.39038648627E+02 -0.27280847302E+02 -0.92211919574E+02  0.10386900995E+03  0.41800000000E+01 0.  1.
        -11    1    3    3    0    0 -0.34272905167E+02  0.22093886837E+02  0.40538279138E+01  0.40978108605E+02  0.00000000000E+00 0.  1.
         11    1    3    3    0    0 -0.52585261821E+01 -0.53449532357E+02 -0.43853275520E+02  0.69336962586E+02  0.00000000000E+00 0. -1.
</event>
<event>
 8    1  0.9181008E-006  0.8211719E+02  0.7561462E-02  0.1323148E+00
          1   -1    0    0  501    0  0.00000000000E+00  0.00000000000E+00  0.31582625533E+03  0.31582625533E+03  0.00000000000E+00 0. -1.
         -1   -1    0    0    0  501 -0.00000000000E+00 -0.00000000000E+00 -0.53257833781E+02  0.53257833781E+02  0.00000000000E+00 0.  1.
         23    2    1    2    0    0 -0.67072050308E+02  0.11837588224E+02  0.79495929722E+02  0.13713858092E+03  0.88592319681E+02 0.  0.
         23    2    1    2    0    0  0.67072050308E+02 -0.11837588224E+02  0.18307249183E+03  0.23194550820E+03  0.12507754827E+03 0.  0.
          5    1    4    4  502    0 -0.39342876971E+01  0.31174972136E+01  0.15323656955E+03  0.15337573490E+03  0.41800000000E+01 0.  1.
         -5    1    4    4    0  502  0.71006338005E+02 -0.14955085437E+02  0.29835922278E+02  0.78569773294E+02  0.41800000000E+01 0.  1.
        -11    1    3    3    0    0  0.13789368066E+01 -0.12344156889E+02  0.60960319844E+02  0.62212862589E+02  0.00000000000E+00 0. -1.
         11    1    3    3    0    0 -0.68450987115E+02  0.24181745113E+02  0.18535609878E+02  0.74925718330E+02  0.00000000000E+00 0.  1.
</event>
<event>
 8    1  0.9181008E-006  0.1392955E+03  0.7561462E-02  0.1214280E+00
         -1   -1    0    0    0  501 -0.00000000000E+00  0.00000000000E+00  0.23985259576E+02  0.23985259576E+02  0.00000000000E+00 0.  1.
          1   -1    0    0  501    0  0.00000000000E+00 -0.00000000000E+00 -0.11201366830E+04  0.11201366830E+04  0.00000000000E+00 0. -1.
         23    2    1    2    0    0  0.15273369871E+02 -0.11847983379E+03 -0.41097560789E+03  0.43745030097E+03  0.90504523093E+02 0.  0.
         23    2    1    2    0    0 -0.15273369871E+02  0.11847983379E+03 -0.68517581549E+03  0.70667164156E+03  0.12509262172E+03 0.  0.
          5    1    4    4  502    0  0.32223339344E+02  0.16440413405E+02 -0.51559267890E+02  0.63122589434E+02  0.41800000000E+01 0. -1.
         -5    1    4    4    0  502 -0.47496709215E+02  0.10203942038E+03 -0.63361654760E+03  0.64354905212E+03  0.41800000000E+01 0. -1.
        -11    1    3    3    0    0 -0.15477178220E+02 -0.14848086135E+02 -0.13055725093E+02  0.25108975790E+02  0.00000000000E+00 0.  1.
         11    1    3    3    0    0  0.30750548091E+02 -0.10363174765E+03 -0.39791988279E+03  0.41234132518E+03  0.00000000000E+00 0. -1.
</event>
<event>
 8    1  0.9181008E-006  0.1216413E+03  0.7561462E-02  0.1240414E+00
          1   -1    0    0  501    0  0.00000000000E+00  0.00000000000E+00  0.33589245275E+03  0.33589245275E+03  0.00000000000E+00 0. -1.
         -1   -1    0    0    0  501 -0.00000000000E+00 -0.00000000000E+00 -0.52017561899E+02  0.52017561899E+02  0.00000000000E+00 0.  1.
         23    2    1    2    0    0 -0.67692612940E+02 -0.32994556327E+01  0.88818397704E+02  0.14649194491E+03  0.94752339800E+02 0.  0.
         23    2    1    2    0    0  0.67692612940E+02  0.32994556327E+01  0.19505649315E+03  0.24141806974E+03  0.12506987097E+03 0.  0.
          5    1    4    4  502    0  0.98188013560E+02  0.13025221445E+00  0.18392250185E+03  0.20853264027E+03  0.41800000000E+01 0.  1.
         -5    1    4    4    0  502 -0.30495400620E+02  0.31692034182E+01  0.11133991299E+02  0.32885429472E+02  0.41800000000E+01 0.  1.
        -11    1    3    3    0    0 -0.90533035096E+02 -0.74833983328E+01  0.57522461858E+02  0.10752239447E+03  0.00000000000E+00 0.  1.
         11    1    3    3    0    0  0.22840422156E+02  0.41839427001E+01  0.31295935845E+02  0.38969550436E+02  0.00000000000E+00 0. -1.
</event>
<event>
 8    1  0.9181008E-006  0.1193409E+03  0.7561462E-02  0.1244188E+00
         -1   -1    0    0    0  501 -0.00000000000E+00  0.00000000000E+00  0.76964731104E+02  0.76964731104E+02  0.00000000000E+00 0.  1.
          1   -1    0    0  501    0  0.00000000000E+00 -0.00000000000E+00 -0.13094118747E+04  0.13094118747E+04  0.00000000000E+00 0. -1.
         23    2    1    2    0    0 -0.44605324202E+02 -0.92180620352E+02  0.59276715590E+01  0.13749436291E+03  0.91556872084E+02 0.  0.
         23    2    1    2    0    0  0.44605324202E+02  0.92180620352E+02 -0.12383748151E+04  0.12488822429E+04  0.12509105520E+03 0.  0.
          5    1    4    4  502    0  0.35369107065E+02  0.33488905727E+02 -0.10538441598E+04  0.10549774718E+04  0.41800000000E+01 0.  1.
         -5    1    4    4    0  502  0.92362171375E+01  0.58691714625E+02 -0.18453065536E+03  0.19390477106E+03  0.41800000000E+01 0.  1.
        -11    1    3    3    0    0 -0.67172850486E+02 -0.55350335364E+02 -0.16860324008E+02  0.88657329043E+02  0.00000000000E+00 0.  1.
         11    1    3    3    0    0  0.22567526284E+02 -0.36830284989E+02  0.22787995567E+02  0.48837033866E+02  0.00000000000E+00 0. -1.
</event>
<event>
 8    1  0.9181008E-006  0.1139427E+03  0.7561462E-02  0.1253438E+00
          4   -1    0    0  501    0  0.00000000000E+00  0.00000000000E+00  0.34081075898E+02  0.34081075898E+02  0.00000000000E+00 0. -1.
         -4   -1    0    0    0  501 -0.00000000000E+00 -0.00000000000E+00 -0.47795989135E+03  0.47795989135E+03  0.00000000000E+00 0.  1.
         23    2    1    2    0    0 -0.40517645006E+02  0.22745952198E+01 -0.30271428844E+03  0.31911110133E+03  0.92461349912E+02 0.  0.
         23    2    1    2    0    0  0.40517645006E+02 -0.22745952198E+01 -0.14116452701E+03  0.19292986591E+03  0.12509059171E+03 0.  0.
          5    1    4    4  502    0  0.38392831334E+02 -0.59521320722E+02 -0.56894295988E+02  0.90946305226E+02  0.41800000000E+01 0. -1.
         -5    1    4    4    0  502  0.21248136718E+01  0.57246725502E+02 -0.84270231020E+02  0.10198356069E+03  0.41800000000E+01 0. -1.
        -11    1    3    3    0    0 -0.43707815172E+02  0.41421729306E+02 -0.15565302556E+03  0.16689516809E+03  0.00000000000E+00 0. -1.
         11    1    3    3    0    0  0.31901701657E+01 -0.39147134087E+02 -0.14706126288E+03  0.15221593325E+03  0.00000000000E+00 0.  1.
</event>
<event>
 8    1  0.9181008E-006  0.1530793E+03  0.7561462E-02  0.1196739E+00
         -1   -1    0    0    0  501 -0.00000000000E+00  0.00000000000E+00  0.18528725544E+02  0.18528725544E+02  0.00000000000E+00 0.  1.
          1   -1    0    0  501    0  0.00000000000E+00 -0.00000000000E+00 -0.15391156414E+04  0.15391156414E+04  0.00000000000E+00 0. -1.
         23    2    1    2    0    0  0.64136192151E+02  0.10278220849E+03 -0.49558702084E+03  0.51795664539E+03  0.89414527609E+02 0.  0.
         23    2    1    2    0    0 -0.64136192151E+02 -0.10278220849E+03 -0.10249998950E+04  0.10396877216E+04  0.12509252596E+03 0.  0.
          5    1    4    4  502    0  0.10061629140E+02 -0.81458289647E+02 -0.73420948786E+03  0.73879478463E+03  0.41800000000E+01 0. -1.
         -5    1    4    4    0  502 -0.74197821292E+02 -0.21323918844E+02 -0.29079040715E+03  0.30089293692E+03  0.41800000000E+01 0. -1.
        -11    1    3    3    0    0  0.50596072749E+02  0.83715072095E+01 -0.23320723384E+03  0.23877951886E+03  0.00000000000E+00 0.  1.
         11    1    3    3    0    0  0.13540119402E+02  0.94410701282E+02 -0.26237978700E+03  0.27917712653E+03  0.00000000000E+00 0. -1.
</event>
<event>
 8    1  0.9181008E-006  0.8870535E+02  0.7561462E-02  0.1306018E+00
         -1   -1    0    0    0  501 -0.00000000000E+00  0.00000000000E+00  0.32539572739E+03  0.32539572739E+03  0.00000000000E+00 0.  1.
          1   -1    0    0  501    0  0.00000000000E+00 -0.00000000000E+00 -0.59909135519E+02  0.59909135519E+02  0.00000000000E+00 0. -1.
         23    2    1    2    0    0 -0.38346746813E+02  0.39400017997E+02  0.22417566008E+03  0.24704871469E+03  0.88065353281E+02 0.  0.
         23    2    1    2    0    0  0.38346746813E+02 -0.39400017997E+02  0.41310931800E+02  0.13825614823E+03  0.11993888038E+03 0.  0.
          5    1    4    4  502    0  0.64801321100E+02 -0.52007238956E+02 -0.49419011809E+01  0.83341819679E+02  0.41800000000E+01 0. -1.
         -5    1    4    4    0  502 -0.26454574287E+02  0.12607220960E+02  0.46252832980E+02  0.54914328547E+02  0.41800000000E+01 0.  1.
        -11    1    3    3    0    0 -0.36078554893E+02  0.13356140425E+02  0.21637321870E+03  0.21976673630E+03  0.00000000000E+00 0.  1.
         11    1    3    3    0    0 -0.22681919198E+01  0.26043877572E+02  0.78024413739E+01  0.27281978392E+02  0.00000000000E+00 0. -1.
</event>
<event>
 8    1  0.9181008E-006  0.8699343E+02  0.7561462E-02  0.1310300E+00
         -1   -1    0    0    0  501 -0.00000000000E+00  0.00000000000E+00  0.14247721323E+02  0.14247721323E+02  0.00000000000E+00 0.  1.
          1   -1    0    0  501    0  0.00000000000E+00 -0.00000000000E+00 -0.95313261749E+03  0.95313261749E+03  0.00000000000E+00 0. -1.
         23    2    1    2    0    0  0.26291135791E+02  0.30579706285E+02 -0.36694871314E+03  0.38053710873E+03  0.92362280094E+02 0.  0.
         23    2    1    2    0    0 -0.26291135791E+02 -0.30579706285E+02 -0.57193618303E+03  0.58684323009E+03  0.12509051517E+03 0.  0.
          5    1    4    4  502    0  0.13511428874E+02  0.19757334357E+02 -0.43370817787E+03  0.43438826748E+03  0.41800000000E+01 0.  1.
         -5    1    4    4    0  502 -0.39802564665E+02 -0.50337040641E+02 -0.13822800516E+03  0.15245496261E+03  0.41800000000E+01 0.  1.
        -11    1    3    3    0    0  0.20348495772E+02 -0.23437217402E+02 -0.49180619703E+02  0.58155806194E+02  0.00000000000E+00 0.  1.
         11    1    3    3    0    0  0.59426400194E+01  0.54016923687E+02 -0.31776809344E+03  0.32238130253E+03  0.00000000000E+00 0. -1.
</event>
<event>
 8    1  0.9181008E-006  0.1164773E+03  0.7561462E-02  0.1249024E+00
          2   -1    0    0  501    0  0.00000000000E+00  0.00000000000E+00  0.24727650518E+03  0.24727650518E+03  0.00000000000E+00 0. -1.
         -2   -1    0    0    0  501 -0.00000000000E+00 -0.00000000000E+00 -0.62652309909E+02  0.62652309909E+02  0.00000000000E+00 0.  1.
         23    2    1    2    0    0 -0.40228202484E+02 -0.52221900135E+02  0.69557388958E+02  0.12762981747E+03  0.84295342816E+02 0.  0.
         23    2    1    2    0    0  0.40228202484E+02  0.52221900135E+02  0.11506680632E+03  0.18229899762E+03  0.12508844666E+03 0.  0.
          5    1    4    4  502    0 -0.18909060378E+02 -0.30700406996E+02  0.48400610161E+02  0.60499248078E+02  0.41800000000E+01 0.  1.
         -5    1    4    4    0  502  0.59137262861E+02  0.82922307131E+02  0.66666196155E+02  0.12179974954E+03  0.41800000000E+01 0.  1.
        -11    1    3    3    0    0 -0.53360583098E+02 -0.59324083182E+02  0.77054058483E+02  0.11092351691E+03  0.00000000000E+00 0.  1.
         11    1    3    3    0    0  0.13132380614E+02  0.71021830475E+01 -0.74966695255E+01  0.16706300566E+02  0.00000000000E+00 0. -1.
</event>
<event>
 8    1  0.9181008E-006  0.9832884E+02  0.7561462E-02  0.1283850E+00
          1   -1    0    0  501    0  0.00000000000E+00  0.00000000000E+00  0.19470550874E+03  0.19470550874E+03  0.00000000000E+00 0. -1.
         -1   -1    0    0    0  501 -0.00000000000E+00 -0.00000000000E+00 -0.87519663208E+02  0.87519663208E+02  0.00000000000E+00 0.  1.
         23    2    1    2    0    0 -0.66455238484E+02  0.30043229949E+02  0.45108009904E+02  0.12468381247E+03  0.90512022110E+02 0.  0.
         23    2    1    2    0    0  0.66455238484E+02 -0.30043229949E+02  0.62077835625E+02  0.15754135948E+03  0.12508688133E+03 0.  0.
          5    1    4    4  502    0  0.33764732017E+02 -0.64740263554E+02 -0.70403949662E+01  0.73473794066E+02  0.41800000000E+01 0. -1.
         -5    1    4    4    0  502  0.32690506467E+02  0.34697033604E+02  0.69118230591E+02  0.84067565411E+02  0.41800000000E+01 0. -1.
        -11    1    3    3    0    0 -0.75555950412E+01  0.11792430943E+02 -0.26629069461E+02  0.30087468892E+02  0.00000000000E+00 0.  1.
         11    1    3    3    0    0 -0.58899643443E+02  0.18250799006E+02  0.71737079365E+02  0.94596343576E+02  0.00000000000E+00 0. -1.
</event>
<event>
 8    1  0.9181008E-006  0.1357995E+03  0.7561462E-02  0.1219096E+00
         -2   -1    0    0    0  501 -0.00000000000E+00  0.00000000000E+00  0.15378452014E+02  0.15378452014E+02  0.00000000000E+00 0.  1.
          2   -1    0    0  501    0  0.00000000000E+00 -0.00000000000E+00 -0.14552103822E+04  0.14552103822E+04  0.00000000000E+00 0. -1.
         23    2    1    2    0    0 -0.82205429971E+02 -0.84414139568E+01 -0.35322517128E+03  0.37368727150E+03  0.89694844150E+02 0.  0.
         23    2    1    2    0    0  0.82205429971E+02  0.84414139568E+01 -0.10866067589E+04  0.10969015627E+04  0.12509915909E+03 0.  0.
          5    1    4    4  502    0  0.84578971924E+02  0.56305329677E+02 -0.71582296166E+03  0.72301028865E+03  0.41800000000E+01 0. -1.
         -5    1    4    4    0  502 -0.23735419531E+01 -0.47863915721E+02 -0.37078379720E+03  0.37389127403E+03  0.41800000000E+01 0. -1.
        -11    1    3    3    0    0  0.17499440196E+02  0.10365009227E+02 -0.66383914580E+02  0.69429733821E+02  0.00000000000E+00 0. -1.
         11    1    3    3    0    0 -0.99704870167E+02 -0.18806423184E+02 -0.28684125670E+03  0.30425753768E+03  0.00000000000E+00 0.  1.
</event>
<event>
 7    1  0.9181008E-006  0.8203686E+02  0.7561462E-02  0.1323369E+00
          1   -1    0    0  501    0  0.00000000000E+00  0.00000000000E+00  0.79929515916E+02  0.79929515916E+02  0.00000000000E+00 0. -1.
         -1   -1    0    0    0  501 -0.00000000000E+00 -0.00000000000E+00 -0.21562911205E+03  0.21562911205E+03  0.00000000000E+00 0.  1.
         23    2    1    2    0    0 -0.15959837784E+01  0.46435386159E+02 -0.97884152922E+02  0.14227442647E+03  0.92205817512E+02 0.  0.
          5    1    1    2  502    0 -0.46092895158E+02 -0.24649279148E+02  0.35303534150E+02  0.63213557644E+02  0.41800000000E+01 0. -1.
         -5    1    1    2    0  502  0.47688878936E+02 -0.21786107011E+02 -0.73118977361E+02  0.90070643848E+02  0.41800000000E+01 0.  1.
        -11    1    3    3    0    0  0.10935045798E+02  0.45137191768E+02 -0.11325075252E+03  0.12240373464E+03  0.00000000000E+00 0.  1.
         11    1    3    3    0    0 -0.12531029576E+02  0.12981943916E+01  0.15366599596E+02  0.19870691836E+02  0.00000000000E+00 0. -1.
</event>
<event>
 8    1  0.9181008E-006  0.1324815E+03  0.7561462E-02  0.1223819E+00
          1   -1    0    0  501    0  0.00000000000E+00  0.00000000000E+00  0.51779689300E+03  0.51779689300E+03  0.00000000000E+00 0. -1.
         -1   -1    0    0    0  501 -0.00000000000E+00 -0.00000000000E+00 -0.45689923980E+02  0.45689923980E+02  0.00000000000E+00 0.  1.
         23    2    1    2    0    0 -0.45211876620E+02 -0.95817089570E+02  0.25117883542E+03  0.28834850097E+03  0.93962876756E+02 0.  0.
         23    2    1    2    0    0  0.45211876620E+02  0.95817089570E+02  0.22092813360E+03  0.27513831601E+03  0.12516718531E+03 0.  0.
          5    1    4    4  502    0  0.32945183130E+02  0.11820881875E+03  0.12279202482E+03  0.17364925477E+03  0.41800000000E+01 0.  1.
         -5    1    4    4    0  502  0.12266693490E+02 -0.22391729184E+02  0.98136108778E+02  0.10148906124E+03  0.41800000000E+01 0.  1.
        -11    1    3    3    0    0 -0.26749847061E+02 -0.10051198101E+02  0.77718412978E+01  0.29613888941E+02  0.00000000000E+00 0.  1.
         11    1    3    3    0    0 -0.18462029559E+02 -0.85765891469E+02  0.24340699412E+03  0.25873461203E+03  0.00000000000E+00 0. -1.
</event>
<event>
 8    1  0.9181008E-006  0.1372818E+03  0.7561462E-02  0.1217034E+00
          1   -1    0    0  501    0  0.00000000000E+00  0.00000000000E+00  0.17662772548E+03  0.17662772548E+03  0.00000000000E+00 0. -1.
         -1   -1    0    0    0  501 -0.00000000000E+00 -0.00000000000E+00 -0.14415030874E+03  0.14415030874E+03  0.00000000000E+00 0.  1.
         23    2    1    2    0    0 -0.79258754756E+02 -0.60515569466E+02 -0.45773509805E+02  0.14269147951E+03  0.91222583679E+02 0.  0.
         23    2    1    2    0    0  0.79258754756E+02  0.60515569466E+02  0.78250926550E+02  0.17808655470E+03  0.12509008397E+03 0.  0.
          5    1    4    4  502    0  0.86068075780E+02  0.92832949793E+02  0.63153152661E+02  0.14153255218E+03  0.41800000000E+01 0. -1.
         -5    1    4    4    0  502 -0.68093210245E+01 -0.32317380327E+02  0.15097773889E+02  0.36554002522E+02  0.41800000000E+01 0. -1.
        -11    1    3    3    0    0 -0.38911149049E+02 -0.63152839500E+02  0.88794307800E+01  0.74707449081E+02  0.00000000000E+00 0. -1.
         11    1    3    3    0    0 -0.40347605707E+02  0.26372700337E+01 -0.54652940585E+02  0.67984030434E+02  0.00000000000E+00 0.  1.
</event>
<event>
 8    1  0.9181008E-006  0.9565018E+02  0.7561462E-02  0.1289718E+00
          1   -1    0    0  501    0  0.00000000000E+00  0.00000000000E+00  0.77122581041E+02  0.77122581041E+02  0.00000000000E+00 0. -1.
         -1   -1    0    0    0  501 -0.00000000000E+00 -0.00000000000E+00 -0.18743358353E+03  0.18743358353E+03  0.00000000000E+00 0.  1.
         23    2    1    2    0    0  0.29993812676E+02 -0.52501078248E+02 -0.65086697562E+02  0.11844799187E+03  0.78343197293E+02 0.  0.
         23    2    1    2    0    0 -0.29993812676E+02  0.52501078248E+02 -0.45224304926E+02  0.14610817270E+03  0.12508544423E+03 0.  0.
          5    1    4    4  502    0 -0.65256269020E+02  0.31499078615E+02 -0.67591247759E+02  0.99179744775E+02  0.41800000000E+01 0.  1.
         -5    1    4    4    0  502  0.35262456344E+02  0.21001999633E+02  0.22366942833E+02  0.46928427927E+02  0.41800000000E+01 0.  1.
        -11    1    3    3    0    0 -0.12491467895E+02 -0.42982442130E+01  0.12171365629E+02  0.17962567043E+02  0.00000000000E+00 0. -1.
         11    1    3    3    0    0  0.42485280571E+02 -0.48202834035E+02 -0.77258063192E+02  0.10048542483E+03  0.00000000000E+00 0.  1.
</event>
<event>
 8    1  0.9181008E-006  0.7502513E+02  0.7561462E-02  0.1343793E+00
         -2   -1    0    0    0  501 -0.00000000000E+00  0.00000000000E+00  0.22458966764E+02  0.22458966764E+02  0.00000000000E+00 0.  1.
          2   -1    0    0  501    0  0.00000000000E+00 -0.00000000000E+00 -0.14233199012E+04  0.14233199012E+04  0.00000000000E+00 0. -1.
         23    2    1    2    0    0  0.59930938957E+02 -0.18363097772E+02 -0.14139550086E+03  0.17856467341E+03  0.89239756414E+02 0.  0.
         23    2    1    2    0    0 -0.59930938957E+02  0.18363097772E+02 -0.12594654336E+04  0.12672141945E+04  0.12509882366E+03 0.  0.
          5    1    4    4  502    0 -0.19914213487E+02  0.63680395744E+01 -0.11465142326E+04  0.11467124687E+04  0.41800000000E+01 0.  1.
         -5    1    4    4    0  502 -0.40016725469E+02  0.11995058197E+02 -0.11295120091E+03  0.12050172582E+03  0.41800000000E+01 0.  1.
        -11    1    3    3    0    0  0.49357011853E+02  0.15128362586E+02 -0.25721560831E+02  0.57676517450E+02  0.00000000000E+00 0.  1.
         11    1    3    3    0    0  0.10573927103E+02 -0.33491460357E+02 -0.11567394003E+03  0.12088815596E+03  0.00000000000E+00 0. -1.
</event>
<event>
 7    1  0.9181008E-006  0.1579668E+03  0.7561462E-02  0.1191011E+00
          1   -1    0    0  501    0  0.00000000000E+00  0.00000000000E+00  0.16907365125E+03  0.16907365125E+03  0.00000000000E+00 0. -1.
         -1   -1    0    0    0  501 -0.00000000000E+00 -0.00000000000E+00 -0.23870614482E+03  0.23870614482E+03  0.00000000000E+00 0.  1.
         23    2    1    2    0    0  0.50297611130E+02 -0.71368438918E+02  0.88458015479E+02  0.17634058643E+03  0.12509147917E+03 0.  0.
          5    1    3    3  502    0  0.84181850712E+02 -0.19616802802E+02  0.70982964509E+02  0.11192612113E+03  0.41800000000E+01 0.  1.
         -5    1    3    3    0  502 -0.33884239582E+02 -0.51751636116E+02  0.17475050970E+02  0.64414465294E+02  0.41800000000E+01 0.  1.
        -11    1    1    2    0    0  0.36949115296E+02 -0.19200446612E+02 -0.26165019435E+02  0.49178272777E+02  0.00000000000E+00 0. -1.
         11    1    1    2    0    0 -0.87246726426E+02  0.90568885530E+02 -0.13192548961E+03  0.18226093687E+03  0.00000000000E+00 0.  1.
</event>
<event>
 8    1  0.9181008E-006  0.6969401E+02  0.7561462E-02  0.1361137E+00
         -1   -1    0    0    0  501 -0.00000000000E+00  0.00000000000E+00  0.13413181946E+03  0.13413181946E+03  0.00000000000E+00 0.  1.
          1   -1    0    0  501    0  0.00000000000E+00 -0.00000000000E+00 -0.99616473600E+02  0.99616473600E+02  0.00000000000E+00 0. -1.
         23    2    1    2    0    0 -0.26948838080E+01 -0.20574041903E+02  0.54634281580E+02  0.10536363753E+03  0.87670050702E+02 0.  0.
         23    2    1    2    0    0  0.26948838080E+01  0.20574041903E+02 -0.20118935724E+02  0.12838465553E+03  0.12508914662E+03 0.  0.
          5    1    4    4  502    0 -0.27762940473E+02  0.18648730681E+02 -0.65426242661E+02  0.73597701380E+02  0.41800000000E+01 0.  1.
         -5    1    4    4    0  502  0.30457824281E+02  0.19253112221E+01  0.45307306937E+02  0.54786954150E+02  0.41800000000E+01 0.  1.
        -11    1    3    3    0    0 -0.28043386075E+02  0.14526825960E+02  0.53410479399E+02  0.62049492219E+02  0.00000000000E+00 0.  1.
         11    1    3    3    0    0  0.25348502267E+02 -0.35100867863E+02  0.12238021813E+01  0.43314145307E+02  0.00000000000E+00 0. -1.
</event>
<event>
 8    1  0.9181008E-006  0.1069765E+03  0.7561462E-02  0.1266274E+00
         -2   -1    0    0    0  501 -0.00000000000E+00  0.00000000000E+00  0.42989974199E+02  0.42989974199E+02  0.00000000000E+00 0.  1.
          2   -1    0    0  501    0  0.00000000000E+00 -0.00000000000E+00 -0.44507895249E+03  0.44507895249E+03  0.00000000000E+00 0. -1.
         23    2    1    2    0    0 -0.15843616988E+02  0.58377015861E+02 -0.75483923786E+02  0.13313936452E+03  0.91484268886E+02 0.  0.
         23    2    1    2    0    0  0.15843616988E+02 -0.58377015861E+02 -0.32660505451E+03  0.35492956217E+03  0.12508091899E+03 0.  0.
          5    1    4    4  502    0  0.37001207300E+02  0.10858393016E+02 -0.28503046451E+02  0.48134084571E+02  0.41800000000E+01 0.  1.
         -5    1    4    4    0  502 -0.21157590312E+02 -0.69235408877E+02 -0.29810200806E+03  0.30679547760E+03  0.41800000000E+01 0.  1.
        -11    1    3    3    0    0 -0.48866182613E+02  0.46782812007E+02 -0.25880167952E+02  0.72431473792E+02  0.00000000000E+00 0.  1.
         11    1    3    3    0    0  0.33022565625E+02  0.11594203854E+02 -0.49603755833E+02  0.60707890724E+02  0.00000000000E+00 0. -1.
</event>
<event>
 8    1  0.9181008E-006  0.1310886E+03  0.7561462E-02  0.1225849E+00
         -1   -1    0    0    0  501 -0.00000000000E+00  0.00000000000E+00  0.54631490893E+03  0.54631490893E+03  0.00000000000E+00 0.  1.
          1   -1    0    0  501    0  0.00000000000E+00 -0.00000000000E+00 -0.32421645537E+02  0.32421645537E+02  0.00000000000E+00 0. -1.
         23    2    1    2    0    0  0.67517565644E+02 -0.28027148930E+02  0.27776194120E+03  0.30170252118E+03  0.92350271035E+02 0.  0.
         23    2    1    2    0    0 -0.67517565644E+02  0.28027148930E+02  0.23613132219E+03  0.27703403329E+03  0.12508281869E+03 0.  0.
          5    1    4    4  502    0 -0.34853574938E+02  0.77573577629E+02  0.13108196629E+03  0.15630862394E+03  0.41800000000E+01 0.  1.
         -5    1    4    4    0  502 -0.32663990707E+02 -0.49546428699E+02  0.10504935590E+03  0.12072540934E+03  0.41800000000E+01 0.  1.
        -11    1    3    3    0    0 -0.52587641558E+01  0.26237340553E+02  0.55414722581E+02  0.61537339222E+02  0.00000000000E+00 0.  1.
         11    1    3    3    0    0  0.72776329800E+02 -0.54264489483E+02  0.22234721862E+03  0.24016518196E+03  0.00000000000E+00 0. -1.
</event>
<event>
 8    1  0.9181008E-006  0.1311609E+03  0.7561462E-02  0.1225743E+00
         -2   -1    0    0    0  501 -0.00000000000E+00  0.00000000000E+00  0.12528860654E+03  0.12528860654E+03  0.00000000000E+00 0.  1.
          2   -1    0    0  501    0  0.00000000000E+00 -0.00000000000E+00 -0.16640584137E+03  0.16640584137E+03  0.00000000000E+00 0. -1.
         23    2    1    2    0    0  0.57025300988E+02  0.70788004425E+02  0.62426774691E+01  0.12997064800E+03  0.92685337548E+02 0.  0.
         23    2    1    2    0    0 -0.57025300988E+02 -0.70788004425E+02 -0.47359912302E+02  0.16172379991E+03  0.12509516234E+03 0.  0.
          5    1    4    4  502    0  0.36234652234E+02 -0.43929696035E+01  0.24216118584E+01  0.36818267320E+02  0.41800000000E+01 0. -1.
         -5    1    4    4    0  502 -0.93259953222E+02 -0.66395034821E+02 -0.49781524160E+02  0.12490553259E+03  0.41800000000E+01 0. -1.
        -11    1    3    3    0    0 -0.13202911430E+02  0.21494588554E+02  0.31662944132E+02  0.40483036428E+02  0.00000000000E+00 0.  1.
         11    1    3    3    0    0  0.70228212418E+02  0.49293415871E+02 -0.25420266663E+02  0.89487611572E+02  0.00000000000E+00 0. -1.
</event>
<event>
 8    1  0.9181008E-006  0.1141197E+03  0.7561462E-02  0.1253126E+00
         -3   -1    0    0    0  501 -0.00000000000E+00  0.00000000000E+00  0.15917941934E+03  0.15917941934E+03  0.00000000000E+00 0.  1.
          3   -1    0    0  501    0  0.00000000000E+00 -0.00000000000E+00 -0.86521794776E+02  0.86521794776E+02  0.00000000000E+00 0. -1.
         23    2    1    2    0    0 -0.26570055711E+02  0.34902734830E+02  0.33459506481E+02  0.10747006656E+03  0.92228563216E+02 0.  0.
         23    2    1    2    0    0  0.26570055711E+02 -0.34902734830E+02  0.39198118085E+02  0.13823114756E+03  0.12508872425E+03 0.  0.
          5    1    4    4  502    0  0.74737207096E+02 -0.36718201278E+02  0.17428687928E+02  0.85176921713E+02  0.41800000000E+01 0. -1.
         -5    1    4    4    0  502 -0.48167151384E+02  0.18154664478E+01  0.21769430157E+02  0.53054225847E+02  0.41800000000E+01 0. -1.
        -11    1    3    3    0    0 -0.47092170951E+02 -0.90689809410E+01  0.34261192628E+02  0.58938512880E+02  0.00000000000E+00 0.  1.
         11    1    3    3    0    0  0.20522115240E+02  0.43971715771E+02 -0.80168614652E+00  0.48531553678E+02  0.00000000000E+00 0. -1.
</event>
<event>
 8    1  0.1050809E-005  0.1648340E+03  0.7561462E-02  0.1183345E+00
         -2   -1    0    0    0  501 -0.00000000000E+00  0.00000000000E+00  0.16984834221E+02  0.16984834221E+02  0.00000000000E+00 0. -1.
          2   -1    0    0  501    0  0.00000000000E+00 -0.00000000000E+00 -0.17522528361E+04  0.17522528361E+04  0.00000000000E+00 0.  1.
         23    2    1    2    0    0  0.51298720342E+02 -0.12196323712E+03 -0.77656353834E+03  0.79339526564E+03  0.94437961332E+02 0.  0.
         23    2    1    2    0    0 -0.51298720342E+02  0.12196323712E+03 -0.95870446356E+03  0.97584240471E+03  0.12509020925E+03 0.  0.
          5    1    4    4  502    0 -0.25474514473E+02 -0.19976615882E+02 -0.28422901774E+03  0.28609722647E+03  0.41800000000E+01 0.  1.
         -5    1    4    4    0  502 -0.25824205869E+02  0.14193985300E+03 -0.67447544582E+03  0.68974517823E+03  0.41800000000E+01 0.  1.
        -11    1    3    3    0    0  0.70934339367E+02 -0.83911364889E+02 -0.66269044748E+03  0.67173761756E+03  0.00000000000E+00 0.  1.
         11    1    3    3    0    0 -0.19635619025E+02 -0.38051872232E+02 -0.11387309086E+03  0.12165764808E+03  0.00000000000E+00 0. -1.
</event>
<event>
 7    1  0.9181008E-006  0.5359320E+02  0.7561462E-02  0.1426871E+00
         -1   -1    0    0    0  501 -0.00000000000E+00  0.00000000000E+00  0.36333053472E+02  0.36333053472E+02  0.00000000000E+00 0.  1.
          1   -1    0    0  501    0  0.00000000000E+00 -0.00000000000E+00 -0.63959771508E+03  0.63959771508E+03  0.00000000000E+00 0. -1.
         23    2    1    2    0    0 -0.27653762940E+02  0.16229032218E+01 -0.40134549418E+02  0.96629503555E+02  0.83421307115E+02 0.  0.
          5    1    1    2  502    0  0.18221745180E+02 -0.95988384267E+01 -0.56563268370E+03  0.56602294562E+03  0.41800000000E+01 0. -1.
         -5    1    1    2    0  502  0.94320177597E+01  0.79759352049E+01  0.25025715090E+01  0.13278319380E+02  0.41800000000E+01 0.  1.
        -11    1    3    3    0    0 -0.25424109648E+02 -0.31191624445E+02  0.52485458864E+01  0.40581399937E+02  0.00000000000E+00 0. -1.
         11    1    3    3    0    0 -0.22296532920E+01  0.32814527667E+02 -0.45383095304E+02  0.56048103618E+02  0.00000000000E+00 0.  1.
</event>
<event>
 8    1  0.9181008E-006  0.1864806E+03  0.7561462E-02  0.1161674E+00
          2   -1    0    0  501    0  0.00000000000E+00  0.00000000000E+00  0.12822296943E+04  0.12822296943E+04  0.00000000000E+00 0. -1.
         -2   -1    0    0    0  501 -0.00000000000E+00 -0.00000000000E+00 -0.58167470879E+02  0.58167470879E+02  0.00000000000E+00 0.  1.
         23    2    1    2    0    0 -0.10895618506E+03  0.12943706867E+03  0.14384129205E+03  0.23987463395E+03  0.90686921350E+02 0.  0.
         23    2    1    2    0    0  0.10895618506E+03 -0.12943706867E+03  0.10802209314E+04  0.11005225312E+04  0.12508867322E+03 0.  0.
          5    1    4    4  502    0  0.37889512561E+02 -0.11486013983E+03  0.86359782084E+03  0.87203620077E+03  0.41800000000E+01 0. -1.
         -5    1    4    4    0  502  0.71066672496E+02 -0.14576928842E+02  0.21662311053E+03  0.22848633046E+03  0.41800000000E+01 0. -1.
        -11    1    3    3    0    0 -0.31510134616E+01  0.41714866112E+02  0.12843442616E+01  0.41853416596E+02  0.00000000000E+00 0.  1.
         11    1    3    3    0    0 -0.10580517160E+03  0.87722202560E+02  0.14255694779E+03  0.19802121735E+03  0.00000000000E+00 0. -1.
</event>
<event>
 8    1  0.9181008E-006  0.1368558E+03  0.7561462E-02  0.1217623E+00
          2   -1    0    0  501    0  0.00000000000E+00  0.00000000000E+00  0.56057184073E+03  0.56057184073E+03  0.00000000000E+00 0.  1.
         -2   -1    0    0    0  501 -0.00000000000E+00 -0.00000000000E+00 -0.44302955178E+02  0.44302955178E+02  0.00000000000E+00 0. -1.
         23    2    1    2    0    0  0.55740449574E+02 -0.94444508809E+02  0.17981596312E+03  0.22954076000E+03  0.91260160790E+02 0.  0.
         23    2    1    2    0    0 -0.55740449574E+02  0.94444508809E+02  0.33645292243E+03  0.37533403590E+03  0.12509319139E+03 0.  0.
          5    1    4    4  502    0 -0.54500817840E+02  0.20890954054E+02  0.26948713017E+03  0.27576721494E+03  0.41800000000E+01 0.  1.
         -5    1    4    4    0  502 -0.12396317340E+01  0.73553554756E+02  0.66965792262E+02  0.99566820966E+02  0.41800000000E+01 0.  1.
        -11    1    3    3    0    0 -0.24675823141E+02 -0.17845189219E+02  0.51573395132E+02  0.59892922047E+02  0.00000000000E+00 0. -1.
         11    1    3    3    0    0  0.80416272715E+02 -0.76599319591E+02  0.12824256798E+03  0.16964783795E+03  0.00000000000E+00 0.  1.
</event>
<event>
 8    1  0.9181008E-006  0.9610713E+02  0.7561462E-02  0.1288702E+00
         -2   -1    0    0    0  501 -0.00000000000E+00  0.00000000000E+00  0.32853145320E+03  0.32853145320E+03  0.00000000000E+00 0.  1.
          2   -1    0    0  501    0  0.00000000000E+00 -0.00000000000E+00 -0.44424222191E+02  0.44424222191E+02  0.00000000000E+00 0. -1.
         23    2    1    2    0    0  0.39260373257E+02 -0.15404163280E+02  0.17113370018E+03  0.19868438070E+03  0.91706459089E+02 0.  0.
         23    2    1    2    0    0 -0.39260373257E+02  0.15404163280E+02  0.11297353082E+03  0.17427129469E+03  0.12581256031E+03 0.  0.
          5    1    4    4  502    0 -0.10098670438E+02  0.61267841461E+02  0.18033009929E+02  0.64795010526E+02  0.41800000000E+01 0. -1.
         -5    1    4    4    0  502 -0.29161702819E+02 -0.45863678181E+02  0.94940520895E+02  0.10947628417E+03  0.41800000000E+01 0. -1.
        -11    1    3    3    0    0 -0.14616817597E+01  0.20877595330E+02  0.12646924467E+03  0.12818923647E+03  0.00000000000E+00 0.  1.
         11    1    3    3    0    0  0.40722055017E+02 -0.36281758610E+02  0.44664455520E+02  0.70495144226E+02  0.00000000000E+00 0. -1.
</event>
<event>
 8    1  0.9181008E-006  0.1268649E+03  0.7561462E-02  0.1232183E+00
         -1   -1    0    0    0  501 -0.00000000000E+00  0.00000000000E+00  0.30076500790E+03  0.30076500790E+03  0.00000000000E+00 0.  1.
          1   -1    0    0  501    0  0.00000000000E+00 -0.00000000000E+00 -0.66836762939E+02  0.66836762939E+02  0.00000000000E+00 0. -1.
         23    2    1    2    0    0 -0.48858823529E+02 -0.57900190099E+02  0.17233378002E+03  0.20890121715E+03  0.90560312170E+02 0.  0.
         23    2    1    2    0    0  0.48858823529E+02  0.57900190099E+02  0.61594464948E+02  0.15870055369E+03  0.12510943602E+03 0.  0.
          5    1    4    4  502    0 -0.14114315461E+02 -0.29651111257E+02 -0.24619181581E+01  0.33195417466E+02  0.41800000000E+01 0. -1.
         -5    1    4    4    0  502  0.62973138990E+02  0.87551301356E+02  0.64056383106E+02  0.12550513623E+03  0.41800000000E+01 0. -1.
        -11    1    3    3    0    0 -0.22007195742E+02 -0.76781402602E+02  0.90369596923E+02  0.12060831024E+03  0.00000000000E+00 0.  1.
         11    1    3    3    0    0 -0.26851627787E+02  0.18881212503E+02  0.81964183095E+02  0.88292906911E+02  0.00000000000E+00 0. -1.
</event>
<event>
 8    1  0.9181008E-006  0.1557040E+03  0.7561462E-02  0.1193634E+00
         -1   -1    0    0    0  501 -0.00000000000E+00  0.00000000000E+00  0.56277362320E+02  0.56277362320E+02  0.00000000000E+00 0.  1.
          1   -1    0    0  501    0  0.00000000000E+00 -0.00000000000E+00 -0.48175014960E+03  0.48175014960E+03  0.00000000000E+00 0. -1.
         23    2    1    2    0    0 -0.72498975416E+02  0.10096047348E+03 -0.19498956346E+03  0.24782215364E+03  0.89139056153E+02 0.  0.
         23    2    1    2    0    0  0.72498975416E+02 -0.10096047348E+03 -0.23048322382E+03  0.29020535829E+03  0.12509002707E+03 0.  0.
          5    1    4    4  502    0  0.99237208241E+02 -0.83697619569E+02 -0.22166414856E+03  0.25691590488E+03  0.41800000000E+01 0. -1.
         -5    1    4    4    0  502 -0.26738232825E+02 -0.17262853913E+02 -0.88190752588E+01  0.33289453409E+02  0.41800000000E+01 0. -1.
        -11    1    3    3    0    0 -0.75071165011E+02  0.11379715148E+03 -0.15854820225E+03  0.20910046375E+03  0.00000000000E+00 0.  1.
         11    1    3    3    0    0  0.25721895950E+01 -0.12836677997E+02 -0.36441361207E+02  0.38721689890E+02  0.00000000000E+00 0. -1.
</event>
<event>
 8    1  0.9181008E-006  0.7549477E+02  0.7561462E-02  0.1342346E+00
          2   -1    0    0  501    0  0.00000000000E+00  0.00000000000E+00  0.45581798135E+02  0.45581798135E+02  0.00000000000E+00 0. -1.
         -2   -1    0    0    0  501 -0.00000000000E+00 -0.00000000000E+00 -0.30168553671E+03  0.30168553671E+03  0.00000000000E+00 0.  1.
         23    2    1    2    0    0  0.38600826817E+02 -0.21158573145E+02 -0.12880914935E+03  0.16344698225E+03  0.90473255728E+02 0.  0.
         23    2    1    2    0    0 -0.38600826817E+02  0.21158573145E+02 -0.12729458922E+03  0.18382035259E+03  0.12509316741E+03 0.  0.
          5    1    4    4  502    0  0.84716860500E+01  0.15045747004E+02 -0.13446404657E+03  0.13563257790E+03  0.41800000000E+01 0. -1.
         -5    1    4    4    0  502 -0.47072512867E+02  0.61128261404E+01  0.71694573518E+01  0.48187774692E+02  0.41800000000E+01 0. -1.
        -11    1    3    3    0    0  0.28411369355E+01  0.26130751603E+02 -0.58313767838E+01  0.26923840618E+02  0.00000000000E+00 0. -1.
         11    1    3    3    0    0  0.35759689881E+02 -0.47289324748E+02 -0.12297777257E+03  0.13652314164E+03  0.00000000000E+00 0.  1.
</event>
<event>
 8    1  0.9181008E-006  0.1805520E+03  0.7561462E-02  0.1167270E+00
          2   -1    0    0  501    0  0.00000000000E+00  0.00000000000E+00  0.15822548733E+04  0.15822548733E+04  0.00000000000E+00 0. -1.
         -2   -1    0    0    0  501 -0.00000000000E+00 -0.00000000000E+00 -0.22172105154E+02  0.22172105154E+02  0.00000000000E+00 0.  1.
         23    2    1    2    0    0 -0.13191107688E+03 -0.69293246770E+02  0.61664651829E+03  0.64113995764E+03  0.92765459695E+02 0.  0.
         23    2    1    2    0    0  0.13191107688E+03  0.69293246770E+02  0.94343624986E+03  0.96328702082E+03  0.12509132933E+03 0.  0.
          5    1    4    4  502    0 -0.21419088141E+02  0.26816344050E+02  0.13705093485E+03  0.14134470202E+03  0.41800000000E+01 0.  1.
         -5    1    4    4    0  502  0.15333016502E+03  0.42476902720E+02  0.80638531501E+03  0.82194231880E+03  0.41800000000E+01 0.  1.
        -11    1    3    3    0    0 -0.49018021899E+02 -0.68799299537E+02  0.21442162749E+03  0.23046202382E+03  0.00000000000E+00 0.  1.
         11    1    3    3    0    0 -0.82893054983E+02 -0.49394723298E+00  0.40222489080E+03  0.41067793382E+03  0.00000000000E+00 0. -1.
</event>
<event>
 8    1  0.9181008E-006  0.1948495E+03  0.7561462E-02  0.1154159E+00
          4   -1    0    0  501    0  0.00000000000E+00  0.00000000000E+00  0.16534859535E+03  0.16534859535E+03  0.00000000000E+00 0. -1.
         -4   -1    0    0    0  501 -0.00000000000E+00 -0.00000000000E+00 -0.25937108579E+03  0.25937108579E+03  0.00000000000E+00 0.  1.
         23    2    1    2    0    0  0.99286794195E+02 -0.14419366084E+03 -0.71397006329E+02  0.20832790984E+03  0.87483176544E+02 0.  0.
         23    2    1    2    0    0 -0.99286794195E+02  0.14419366084E+03 -0.22625484116E+02  0.21639177130E+03  0.12515513105E+03 0.  0.
          5    1    4    4  502    0 -0.12154065865E+03  0.97758744604E+02 -0.41387373457E+02  0.16142890365E+03  0.41800000000E+01 0.  1.
         -5    1    4    4    0  502  0.22253864453E+02  0.46434916238E+02  0.18761889342E+02  0.54962867654E+02  0.41800000000E+01 0.  1.
        -11    1    3    3    0    0  0.38228221584E+02 -0.98748247065E+02 -0.78599866065E+02  0.13187324281E+03  0.00000000000E+00 0.  1.
         11    1    3    3    0    0  0.61058572611E+02 -0.45445413777E+02  0.72028597361E+01  0.76454667033E+02  0.00000000000E+00 0. -1.
</event>
<event>
 8    1  0.9181008E-006  0.1810550E+03  0.7561462E-02  0.1166786E+00
          1   -1    0    0  501    0  0.00000000000E+00  0.00000000000E+00  0.90566000960E+03  0.90566000960E+03  0.00000000000E+00 0. -1.
         -1   -1    0    0    0  501 -0.00000000000E+00 -0.00000000000E+00 -0.40211015083E+02  0.40211015083E+02  0.00000000000E+00 0.  1.
         23    2    1    2    0    0  0.10605013353E+03  0.10713488154E+03  0.30622354048E+03  0.35333050299E+03  0.91351376194E+02 0.  0.
         23    2    1    2    0    0 -0.10605013353E+03 -0.10713488154E+03  0.55922545403E+03  0.59254052169E+03  0.12508656100E+03 0.  0.
          5    1    4    4  502    0 -0.10035909367E+03 -0.14088439852E+02  0.32305063585E+03  0.33859949430E+03  0.41800000000E+01 0. -1.
         -5    1    4    4    0  502 -0.56910398572E+01 -0.93046441691E+02  0.23617481818E+03  0.25394102739E+03  0.41800000000E+01 0. -1.
        -11    1    3    3    0    0  0.11684718571E+03  0.10313434295E+03  0.24034731878E+03  0.28645556575E+03  0.00000000000E+00 0.  1.
         11    1    3    3    0    0 -0.10797052183E+02  0.40005385914E+01  0.65876221704E+02  0.66874937240E+02  0.00000000000E+00 0. -1.
</event>
<event>
 8    1  0.9181008E-006  0.1029853E+03  0.7561462E-02  0.1274141E+00
         -1   -1    0    0    0  501 -0.00000000000E+00  0.00000000000E+00  0.52896521494E+02  0.52896521494E+02  0.00000000000E+00 0. -1.
          1   -1    0    0  501    0  0.00000000000E+00 -0.00000000000E+00 -0.23467233099E+03  0.23467233099E+03  0.00000000000E+00 0.  1.
         23    2    1    2    0    0 -0.93286202833E+01  0.35783202544E+02 -0.89590076216E+02  0.12783579012E+03  0.83355544144E+02 0.  0.
         23    2    1    2    0    0  0.93286202833E+01 -0.35783202544E+02 -0.92185733278E+02  0.15973306236E+03  0.12509588742E+03 0.  0.
          5    1    4    4  502    0  0.26799974619E+02 -0.77729346591E+02 -0.43908111049E+02  0.93303186317E+02  0.41800000000E+01 0.  1.
         -5    1    4    4    0  502 -0.17471354336E+02  0.41946144048E+02 -0.48277622229E+02  0.66429876041E+02  0.41800000000E+01 0.  1.
        -11    1    3    3    0    0 -0.38572712465E+01 -0.20805925339E+02 -0.60251114105E+02  0.63858921237E+02  0.00000000000E+00 0.  1.
         11    1    3    3    0    0 -0.54713490368E+01  0.56589127883E+02 -0.29338962111E+02  0.63976868887E+02  0.00000000000E+00 0. -1.
</event>
<event>
 8    1  0.9181008E-006  0.3154221E+03  0.7561462E-02  0.1077776E+00
          1   -1    0    0  501    0  0.00000000000E+00  0.00000000000E+00  0.19826062341E+04  0.19826062341E+04  0.00000000000E+00 0. -1.
         -1   -1    0    0    0  501 -0.00000000000E+00 -0.00000000000E+00 -0.63726547788E+02  0.63726547788E+02  0.00000000000E+00 0.  1.
         23    2    1    2    0    0 -0.28459561346E+03 -0.89543042224E+02  0.48590398572E+03  0.57729243076E+03  0.90284260367E+02 0.  0.
         23    2    1    2    0    0  0.28459561346E+03  0.89543042224E+02  0.14329757006E+04  0.14690403511E+04  0.12509026791E+03 0.  0.
          5    1    4    4  502    0  0.27154300046E+03  0.44478442419E+02  0.11746201100E+04  0.12064260476E+04  0.41800000000E+01 0. -1.
         -5    1    4    4    0  502  0.13052612998E+02  0.45064599805E+02  0.25835559059E+03  0.26261430359E+03  0.41800000000E+01 0. -1.
        -11    1    3    3    0    0 -0.95275464892E+02  0.79375698316E+01  0.19042436102E+03  0.21307711397E+03  0.00000000000E+00 0. -1.
         11    1    3    3    0    0 -0.18932014857E+03 -0.97480612056E+02  0.29547962469E+03  0.36421531680E+03  0.00000000000E+00 0.  1.
</event>
<event>
 8    1  0.9181008E-006  0.1452731E+03  0.7561462E-02  0.1206405E+00
         -2   -1    0    0    0  501 -0.00000000000E+00  0.00000000000E+00  0.44732707847E+02  0.44732707847E+02  0.00000000000E+00 0. -1.
          2   -1    0    0  501    0  0.00000000000E+00 -0.00000000000E+00 -0.56532194325E+03  0.56532194325E+03  0.00000000000E+00 0.  1.
         23    2    1    2    0    0  0.98921623966E+02  0.50809113393E+02 -0.19113871501E+03  0.24052491845E+03  0.94610645954E+02 0.  0.
         23    2    1    2    0    0 -0.98921623966E+02 -0.50809113393E+02 -0.32945052039E+03  0.36952973265E+03  0.12509006448E+03 0.  0.
          5    1    4    4  502    0 -0.13429903080E+02  0.39413501376E+02 -0.65159662862E+02  0.77440560766E+02  0.41800000000E+01 0. -1.
         -5    1    4    4    0  502 -0.85491720886E+02 -0.90222614769E+02 -0.26429085753E+03  0.29208917188E+03  0.41800000000E+01 0. -1.
        -11    1    3    3    0    0  0.24142232842E+02 -0.11738608975E+02 -0.11137022992E+03  0.11455989901E+03  0.00000000000E+00 0.  1.
         11    1    3    3    0    0  0.74779391124E+02  0.62547722368E+02 -0.79768485085E+02  0.12596501944E+03  0.00000000000E+00 0. -1.
</event>
<event>
 8    1  0.9181008E-006  0.1945359E+03  0.7561462E-02  0.1154433E+00
         -2   -1    0    0    0  501 -0.00000000000E+00  0.00000000000E+00  0.26060433485E+02  0.26060433485E+02  0.00000000000E+00 0.  1.
          2   -1    0    0  501    0  0.00000000000E+00 -0.00000000000E+00 -0.20041997723E+04  0.20041997723E+04  0.00000000000E+00 0. -1.
         23    2    1    2    0    0  0.91271754253E+02 -0.16026666963E+03 -0.60946435032E+03  0.64356110732E+03  0.93317554748E+02 0.  0.
         23    2    1    2    0    0 -0.91271754253E+02  0.16026666963E+03 -0.13686749885E+04  0.13866990985E+04  0.12508887656E+03 0.  0.
          5    1    4    4  502    0 -0.23803119513E+02  0.43068997238E+02 -0.10766009091E+03  0.11844701176E+03  0.41800000000E+01 0. -1.
         -5    1    4    4    0  502 -0.67468634740E+02  0.11719767239E+03 -0.12610148976E+04  0.12682520867E+04  0.41800000000E+01 0. -1.
        -11    1    3    3    0    0  0.83196726077E+02 -0.57095675038E+02 -0.25302284200E+03  0.27240075240E+03  0.00000000000E+00 0.  1.
         11    1    3    3    0    0  0.80750281755E+01 -0.10317099459E+03 -0.35644150833E+03  0.37116035492E+03  0.00000000000E+00 0. -1.
</event>
<event>
 8    1  0.9181008E-006  0.1108198E+03  0.7561462E-02  0.1259059E+00
         -1   -1    0    0    0  501 -0.00000000000E+00  0.00000000000E+00  0.43115631227E+02  0.43115631227E+02  0.00000000000E+00 0.  1.
          1   -1    0    0  501    0  0.00000000000E+00 -0.00000000000E+00 -0.41336403580E+03  0.41336403580E+03  0.00000000000E+00 0. -1.
         23    2    1    2    0    0 -0.42531549816E+02 -0.64239749688E+02 -0.18232471478E+03  0.21794652879E+03  0.91228885911E+02 0.  0.
         23    2    1    2    0    0  0.42531549816E+02  0.64239749688E+02 -0.18792368980E+03  0.23853313823E+03  0.12508823558E+03 0.  0.
          5    1    4    4  502    0  0.57002145092E+02  0.98204754528E+01 -0.19958775063E+02  0.61331161617E+02  0.41800000000E+01 0.  1.
         -5    1    4    4    0  502 -0.14470595276E+02  0.54419274235E+02 -0.16796491473E+03  0.17720197662E+03  0.41800000000E+01 0.  1.
        -11    1    3    3    0    0  0.20842606167E+02 -0.75985660628E+01 -0.72658132291E+01  0.23344045920E+02  0.00000000000E+00 0.  1.
         11    1    3    3    0    0 -0.63374155983E+02 -0.56641183625E+02 -0.17505890155E+03  0.19460248287E+03  0.00000000000E+00 0. -1.
</event>
<event>
 8    1  0.9181008E-006  0.1068037E+03  0.7561462E-02  0.1266606E+00
          1   -1    0    0  501    0  0.00000000000E+00  0.00000000000E+00  0.78153676845E+03  0.78153676845E+03  0.00000000000E+00 0. -1.
         -1   -1    0    0    0  501 -0.00000000000E+00 -0.00000000000E+00 -0.25445965535E+02  0.25445965535E+02  0.00000000000E+00 0.  1.
         23    2    1    2    0    0  0.61678174791E+02  0.16371811605E+02  0.15946911894E+03  0.19405705307E+03  0.90307842901E+02 0.  0.
         23    2    1    2    0    0 -0.61678174791E+02 -0.16371811605E+02  0.59662168397E+03  0.61292568091E+03  0.12509285781E+03 0.  0.
          5    1    4    4  502    0 -0.22301719543E+02 -0.59508222670E+02  0.15706494810E+03  0.16948588609E+03  0.41800000000E+01 0. -1.
         -5    1    4    4    0  502 -0.39376455248E+02  0.43136411065E+02  0.43955673587E+03  0.44343979483E+03  0.41800000000E+01 0. -1.
        -11    1    3    3    0    0  0.61381552573E+02 -0.12374817853E+02  0.47880980137E+02  0.78825245779E+02  0.00000000000E+00 0.  1.
         11    1    3    3    0    0  0.29662221784E+00  0.28746629459E+02  0.11158813880E+03  0.11523180729E+03  0.00000000000E+00 0. -1.
</event>
<event>
 8    1  0.9181008E-006  0.1105153E+03  0.7561462E-02  0.1259619E+00
         -2   -1    0    0    0  501 -0.00000000000E+00  0.00000000000E+00  0.16061866328E+02  0.16061866328E+02  0.00000000000E+00 0.  1.
          2   -1    0    0  501    0  0.00000000000E+00 -0.00000000000E+00 -0.12028497379E+04  0.12028497379E+04  0.00000000000E+00 0. -1.
         23    2    1    2    0    0  0.81683331055E+02 -0.26826334186E+02 -0.41982131136E+03  0.43706963491E+03  0.85954136075E+02 0.  0.
         23    2    1    2    0    0 -0.81683331055E+02  0.26826334186E+02 -0.76696656019E+03  0.78184196930E+03  0.12508933499E+03 0.  0.
          5    1    4    4  502    0 -0.39643952098E+02  0.41280084320E+02 -0.11672104310E+03  0.13006522441E+03  0.41800000000E+01 0. -1.
         -5    1    4    4    0  502 -0.42039378957E+02 -0.14453750134E+02 -0.65024551709E+03  0.65177674489E+03  0.41800000000E+01 0. -1.
        -11    1    3    3    0    0  0.13438629876E+02 -0.46149347807E+02 -0.12729963206E+03  0.13607187585E+03  0.00000000000E+00 0.  1.
         11    1    3    3    0    0  0.68244701179E+02  0.19323013622E+02 -0.29252167931E+03  0.30099775906E+03  0.00000000000E+00 0. -1.
</event>
<event>
 8    1  0.9181008E-006  0.9528882E+02  0.7561462E-02  0.1290527E+00
          2   -1    0    0  501    0  0.00000000000E+00  0.00000000000E+00  0.20258660801E+03  0.20258660801E+03  0.00000000000E+00 0. -1.
         -2   -1    0    0    0  501 -0.00000000000E+00 -0.00000000000E+00 -0.91099748254E+02  0.91099748254E+02  0.00000000000E+00 0.  1.
         23    2    1    2    0    0  0.35317295877E+02 -0.14119985523E+02 -0.28170789342E+02  0.10237874390E+03  0.90780661214E+02 0.  0.
         23    2    1    2    0    0 -0.35317295877E+02  0.14119985523E+02  0.13965764910E+03  0.19130761237E+03  0.12509060004E+03 0.  0.
          5    1    4    4  502    0  0.28695773700E+02  0.26111030833E+02  0.11517503426E+03  0.12160589737E+03  0.41800000000E+01 0.  1.
         -5    1    4    4    0  502 -0.64013069577E+02 -0.11991045310E+02  0.24482614846E+02  0.69701715000E+02  0.41800000000E+01 0.  1.
        -11    1    3    3    0    0 -0.67657870380E+01  0.26773999216E+02 -0.33549205734E+02  0.43453102463E+02  0.00000000000E+00 0.  1.
         11    1    3    3    0    0  0.42083082915E+02 -0.40893984739E+02  0.53784163925E+01  0.58925641434E+02  0.00000000000E+00 0. -1.
</event>
<event>
 8    1  0.9181008E-006  0.8887690E+02  0.7561462E-02  0.1305594E+00
          1   -1    0    0  501    0  0.00000000000E+00  0.00000000000E+00  0.62893026899E+02  0.62893026899E+02  0.00000000000E+00 0. -1.
         -1   -1    0    0    0  501 -0.00000000000E+00 -0.00000000000E+00 -0.26462986721E+03  0.26462986721E+03  0.00000000000E+00 0.  1.
         23    2    1    2    0    0 -0.59453287014E+02 -0.52725297119E+01 -0.13631864917E+03  0.17426793587E+03  0.90686528506E+02 0.  0.
         23    2    1    2    0    0  0.59453287014E+02  0.52725297119E+01 -0.65418191142E+02  0.15325495825E+03  0.12508017264E+03 0.  0.
          5    1    4    4  502    0  0.12488638778E+02  0.28009884806E+02 -0.90182682270E+02  0.95346254917E+02  0.41800000000E+01 0. -1.
         -5    1    4    4    0  502  0.46964648236E+02 -0.22737355094E+02  0.24764491128E+02  0.57908703331E+02  0.41800000000E+01 0. -1.
        -11    1    3    3    0    0  0.17046828774E+02  0.36626511621E+01 -0.71521661424E+02  0.73616285139E+02  0.00000000000E+00 0.  1.
         11    1    3    3    0    0 -0.76500115788E+02 -0.89351808740E+01 -0.64796987748E+02  0.10065165073E+03  0.00000000000E+00 0. -1.
</event>
<event>
 8    1  0.9181008E-006  0.1579194E+03  0.7561462E-02  0.1191066E+00
         -4   -1    0    0    0  501 -0.00000000000E+00  0.00000000000E+00  0.44685696937E+02  0.44685696937E+02  0.00000000000E+00 0.  1.
          4   -1    0    0  501    0  0.00000000000E+00 -0.00000000000E+00 -0.66352231747E+03  0.66352231747E+03  0.00000000000E+00 0. -1.
         23    2    1    2    0    0  0.10549644719E+03  0.83087397923E+02 -0.29332364138E+03  0.33452450819E+03  0.88514811887E+02 0.  0.
         23    2    1    2    0    0 -0.10549644719E+03 -0.83087397923E+02 -0.32551297916E+03  0.37368350622E+03  0.12509055583E+03 0.  0.
          5    1    4    4  502    0 -0.45053092695E+02 -0.10314365411E+03 -0.15486433921E+03  0.19149107160E+03  0.41800000000E+01 0.  1.
         -5    1    4    4    0  502 -0.60443354498E+02  0.20056256190E+02 -0.17064863995E+03  0.18219243462E+03  0.41800000000E+01 0.  1.
        -11    1    3    3    0    0  0.42386402240E+02  0.57152906857E+02 -0.65534064590E+02  0.96735595717E+02  0.00000000000E+00 0.  1.
         11    1    3    3    0    0  0.63110044953E+02  0.25934491066E+02 -0.22778957679E+03  0.23778891247E+03  0.00000000000E+00 0. -1.
</event>
<event>
 8    1  0.9181008E-006  0.1564958E+03  0.7561462E-02  0.1192711E+00
         -1   -1    0    0    0  501 -0.00000000000E+00  0.00000000000E+00  0.42939022056E+02  0.42939022056E+02  0.00000000000E+00 0.  1.
          1   -1    0    0  501    0  0.00000000000E+00 -0.00000000000E+00 -0.75440050276E+03  0.75440050276E+03  0.00000000000E+00 0. -1.
         23    2    1    2    0    0 -0.28161607618E+02  0.13728515130E+03 -0.40112194794E+03  0.43457536100E+03  0.91195604925E+02 0.  0.
         23    2    1    2    0    0  0.28161607618E+02 -0.13728515130E+03 -0.31033953276E+03  0.36276416382E+03  0.12508766542E+03 0.  0.
          5    1    4    4  502    0  0.42164109145E+02 -0.68518316305E+02 -0.54063199999E+02  0.97019965798E+02  0.41800000000E+01 0. -1.
         -5    1    4    4    0  502 -0.14002501527E+02 -0.68766834999E+02 -0.25627633277E+03  0.26574419802E+03  0.41800000000E+01 0. -1.
        -11    1    3    3    0    0 -0.55030540094E+02  0.65908439959E+02 -0.15868199689E+03  0.18042244577E+03  0.00000000000E+00 0. -1.
         11    1    3    3    0    0  0.26868932476E+02  0.71376711345E+02 -0.24243995105E+03  0.25415291523E+03  0.00000000000E+00 0.  1.
</event>
<event>
 8    1  0.9181008E-006  0.1075954E+03  0.7561462E-02  0.1265089E+00
         -3   -1    0    0    0  501 -0.00000000000E+00  0.00000000000E+00  0.92887125123E+02  0.92887125123E+02  0.00000000000E+00 0. -1.
          3   -1    0    0  501    0  0.00000000000E+00 -0.00000000000E+00 -0.14913780815E+03  0.14913780815E+03  0.00000000000E+00 0.  1.
         23    2    1    2    0    0  0.39389246613E+02 -0.21791385554E+02 -0.15696006565E+02  0.10304034157E+03  0.91348618680E+02 0.  0.
         23    2    1    2    0    0 -0.39389246613E+02  0.21791385554E+02 -0.40554676460E+02  0.13898459171E+03  0.12508260357E+03 0.  0.
          5    1    4    4  502    0 -0.28516228277E+02 -0.45916476772E+02  0.80783211964E+01  0.54810854652E+02  0.41800000000E+01 0. -1.
         -5    1    4    4    0  502 -0.10873018336E+02  0.67707862326E+02 -0.48632997657E+02  0.84173737054E+02  0.41800000000E+01 0. -1.
        -11    1    3    3    0    0  0.50940876508E+02  0.15491561780E+02 -0.30422818528E+02  0.61322991390E+02  0.00000000000E+00 0.  1.
         11    1    3    3    0    0 -0.11551629895E+02 -0.37282947334E+02  0.14726811963E+02  0.41717350176E+02  0.00000000000E+00 0. -1.
</event>
<event>
 8    1  0.9181008E-006  0.8834846E+02  0.7561462E-02  0.1306901E+00
          3   -1    0    0  501    0  0.00000000000E+00  0.00000000000E+00  0.77538921025E+02  0.77538921025E+02  0.00000000000E+00 0.  1.
         -3   -1    0    0    0  501 -0.00000000000E+00 -0.00000000000E+00 -0.24682696137E+03  0.24682696137E+03  0.00000000000E+00 0. -1.
         23    2    1    2    0    0  0.68561473129E+02 -0.16411129592E+02 -0.13592205241E+03  0.17694123725E+03  0.88675793404E+02 0.  0.
         23    2    1    2    0    0 -0.68561473129E+02  0.16411129592E+02 -0.33365987934E+02  0.14742464514E+03  0.12510290194E+03 0.  0.
          5    1    4    4  502    0 -0.52535160335E+02 -0.24266956237E+01  0.42356149921E+02  0.67656099202E+02  0.41800000000E+01 0. -1.
         -5    1    4    4    0  502 -0.16026312793E+02  0.18837825216E+02 -0.75722137855E+02  0.79768545943E+02  0.41800000000E+01 0. -1.
        -11    1    3    3    0    0 -0.12448528896E+02 -0.12666903979E+02  0.10186164109E+01  0.17789151398E+02  0.00000000000E+00 0.  1.
         11    1    3    3    0    0  0.81010002025E+02 -0.37442256138E+01 -0.13694066882E+03  0.15915208585E+03  0.00000000000E+00 0. -1.
</event>
<event>
 8    1  0.9181008E-006  0.1032554E+03  0.7561462E-02  0.1273596E+00
         -1   -1    0    0    0  501 -0.00000000000E+00  0.00000000000E+00  0.17387953938E+02  0.17387953938E+02  0.00000000000E+00 0.  1.
          1   -1    0    0  501    0  0.00000000000E+00 -0.00000000000E+00 -0.88062121625E+03  0.88062121625E+03  0.00000000000E+00 0. -1.
         23    2    1    2    0    0  0.25803962390E+02 -0.25130520642E+02 -0.20509067458E+03  0.22711699913E+03  0.90678326797E+02 0.  0.
         23    2    1    2    0    0 -0.25803962390E+02  0.25130520642E+02 -0.65814258773E+03  0.67089217106E+03  0.12508897577E+03 0.  0.
          5    1    4    4  502    0 -0.36635405593E+02 -0.43730340374E+02 -0.22504678472E+03  0.23220254805E+03  0.41800000000E+01 0. -1.
         -5    1    4    4    0  502  0.10831443203E+02  0.68860861016E+02 -0.43309580302E+03  0.43868962300E+03  0.41800000000E+01 0. -1.
        -11    1    3    3    0    0  0.23805599395E+02  0.21934049726E+02 -0.15504608568E+03  0.15838907092E+03  0.00000000000E+00 0. -1.
         11    1    3    3    0    0  0.19983629945E+01 -0.47064570368E+02 -0.50044588901E+02  0.68727928216E+02  0.00000000000E+00 0.  1.
</event>
<event>
 7    1  0.9181008E-006  0.1395030E+03  0.7561462E-02  0.1213999E+00
         -1   -1    0    0    0  501 -0.00000000000E+00  0.00000000000E+00  0.36282021327E+02  0.36282021327E+02  0.00000000000E+00 0.  1.
          1   -1    0    0  501    0  0.00000000000E+00 -0.00000000000E+00 -0.75981825206E+03  0.75981825206E+03  0.00000000000E+00 0. -1.
         23    2    1    2    0    0  0.52943677671E+02 -0.21695153554E+01 -0.10262833646E+03  0.14643589956E+03  0.90017539591E+02 0.  0.
          5    1    1    2  502    0 -0.10220318491E+03  0.51852372357E+02 -0.29954622652E+03  0.32074845868E+03  0.41800000000E+01 0. -1.
         -5    1    1    2    0  502  0.49259507237E+02 -0.49682857001E+02 -0.32136166775E+03  0.32891591514E+03  0.41800000000E+01 0.  1.
        -11    1    3    3    0    0  0.71357594826E+02 -0.13490270422E+02 -0.10148225565E+03  0.12478999137E+03  0.00000000000E+00 0.  1.
         11    1    3    3    0    0 -0.18413917155E+02  0.11320755066E+02 -0.11460808153E+01  0.21645908193E+02  0.00000000000E+00 0. -1.
</event>
<event>
 8    1  0.9181008E-006  0.1202420E+03  0.7561462E-02  0.1242698E+00
          2   -1    0    0  501    0  0.00000000000E+00  0.00000000000E+00  0.15276083062E+04  0.15276083062E+04  0.00000000000E+00 0. -1.
         -2   -1    0    0    0  501 -0.00000000000E+00 -0.00000000000E+00 -0.16099203611E+02  0.16099203611E+02  0.00000000000E+00 0.  1.
         23    2    1    2    0    0 -0.68660525338E+02 -0.61627920875E+02  0.36782673649E+03  0.38951193293E+03  0.88942506426E+02 0.  0.
         23    2    1    2    0    0  0.68660525338E+02  0.61627920875E+02  0.11436823661E+04  0.11541955769E+04  0.12508319946E+03 0.  0.
          5    1    4    4  502    0  0.94532461642E+02  0.50492635500E+02  0.10673463677E+04  0.10727216011E+04  0.41800000000E+01 0. -1.
         -5    1    4    4    0  502 -0.25871936304E+02  0.11135285375E+02  0.76335998412E+02  0.81473975735E+02  0.41800000000E+01 0. -1.
        -11    1    3    3    0    0  0.60581749432E+01 -0.16235730605E+02  0.77669408889E+01  0.18990150149E+02  0.00000000000E+00 0.  1.
         11    1    3    3    0    0 -0.74718700281E+02 -0.45392190271E+02  0.36005979560E+03  0.37052178278E+03  0.00000000000E+00 0. -1.
</event>
<event>
 7    1  0.9181008E-006  0.8701361E+02  0.7561462E-02  0.1310249E+00
          2   -1    0    0  501    0  0.00000000000E+00  0.00000000000E+00  0.57008639475E+03  0.57008639475E+03  0.00000000000E+00 0. -1.
         -2   -1    0    0    0  501 -0.00000000000E+00 -0.00000000000E+00 -0.46780089788E+02  0.46780089788E+02  0.00000000000E+00 0.  1.
         23    2    1    2    0    0 -0.37332165127E+01 -0.10014180237E+02  0.20597884364E+02  0.92841713362E+02  0.89894884106E+02 0.  0.
          5    1    1    2  502    0  0.22435276485E+01  0.54708095073E+02  0.69891108960E+02  0.88883342615E+02  0.41800000000E+01 0. -1.
         -5    1    1    2    0  502  0.14896888642E+01 -0.44693914836E+02  0.43281731164E+03  0.43514142857E+03  0.41800000000E+01 0.  1.
        -11    1    3    3    0    0 -0.14158949065E+01 -0.42053405635E+02 -0.15205257779E+02  0.44740289986E+02  0.00000000000E+00 0.  1.
         11    1    3    3    0    0 -0.23173216061E+01  0.32039225398E+02  0.35803142143E+02  0.48101423376E+02  0.00000000000E+00 0. -1.
</event>
<event>
 8    1  0.9181008E-006  0.1408599E+03  0.7561462E-02  0.1212177E+00
         -2   -1    0    0    0  501 -0.00000000000E+00  0.00000000000E+00  0.66774851955E+02  0.66774851955E+02  0.00000000000E+00 0.  1.
          2   -1    0    0  501    0  0.00000000000E+00 -0.00000000000E+00 -0.34508158908E+03  0.34508158908E+03  0.00000000000E+00 0. -1.
         23    2    1    2    0    0  0.10294205580E+03  0.24511614430E+02 -0.11234408189E+03  0.17864183513E+03  0.89965695824E+02 0.  0.
         23    2    1    2    0    0 -0.10294205580E+03 -0.24511614430E+02 -0.16596265523E+03  0.23321460591E+03  0.12509022097E+03 0.  0.
          5    1    4    4  502    0 -0.12178424655E+03 -0.22141105453E+02 -0.17280158991E+03  0.21260172420E+03  0.41800000000E+01 0. -1.
         -5    1    4    4    0  502  0.18842190745E+02 -0.23705089770E+01  0.68389346758E+01  0.20612881710E+02  0.41800000000E+01 0. -1.
        -11    1    3    3    0    0  0.31394069700E+02  0.52847187611E+02 -0.42625400438E+02  0.74801989367E+02  0.00000000000E+00 0.  1.
         11    1    3    3    0    0  0.71547986105E+02 -0.28335573182E+02 -0.69718681456E+02  0.10383984576E+03  0.00000000000E+00 0. -1.
</event>
<event>
 8    1  0.9181008E-006  0.1005382E+03  0.7561462E-02  0.1279168E+00
          2   -1    0    0  501    0  0.00000000000E+00  0.00000000000E+00  0.42885254754E+02  0.42885254754E+02  0.00000000000E+00 0.  1.
         -2   -1    0    0    0  501 -0.00000000000E+00 -0.00000000000E+00 -0.35436461064E+03  0.35436461064E+03  0.00000000000E+00 0. -1.
         23    2    1    2    0    0  0.13874065007E+02  0.28196936485E+02 -0.22025151881E+03  0.23927172439E+03  0.88049245592E+02 0.  0.
         23    2    1    2    0    0 -0.13874065007E+02 -0.28196936485E+02 -0.91227837078E+02  0.15797814100E+03  0.12508804048E+03 0.  0.
          5    1    4    4  502    0 -0.61613603685E+02 -0.43883425874E+02 -0.70407001314E+02  0.10342441423E+03  0.41800000000E+01 0.  1.
         -5    1    4    4    0  502  0.47739538678E+02  0.15686489389E+02 -0.20820835764E+02  0.54553726770E+02  0.41800000000E+01 0.  1.
        -11    1    3    3    0    0 -0.26036997711E+02  0.22818843295E+02 -0.33316685265E+02  0.48048167251E+02  0.00000000000E+00 0.  1.
         11    1    3    3    0    0  0.39911062718E+02  0.53780931893E+01 -0.18693483355E+03  0.19122355714E+03  0.00000000000E+00 0. -1.
</event>
<event>
 8    1  0.9181008E-006  0.1505118E+03  0.7561462E-02  0.1199846E+00
         -1   -1    0    0    0  501 -0.00000000000E+00  0.00000000000E+00  0.23012364313E+02  0.23012364313E+02  0.00000000000E+00 0.  1.
          1   -1    0    0  501    0  0.00000000000E+00 -0.00000000000E+00 -0.12368870258E+04  0.12368870258E+04  0.00000000000E+00 0. -1.
         23    2    1    2    0    0 -0.11059565329E+03  0.50964916645E+02 -0.37838537799E+03  0.40636316781E+03  0.84419835457E+02 0.  0.
         23    2    1    2    0    0  0.11059565329E+03 -0.50964916645E+02 -0.83548928348E+03  0.85353622229E+03  0.12511162494E+03 0.  0.
          5    1    4    4  502    0  0.68175641429E+02  0.32370751169E+02 -0.27120991560E+03  0.28154586542E+03  0.41800000000E+01 0. -1.
         -5    1    4    4    0  502  0.42420011860E+02 -0.83335667814E+02 -0.56427936788E+03  0.57199035687E+03  0.41800000000E+01 0. -1.
        -11    1    3    3    0    0 -0.42056787197E+02 -0.62923768738E+01 -0.48036305125E+02  0.64154921605E+02  0.00000000000E+00 0.  1.
         11    1    3    3    0    0 -0.68538866093E+02  0.57257293519E+02 -0.33034907286E+03  0.34220824620E+03  0.00000000000E+00 0. -1.
</event>
<event>
 8    1  0.9181008E-006  0.1377478E+03  0.7561462E-02  0.1216392E+00
         -4   -1    0    0    0  501 -0.00000000000E+00  0.00000000000E+00  0.27142640252E+02  0.27142640252E+02  0.00000000000E+00 0.  1.
          4   -1    0    0  501    0  0.00000000000E+00 -0.00000000000E+00 -0.70454171723E+03  0.70454171723E+03  0.00000000000E+00 0. -1.
         23    2    1    2    0    0  0.78655400477E+00  0.85496708145E+02 -0.31890265674E+03  0.34248267904E+03  0.91022937747E+02 0.  0.
         23    2    1    2    0    0 -0.78655400477E+00 -0.85496708145E+02 -0.35849642024E+03  0.38920167845E+03  0.12509179593E+03 0.  0.
          5    1    4    4  502    0 -0.60097651476E+02 -0.21103966804E+02 -0.14655541822E+03  0.15985327065E+03  0.41800000000E+01 0.  1.
         -5    1    4    4    0  502  0.59311097471E+02 -0.64392741341E+02 -0.21194100202E+03  0.22934840779E+03  0.41800000000E+01 0.  1.
        -11    1    3    3    0    0 -0.15261506054E+02  0.10073683163E+03 -0.24510485564E+03  0.26543777627E+03  0.00000000000E+00 0.  1.
         11    1    3    3    0    0  0.16048060059E+02 -0.15240123484E+02 -0.73797801098E+02  0.77044902767E+02  0.00000000000E+00 0. -1.
</event>
<event>
 7    1  0.9181008E-006  0.1555977E+03  0.7561462E-02  0.1193759E+00
         -2   -1    0    0    0  501 -0.00000000000E+00  0.00000000000E+00  0.10792618581E+03  0.10792618581E+03  0.00000000000E+00 0.  1.
          2   -1    0    0  501    0  0.00000000000E+00 -0.00000000000E+00 -0.32692257366E+04  0.32692257366E+04  0.00000000000E+00 0. -1.
         23    2    1    2    0    0  0.12163768283E+02 -0.70597309865E+02  0.45295191213E+02  0.12620309720E+03  0.93507379265E+02 0.  0.
          5    1    1    2  502    0  0.83824063156E+02  0.36690286003E+02 -0.31074019028E+04  0.31087516318E+04  0.41800000000E+01 0. -1.
         -5    1    1    2    0  502 -0.95987831438E+02  0.33907023862E+02 -0.99192839216E+02  0.14219719337E+03  0.41800000000E+01 0.  1.
        -11    1    3    3    0    0 -0.32769675037E+02 -0.64525123657E+02  0.25531928593E+02  0.76741270270E+02  0.00000000000E+00 0.  1.
         11    1    3    3    0    0  0.44933443320E+02 -0.60721862076E+01  0.19763262620E+02  0.49461826930E+02  0.00000000000E+00 0. -1.
</event>
<event>
 8    1  0.9181008E-006  0.1582138E+03  0.7561462E-02  0.1190728E+00
         -1   -1    0    0    0  501 -0.00000000000E+00  0.00000000000E+00  0.93794409804E+02  0.93794409804E+02  0.00000000000E+00 0.  1.
          1   -1    0    0  501    0  0.00000000000E+00 -0.00000000000E+00 -0.34771390599E+03  0.34771390599E+03  0.00000000000E+00 0. -1.
         23    2    1    2    0    0 -0.12650958759E+03  0.62919526140E+02 -0.90596739060E+02  0.19193773369E+03  0.93106293903E+02 0.  0.
         23    2    1    2    0    0  0.12650958759E+03 -0.62919526140E+02 -0.16332275713E+03  0.24957058210E+03  0.12509040704E+03 0.  0.
          5    1    4    4  502    0  0.18836758528E+02 -0.64058960234E+02 -0.19173609990E+02  0.69595068634E+02  0.41800000000E+01 0.  1.
         -5    1    4    4    0  502  0.10767282906E+03  0.11394340940E+01 -0.14414914714E+03  0.17997551347E+03  0.41800000000E+01 0.  1.
        -11    1    3    3    0    0 -0.84638493719E+02  0.35924789514E+02 -0.40009249640E+01  0.92034083476E+02  0.00000000000E+00 0.  1.
         11    1    3    3    0    0 -0.41871093872E+02  0.26994736626E+02 -0.86595814096E+02  0.99903650216E+02  0.00000000000E+00 0. -1.
</event>
<event>
 8    1  0.9181008E-006  0.1725079E+03  0.7561462E-02  0.1175257E+00
         -1   -1    0    0    0  501 -0.00000000000E+00  0.00000000000E+00  0.25765868135E+02  0.25765868135E+02  0.00000000000E+00 0.  1.
          1   -1    0    0  501    0  0.00000000000E+00 -0.00000000000E+00 -0.15380724098E+04  0.15380724098E+04  0.00000000000E+00 0. -1.
         23    2    1    2    0    0 -0.90448453732E+02  0.13515657689E+03 -0.57705454376E+03  0.60634601274E+03  0.90638389432E+02 0.  0.
         23    2    1    2    0    0  0.90448453732E+02 -0.13515657689E+03 -0.93525199793E+03  0.95749226522E+03  0.12508763031E+03 0.  0.
          5    1    4    4  502    0  0.24248380453E+02 -0.29846292086E+02 -0.48441053684E+02  0.61990266880E+02  0.41800000000E+01 0.  1.
         -5    1    4    4    0  502  0.66200073279E+02 -0.10531028480E+03 -0.88681094425E+03  0.89550199834E+03  0.41800000000E+01 0.  1.
        -11    1    3    3    0    0 -0.10570775926E+03  0.11082803318E+03 -0.52513356295E+03  0.54701210429E+03  0.00000000000E+00 0. -1.
         11    1    3    3    0    0  0.15259305524E+02  0.24328543706E+02 -0.51920980809E+02  0.59333908452E+02  0.00000000000E+00 0.  1.
</event>
<event>
 8    1  0.9181008E-006  0.1035447E+03  0.7561462E-02  0.1273014E+00
          1   -1    0    0  501    0  0.00000000000E+00  0.00000000000E+00  0.11520039669E+03  0.11520039669E+03  0.00000000000E+00 0. -1.
         -1   -1    0    0    0  501 -0.00000000000E+00 -0.00000000000E+00 -0.11571146276E+03  0.11571146276E+03  0.00000000000E+00 0.  1.
         23    2    1    2    0    0 -0.33622686667E+02 -0.45696781178E+01 -0.14835253655E+02  0.10049467839E+03  0.93422313275E+02 0.  0.
         23    2    1    2    0    0  0.33622686667E+02  0.45696781178E+01  0.14324187590E+02  0.13041718106E+03  0.12510832006E+03 0.  0.
          5    1    4    4  502    0 -0.45713755369E+02 -0.87192452978E+01  0.17266009780E+02  0.49813252877E+02  0.41800000000E+01 0. -1.
         -5    1    4    4    0  502  0.79336442036E+02  0.13288923416E+02 -0.29418221906E+01  0.80603928182E+02  0.41800000000E+01 0. -1.
        -11    1    3    3    0    0  0.94658824668E+01 -0.28844513671E+02 -0.35660900347E+02  0.46832773923E+02  0.00000000000E+00 0.  1.
         11    1    3    3    0    0 -0.43088569134E+02  0.24274835553E+02  0.20825646693E+02  0.53661904470E+02  0.00000000000E+00 0. -1.
</event>
<event>
 8    1  0.9181008E-006  0.1380036E+03  0.7561462E-02  0.1216041E+00
          1   -1    0    0  501    0  0.00000000000E+00  0.00000000000E+00  0.10238075777E+03  0.10238075777E+03  0.00000000000E+00 0. -1.
         -1   -1    0    0    0  501 -0.00000000000E+00 -0.00000000000E+00 -0.30244013641E+03  0.30244013641E+03  0.00000000000E+00 0.  1.
         23    2    1    2    0    0  0.40430153789E+02  0.10990821643E+03 -0.17422278835E+03  0.23152772589E+03  0.97658048832E+02 0.  0.
         23    2    1    2    0    0 -0.40430153789E+02 -0.10990821643E+03 -0.25836590295E+02  0.17329316829E+03  0.12509428206E+03 0.  0.
          5    1    4    4  502    0  0.26873243323E+02 -0.30497217662E+01  0.25025635724E+02  0.37084051194E+02  0.41800000000E+01 0.  1.
         -5    1    4    4    0  502 -0.67303397112E+02 -0.10685849466E+03 -0.50862226019E+02  0.13620911710E+03  0.41800000000E+01 0.  1.
        -11    1    3    3    0    0  0.41943973483E+02  0.65050171817E+02 -0.16957500683E+03  0.18640414348E+03  0.00000000000E+00 0.  1.
         11    1    3    3    0    0 -0.15138196948E+01  0.44858044613E+02 -0.46477815200E+01  0.45123582411E+02  0.00000000000E+00 0. -1.
</event>
<event>
 7    1  0.9181008E-006  0.1684865E+03  0.7561462E-02  0.1179435E+00
         -3   -1    0    0    0  501 -0.00000000000E+00  0.00000000000E+00  0.28640359088E+03  0.28640359088E+03  0.00000000000E+00 0.  1.
          3   -1    0    0  501    0  0.00000000000E+00 -0.00000000000E+00 -0.12097984978E+03  0.12097984978E+03  0.00000000000E+00 0. -1.
         23    2    1    2    0    0 -0.75560583662E+02  0.11137371957E+03  0.12155033539E+03  0.21303727820E+03  0.11178949261E+03 0.  0.
          5    1    1    2  502    0  0.24561219009E+02 -0.11105774513E+03 -0.16716286203E+02  0.11503904927E+03  0.41800000000E+01 0. -1.
         -5    1    1    2    0  502  0.50999364653E+02 -0.31597444191E+00  0.60589691915E+02  0.79307113182E+02  0.41800000000E+01 0.  1.
        -11    1    3    3    0    0  0.23088982665E+02  0.51872138265E+02  0.22388937661E+02  0.61033469328E+02  0.00000000000E+00 0.  1.
         11    1    3    3    0    0 -0.98649566326E+02  0.59501581305E+02  0.99161397725E+02  0.15200380888E+03  0.00000000000E+00 0. -1.
</event>
<event>
 8    1  0.9181008E-006  0.1794941E+03  0.7561462E-02  0.1168294E+00
          1   -1    0    0  501    0  0.00000000000E+00  0.00000000000E+00  0.35278549894E+03  0.35278549894E+03  0.00000000000E+00 0. -1.
         -1   -1    0    0    0  501 -0.00000000000E+00 -0.00000000000E+00 -0.17499033420E+03  0.17499033420E+03  0.00000000000E+00 0.  1.
         23    2    1    2    0    0  0.13910459764E+03  0.87593614510E+02 -0.75657662110E+02  0.20080491596E+03  0.87039083452E+02 0.  0.
         23    2    1    2    0    0 -0.13910459764E+03 -0.87593614510E+02  0.25345282685E+03  0.32697091718E+03  0.12509562283E+03 0.  0.
          5    1    4    4  502    0 -0.71717422207E+02 -0.97153830436E+02  0.92506054463E+02  0.15217456400E+03  0.41800000000E+01 0. -1.
         -5    1    4    4    0  502 -0.67387175438E+02  0.95602159251E+01  0.16094677239E+03  0.17479635318E+03  0.41800000000E+01 0. -1.
        -11    1    3    3    0    0  0.25778912620E+02  0.38804169174E+02 -0.60704228137E+02  0.76520057467E+02  0.00000000000E+00 0.  1.
         11    1    3    3    0    0  0.11332568502E+03  0.48789445336E+02 -0.14953433974E+02  0.12428485849E+03  0.00000000000E+00 0. -1.
</event>
<event>
 8    1  0.9181008E-006  0.1212289E+03  0.7561462E-02  0.1241083E+00
          2   -1    0    0  501    0  0.00000000000E+00  0.00000000000E+00  0.62141325481E+03  0.62141325481E+03  0.00000000000E+00 0.  1.
         -2   -1    0    0    0  501 -0.00000000000E+00 -0.00000000000E+00 -0.44590421039E+02  0.44590421039E+02  0.00000000000E+00 0. -1.
         23    2    1    2    0    0  0.27865191696E+02  0.61880101909E+02  0.54880067827E+02  0.12500764148E+03  0.89495657229E+02 0.  0.
         23    2    1    2    0    0 -0.27865191696E+02 -0.61880101909E+02  0.52194276595E+03  0.54099603437E+03  0.12508733894E+03 0.  0.
          5    1    4    4  502    0 -0.74038654225E+02 -0.13635171605E+02  0.27744489802E+03  0.28750788522E+03  0.41800000000E+01 0. -1.
         -5    1    4    4    0  502  0.46173462529E+02 -0.48244930304E+02  0.24449786793E+03  0.25348814915E+03  0.41800000000E+01 0. -1.
        -11    1    3    3    0    0 -0.24807213981E+02  0.28520772249E+02 -0.55201968327E+01  0.38200849313E+02  0.00000000000E+00 0. -1.
         11    1    3    3    0    0  0.52672405677E+02  0.33359329660E+02  0.60400264659E+02  0.86806792166E+02  0.00000000000E+00 0.  1.
</event>
<event>
 8    1  0.9181008E-006  0.5731647E+02  0.7561462E-02  0.1409451E+00
          3   -1    0    0  501    0  0.00000000000E+00  0.00000000000E+00  0.17972249486E+04  0.17972249486E+04  0.00000000000E+00 0. -1.
         -3   -1    0    0    0  501 -0.00000000000E+00 -0.00000000000E+00 -0.88935683715E+01  0.88935683715E+01  0.00000000000E+00 0.  1.
         23    2    1    2    0    0 -0.42315288294E+01  0.16790934197E+02  0.34171593322E+03  0.35400017858E+03  0.90810275358E+02 0.  0.
         23    2    1    2    0    0  0.42315288294E+01 -0.16790934197E+02  0.14466154471E+04  0.14521183384E+04  0.12510625829E+03 0.  0.
          5    1    4    4  502    0  0.97980040581E+01 -0.10595689401E+02  0.14413235189E+04  0.14414018275E+04  0.41800000000E+01 0.  1.
         -5    1    4    4    0  502 -0.55664752287E+01 -0.61952447966E+01  0.52919281067E+01  0.10716510983E+02  0.41800000000E+01 0.  1.
        -11    1    3    3    0    0  0.41524560274E+02  0.16075975712E+02  0.20663908033E+03  0.21138220271E+03  0.00000000000E+00 0. -1.
         11    1    3    3    0    0 -0.45756089104E+02  0.71495848505E+00  0.13507685288E+03  0.14261797587E+03  0.00000000000E+00 0.  1.
</event>
<event>
 8    1  0.9181008E-006  0.6749145E+02  0.7561462E-02  0.1368837E+00
         -2   -1    0    0    0  501 -0.00000000000E+00  0.00000000000E+00  0.48674456875E+02  0.48674456875E+02  0.00000000000E+00 0.  1.
          2   -1    0    0  501    0  0.00000000000E+00 -0.00000000000E+00 -0.11466099659E+04  0.11466099659E+04  0.00000000000E+00 0. -1.
         23    2    1    2    0    0  0.17607786368E+02 -0.20825529784E+02 -0.86956411442E+01  0.98992582625E+02  0.94763813812E+02 0.  0.
         23    2    1    2    0    0 -0.17607786368E+02  0.20825529784E+02 -0.10892398678E+04  0.10962918401E+04  0.12111388099E+03 0.  0.
          5    1    4    4  502    0  0.15033081640E+02 -0.12082740946E+02 -0.93442237126E+03  0.93463074339E+03  0.41800000000E+01 0. -1.
         -5    1    4    4    0  502 -0.32640868008E+02  0.32908270730E+02 -0.15481749658E+03  0.16166109673E+03  0.41800000000E+01 0.  1.
        -11    1    3    3    0    0  0.20391396371E+02 -0.42351175591E+02  0.29189471439E+02  0.55330428904E+02  0.00000000000E+00 0.  1.
         11    1    3    3    0    0 -0.27836100029E+01  0.21525645806E+02 -0.37885112583E+02  0.43662153720E+02  0.00000000000E+00 0. -1.
</event>
<event>
 8    1  0.9181008E-006  0.9608057E+02  0.7561462E-02  0.1288761E+00
          2   -1    0    0  501    0  0.00000000000E+00  0.00000000000E+00  0.20745854653E+03  0.20745854653E+03  0.00000000000E+00 0. -1.
         -2   -1    0    0    0  501 -0.00000000000E+00 -0.00000000000E+00 -0.61527221342E+02  0.61527221342E+02  0.00000000000E+00 0.  1.
         23    2    1    2    0    0 -0.22993362579E+02  0.16852491123E+02  0.50212835180E+02  0.10891720923E+03  0.92352197973E+02 0.  0.
         23    2    1    2    0    0  0.22993362579E+02 -0.16852491123E+02  0.95718490007E+02  0.16006855864E+03  0.12508882027E+03 0.  0.
          5    1    4    4  502    0  0.57728599910E+02 -0.17710111675E+02  0.25927050825E+01  0.60584105364E+02  0.41800000000E+01 0.  1.
         -5    1    4    4    0  502 -0.34735237331E+02  0.85762055179E+00  0.93125784925E+02  0.99484453274E+02  0.41800000000E+01 0.  1.
        -11    1    3    3    0    0  0.11078851875E+01  0.53097752389E+02  0.26611650046E+02  0.59403523772E+02  0.00000000000E+00 0. -1.
         11    1    3    3    0    0 -0.24101247767E+02 -0.36245261266E+02  0.23601185134E+02  0.49513685460E+02  0.00000000000E+00 0.  1.
</event>
<event>
 8    1  0.9181008E-006  0.1093493E+03  0.7561462E-02  0.1261780E+00
          2   -1    0    0  501    0  0.00000000000E+00  0.00000000000E+00  0.52956850419E+03  0.52956850419E+03  0.00000000000E+00 0. -1.
         -2   -1    0    0    0  501 -0.00000000000E+00 -0.00000000000E+00 -0.28849220344E+02  0.28849220344E+02  0.00000000000E+00 0.  1.
         23    2    1    2    0    0 -0.32695333185E+02 -0.24188193060E+01  0.15825021930E+03  0.19234763904E+03  0.10430554558E+03 0.  0.
         23    2    1    2    0    0  0.32695333185E+02  0.24188193060E+01  0.34246906455E+03  0.36607008549E+03  0.12508961516E+03 0.  0.
          5    1    4    4  502    0  0.16982781016E+02  0.56969077827E+02  0.25380121487E+03  0.26070370106E+03  0.41800000000E+01 0. -1.
         -5    1    4    4    0  502  0.15712552170E+02 -0.54550258521E+02  0.88667849681E+02  0.10536638443E+03  0.41800000000E+01 0. -1.
        -11    1    3    3    0    0  0.28933416547E+02  0.21530147914E+02  0.91695443113E+02  0.98532959714E+02  0.00000000000E+00 0. -1.
         11    1    3    3    0    0 -0.61628749732E+02 -0.23948967220E+02  0.66554776182E+02  0.93814679327E+02  0.00000000000E+00 0.  1.
</event>
<event>
 8    1  0.9181008E-006  0.9327777E+02  0.7561462E-02  0.1295103E+00
         -1   -1    0    0    0  501 -0.00000000000E+00  0.00000000000E+00  0.57502122500E+02  0.57502122500E+02  0.00000000000E+00 0.  1.
          1   -1    0    0  501    0  0.00000000000E+00 -0.00000000000E+00 -0.30404845979E+03  0.30404845979E+03  0.00000000000E+00 0. -1.
         23    2    1    2    0    0 -0.25755825982E+02  0.66199613056E+02 -0.77124094323E+02  0.13929642634E+03  0.91703964609E+02 0.  0.
         23    2    1    2    0    0  0.25755825982E+02 -0.66199613056E+02 -0.16942224296E+03  0.22225415595E+03  0.12508901664E+03 0.  0.
          5    1    4    4  502    0  0.50506735189E+02 -0.69182473881E+02 -0.48101317134E+02  0.98327789062E+02  0.41800000000E+01 0.  1.
         -5    1    4    4    0  502 -0.24750909208E+02  0.29828608257E+01 -0.12132092583E+03  0.12392636689E+03  0.41800000000E+01 0.  1.
        -11    1    3    3    0    0  0.20805429432E+01  0.28910383957E+02 -0.87021869134E+02  0.91722105662E+02  0.00000000000E+00 0.  1.
         11    1    3    3    0    0 -0.27836368925E+02  0.37289229099E+02  0.98977748111E+01  0.47574320677E+02  0.00000000000E+00 0. -1.
</event>
<event>
 8    1  0.9181008E-006  0.1173248E+03  0.7561462E-02  0.1247577E+00
          2   -1    0    0  501    0  0.00000000000E+00  0.00000000000E+00  0.20261007063E+04  0.20261007063E+04  0.00000000000E+00 0. -1.
         -2   -1    0    0    0  501 -0.00000000000E+00 -0.00000000000E+00 -0.22614508836E+02  0.22614508836E+02  0.00000000000E+00 0.  1.
         23    2    1    2    0    0 -0.63904898209E+02  0.18547345332E+02  0.14013766379E+03  0.17998766907E+03  0.91264210789E+02 0.  0.
         23    2    1    2    0    0  0.63904898209E+02 -0.18547345332E+02  0.18633485337E+04  0.18687275461E+04  0.12508814269E+03 0.  0.
          5    1    4    4  502    0 -0.22059029798E+02 -0.32723440589E+02  0.26030643575E+03  0.26331414176E+03  0.41800000000E+01 0. -1.
         -5    1    4    4    0  502  0.85963928006E+02  0.14176095257E+02  0.16030420979E+04  0.16054134043E+04  0.41800000000E+01 0. -1.
        -11    1    3    3    0    0 -0.35703993131E+02  0.52570265611E+02  0.54912967898E+02  0.83987153752E+02  0.00000000000E+00 0.  1.
         11    1    3    3    0    0 -0.28200905078E+02 -0.34022920280E+02  0.85224695890E+02  0.96000515317E+02  0.00000000000E+00 0. -1.
</event>
<event>
 8    1  0.9181008E-006  0.1634217E+03  0.7561462E-02  0.1184887E+00
         -1   -1    0    0    0  501 -0.00000000000E+00  0.00000000000E+00  0.56508262272E+02  0.56508262272E+02  0.00000000000E+00 0.  1.
          1   -1    0    0  501    0  0.00000000000E+00 -0.00000000000E+00 -0.66680985070E+03  0.66680985070E+03  0.00000000000E+00 0. -1.
         23    2    1    2    0    0 -0.19602542492E+01  0.16003805128E+03 -0.30097720007E+03  0.35325655112E+03  0.92665503235E+02 0.  0.
         23    2    1    2    0    0  0.19602542492E+01 -0.16003805128E+03 -0.30932438836E+03  0.37006156186E+03  0.12509181380E+03 0.  0.
          5    1    4    4  502    0  0.21913927615E+02 -0.54090024776E+02 -0.20921281863E+02  0.62137938802E+02  0.41800000000E+01 0.  1.
         -5    1    4    4    0  502 -0.19953673366E+02 -0.10594802650E+03 -0.28840310650E+03  0.30792362306E+03  0.41800000000E+01 0.  1.
        -11    1    3    3    0    0 -0.64846705687E+01  0.73534835583E+02 -0.22909275031E+03  0.24069256582E+03  0.00000000000E+00 0. -1.
         11    1    3    3    0    0  0.45244163195E+01  0.86503215693E+02 -0.71884449767E+02  0.11256398530E+03  0.00000000000E+00 0.  1.
</event>
<event>
 8    1  0.9181008E-006  0.2346317E+03  0.7561462E-02  0.1123422E+00
          1   -1    0    0  501    0  0.00000000000E+00  0.00000000000E+00  0.11875732737E+04  0.11875732737E+04  0.00000000000E+00 0. -1.
         -1   -1    0    0    0  501 -0.00000000000E+00 -0.00000000000E+00 -0.49723524847E+02  0.49723524847E+02  0.00000000000E+00 0.  1.
         23    2    1    2    0    0 -0.57560048177E+02 -0.20099072099E+03  0.40040692749E+03  0.46065071889E+03  0.90349035196E+02 0.  0.
         23    2    1    2    0    0  0.57560048177E+02  0.20099072099E+03  0.73744282137E+03  0.77664607967E+03  0.12508712643E+03 0.  0.
          5    1    4    4  502    0  0.68173907190E+02  0.34142277358E+02  0.23734848955E+03  0.24932940985E+03  0.41800000000E+01 0. -1.
         -5    1    4    4    0  502 -0.10613859013E+02  0.16684844363E+03  0.50009433182E+03  0.52731666982E+03  0.41800000000E+01 0. -1.
        -11    1    3    3    0    0 -0.41269400758E+02 -0.23625152812E+02  0.60973432470E+02  0.77324451188E+02  0.00000000000E+00 0.  1.
         11    1    3    3    0    0 -0.16290647420E+02 -0.17736556818E+03  0.33943349502E+03  0.38332626771E+03  0.00000000000E+00 0. -1.
</event>
<event>
 8    1  0.9181008E-006  0.1201433E+03  0.7561462E-02  0.1242861E+00
         -1   -1    0    0    0  501 -0.00000000000E+00  0.00000000000E+00  0.13615279775E+03  0.13615279775E+03  0.00000000000E+00 0.  1.
          1   -1    0    0  501    0  0.00000000000E+00 -0.00000000000E+00 -0.14880253044E+03  0.14880253044E+03  0.00000000000E+00 0. -1.
         23    2    1    2    0    0  0.14993412475E+02 -0.65482224799E+02  0.56597916341E+02  0.12697884876E+03  0.91692855316E+02 0.  0.
         23    2    1    2    0    0 -0.14993412475E+02  0.65482224799E+02 -0.69247649037E+02  0.15797647943E+03  0.12509439226E+03 0.  0.
          5    1    4    4  502    0  0.40897550476E+02  0.74482823225E+02 -0.45080747590E+02  0.96281082222E+02  0.41800000000E+01 0.  1.
         -5    1    4    4    0  502 -0.55890962951E+02 -0.90005984262E+01 -0.24166901447E+02  0.61695397212E+02  0.41800000000E+01 0.  1.
        -11    1    3    3    0    0  0.44219881525E+02 -0.37405814052E+02  0.63412923658E+02  0.85882429715E+02  0.00000000000E+00 0. -1.
         11    1    3    3    0    0 -0.29226469050E+02 -0.28076410747E+02 -0.68150073168E+01  0.41096419044E+02  0.00000000000E+00 0.  1.
</event>
<event>
 8    1  0.9181008E-006  0.1863890E+03  0.7561462E-02  0.1161759E+00
         -1   -1    0    0    0  501 -0.00000000000E+00  0.00000000000E+00  0.13553241249E+03  0.13553241249E+03  0.00000000000E+00 0.  1.
          1   -1    0    0  501    0  0.00000000000E+00 -0.00000000000E+00 -0.34537802868E+03  0.34537802868E+03  0.00000000000E+00 0. -1.
         23    2    1    2    0    0 -0.15006827921E+03  0.94749179108E+02 -0.34357109573E+02  0.20173011096E+03  0.89536201193E+02 0.  0.
         23    2    1    2    0    0  0.15006827921E+03 -0.94749179108E+02 -0.17548850662E+03  0.27918033020E+03  0.12509014928E+03 0.  0.
          5    1    4    4  502    0  0.46837840956E+02  0.84885941532E+01 -0.10837893134E+03  0.11844536604E+03  0.41800000000E+01 0.  1.
         -5    1    4    4    0  502  0.10323043826E+03 -0.10323777326E+03 -0.67109575277E+02  0.16073496416E+03  0.41800000000E+01 0.  1.
        -11    1    3    3    0    0 -0.80184507038E+02  0.63978913287E+02  0.24327554884E+02  0.10542621325E+03  0.00000000000E+00 0.  1.
         11    1    3    3    0    0 -0.69883772175E+02  0.30770265821E+02 -0.58684664456E+02  0.96303897712E+02  0.00000000000E+00 0. -1.
</event>
<event>
 6    1  0.9181008E-006  0.8874448E+02  0.7561462E-02  0.1305921E+00
          2   -1    0    0  501    0  0.00000000000E+00  0.00000000000E+00  0.37033376479E+03  0.37033376479E+03  0.00000000000E+00 0. -1.
         -2   -1    0    0    0  501 -0.00000000000E+00 -0.00000000000E+00 -0.12707296627E+03  0.12707296627E+03  0.00000000000E+00 0.  1.
          5    1    1    2  502    0 -0.14889820765E+01 -0.96264612945E+01  0.21980059946E+03  0.22005604229E+03  0.41800000000E+01 0. -1.
         -5    1    1    2    0  502 -0.66144448606E+02 -0.20205538255E+01 -0.15949141808E+02  0.68198374200E+02  0.41800000000E+01 0.  1.
        -11    1    1    2    0    0  0.36944533223E+02  0.43012119081E+02 -0.70695982995E+02  0.90624847225E+02  0.00000000000E+00 0.  1.
         11    1    1    2    0    0  0.30688897459E+02 -0.31365103961E+02  0.11010532386E+03  0.11852746734E+03  0.00000000000E+00 0. -1.
</event>
<event>
 8    1  0.9181008E-006  0.6675312E+02  0.7561462E-02  0.1371496E+00
          1   -1    0    0  501    0  0.00000000000E+00  0.00000000000E+00  0.38445883026E+03  0.38445883026E+03  0.00000000000E+00 0.  1.
         -1   -1    0    0    0  501 -0.00000000000E+00 -0.00000000000E+00 -0.35666919932E+02  0.35666919932E+02  0.00000000000E+00 0. -1.
         23    2    1    2    0    0 -0.23797686714E+02 -0.34816931636E+02  0.14793616819E+03  0.17977452007E+03  0.93033432623E+02 0.  0.
         23    2    1    2    0    0  0.23797686714E+02  0.34816931636E+02  0.20085574214E+03  0.24035123012E+03  0.12508851286E+03 0.  0.
          5    1    4    4  502    0  0.89985427831E+01  0.36434401909E+01 -0.16848447398E+02  0.19889469786E+02  0.41800000000E+01 0. -1.
         -5    1    4    4    0  502  0.14799143931E+02  0.31173491445E+02  0.21770418953E+03  0.22046176034E+03  0.41800000000E+01 0. -1.
        -11    1    3    3    0    0 -0.38759119997E+02 -0.52343963270E+02  0.14162136194E+03  0.15588062751E+03  0.00000000000E+00 0.  1.
         11    1    3    3    0    0  0.14961433283E+02  0.17527031634E+02  0.63148062479E+01  0.23893892561E+02  0.00000000000E+00 0. -1.
</event>
<event>
 8    1  0.9181008E-006  0.1007287E+03  0.7561462E-02  0.1278771E+00
          1   -1    0    0  501    0  0.00000000000E+00  0.00000000000E+00  0.32879403147E+02  0.32879403147E+02  0.00000000000E+00 0. -1.
         -1   -1    0    0    0  501 -0.00000000000E+00 -0.00000000000E+00 -0.41280267516E+03  0.41280267516E+03  0.00000000000E+00 0.  1.
         23    2    1    2    0    0  0.19840438320E+02 -0.42521408354E+02 -0.19088148065E+03  0.21701142830E+03  0.91959269217E+02 0.  0.
         23    2    1    2    0    0 -0.19840438320E+02  0.42521408354E+02 -0.18904179136E+03  0.22867065001E+03  0.11979880689E+03 0.  0.
          5    1    4    4  502    0  0.21210128459E+02  0.51631264481E+02 -0.17563434957E+03  0.18433815169E+03  0.41800000000E+01 0. -1.
         -5    1    4    4    0  502 -0.41050566779E+02 -0.91098561267E+01 -0.13407441793E+02  0.44332498316E+02  0.41800000000E+01 0.  1.
        -11    1    3    3    0    0  0.23697352949E+02 -0.70813208244E+02 -0.13658884409E+03  0.15566819627E+03  0.00000000000E+00 0. -1.
         11    1    3    3    0    0 -0.38569146283E+01  0.28291799889E+02 -0.54292636555E+02  0.61343232027E+02  0.00000000000E+00 0.  1.
</event>
<event>
 7    1  0.9181008E-006  0.1292025E+03  0.7561462E-02  0.1228644E+00
          2   -1    0    0  501    0  0.00000000000E+00  0.00000000000E+00  0.48446195385E+03  0.48446195385E+03  0.00000000000E+00 0. -1.
         -2   -1    0    0    0  501 -0.00000000000E+00 -0.00000000000E+00 -0.72054495318E+02  0.72054495318E+02  0.00000000000E+00 0.  1.
         23    2    1    2    0    0 -0.19754607595E+02  0.22561273759E+02  0.10701866915E+03  0.14362646956E+03  0.90974236014E+02 0.  0.
          5    1    1    2  502    0 -0.16544893875E+02  0.84931728725E+02  0.28456954279E+03  0.29746332403E+03  0.41800000000E+01 0. -1.
         -5    1    1    2    0  502  0.36299501470E+02 -0.10749300248E+03  0.20819246600E+02  0.11542665558E+03  0.41800000000E+01 0.  1.
        -11    1    3    3    0    0 -0.13052746454E+02  0.38660123549E+02  0.61541462327E+01  0.41265637747E+02  0.00000000000E+00 0. -1.
         11    1    3    3    0    0 -0.67018611402E+01 -0.16098849790E+02  0.10086452291E+03  0.10236083181E+03  0.00000000000E+00 0.  1.
</event>
<event>
 8    1  0.9181008E-006  0.1127540E+03  0.7561462E-02  0.1255553E+00
          2   -1    0    0  501    0  0.00000000000E+00  0.00000000000E+00  0.13931646696E+03  0.13931646696E+03  0.00000000000E+00 0. -1.
         -2   -1    0    0    0  501 -0.00000000000E+00 -0.00000000000E+00 -0.13763911880E+03  0.13763911880E+03  0.00000000000E+00 0.  1.
         23    2    1    2    0    0 -0.44130348604E+02 -0.30458554184E+02 -0.67036436917E+02  0.12448945705E+03  0.90158359857E+02 0.  0.
         23    2    1    2    0    0  0.44130348604E+02  0.30458554184E+02  0.68713785076E+02  0.15246612870E+03  0.12509646258E+03 0.  0.
          5    1    4    4  502    0 -0.14340737695E+02 -0.33007350904E+02  0.53694598514E+02  0.64774410695E+02  0.41800000000E+01 0.  1.
         -5    1    4    4    0  502  0.58471086299E+02  0.63465905088E+02  0.15019186561E+02  0.87691718004E+02  0.41800000000E+01 0.  1.
        -11    1    3    3    0    0 -0.70257708693E+02 -0.12978072470E+02 -0.57285225937E+02  0.91576050944E+02  0.00000000000E+00 0.  1.
         11    1    3    3    0    0  0.26127360089E+02 -0.17480481714E+02 -0.97512109799E+01  0.32913406110E+02  0.00000000000E+00 0. -1.
</event>
<event>
 8    1  0.9181008E-006  0.9907944E+02  0.7561462E-02  0.1282244E+00
         -4   -1    0    0    0  501 -0.00000000000E+00  0.00000000000E+00  0.12662931374E+03  0.12662931374E+03  0.00000000000E+00 0.  1.
          4   -1    0    0  501    0  0.00000000000E+00 -0.00000000000E+00 -0.98245968138E+02  0.98245968138E+02  0.00000000000E+00 0. -1.
         23    2    1    2    0    0 -0.14412990048E+02  0.19195141537E+02  0.23480466928E+02  0.97406871091E+02  0.91436198892E+02 0.  0.
         23    2    1    2    0    0  0.14412990048E+02 -0.19195141537E+02  0.49028786784E+01  0.12746841079E+03  0.12509184542E+03 0.  0.
          5    1    4    4  502    0  0.54306153406E+02 -0.31477751128E+02  0.38472540015E+02  0.73740191545E+02  0.41800000000E+01 0.  1.
         -5    1    4    4    0  502 -0.39893163359E+02  0.12282609590E+02 -0.33569661336E+02  0.53728219246E+02  0.41800000000E+01 0.  1.
        -11    1    3    3    0    0 -0.25462700700E+02  0.52425057526E+02  0.69889475801E+01  0.58699073007E+02  0.00000000000E+00 0.  1.
         11    1    3    3    0    0  0.11049710652E+02 -0.33229915989E+02  0.16491519348E+02  0.38707798085E+02  0.00000000000E+00 0. -1.
</event>
<event>
 8    1  0.9181008E-006  0.1140562E+03  0.7561462E-02  0.1253238E+00
          2   -1    0    0  501    0  0.00000000000E+00  0.00000000000E+00  0.38106015123E+03  0.38106015123E+03  0.00000000000E+00 0. -1.
         -2   -1    0    0    0  501 -0.00000000000E+00 -0.00000000000E+00 -0.48837690580E+02  0.48837690580E+02  0.00000000000E+00 0.  1.
         23    2    1    2    0    0  0.28625191222E+02  0.77855522086E+02  0.89991789722E+02  0.14493133656E+03  0.77625293613E+02 0.  0.
         23    2    1    2    0    0 -0.28625191222E+02 -0.77855522086E+02  0.24223067093E+03  0.28496650525E+03  0.12509727129E+03 0.  0.
          5    1    4    4  502    0  0.56337837719E+01  0.28721827827E+02  0.97864644432E+02  0.10223328197E+03  0.41800000000E+01 0.  1.
         -5    1    4    4    0  502 -0.34258974994E+02 -0.10657734991E+03  0.14436602650E+03  0.18273322327E+03  0.41800000000E+01 0.  1.
        -11    1    3    3    0    0  0.53027365853E+01  0.49599217972E+02  0.23473124680E+01  0.49937073548E+02  0.00000000000E+00 0.  1.
         11    1    3    3    0    0  0.23322454637E+02  0.28256304114E+02  0.87644477254E+02  0.94994263014E+02  0.00000000000E+00 0. -1.
</event>
<event>
 8    1  0.9181008E-006  0.1074247E+03  0.7561462E-02  0.1265415E+00
          3   -1    0    0  501    0  0.00000000000E+00  0.00000000000E+00  0.12419469182E+03  0.12419469182E+03  0.00000000000E+00 0. -1.
         -3   -1    0    0    0  501 -0.00000000000E+00 -0.00000000000E+00 -0.13445257592E+03  0.13445257592E+03  0.00000000000E+00 0.  1.
         23    2    1    2    0    0  0.44494054007E+02 -0.14858571632E+01 -0.60873189629E+02  0.11655187691E+03  0.88864313319E+02 0.  0.
         23    2    1    2    0    0 -0.44494054007E+02  0.14858571632E+01  0.50615305522E+02  0.14209539084E+03  0.12508901762E+03 0.  0.
          5    1    4    4  502    0 -0.63617737973E+02  0.41146503689E+02  0.60176974995E+02  0.96845196423E+02  0.41800000000E+01 0.  1.
         -5    1    4    4    0  502  0.19123683965E+02 -0.39660646526E+02 -0.95616694735E+01  0.45250194412E+02  0.41800000000E+01 0.  1.
        -11    1    3    3    0    0  0.22200519079E+02 -0.42562687018E+02 -0.13190184431E+02  0.49783795947E+02  0.00000000000E+00 0. -1.
         11    1    3    3    0    0  0.22293534929E+02  0.41076829855E+02 -0.47683005197E+02  0.66768080961E+02  0.00000000000E+00 0.  1.
</event>
<event>
 8    1  0.9181008E-006  0.1124706E+03  0.7561462E-02  0.1256062E+00
         -1   -1    0    0    0  501 -0.00000000000E+00  0.00000000000E+00  0.45830193865E+02  0.45830193865E+02  0.00000000000E+00 0.  1.
          1   -1    0    0  501    0  0.00000000000E+00 -0.00000000000E+00 -0.34108594316E+03  0.34108594316E+03  0.00000000000E+00 0. -1.
         23    2    1    2    0    0 -0.35725131792E+02 -0.17729051304E+02 -0.79746586467E+02  0.13456282258E+03  0.10078209596E+03 0.  0.
         23    2    1    2    0    0  0.35725131792E+02  0.17729051304E+02 -0.21550916283E+03  0.25235331444E+03  0.12508953491E+03 0.  0.
          5    1    4    4  502    0  0.61242268533E+02 -0.30231985108E+02 -0.74356674555E+02  0.10104937323E+03  0.41800000000E+01 0.  1.
         -5    1    4    4    0  502 -0.25517136741E+02  0.47961036412E+02 -0.14115248827E+03  0.15130394122E+03  0.41800000000E+01 0.  1.
        -11    1    3    3    0    0  0.20097877680E+00 -0.52223107686E+02 -0.63410295300E+02  0.82147178399E+02  0.00000000000E+00 0. -1.
         11    1    3    3    0    0 -0.35926110569E+02  0.34494056382E+02 -0.16336291167E+02  0.52415644185E+02  0.00000000000E+00 0.  1.
</event>
<event>
 8    1  0.9181008E-006  0.1230274E+03  0.7561462E-02  0.1238185E+00
         -3   -1    0    0    0  501 -0.00000000000E+00  0.00000000000E+00  0.28598739083E+03  0.28598739083E+03  0.00000000000E+00 0.  1.
          3   -1    0    0  501    0  0.00000000000E+00 -0.00000000000E+00 -0.90645319163E+02  0.90645319163E+02  0.00000000000E+00 0. -1.
         23    2    1    2    0    0 -0.70987247669E+02  0.55541677966E+02  0.18025496574E+03  0.22171674656E+03  0.92425081583E+02 0.  0.
         23    2    1    2    0    0  0.70987247669E+02 -0.55541677966E+02  0.15087105925E+02  0.15491596344E+03  0.12508903885E+03 0.  0.
          5    1    4    4  502    0  0.18389847909E+02 -0.61067576382E+02 -0.42393555440E+02  0.76694988976E+02  0.41800000000E+01 0.  1.
         -5    1    4    4    0  502  0.52597399760E+02  0.55258984155E+01  0.57480661365E+02  0.78220974462E+02  0.41800000000E+01 0.  1.
        -11    1    3    3    0    0 -0.93206956552E+02  0.37500531085E+02  0.13919595025E+03  0.17166635998E+03  0.00000000000E+00 0.  1.
         11    1    3    3    0    0  0.22219708883E+02  0.18041146882E+02  0.41059015493E+02  0.50050386581E+02  0.00000000000E+00 0. -1.
</event>
<event>
 8    1  0.9181008E-006  0.6189330E+02  0.7561462E-02  0.1390054E+00
         -2   -1    0    0    0  501 -0.00000000000E+00  0.00000000000E+00  0.36094822323E+02  0.36094822323E+02  0.00000000000E+00 0.  1.
          2   -1    0    0  501    0  0.00000000000E+00 -0.00000000000E+00 -0.35894526648E+03  0.35894526648E+03  0.00000000000E+00 0. -1.
         23    2    1    2    0    0  0.20304043978E+02 -0.19615832640E+02 -0.10317216174E+03  0.14067170637E+03  0.91361911768E+02 0.  0.
         23    2    1    2    0    0 -0.20304043978E+02  0.19615832640E+02 -0.21967828242E+03  0.25436838244E+03  0.12509073157E+03 0.  0.
          5    1    4    4  502    0 -0.36619097961E+01  0.10086946799E+02  0.14977476768E+02  0.18893207494E+02  0.41800000000E+01 0.  1.
         -5    1    4    4    0  502 -0.16642134182E+02  0.95288858404E+01 -0.23465575918E+03  0.23547517494E+03  0.41800000000E+01 0.  1.
        -11    1    3    3    0    0  0.10531660506E+02  0.35313740367E+02 -0.24604822239E+02  0.44309969636E+02  0.00000000000E+00 0.  1.
         11    1    3    3    0    0  0.97723834724E+01 -0.54929573007E+02 -0.78567339500E+02  0.96361736730E+02  0.00000000000E+00 0. -1.
</event>
<event>
 8    1  0.9181008E-006  0.1092577E+03  0.7561462E-02  0.1261951E+00
          1   -1    0    0  501    0  0.00000000000E+00  0.00000000000E+00  0.28673985199E+03  0.28673985199E+03  0.00000000000E+00 0. -1.
         -1   -1    0    0    0  501 -0.00000000000E+00 -0.00000000000E+00 -0.89716075518E+02  0.89716075518E+02  0.00000000000E+00 0.  1.
         23    2    1    2    0    0  0.14525704451E+02  0.15425621165E+02 -0.44741582314E+02  0.10342423387E+03  0.90806481513E+02 0.  0.
         23    2    1    2    0    0 -0.14525704451E+02 -0.15425621165E+02  0.24176535879E+03  0.27303169365E+03  0.12508745399E+03 0.  0.
          5    1    4    4  502    0 -0.29119138843E+02  0.50893276743E+02  0.10819281791E+03  0.12313085768E+03  0.41800000000E+01 0. -1.
         -5    1    4    4    0  502  0.14593434392E+02 -0.66318897908E+02  0.13357254088E+03  0.14990083597E+03  0.41800000000E+01 0. -1.
        -11    1    3    3    0    0 -0.32519198285E+02  0.28097096613E+02 -0.30381217699E+02  0.52630442560E+02  0.00000000000E+00 0.  1.
         11    1    3    3    0    0  0.47044902736E+02 -0.12671475448E+02 -0.14360364615E+02  0.50793791307E+02  0.00000000000E+00 0. -1.
</event>
<event>
 8    1  0.9181008E-006  0.1900934E+03  0.7561462E-02  0.1158377E+00
         -2   -1    0    0    0  501 -0.00000000000E+00  0.00000000000E+00  0.27140361186E+02  0.27140361186E+02  0.00000000000E+00 0.  1.
          2   -1    0    0  501    0  0.00000000000E+00 -0.00000000000E+00 -0.18223035019E+04  0.18223035019E+04  0.00000000000E+00 0. -1.
         23    2    1    2    0    0 -0.13937055449E+03  0.10204742770E+03 -0.48455947126E+03  0.52160076422E+03  0.86207001350E+02 0.  0.
         23    2    1    2    0    0  0.13937055449E+03 -0.10204742770E+03 -0.13106036695E+04  0.13278430989E+04  0.12508991918E+03 0.  0.
          5    1    4    4  502    0  0.14467362268E+03 -0.10897873897E+03 -0.95069455365E+03  0.96780392094E+03  0.41800000000E+01 0.  1.
         -5    1    4    4    0  502 -0.53030681933E+01  0.69313112649E+01 -0.35990911585E+03  0.36003917798E+03  0.41800000000E+01 0.  1.
        -11    1    3    3    0    0 -0.50745333896E+02  0.85134364592E+02 -0.30409815452E+03  0.31984158037E+03  0.00000000000E+00 0.  1.
         11    1    3    3    0    0 -0.88625220590E+02  0.16913063112E+02 -0.18046131674E+03  0.20175918385E+03  0.00000000000E+00 0. -1.
</event>
<event>
 8    1  0.9181008E-006  0.9726223E+02  0.7561462E-02  0.1286161E+00
         -1   -1    0    0    0  501 -0.00000000000E+00  0.00000000000E+00  0.18395382940E+03  0.18395382940E+03  0.00000000000E+00 0. -1.
          1   -1    0    0  501    0  0.00000000000E+00 -0.00000000000E+00 -0.86972244777E+02  0.86972244777E+02  0.00000000000E+00 0.  1.
         23    2    1    2    0    0  0.87817453575E+00  0.43388489775E+02  0.93581095428E+02  0.13847918420E+03  0.92389018832E+02 0.  0.
         23    2    1    2    0    0 -0.87817453575E+00 -0.43388489775E+02  0.34004891921E+01  0.13244688997E+03  0.12508910065E+03 0.  0.
          5    1    4    4  502    0 -0.40621126767E+02 -0.28536833025E+02 -0.45571378502E+02  0.67517773346E+02  0.41800000000E+01 0. -1.
         -5    1    4    4    0  502  0.39742952231E+02 -0.14851656750E+02  0.48971867694E+02  0.64929116626E+02  0.41800000000E+01 0. -1.
        -11    1    3    3    0    0 -0.29887791284E+02 -0.16938481529E+02  0.31738394948E+02  0.46770909102E+02  0.00000000000E+00 0. -1.
         11    1    3    3    0    0  0.30765965820E+02  0.60326971304E+02  0.61842700479E+02  0.91708275102E+02  0.00000000000E+00 0.  1.
</event>
<event>
 8    1  0.9181008E-006  0.1164836E+03  0.7561462E-02  0.1249013E+00
         -2   -1    0    0    0  501 -0.00000000000E+00  0.00000000000E+00  0.15010789915E+02  0.15010789915E+02  0.00000000000E+00 0.  1.
          2   -1    0    0  501    0  0.00000000000E+00 -0.00000000000E+00 -0.11485352450E+04  0.11485352450E+04  0.00000000000E+00 0. -1.
         23    2    1    2    0    0 -0.75687128046E+02 -0.13633334493E+02 -0.38212845182E+03  0.39792767559E+03  0.80061677160E+02 0.  0.
         23    2    1    2    0    0  0.75687128046E+02  0.13633334493E+02 -0.75139600324E+03  0.76561835930E+03  0.12514435365E+03 0.  0.
          5    1    4    4  502    0  0.10305834237E+03  0.12757193417E+02 -0.40520873925E+03  0.41832447058E+03  0.41800000000E+01 0.  1.
         -5    1    4    4    0  502 -0.27371214328E+02  0.87614107547E+00 -0.34618726399E+03  0.34729388872E+03  0.41800000000E+01 0.  1.
        -11    1    3    3    0    0 -0.72963869426E+01 -0.30115619389E+02 -0.53252462865E+02  0.61611789414E+02  0.00000000000E+00 0.  1.
         11    1    3    3    0    0 -0.68390741103E+02  0.16482284896E+02 -0.32887598896E+03  0.33631588618E+03  0.00000000000E+00 0. -1.
</event>
<event>
 8    1  0.9181008E-006  0.7397143E+02  0.7561462E-02  0.1347086E+00
         -2   -1    0    0    0  501 -0.00000000000E+00  0.00000000000E+00  0.10803715860E+03  0.10803715860E+03  0.00000000000E+00 0.  1.
          2   -1    0    0  501    0  0.00000000000E+00 -0.00000000000E+00 -0.18767207509E+03  0.18767207509E+03  0.00000000000E+00 0. -1.
         23    2    1    2    0    0  0.17559083829E+00  0.57137064336E+01  0.53244541136E+02  0.11312259621E+03  0.99644685449E+02 0.  0.
         23    2    1    2    0    0 -0.17559083829E+00 -0.57137064336E+01 -0.13287945763E+03  0.18258663748E+03  0.12509297604E+03 0.  0.
          5    1    4    4  502    0  0.32269172838E+02  0.31044548146E+02 -0.12488355852E+03  0.13273446830E+03  0.41800000000E+01 0. -1.
         -5    1    4    4    0  502 -0.32444763676E+02 -0.36758254580E+02 -0.79958991006E+01  0.49852169182E+02  0.41800000000E+01 0. -1.
        -11    1    3    3    0    0 -0.25050919827E+01 -0.23898888897E+02  0.73378831070E+02  0.77213245144E+02  0.00000000000E+00 0.  1.
         11    1    3    3    0    0  0.26806828210E+01  0.29612595331E+02 -0.20134289934E+02  0.35909351063E+02  0.00000000000E+00 0. -1.
</event>
<event>
 8    1  0.9181008E-006  0.1055875E+03  0.7561462E-02  0.1268966E+00
         -2   -1    0    0    0  501 -0.00000000000E+00  0.00000000000E+00  0.35122217629E+02  0.35122217629E+02  0.00000000000E+00 0.  1.
          2   -1    0    0  501    0  0.00000000000E+00 -0.00000000000E+00 -0.43615990077E+03  0.43615990077E+03  0.00000000000E+00 0. -1.
         23    2    1    2    0    0 -0.53048077766E+02 -0.12816332812E+02 -0.13537975882E+03  0.17261677419E+03  0.92143988903E+02 0.  0.
         23    2    1    2    0    0  0.53048077766E+02  0.12816332812E+02 -0.26565792432E+03  0.29866534421E+03  0.12509395724E+03 0.  0.
          5    1    4    4  502    0 -0.48945546525E+01 -0.46264045004E+02 -0.54180682524E+02  0.71535566567E+02  0.41800000000E+01 0. -1.
         -5    1    4    4    0  502  0.57942632418E+02  0.59080377817E+02 -0.21147724179E+03  0.22712977764E+03  0.41800000000E+01 0. -1.
        -11    1    3    3    0    0 -0.65120100729E+02 -0.19280648430E+02 -0.14200112568E+03  0.15740613272E+03  0.00000000000E+00 0. -1.
         11    1    3    3    0    0  0.12072022963E+02  0.64643156172E+01  0.66213668593E+01  0.15210641469E+02  0.00000000000E+00 0.  1.
</event>
<event>
 8    1  0.9181008E-006  0.9165433E+02  0.7561462E-02  0.1298894E+00
         -2   -1    0    0    0  501 -0.00000000000E+00  0.00000000000E+00  0.26314735621E+02  0.26314735621E+02  0.00000000000E+00 0.  1.
          2   -1    0    0  501    0  0.00000000000E+00 -0.00000000000E+00 -0.41427599499E+03  0.41427599499E+03  0.00000000000E+00 0. -1.
         23    2    1    2    0    0  0.14485030799E+01 -0.10738912227E+02 -0.15284187566E+03  0.17404692545E+03  0.82548597241E+02 0.  0.
         23    2    1    2    0    0 -0.14485030799E+01  0.10738912227E+02 -0.23511938371E+03  0.26654380516E+03  0.12508818121E+03 0.  0.
          5    1    4    4  502    0 -0.38862096741E+02 -0.38368676380E+02 -0.62153257408E+02  0.82842728689E+02  0.41800000000E+01 0. -1.
         -5    1    4    4    0  502  0.37413593662E+02  0.49107588607E+02 -0.17296612630E+03  0.18370107647E+03  0.41800000000E+01 0. -1.
        -11    1    3    3    0    0 -0.18044611281E+02  0.22063523224E+02 -0.12111172176E+03  0.12442048143E+03  0.00000000000E+00 0. -1.
         11    1    3    3    0    0  0.19493114361E+02 -0.32802435452E+02 -0.31730153905E+02  0.49626444018E+02  0.00000000000E+00 0.  1.
</event>
<event>
 7    1  0.9181008E-006  0.1334452E+03  0.7561462E-02  0.1222431E+00
          2   -1    0    0  501    0  0.00000000000E+00  0.00000000000E+00  0.17610653391E+04  0.17610653391E+04  0.00000000000E+00 0. -1.
         -2   -1    0    0    0  501 -0.00000000000E+00 -0.00000000000E+00 -0.16180705464E+02  0.16180705464E+02  0.00000000000E+00 0.  1.
         23    2    1    2    0    0  0.78693498817E+01 -0.53762706311E+02  0.41090371880E+03  0.42407592726E+03  0.89700449810E+02 0.  0.
          5    1    1    2  502    0  0.17923380678E+02  0.10839306047E+03  0.12120786378E+04  0.12170548055E+04  0.41800000000E+01 0. -1.
         -5    1    1    2    0  502 -0.25792730560E+02 -0.54630354157E+02  0.12190227704E+03  0.13611531175E+03  0.41800000000E+01 0.  1.
        -11    1    3    3    0    0  0.23441663617E+02  0.13700300041E+02  0.53145648570E+02  0.59679726677E+02  0.00000000000E+00 0. -1.
         11    1    3    3    0    0 -0.15572313735E+02 -0.67463006351E+02  0.35775807023E+03  0.36439620058E+03  0.00000000000E+00 0.  1.
</event>
<event>
 8    1  0.9181008E-006  0.9431392E+02  0.7561462E-02  0.1292729E+00
          1   -1    0    0  501    0  0.00000000000E+00  0.00000000000E+00  0.10745265833E+03  0.10745265833E+03  0.00000000000E+00 0. -1.
         -1   -1    0    0    0  501 -0.00000000000E+00 -0.00000000000E+00 -0.12738999881E+03  0.12738999881E+03  0.00000000000E+00 0.  1.
         23    2    1    2    0    0  0.32021786096E+02  0.18925595909E+02  0.13530702945E+02  0.10010577204E+03  0.91948424174E+02 0.  0.
         23    2    1    2    0    0 -0.32021786096E+02 -0.18925595909E+02 -0.33468043421E+02  0.13473688510E+03  0.12510134017E+03 0.  0.
          5    1    4    4  502    0 -0.11081028860E+02 -0.50656110559E+02  0.30428877618E+02  0.60267899670E+02  0.41800000000E+01 0. -1.
         -5    1    4    4    0  502 -0.20940757236E+02  0.31730514649E+02 -0.63896921039E+02  0.74468985435E+02  0.41800000000E+01 0. -1.
        -11    1    3    3    0    0 -0.22071214998E+02  0.35484135658E+02 -0.61700886405E+00  0.41792859615E+02  0.00000000000E+00 0. -1.
         11    1    3    3    0    0  0.54093001094E+02 -0.16558539749E+02  0.14147711809E+02  0.58312912424E+02  0.00000000000E+00 0.  1.
</event>
<event>
 8    1  0.9181008E-006  0.1122630E+03  0.7561462E-02  0.1256436E+00
         -2   -1    0    0    0  501 -0.00000000000E+00  0.00000000000E+00  0.46562642161E+02  0.46562642161E+02  0.00000000000E+00 0.  1.
          2   -1    0    0  501    0  0.00000000000E+00 -0.00000000000E+00 -0.37786017906E+03  0.37786017906E+03  0.00000000000E+00 0. -1.
         23    2    1    2    0    0 -0.23718555462E+02 -0.50015485811E+02 -0.63678075405E+02  0.12386963488E+03  0.90689968932E+02 0.  0.
         23    2    1    2    0    0  0.23718555462E+02  0.50015485811E+02 -0.26761946150E+03  0.30055318634E+03  0.12509165821E+03 0.  0.
          5    1    4    4  502    0 -0.30253107878E+02  0.59836702890E+02 -0.21171246218E+03  0.22211555684E+03  0.41800000000E+01 0.  1.
         -5    1    4    4    0  502  0.53971663340E+02 -0.98212170786E+01 -0.55906999320E+02  0.78437629500E+02  0.41800000000E+01 0.  1.
        -11    1    3    3    0    0 -0.21249336227E+02 -0.74627337657E+02 -0.61552928426E+02  0.99043105836E+02  0.00000000000E+00 0.  1.
         11    1    3    3    0    0 -0.24692192353E+01  0.24611851845E+02 -0.21251469786E+01  0.24826529048E+02  0.00000000000E+00 0. -1.
</event>
<event>
 8    1  0.9181008E-006  0.1023150E+03  0.7561462E-02  0.1275502E+00
         -2   -1    0    0    0  501 -0.00000000000E+00  0.00000000000E+00  0.27249698996E+02  0.27249698996E+02  0.00000000000E+00 0.  1.
          2   -1    0    0  501    0  0.00000000000E+00 -0.00000000000E+00 -0.56330278296E+03  0.56330278296E+03  0.00000000000E+00 0. -1.
         23    2    1    2    0    0 -0.15801664131E+02 -0.59809330916E+02 -0.22379837009E+03  0.24853387758E+03  0.88637064466E+02 0.  0.
         23    2    1    2    0    0  0.15801664131E+02  0.59809330916E+02 -0.31225471387E+03  0.34201860437E+03  0.12508745240E+03 0.  0.
          5    1    4    4  502    0 -0.32735580401E+02  0.12575037686E+02 -0.24118582780E+03  0.24375771932E+03  0.41800000000E+01 0.  1.
         -5    1    4    4    0  502  0.48537244532E+02  0.47234293230E+02 -0.71068886075E+02  0.98260885054E+02  0.41800000000E+01 0.  1.
        -11    1    3    3    0    0  0.31527103703E+02 -0.10797764420E+02 -0.37501256761E+02  0.50168657975E+02  0.00000000000E+00 0.  1.
         11    1    3    3    0    0 -0.47328767834E+02 -0.49011566495E+02 -0.18629711333E+03  0.19836521961E+03  0.00000000000E+00 0. -1.
</event>
<event>
 8    1  0.9181008E-006  0.1103383E+03  0.7561462E-02  0.1259945E+00
         -1   -1    0    0    0  501 -0.00000000000E+00  0.00000000000E+00  0.22200274701E+02  0.22200274701E+02  0.00000000000E+00 0.  1.
          1   -1    0    0  501    0  0.00000000000E+00 -0.00000000000E+00 -0.80575399381E+03  0.80575399381E+03  0.00000000000E+00 0. -1.
         23    2    1    2    0    0  0.36592994797E+02  0.44020448539E+02 -0.17458131040E+03  0.20363771835E+03  0.87822771737E+02 0.  0.
         23    2    1    2    0    0 -0.36592994797E+02 -0.44020448539E+02 -0.60897240871E+03  0.62431655016E+03  0.12508762161E+03 0.  0.
          5    1    4    4  502    0  0.36830972918E+02  0.17988073755E+02 -0.16883569651E+03  0.17379026491E+03  0.41800000000E+01 0.  1.
         -5    1    4    4    0  502 -0.73423967715E+02 -0.62008522294E+02 -0.44013671220E+03  0.45052628525E+03  0.41800000000E+01 0.  1.
        -11    1    3    3    0    0 -0.42095394786E+01 -0.12716010779E+02  0.21726625964E+01  0.13569731594E+02  0.00000000000E+00 0.  1.
         11    1    3    3    0    0  0.40802534275E+02  0.56736459318E+02 -0.17675397299E+03  0.19006798675E+03  0.00000000000E+00 0. -1.
</event>
<event>
 8    1  0.9181008E-006  0.9097294E+02  0.7561462E-02  0.1300513E+00
         -1   -1    0    0    0  501 -0.00000000000E+00  0.00000000000E+00  0.21492386541E+03  0.21492386541E+03  0.00000000000E+00 0.  1.
          1   -1    0    0  501    0  0.00000000000E+00 -0.00000000000E+00 -0.14006047048E+03  0.14006047048E+03  0.00000000000E+00 0. -1.
         23    2    1    2    0    0 -0.48176046007E+02  0.20454849921E+02  0.16776333288E+03  0.19655089676E+03  0.88024921823E+02 0.  0.
         23    2    1    2    0    0  0.48176046007E+02 -0.20454849921E+02 -0.92899937956E+02  0.15843343913E+03  0.11718115833E+03 0.  0.
          5    1    4    4  502    0  0.67447543058E+02 -0.52783285977E+02 -0.82895716325E+02  0.11926616674E+03  0.41800000000E+01 0. -1.
         -5    1    4    4    0  502 -0.19271497050E+02  0.32328436055E+02 -0.10004221630E+02  0.39167272394E+02  0.41800000000E+01 0.  1.
        -11    1    3    3    0    0 -0.56814802554E+01  0.14305749814E+02 -0.67685208463E+01  0.16815069732E+02  0.00000000000E+00 0. -1.
         11    1    3    3    0    0 -0.42494565752E+02  0.61491001072E+01  0.17453185373E+03  0.17973582702E+03  0.00000000000E+00 0.  1.
</event>
<event>
 8    1  0.9181008E-006  0.1102685E+03  0.7561462E-02  0.1260073E+00
         -2   -1    0    0    0  501 -0.00000000000E+00  0.00000000000E+00  0.12248632241E+02  0.12248632241E+02  0.00000000000E+00 0.  1.
          2   -1    0    0  501    0  0.00000000000E+00 -0.00000000000E+00 -0.13949003336E+04  0.13949003336E+04  0.00000000000E+00 0. -1.
         23    2    1    2    0    0 -0.24213004588E+02 -0.54163013759E+02 -0.38117151624E+03  0.39614382687E+03  0.90101637738E+02 0.  0.
         23    2    1    2    0    0  0.24213004588E+02  0.54163013759E+02 -0.10014801852E+04  0.10110051390E+04  0.12509567616E+03 0.  0.
          5    1    4    4  502    0  0.62251780903E+02  0.30082228683E+02 -0.85264528830E+03  0.85545408104E+03  0.41800000000E+01 0. -1.
         -5    1    4    4    0  502 -0.38038776315E+02  0.24080785076E+02 -0.14883489687E+03  0.15555105798E+03  0.41800000000E+01 0. -1.
        -11    1    3    3    0    0 -0.45925080087E+02  0.18720523030E+01 -0.20198807622E+03  0.20715163648E+03  0.00000000000E+00 0. -1.
         11    1    3    3    0    0  0.21712075499E+02 -0.56035066062E+02 -0.17918344002E+03  0.18899219039E+03  0.00000000000E+00 0.  1.
</event>
<event>
 8    1  0.9181008E-006  0.1309671E+03  0.7561462E-02  0.1226028E+00
          2   -1    0    0  501    0  0.00000000000E+00  0.00000000000E+00  0.76156015088E+03  0.76156015088E+03  0.00000000000E+00 0. -1.
         -2   -1    0    0    0  501 -0.00000000000E+00 -0.00000000000E+00 -0.27924305673E+02  0.27924305673E+02  0.00000000000E+00 0.  1.
         23    2    1    2    0    0  0.50398919699E+02 -0.80346486034E+02  0.27327199725E+03  0.30309062413E+03  0.90502668634E+02 0.  0.
         23    2    1    2    0    0 -0.50398919699E+02  0.80346486034E+02  0.46036384795E+03  0.48639383242E+03  0.12509387990E+03 0.  0.
          5    1    4    4  502    0 -0.20822891328E+02  0.10982612436E+03  0.28715786882E+03  0.30817606075E+03  0.41800000000E+01 0.  1.
         -5    1    4    4    0  502 -0.29576028371E+02 -0.29479638329E+02  0.17320597913E+03  0.17821777166E+03  0.41800000000E+01 0.  1.
        -11    1    3    3    0    0  0.57789506006E+02 -0.48594968461E+02  0.92507396909E+02  0.11940986746E+03  0.00000000000E+00 0.  1.
         11    1    3    3    0    0 -0.73905863071E+01 -0.31751517573E+02  0.18076460034E+03  0.18368075667E+03  0.00000000000E+00 0. -1.
</event>
<event>
 8    1  0.9181008E-006  0.1289416E+03  0.7561462E-02  0.1229035E+00
         -1   -1    0    0    0  501 -0.00000000000E+00  0.00000000000E+00  0.57497817859E+02  0.57497817859E+02  0.00000000000E+00 0.  1.
          1   -1    0    0  501    0  0.00000000000E+00 -0.00000000000E+00 -0.43625514526E+03  0.43625514526E+03  0.00000000000E+00 0. -1.
         23    2    1    2    0    0 -0.58763621434E+02  0.10097998417E+03 -0.14077918144E+03  0.20487673269E+03  0.92225686573E+02 0.  0.
         23    2    1    2    0    0  0.58763621434E+02 -0.10097998417E+03 -0.23797814595E+03  0.28887623043E+03  0.11474213762E+03 0.  0.
          5    1    4    4  502    0  0.71118927296E+02 -0.10238574821E+03 -0.24431002453E+03  0.27430932129E+03  0.41800000000E+01 0. -1.
         -5    1    4    4    0  502 -0.12355305862E+02  0.14057640450E+01  0.63318785803E+01  0.14566909139E+02  0.41800000000E+01 0.  1.
        -11    1    3    3    0    0 -0.58798183343E+02  0.81206303865E+02 -0.50123308325E+02  0.11208941158E+03  0.00000000000E+00 0.  1.
         11    1    3    3    0    0  0.34561909421E-01  0.19773680301E+02 -0.90655873118E+02  0.92787321106E+02  0.00000000000E+00 0. -1.
</event>
<event>
 8    1  0.9181008E-006  0.1044328E+03  0.7561462E-02  0.1271241E+00
          1   -1    0    0  501    0  0.00000000000E+00  0.00000000000E+00  0.41774447465E+03  0.41774447465E+03  0.00000000000E+00 0. -1.
         -1   -1    0    0    0  501 -0.00000000000E+00 -0.00000000000E+00 -0.31029869386E+02  0.31029869386E+02  0.00000000000E+00 0.  1.
         23    2    1    2    0    0 -0.74184002361E+00 -0.33654008374E+01  0.96398782071E+02  0.13263695702E+03  0.91038238846E+02 0.  0.
         23    2    1    2    0    0  0.74184002361E+00  0.33654008374E+01  0.29031582319E+03  0.31613738702E+03  0.12509074317E+03 0.  0.
          5    1    4    4  502    0  0.50605207844E+02 -0.35104502843E+02  0.15431555334E+03  0.16620461962E+03  0.41800000000E+01 0.  1.
         -5    1    4    4    0  502 -0.49863367820E+02  0.38469903681E+02  0.13600026985E+03  0.14993276740E+03  0.41800000000E+01 0.  1.
        -11    1    3    3    0    0 -0.32775217267E+02 -0.28395654600E+02  0.23891806519E+02  0.49511074375E+02  0.00000000000E+00 0.  1.
         11    1    3    3    0    0  0.32033377243E+02  0.25030253763E+02  0.72506975553E+02  0.83125882641E+02  0.00000000000E+00 0. -1.
</event>
<event>
 8    1  0.9181008E-006  0.9766708E+02  0.7561462E-02  0.1285280E+00
         -2   -1    0    0    0  501 -0.00000000000E+00  0.00000000000E+00  0.17932175758E+02  0.17932175758E+02  0.00000000000E+00 0.  1.
          2   -1    0    0  501    0  0.00000000000E+00 -0.00000000000E+00 -0.10005990914E+04  0.10005990914E+04  0.00000000000E+00 0. -1.
         23    2    1    2    0    0  0.22832856379E+02 -0.14010480609E+02 -0.16793071770E+03  0.19381648211E+03  0.92986396295E+02 0.  0.
         23    2    1    2    0    0 -0.22832856379E+02  0.14010480609E+02 -0.81473619796E+03  0.82471478506E+03  0.12506706812E+03 0.  0.
          5    1    4    4  502    0 -0.57138134758E+02 -0.35594231012E+02 -0.42986242147E+03  0.43512169506E+03  0.41800000000E+01 0. -1.
         -5    1    4    4    0  502  0.34305278379E+02  0.49604711622E+02 -0.38487377650E+03  0.38959309000E+03  0.41800000000E+01 0. -1.
        -11    1    3    3    0    0  0.19650538438E+02  0.23018158903E+02 -0.10463493608E+02  0.32022866809E+02  0.00000000000E+00 0.  1.
         11    1    3    3    0    0  0.31823179411E+01 -0.37028639512E+02 -0.15746722409E+03  0.16179361531E+03  0.00000000000E+00 0. -1.
</event>
<event>
 8    1  0.9181008E-006  0.1197889E+03  0.7561462E-02  0.1243446E+00
          1   -1    0    0  501    0  0.00000000000E+00  0.00000000000E+00  0.33922706193E+03  0.33922706193E+03  0.00000000000E+00 0. -1.
         -1   -1    0    0    0  501 -0.00000000000E+00 -0.00000000000E+00 -0.12016596282E+03  0.12016596282E+03  0.00000000000E+00 0.  1.
         23    2    1    2    0    0  0.51726194053E+02  0.84344135707E+02 -0.53009542806E+02  0.14402410149E+03  0.90240776819E+02 0.  0.
         23    2    1    2    0    0 -0.51726194053E+02 -0.84344135707E+02  0.27207064192E+03  0.31536892327E+03  0.12508233765E+03 0.  0.
          5    1    4    4  502    0 -0.48715009042E+02  0.54401657770E+01  0.18025215908E+03  0.18684501803E+03  0.41800000000E+01 0. -1.
         -5    1    4    4    0  502 -0.30111850104E+01 -0.89784301484E+02  0.91818482839E+02  0.12852390524E+03  0.41800000000E+01 0. -1.
        -11    1    3    3    0    0  0.47140331431E+02  0.63372037949E+02 -0.78050246619E+02  0.11104083500E+03  0.00000000000E+00 0.  1.
         11    1    3    3    0    0  0.45858626214E+01  0.20972097757E+02  0.25040703813E+02  0.32983266481E+02  0.00000000000E+00 0. -1.
</event>
<event>
 7    1  0.9181008E-006  0.1215724E+03  0.7561462E-02  0.1240525E+00
          1   -1    0    0  501    0  0.00000000000E+00  0.00000000000E+00  0.53650606136E+03  0.53650606136E+03  0.00000000000E+00 0. -1.
         -1   -1    0    0    0  501 -0.00000000000E+00 -0.00000000000E+00 -0.32468962890E+02  0.32468962890E+02  0.00000000000E+00 0.  1.
         23    2    1    2    0    0  0.40095214752E+02 -0.47938829045E+02  0.15051778573E+03  0.18628696829E+03  0.90230112259E+02 0.  0.
          5    1    1    2  502    0 -0.10210605329E+02 -0.39441881903E+02  0.19436852161E+03  0.19863663585E+03  0.41800000000E+01 0. -1.
         -5    1    1    2    0  502 -0.29884609424E+02  0.87380710948E+02  0.15915079113E+03  0.18405142011E+03  0.41800000000E+01 0.  1.
        -11    1    3    3    0    0  0.42444226287E+02  0.16297280174E+02  0.60828152768E+02  0.75941937395E+02  0.00000000000E+00 0. -1.
         11    1    3    3    0    0 -0.23490115345E+01 -0.64236109219E+02  0.89689632958E+02  0.11034503089E+03  0.00000000000E+00 0.  1.
</event>
<event>
 8    1  0.9181008E-006  0.9645637E+02  0.7561462E-02  0.1287929E+00
          1   -1    0    0  501    0  0.00000000000E+00  0.00000000000E+00  0.38664408075E+02  0.38664408075E+02  0.00000000000E+00 0. -1.
         -1   -1    0    0    0  501 -0.00000000000E+00 -0.00000000000E+00 -0.40676387400E+03  0.40676387400E+03  0.00000000000E+00 0.  1.
         23    2    1    2    0    0 -0.10779962342E+02  0.42692522398E+02 -0.19164696915E+03  0.22469886907E+03  0.10872976556E+03 0.  0.
         23    2    1    2    0    0  0.10779962342E+02 -0.42692522398E+02 -0.17645249677E+03  0.22072941301E+03  0.12508849304E+03 0.  0.
          5    1    4    4  502    0  0.20132528087E+02 -0.56230972160E+02 -0.19655962413E+02  0.63016427823E+02  0.41800000000E+01 0. -1.
         -5    1    4    4    0  502 -0.93525657451E+01  0.13538449761E+02 -0.15679653436E+03  0.15771298518E+03  0.41800000000E+01 0. -1.
        -11    1    3    3    0    0 -0.51377371190E+02 -0.70473524336E+01 -0.10207681831E+03  0.11449443779E+03  0.00000000000E+00 0.  1.
         11    1    3    3    0    0  0.40597408848E+02  0.49739874832E+02 -0.89570150839E+02  0.11020443128E+03  0.00000000000E+00 0. -1.
</event>
<event>
 8    1  0.9181008E-006  0.1315928E+03  0.7561462E-02  0.1225111E+00
          2   -1    0    0  501    0  0.00000000000E+00  0.00000000000E+00  0.53072599384E+03  0.53072599384E+03  0.00000000000E+00 0. -1.
         -2   -1    0    0    0  501 -0.00000000000E+00 -0.00000000000E+00 -0.65120192838E+02  0.65120192838E+02  0.00000000000E+00 0.  1.
         23    2    1    2    0    0 -0.24485557207E+02  0.81839243784E+02  0.24347864391E+02  0.12931217439E+03  0.93976675888E+02 0.  0.
         23    2    1    2    0    0  0.24485557207E+02 -0.81839243784E+02  0.44125793661E+03  0.46653401229E+03  0.12509282019E+03 0.  0.
          5    1    4    4  502    0  0.15298397126E+02 -0.11491070642E+03  0.31710563172E+03  0.33765657919E+03  0.41800000000E+01 0. -1.
         -5    1    4    4    0  502  0.91871600810E+01  0.33071462632E+02  0.12415230489E+03  0.12887743310E+03  0.41800000000E+01 0. -1.
        -11    1    3    3    0    0 -0.50758968286E+02  0.48989052309E+02  0.43728666688E+02  0.82997568626E+02  0.00000000000E+00 0. -1.
         11    1    3    3    0    0  0.26273411079E+02  0.32850191474E+02 -0.19380802296E+02  0.46314605766E+02  0.00000000000E+00 0.  1.
</event>
<event>
 8    1  0.9181008E-006  0.1289214E+03  0.7561462E-02  0.1229065E+00
          1   -1    0    0  501    0  0.00000000000E+00  0.00000000000E+00  0.33433823353E+03  0.33433823353E+03  0.00000000000E+00 0. -1.
         -1   -1    0    0    0  501 -0.00000000000E+00 -0.00000000000E+00 -0.84826404996E+02  0.84826404996E+02  0.00000000000E+00 0.  1.
         23    2    1    2    0    0 -0.43393872363E+02  0.10512653233E+03  0.52596278516E+02  0.15963320959E+03  0.98902867158E+02 0.  0.
         23    2    1    2    0    0  0.43393872363E+02 -0.10512653233E+03  0.19691555002E+03  0.25953142894E+03  0.12508482246E+03 0.  0.
          5    1    4    4  502    0 -0.36594578785E+01 -0.53342902635E+02  0.34299628934E+01  0.53740989374E+02  0.41800000000E+01 0. -1.
         -5    1    4    4    0  502  0.47053330242E+02 -0.51783629691E+02  0.19348558712E+03  0.20579043956E+03  0.41800000000E+01 0. -1.
        -11    1    3    3    0    0 -0.89666071790E+01  0.98687710723E+02  0.32841089395E+01  0.99148624113E+02  0.00000000000E+00 0.  1.
         11    1    3    3    0    0 -0.34427265184E+02  0.64388216026E+01  0.49312169576E+02  0.60484585475E+02  0.00000000000E+00 0. -1.
</event>
<event>
 8    1  0.9181008E-006  0.1090583E+03  0.7561462E-02  0.1262324E+00
         -2   -1    0    0    0  501 -0.00000000000E+00  0.00000000000E+00  0.23252458718E+02  0.23252458718E+02  0.00000000000E+00 0.  1.
          2   -1    0    0  501    0  0.00000000000E+00 -0.00000000000E+00 -0.84020339605E+03  0.84020339605E+03  0.00000000000E+00 0. -1.
         23    2    1    2    0    0  0.45877088506E+02 -0.40753537562E+02 -0.17633754278E+03  0.20786608026E+03  0.91366406619E+02 0.  0.
         23    2    1    2    0    0 -0.45877088506E+02  0.40753537562E+02 -0.64061339455E+03  0.65558977450E+03  0.12508746170E+03 0.  0.
          5    1    4    4  502    0  0.27041666818E+02  0.57976244463E+02 -0.31171307191E+03  0.31823734580E+03  0.41800000000E+01 0.  1.
         -5    1    4    4    0  502 -0.72918755324E+02 -0.17222706901E+02 -0.32890032265E+03  0.33735242870E+03  0.41800000000E+01 0.  1.
        -11    1    3    3    0    0  0.44131406070E+01 -0.37077635218E+02 -0.13361507652E+02  0.39657997052E+02  0.00000000000E+00 0.  1.
         11    1    3    3    0    0  0.41463947900E+02 -0.36759023436E+01 -0.16297603512E+03  0.16820808321E+03  0.00000000000E+00 0. -1.
</event>
<event>
 8    1  0.9181008E-006  0.1093480E+03  0.7561462E-02  0.1261782E+00
          1   -1    0    0  501    0  0.00000000000E+00  0.00000000000E+00  0.29563713264E+03  0.29563713264E+03  0.00000000000E+00 0. -1.
         -1   -1    0    0    0  501 -0.00000000000E+00 -0.00000000000E+00 -0.54830589576E+02  0.54830589576E+02  0.00000000000E+00 0.  1.
         23    2    1    2    0    0  0.30938045374E+02  0.17161393386E+02  0.29516817867E+02  0.10239212162E+03  0.91439750426E+02 0.  0.
         23    2    1    2    0    0 -0.30938045374E+02 -0.17161393386E+02  0.21128972520E+03  0.24807560060E+03  0.12508588875E+03 0.  0.
          5    1    4    4  502    0 -0.77881859090E+02  0.30468814499E+01  0.13951060794E+03  0.15986103212E+03  0.41800000000E+01 0. -1.
         -5    1    4    4    0  502  0.46943813716E+02 -0.20208274836E+02  0.71779117258E+02  0.88214568482E+02  0.41800000000E+01 0. -1.
        -11    1    3    3    0    0  0.95446139169E+01  0.49597445164E+02 -0.45565708016E+01  0.50712607497E+02  0.00000000000E+00 0.  1.
         11    1    3    3    0    0  0.21393431457E+02 -0.32436051778E+02  0.34073388669E+02  0.51679514122E+02  0.00000000000E+00 0. -1.
</event>
<event>
 8    1  0.9181008E-006  0.1361614E+03  0.7561462E-02  0.1218589E+00
         -2   -1    0    0    0  501 -0.00000000000E+00  0.00000000000E+00  0.38244452132E+02  0.38244452132E+02  0.00000000000E+00 0.  1.
          2   -1    0    0  501    0  0.00000000000E+00 -0.00000000000E+00 -0.67083453578E+03  0.67083453578E+03  0.00000000000E+00 0. -1.
         23    2    1    2    0    0  0.40834289797E+02 -0.11075022825E+03 -0.30695750812E+03  0.34081955713E+03  0.89453934784E+02 0.  0.
         23    2    1    2    0    0 -0.40834289797E+02  0.11075022825E+03 -0.32563257553E+03  0.36825943079E+03  0.12508150078E+03 0.  0.
          5    1    4    4  502    0  0.37593531198E+01  0.46493855588E+02 -0.26527094168E+03  0.26937326564E+03  0.41800000000E+01 0.  1.
         -5    1    4    4    0  502 -0.44593642917E+02  0.64256372661E+02 -0.60361633852E+02  0.98886165147E+02  0.41800000000E+01 0.  1.
        -11    1    3    3    0    0 -0.83493957665E+01 -0.95222559738E+02 -0.21710436118E+03  0.23721583408E+03  0.00000000000E+00 0. -1.
         11    1    3    3    0    0  0.49183685564E+02 -0.15527668511E+02 -0.89853146934E+02  0.10360372305E+03  0.00000000000E+00 0.  1.
</event>
<event>
 8    1  0.9181008E-006  0.1350071E+03  0.7561462E-02  0.1220210E+00
          2   -1    0    0  501    0  0.00000000000E+00  0.00000000000E+00  0.51183383263E+03  0.51183383263E+03  0.00000000000E+00 0. -1.
         -2   -1    0    0    0  501 -0.00000000000E+00 -0.00000000000E+00 -0.38683513621E+02  0.38683513621E+02  0.00000000000E+00 0.  1.
         23    2    1    2    0    0 -0.80576847495E+02  0.33542725722E+02  0.23394866935E+03  0.26682254661E+03  0.94045460752E+02 0.  0.
         23    2    1    2    0    0  0.80576847495E+02 -0.33542725722E+02  0.23920164966E+03  0.28369479964E+03  0.12509023680E+03 0.  0.
          5    1    4    4  502    0  0.15959576705E+02 -0.71458398942E+02  0.15118666761E+03  0.16803538833E+03  0.41800000000E+01 0. -1.
         -5    1    4    4    0  502  0.64617270790E+02  0.37915673219E+02  0.88014982047E+02  0.11565941131E+03  0.41800000000E+01 0. -1.
        -11    1    3    3    0    0 -0.98305753722E+02  0.33664825193E+02  0.16001959691E+03  0.19079730885E+03  0.00000000000E+00 0.  1.
         11    1    3    3    0    0  0.17728906227E+02 -0.12209947009E+00  0.73929072441E+02  0.76025237759E+02  0.00000000000E+00 0. -1.
</event>
<event>
 8    1  0.9181008E-006  0.1108071E+03  0.7561462E-02  0.1259082E+00
          4   -1    0    0  501    0  0.00000000000E+00  0.00000000000E+00  0.58922759682E+03  0.58922759682E+03  0.00000000000E+00 0. -1.
         -4   -1    0    0    0  501 -0.00000000000E+00 -0.00000000000E+00 -0.27952032349E+02  0.27952032349E+02  0.00000000000E+00 0.  1.
         23    2    1    2    0    0 -0.39623795206E+02 -0.55636820752E+02  0.26852741815E+03  0.29158149341E+03  0.90814602520E+02 0.  0.
         23    2    1    2    0    0  0.39623795206E+02  0.55636820752E+02  0.29274814632E+03  0.32559813576E+03  0.12508864003E+03 0.  0.
          5    1    4    4  502    0 -0.18135682960E+02  0.67764462955E+02  0.88807897146E+02  0.11324857806E+03  0.41800000000E+01 0. -1.
         -5    1    4    4    0  502  0.57759478167E+02 -0.12127642203E+02  0.20394024918E+03  0.21234955770E+03  0.41800000000E+01 0. -1.
        -11    1    3    3    0    0  0.10018593958E+02 -0.38303867219E+02  0.37108484165E+02  0.54264150835E+02  0.00000000000E+00 0.  1.
         11    1    3    3    0    0 -0.49642389165E+02 -0.17332953533E+02  0.23141893398E+03  0.23731734257E+03  0.00000000000E+00 0. -1.
</event>
<event>
 8    1  0.9181008E-006  0.7989973E+02  0.7561462E-02  0.1329336E+00
          1   -1    0    0  501    0  0.00000000000E+00  0.00000000000E+00  0.38236101006E+02  0.38236101006E+02  0.00000000000E+00 0. -1.
         -1   -1    0    0    0  501 -0.00000000000E+00 -0.00000000000E+00 -0.38617849226E+03  0.38617849226E+03  0.00000000000E+00 0.  1.
         23    2    1    2    0    0  0.10067768470E+02 -0.53010165171E+02 -0.16277362687E+03  0.19452389979E+03  0.91830585383E+02 0.  0.
         23    2    1    2    0    0 -0.10067768470E+02  0.53010165171E+02 -0.18516876439E+03  0.22989069348E+03  0.12510324564E+03 0.  0.
          5    1    4    4  502    0 -0.43347634224E+01 -0.60710747354E+01 -0.16763855359E+03  0.16785650172E+03  0.41800000000E+01 0. -1.
         -5    1    4    4    0  502 -0.57330050481E+01  0.59081239906E+02 -0.17530210798E+02  0.62034191752E+02  0.41800000000E+01 0. -1.
        -11    1    3    3    0    0  0.21918317345E+02  0.12457462359E+02 -0.86507925988E+01  0.26654028143E+02  0.00000000000E+00 0.  1.
         11    1    3    3    0    0 -0.11850548875E+02 -0.65467627530E+02 -0.15412283427E+03  0.16786987165E+03  0.00000000000E+00 0. -1.
</event>
<event>
 8    1  0.9181008E-006  0.9176352E+02  0.7561462E-02  0.1298636E+00
         -1   -1    0    0    0  501 -0.00000000000E+00  0.00000000000E+00  0.87284857349E+02  0.87284857349E+02  0.00000000000E+00 0.  1.
          1   -1    0    0  501    0  0.00000000000E+00 -0.00000000000E+00 -0.17145065082E+03  0.17145065082E+03  0.00000000000E+00 0. -1.
         23    2    1    2    0    0 -0.45528922662E+02  0.35888087512E+02 -0.17484598459E+02  0.10559170244E+03  0.86504675113E+02 0.  0.
         23    2    1    2    0    0  0.45528922662E+02 -0.35888087512E+02 -0.66681195007E+02  0.15314380573E+03  0.12508319568E+03 0.  0.
          5    1    4    4  502    0 -0.21620304440E+02  0.96378173016E+00  0.25180305485E+02  0.33464707135E+02  0.41800000000E+01 0.  1.
         -5    1    4    4    0  502  0.67149227102E+02 -0.36851869242E+02 -0.91861500493E+02  0.11967909859E+03  0.41800000000E+01 0.  1.
        -11    1    3    3    0    0 -0.60564938830E+02  0.22397973146E+02 -0.39512655739E+02  0.75703573100E+02  0.00000000000E+00 0. -1.
         11    1    3    3    0    0  0.15036016168E+02  0.13490114366E+02  0.22028057280E+02  0.29888129338E+02  0.00000000000E+00 0.  1.
</event>
<event>
 8    1  0.9181008E-006  0.9219313E+02  0.7561462E-02  0.1297626E+00
          1   -1    0    0  501    0  0.00000000000E+00  0.00000000000E+00  0.27253970274E+02  0.27253970274E+02  0.00000000000E+00 0. -1.
         -1   -1    0    0    0  501 -0.00000000000E+00 -0.00000000000E+00 -0.37847866051E+03  0.37847866051E+03  0.00000000000E+00 0.  1.
         23    2    1    2    0    0 -0.12790138049E+01  0.49383918248E+01 -0.18355814023E+03  0.20016142068E+03  0.79655382081E+02 0.  0.
         23    2    1    2    0    0  0.12790138049E+01 -0.49383918248E+01 -0.16766655001E+03  0.20557121011E+03  0.11883360990E+03 0.  0.
          5    1    4    4  502    0 -0.25476106380E+02  0.48194253647E+02 -0.10885870140E+03  0.12181710615E+03  0.41800000000E+01 0. -1.
         -5    1    4    4    0  502  0.26755120185E+02 -0.53132645472E+02 -0.58807848607E+02  0.83754103952E+02  0.41800000000E+01 0.  1.
        -11    1    3    3    0    0  0.11110097409E+02 -0.30539945037E+02 -0.13446475793E+03  0.13833616169E+03  0.00000000000E+00 0.  1.
         11    1    3    3    0    0 -0.12389111213E+02  0.35478336862E+02 -0.49093382302E+02  0.61825258989E+02  0.00000000000E+00 0. -1.
</event>
<event>
 8    1  0.9181008E-006  0.1272131E+03  0.7561462E-02  0.1231651E+00
          1   -1    0    0  501    0  0.00000000000E+00  0.00000000000E+00  0.53625362262E+03  0.53625362262E+03  0.00000000000E+00 0. -1.
         -1   -1    0    0    0  501 -0.00000000000E+00 -0.00000000000E+00 -0.31835511996E+02  0.31835511996E+02  0.00000000000E+00 0.  1.
         23    2    1    2    0    0  0.32388304100E+02  0.66067137087E+02  0.22359996844E+03  0.25198754879E+03  0.89927248440E+02 0.  0.
         23    2    1    2    0    0 -0.32388304100E+02 -0.66067137087E+02  0.28081814218E+03  0.31610158583E+03  0.12509002654E+03 0.  0.
          5    1    4    4  502    0 -0.27206233498E+02 -0.10282677902E+03  0.22535258909E+03  0.24922838408E+03  0.41800000000E+01 0.  1.
         -5    1    4    4    0  502 -0.51820706017E+01  0.36759641938E+02  0.55465553098E+02  0.66873201745E+02  0.41800000000E+01 0.  1.
        -11    1    3    3    0    0  0.58999335719E+02  0.31143491766E+02  0.17049010034E+03  0.18307843404E+03  0.00000000000E+00 0. -1.
         11    1    3    3    0    0 -0.26611031619E+02  0.34923645321E+02  0.53109868101E+02  0.68909114753E+02  0.00000000000E+00 0.  1.
</event>
<event>
 8    1  0.9181008E-006  0.8962711E+02  0.7561462E-02  0.1303757E+00
         -2   -1    0    0    0  501 -0.00000000000E+00  0.00000000000E+00  0.18125877517E+03  0.18125877517E+03  0.00000000000E+00 0.  1.
          2   -1    0    0  501    0  0.00000000000E+00 -0.00000000000E+00 -0.10139246528E+03  0.10139246528E+03  0.00000000000E+00 0. -1.
         23    2    1    2    0    0 -0.23814372956E+01  0.60750409864E+02  0.94751090847E+02  0.14277509238E+03  0.87810444974E+02 0.  0.
         23    2    1    2    0    0  0.23814372956E+01 -0.60750409864E+02 -0.14884780954E+02  0.13987614806E+03  0.12508995383E+03 0.  0.
          5    1    4    4  502    0 -0.23023186443E+02 -0.31119864133E+02 -0.65272481666E+02  0.76003173095E+02  0.41800000000E+01 0. -1.
         -5    1    4    4    0  502  0.25404623738E+02 -0.29630545731E+02  0.50387700713E+02  0.63872974964E+02  0.41800000000E+01 0. -1.
        -11    1    3    3    0    0 -0.41450574628E+02  0.27307215204E+02  0.23542393485E+02  0.54937040603E+02  0.00000000000E+00 0.  1.
         11    1    3    3    0    0  0.39069137332E+02  0.33443194660E+02  0.71208697361E+02  0.87838051782E+02  0.00000000000E+00 0. -1.
</event>
<event>
 8    1  0.9181008E-006  0.1483933E+03  0.7561462E-02  0.1202461E+00
          1   -1    0    0  501    0  0.00000000000E+00  0.00000000000E+00  0.41299283799E+03  0.41299283799E+03  0.00000000000E+00 0. -1.
         -1   -1    0    0    0  501 -0.00000000000E+00 -0.00000000000E+00 -0.71111858876E+02  0.71111858876E+02  0.00000000000E+00 0.  1.
         23    2    1    2    0    0  0.11560272895E+03  0.10345294012E+01  0.66231568380E+02  0.16007604824E+03  0.88728007856E+02 0.  0.
         23    2    1    2    0    0 -0.11560272895E+03 -0.10345294012E+01  0.27564941073E+03  0.32402864862E+03  0.12508759451E+03 0.  0.
          5    1    4    4  502    0 -0.10349081420E+03 -0.41537485789E+02  0.25153990491E+03  0.27518268025E+03  0.41800000000E+01 0.  1.
         -5    1    4    4    0  502 -0.12111914757E+02  0.40502956388E+02  0.24109505822E+02  0.48845968372E+02  0.41800000000E+01 0.  1.
        -11    1    3    3    0    0  0.68486610784E+02 -0.40786885363E+02  0.20731659213E+02  0.82363751541E+02  0.00000000000E+00 0. -1.
         11    1    3    3    0    0  0.47116118168E+02  0.41821414764E+02  0.45499909167E+02  0.77712296700E+02  0.00000000000E+00 0.  1.
</event>
<event>
 8    1  0.4794232E-005  0.1534474E+03  0.7561462E-02  0.1196300E+00
         -1   -1    0    0    0  501 -0.00000000000E+00  0.00000000000E+00  0.52849528949E+02  0.52849528949E+02  0.00000000000E+00 0.  1.
          1   -1    0    0  501    0  0.00000000000E+00 -0.00000000000E+00 -0.54908163180E+03  0.54908163180E+03  0.00000000000E+00 0. -1.
         23    2    1    2    0    0  0.46689398996E+02  0.12532242735E+03 -0.18369011504E+03  0.23969395602E+03  0.76325116521E+02 0.  0.
         23    2    1    2    0    0 -0.46689398996E+02 -0.12532242735E+03 -0.31254198781E+03  0.36223720473E+03  0.12509071737E+03 0.  0.
          5    1    4    4  502    0  0.17750727088E+02 -0.53566319944E+02 -0.22471032454E+03  0.23172535748E+03  0.41800000000E+01 0. -1.
         -5    1    4    4    0  502 -0.64440126085E+02 -0.71756107405E+02 -0.87831663268E+02  0.13051184725E+03  0.41800000000E+01 0. -1.
        -11    1    3    3    0    0  0.65436009340E+02  0.72196656159E+02 -0.12235054629E+03  0.15640934965E+03  0.00000000000E+00 0. -1.
         11    1    3    3    0    0 -0.18746610344E+02  0.53125771190E+02 -0.61339568745E+02  0.83284606367E+02  0.00000000000E+00 0.  1.
</event>
<event>
 8    1  0.9181008E-006  0.1595321E+03  0.7561462E-02  0.1189226E+00
         -2   -1    0    0    0  501 -0.00000000000E+00  0.00000000000E+00  0.35182573476E+02  0.35182573476E+02  0.00000000000E+00 0.  1.
          2   -1    0    0  501    0  0.00000000000E+00 -0.00000000000E+00 -0.10574620052E+04  0.10574620052E+04  0.00000000000E+00 0. -1.
         23    2    1    2    0    0  0.13447607707E+02 -0.13068738960E+03 -0.23158156293E+03  0.28140393007E+03  0.91094015268E+02 0.  0.
         23    2    1    2    0    0 -0.13447607707E+02  0.13068738960E+03 -0.79069786875E+03  0.81124064856E+03  0.12509291858E+03 0.  0.
          5    1    4    4  502    0 -0.49982516803E+02  0.11171005231E+03 -0.39912515250E+03  0.41748742200E+03  0.41800000000E+01 0. -1.
         -5    1    4    4    0  502  0.36534909096E+02  0.18977337289E+02 -0.39157271625E+03  0.39375322655E+03  0.41800000000E+01 0. -1.
        -11    1    3    3    0    0  0.19173025736E+02  0.46841158265E+01 -0.57594525614E+02  0.60882470693E+02  0.00000000000E+00 0. -1.
         11    1    3    3    0    0 -0.57254180293E+01 -0.13537150542E+03 -0.17398703731E+03  0.22052145938E+03  0.00000000000E+00 0.  1.
</event>
<event>
 8    1  0.9181008E-006  0.1848638E+03  0.7561462E-02  0.1163177E+00
          2   -1    0    0  501    0  0.00000000000E+00  0.00000000000E+00  0.18475515730E+03  0.18475515730E+03  0.00000000000E+00 0. -1.
         -2   -1    0    0    0  501 -0.00000000000E+00 -0.00000000000E+00 -0.24563656054E+03  0.24563656054E+03  0.00000000000E+00 0.  1.
         23    2    1    2    0    0 -0.12868073263E+03  0.10062334291E+03 -0.11271349493E+03  0.21822099689E+03  0.90731931843E+02 0.  0.
         23    2    1    2    0    0  0.12868073263E+03 -0.10062334291E+03  0.51832091683E+02  0.21217072095E+03  0.12508421567E+03 0.  0.
          5    1    4    4  502    0  0.76347919047E+02 -0.12598306724E+03  0.39582497330E+02  0.15259418229E+03  0.41800000000E+01 0. -1.
         -5    1    4    4    0  502  0.52332813586E+02  0.25359724333E+02  0.12249594353E+02  0.59576538653E+02  0.41800000000E+01 0. -1.
        -11    1    3    3    0    0 -0.95650622123E+02  0.66062974046E+02 -0.12308567067E+03  0.16930280676E+03  0.00000000000E+00 0.  1.
         11    1    3    3    0    0 -0.33030110509E+02  0.34560368865E+02  0.10372175740E+02  0.48918190133E+02  0.00000000000E+00 0. -1.
</event>
<event>
 8    1  0.9181008E-006  0.1663586E+03  0.7561462E-02  0.1181699E+00
         -2   -1    0    0    0  501 -0.00000000000E+00  0.00000000000E+00  0.27103042517E+03  0.27103042517E+03  0.00000000000E+00 0.  1.
          2   -1    0    0  501    0  0.00000000000E+00 -0.00000000000E+00 -0.12025150518E+03  0.12025150518E+03  0.00000000000E+00 0. -1.
         23    2    1    2    0    0  0.30680013958E+02 -0.13147472134E+03  0.18131532232E+02  0.16441145907E+03  0.92062532031E+02 0.  0.
         23    2    1    2    0    0 -0.30680013958E+02  0.13147472134E+03  0.13264738776E+03  0.22687047128E+03  0.12509202873E+03 0.  0.
          5    1    4    4  502    0  0.23943601511E+02  0.12482819149E+03  0.10615670571E+03  0.16565654834E+03  0.41800000000E+01 0. -1.
         -5    1    4    4    0  502 -0.54623615468E+02  0.66465298544E+01  0.26490682052E+02  0.61213922938E+02  0.41800000000E+01 0. -1.
        -11    1    3    3    0    0 -0.50633204334E+01 -0.10681541013E+03  0.41967077819E+02  0.11487560522E+03  0.00000000000E+00 0. -1.
         11    1    3    3    0    0  0.35743334391E+02 -0.24659311215E+02 -0.23835545587E+02  0.49535853848E+02  0.00000000000E+00 0.  1.
</event>
<event>
 7    1  0.9181008E-006  0.9857121E+02  0.7561462E-02  0.1283329E+00
          2   -1    0    0  501    0  0.00000000000E+00  0.00000000000E+00  0.16728444645E+04  0.16728444645E+04  0.00000000000E+00 0. -1.
         -2   -1    0    0    0  501 -0.00000000000E+00 -0.00000000000E+00 -0.14461823390E+02  0.14461823390E+02  0.00000000000E+00 0.  1.
         23    2    1    2    0    0 -0.32690210411E+02  0.59312371172E+02  0.33858907809E+03  0.35784751995E+03  0.93945071741E+02 0.  0.
          5    1    1    2  502    0  0.35562065509E+02 -0.70723503617E+02  0.13127117558E+04  0.13151030760E+04  0.41800000000E+01 0. -1.
         -5    1    1    2    0  502 -0.28718550987E+01  0.11411132446E+02  0.70818072112E+01  0.14355691860E+02  0.41800000000E+01 0.  1.
        -11    1    3    3    0    0  0.27115180660E+02  0.15349940764E+02  0.18088557849E+03  0.18354957426E+03  0.00000000000E+00 0. -1.
         11    1    3    3    0    0 -0.59805391070E+02  0.43962430407E+02  0.15770349960E+03  0.17429794569E+03  0.00000000000E+00 0.  1.
</event>
<event>
 8    1  0.9181008E-006  0.1062513E+03  0.7561462E-02  0.1267674E+00
         -3   -1    0    0    0  501 -0.00000000000E+00  0.00000000000E+00  0.59377153314E+02  0.59377153314E+02  0.00000000000E+00 0.  1.
          3   -1    0    0  501    0  0.00000000000E+00 -0.00000000000E+00 -0.28282631899E+03  0.28282631899E+03  0.00000000000E+00 0. -1.
         23    2    1    2    0    0 -0.10929106437E+02 -0.65369863978E+02 -0.66695968138E+02  0.13098890575E+03  0.91198008633E+02 0.  0.
         23    2    1    2    0    0  0.10929106437E+02  0.65369863978E+02 -0.15675319754E+03  0.21121456656E+03  0.12508942283E+03 0.  0.
          5    1    4    4  502    0 -0.10785953831E+02  0.98110559891E+02 -0.89967414081E+02  0.13361746427E+03  0.41800000000E+01 0. -1.
         -5    1    4    4    0  502  0.21715060269E+02 -0.32740695913E+02 -0.66785783460E+02  0.77597102289E+02  0.41800000000E+01 0. -1.
        -11    1    3    3    0    0 -0.22971415020E+02 -0.40181295920E+02 -0.85572232663E+02  0.97287355050E+02  0.00000000000E+00 0. -1.
         11    1    3    3    0    0  0.12042308583E+02 -0.25188568059E+02  0.18876264525E+02  0.33701550695E+02  0.00000000000E+00 0.  1.
</event>
<event>
 8    1  0.9181008E-006  0.1044493E+03  0.7561462E-02  0.1271209E+00
          2   -1    0    0  501    0  0.00000000000E+00  0.00000000000E+00  0.77849026442E+03  0.77849026442E+03  0.00000000000E+00 0. -1.
         -2   -1    0    0    0  501 -0.00000000000E+00 -0.00000000000E+00 -0.27418568704E+02  0.27418568704E+02  0.00000000000E+00 0.  1.
         23    2    1    2    0    0  0.48153072700E+00  0.50539726670E+02  0.11998725335E+03  0.16056369485E+03  0.93964159622E+02 0.  0.
         23    2    1    2    0    0 -0.48153072700E+00 -0.50539726670E+02  0.63108444237E+03  0.64534513828E+03  0.12509307836E+03 0.  0.
          5    1    4    4  502    0  0.26579007287E+01  0.38760604135E+02  0.11227972810E+03  0.11888506471E+03  0.41800000000E+01 0.  1.
         -5    1    4    4    0  502 -0.31394314557E+01 -0.89300330805E+02  0.51880471427E+03  0.52646007357E+03  0.41800000000E+01 0.  1.
        -11    1    3    3    0    0  0.29029735214E+02  0.98329112543E+01  0.10386889939E+03  0.10829662936E+03  0.00000000000E+00 0. -1.
         11    1    3    3    0    0 -0.28548204487E+02  0.40706815416E+02  0.16118353966E+02  0.52267065494E+02  0.00000000000E+00 0.  1.
</event>
<event>
 8    1  0.9181008E-006  0.1120795E+03  0.7561462E-02  0.1256767E+00
          2   -1    0    0  501    0  0.00000000000E+00  0.00000000000E+00  0.12534055988E+04  0.12534055988E+04  0.00000000000E+00 0. -1.
         -2   -1    0    0    0  501 -0.00000000000E+00 -0.00000000000E+00 -0.21375520310E+02  0.21375520310E+02  0.00000000000E+00 0.  1.
         23    2    1    2    0    0  0.89340415977E+02 -0.38588027281E+02  0.28322341867E+03  0.31282922917E+03  0.90420550567E+02 0.  0.
         23    2    1    2    0    0 -0.89340415977E+02  0.38588027281E+02  0.94880665977E+03  0.96195188989E+03  0.12508643036E+03 0.  0.
          5    1    4    4  502    0 -0.55647423490E+02  0.11502214963E+02  0.12932465660E+03  0.14131976470E+03  0.41800000000E+01 0.  1.
         -5    1    4    4    0  502 -0.33692992486E+02  0.27085812317E+02  0.81948200317E+03  0.82063212519E+03  0.41800000000E+01 0.  1.
        -11    1    3    3    0    0  0.29780722642E+02 -0.54495845009E+02  0.19893103330E+03  0.20839924322E+03  0.00000000000E+00 0.  1.
         11    1    3    3    0    0  0.59559693334E+02  0.15907817728E+02  0.84292385374E+02  0.10442998596E+03  0.00000000000E+00 0. -1.
</event>
<event>
 8    1  0.9181008E-006  0.1158440E+03  0.7561462E-02  0.1250115E+00
          2   -1    0    0  501    0  0.00000000000E+00  0.00000000000E+00  0.22553219802E+04  0.22553219802E+04  0.00000000000E+00 0. -1.
         -2   -1    0    0    0  501 -0.00000000000E+00 -0.00000000000E+00 -0.13011635637E+02  0.13011635637E+02  0.00000000000E+00 0.  1.
         23    2    1    2    0    0 -0.66788352749E+02  0.35038054403E+01  0.27835225211E+03  0.29926093848E+03  0.87201905531E+02 0.  0.
         23    2    1    2    0    0  0.66788352749E+02 -0.35038054403E+01  0.19639580925E+04  0.19690726774E+04  0.12507141599E+03 0.  0.
          5    1    4    4  502    0  0.34496439870E+02  0.52794466516E+02  0.54999934787E+03  0.55361901622E+03  0.41800000000E+01 0.  1.
         -5    1    4    4    0  502  0.32291912880E+02 -0.56298271957E+02  0.14139587446E+04  0.14154536612E+04  0.41800000000E+01 0.  1.
        -11    1    3    3    0    0  0.16759949044E+02 -0.89116212680E+01  0.10166785945E+03  0.10342469014E+03  0.00000000000E+00 0.  1.
         11    1    3    3    0    0 -0.83548301794E+02  0.12415426708E+02  0.17668439266E+03  0.19583624834E+03  0.00000000000E+00 0. -1.
</event>
<event>
 8    1  0.9181008E-006  0.9100006E+02  0.7561462E-02  0.1300448E+00
          2   -1    0    0  501    0  0.00000000000E+00  0.00000000000E+00  0.96537354624E+03  0.96537354624E+03  0.00000000000E+00 0. -1.
         -2   -1    0    0    0  501 -0.00000000000E+00 -0.00000000000E+00 -0.14172892103E+02  0.14172892103E+02  0.00000000000E+00 0.  1.
         23    2    1    2    0    0 -0.26770011031E+02  0.16674879075E+02  0.28819642261E+03  0.30410895385E+03  0.91817170100E+02 0.  0.
         23    2    1    2    0    0  0.26770011031E+02 -0.16674879075E+02  0.66300423153E+03  0.67543748450E+03  0.12508596784E+03 0.  0.
          5    1    4    4  502    0 -0.40128809077E+01 -0.56671286469E+02  0.53108026210E+03  0.53412681558E+03  0.41800000000E+01 0.  1.
         -5    1    4    4    0  502  0.30782891939E+02  0.39996407394E+02  0.13192396943E+03  0.14131066892E+03  0.41800000000E+01 0.  1.
        -11    1    3    3    0    0  0.18606261499E+02 -0.10632932916E+02  0.15833482381E+02  0.26644913092E+02  0.00000000000E+00 0.  1.
         11    1    3    3    0    0 -0.45376272531E+02  0.27307811991E+02  0.27236294023E+03  0.27746404076E+03  0.00000000000E+00 0. -1.
</event>
<event>
 8    1  0.9181008E-006  0.1210689E+03  0.7561462E-02  0.1241344E+00
         -1   -1    0    0    0  501 -0.00000000000E+00  0.00000000000E+00  0.31559236842E+03  0.31559236842E+03  0.00000000000E+00 0.  1.
          1   -1    0    0  501    0  0.00000000000E+00 -0.00000000000E+00 -0.64965353182E+02  0.64965353182E+02  0.00000000000E+00 0. -1.
         23    2    1    2    0    0  0.68084527642E+02  0.14517726827E+02  0.19687511528E+03  0.22766501337E+03  0.90693329410E+02 0.  0.
         23    2    1    2    0    0 -0.68084527642E+02 -0.14517726827E+02  0.53751899957E+02  0.15289270823E+03  0.12506256908E+03 0.  0.
          5    1    4    4  502    0 -0.58244450831E+02 -0.60485904156E+02  0.37824321493E+01  0.84159015246E+02  0.41800000000E+01 0.  1.
         -5    1    4    4    0  502 -0.98400768113E+01  0.45968177329E+02  0.49969467807E+02  0.68733692986E+02  0.41800000000E+01 0.  1.
        -11    1    3    3    0    0  0.70551122822E+02  0.42774031133E+02  0.16812694420E+03  0.18727986554E+03  0.00000000000E+00 0. -1.
         11    1    3    3    0    0 -0.24665951797E+01 -0.28256304306E+02  0.28748171083E+02  0.40385147832E+02  0.00000000000E+00 0.  1.
</event>
<event>
 7    1  0.9181008E-006  0.1262675E+03  0.7561462E-02  0.1233102E+00
         -1   -1    0    0    0  501 -0.00000000000E+00  0.00000000000E+00  0.65125362926E+03  0.65125362926E+03  0.00000000000E+00 0.  1.
          1   -1    0    0  501    0  0.00000000000E+00 -0.00000000000E+00 -0.43057079083E+02  0.43057079083E+02  0.00000000000E+00 0. -1.
         23    2    1    2    0    0 -0.49514537443E+01  0.10268777401E+03  0.31044954724E+03  0.33990154605E+03  0.92654432152E+02 0.  0.
          5    1    1    2  502    0  0.31441825887E+02  0.97096098326E+01  0.20095405057E+03  0.20367343415E+03  0.41800000000E+01 0. -1.
         -5    1    1    2    0  502 -0.26490372143E+02 -0.11239738385E+03  0.96792952363E+02  0.15073572814E+03  0.41800000000E+01 0.  1.
        -11    1    3    3    0    0 -0.95272612690E+01  0.85337887974E+02  0.31029576522E+03  0.32195773907E+03  0.00000000000E+00 0. -1.
         11    1    3    3    0    0  0.45758075247E+01  0.17349886039E+02  0.15378202141E+00  0.17943806982E+02  0.00000000000E+00 0.  1.
</event>
<event>
 8    1  0.9181008E-006  0.1196574E+03  0.7561462E-02  0.1243663E+00
          2   -1    0    0  501    0  0.00000000000E+00  0.00000000000E+00  0.33400860461E+03  0.33400860461E+03  0.00000000000E+00 0. -1.
         -2   -1    0    0    0  501 -0.00000000000E+00 -0.00000000000E+00 -0.44549886203E+02  0.44549886203E+02  0.00000000000E+00 0.  1.
         23    2    1    2    0    0  0.18167465141E+02 -0.24599391523E+02  0.11015147531E+03  0.15776748627E+03  0.10872922955E+03 0.  0.
         23    2    1    2    0    0 -0.18167465141E+02  0.24599391523E+02  0.17930724310E+03  0.22079100455E+03  0.12514948425E+03 0.  0.
          5    1    4    4  502    0 -0.68736273598E+02 -0.67129898820E+01  0.98092122760E+02  0.12003864581E+03  0.41800000000E+01 0. -1.
         -5    1    4    4    0  502  0.50568808457E+02  0.31312381405E+02  0.81215120341E+02  0.10075235873E+03  0.41800000000E+01 0. -1.
        -11    1    3    3    0    0  0.49566924852E+02  0.22064041620E+02  0.70458764569E+02  0.88927720518E+02  0.00000000000E+00 0.  1.
         11    1    3    3    0    0 -0.31399459711E+02 -0.46663433143E+02  0.39692710739E+02  0.68839765751E+02  0.00000000000E+00 0. -1.
</event>
<event>
 8    1  0.9181008E-006  0.1360192E+03  0.7561462E-02  0.1218788E+00
         -4   -1    0    0    0  501 -0.00000000000E+00  0.00000000000E+00  0.38603867717E+03  0.38603867717E+03  0.00000000000E+00 0.  1.
          4   -1    0    0  501    0  0.00000000000E+00 -0.00000000000E+00 -0.76483571181E+02  0.76483571181E+02  0.00000000000E+00 0. -1.
         23    2    1    2    0    0 -0.11396555080E+03 -0.27594703299E+02  0.22967757176E+03  0.27337061994E+03  0.90719868062E+02 0.  0.
         23    2    1    2    0    0  0.11396555080E+03  0.27594703299E+02  0.79877534236E+02  0.18915162841E+03  0.12509317982E+03 0.  0.
          5    1    4    4  502    0 -0.10526637879E+02 -0.18644593786E+02  0.47686942799E+02  0.52439945614E+02  0.41800000000E+01 0.  1.
         -5    1    4    4    0  502  0.12449218868E+03  0.46239297084E+02  0.32190591437E+02  0.13671168280E+03  0.41800000000E+01 0.  1.
        -11    1    3    3    0    0 -0.10061285488E+03 -0.25920951238E+02  0.23647582530E+03  0.25829374408E+03  0.00000000000E+00 0.  1.
         11    1    3    3    0    0 -0.13352695922E+02 -0.16737520607E+01 -0.67982535487E+01  0.15076875859E+02  0.00000000000E+00 0. -1.
</event>
<event>
 8    1  0.9181008E-006  0.1187432E+03  0.7561462E-02  0.1245185E+00
         -3   -1    0    0    0  501 -0.00000000000E+00  0.00000000000E+00  0.25357407680E+02  0.25357407680E+02  0.00000000000E+00 0.  1.
          3   -1    0    0  501    0  0.00000000000E+00 -0.00000000000E+00 -0.65433155536E+03  0.65433155536E+03  0.00000000000E+00 0. -1.
         23    2    1    2    0    0 -0.66327845013E+02  0.19857557397E+02 -0.21304200955E+03  0.23986900060E+03  0.85770239625E+02 0.  0.
         23    2    1    2    0    0  0.66327845013E+02 -0.19857557397E+02 -0.41593213813E+03  0.43981996244E+03  0.12509336602E+03 0.  0.
          5    1    4    4  502    0  0.86225590939E+02  0.16106883522E+02 -0.35833038366E+03  0.36893416823E+03  0.41800000000E+01 0. -1.
         -5    1    4    4    0  502 -0.19897745926E+02 -0.35964440919E+02 -0.57601754465E+02  0.70885794212E+02  0.41800000000E+01 0. -1.
        -11    1    3    3    0    0 -0.29667428097E+02 -0.32778808738E+02 -0.65936351506E+02  0.79386453770E+02  0.00000000000E+00 0.  1.
         11    1    3    3    0    0 -0.36660416916E+02  0.52636366135E+02 -0.14710565804E+03  0.16048254683E+03  0.00000000000E+00 0. -1.
</event>
<event>
 8    1  0.9181008E-006  0.3115691E+03  0.7561462E-02  0.1079596E+00
          2   -1    0    0  501    0  0.00000000000E+00  0.00000000000E+00  0.11859240894E+04  0.11859240894E+04  0.00000000000E+00 0. -1.
         -2   -1    0    0    0  501 -0.00000000000E+00 -0.00000000000E+00 -0.11811235143E+03  0.11811235143E+03  0.00000000000E+00 0.  1.
         23    2    1    2    0    0 -0.26217614678E+03 -0.14005102882E+03  0.18171197049E+03  0.36107695698E+03  0.94903667081E+02 0.  0.
         23    2    1    2    0    0  0.26217614678E+03  0.14005102882E+03  0.88609976744E+03  0.94295948382E+03  0.12509663330E+03 0.  0.
          5    1    4    4  502    0  0.21276665624E+03  0.15162210288E+03  0.81234956260E+03  0.85333943795E+03  0.41800000000E+01 0.  1.
         -5    1    4    4    0  502  0.49409490538E+02 -0.11571074057E+02  0.73750204836E+02  0.89620045879E+02  0.41800000000E+01 0.  1.
        -11    1    3    3    0    0 -0.20472835128E+03 -0.14842063523E+03  0.13555849784E+03  0.28691198845E+03  0.00000000000E+00 0.  1.
         11    1    3    3    0    0 -0.57447795495E+02  0.83696064018E+01  0.46153472658E+02  0.74164968529E+02  0.00000000000E+00 0. -1.
</event>
<event>
 8    1  0.9181008E-006  0.1346308E+03  0.7561462E-02  0.1220742E+00
          1   -1    0    0  501    0  0.00000000000E+00  0.00000000000E+00  0.15021086993E+03  0.15021086993E+03  0.00000000000E+00 0. -1.
         -1   -1    0    0    0  501 -0.00000000000E+00 -0.00000000000E+00 -0.13542103615E+03  0.13542103615E+03  0.00000000000E+00 0.  1.
         23    2    1    2    0    0  0.82917994953E+02  0.38261992704E+02 -0.67327901281E+01  0.12926864225E+03  0.91245150187E+02 0.  0.
         23    2    1    2    0    0 -0.82917994953E+02 -0.38261992704E+02  0.21522623911E+02  0.15636326384E+03  0.12508746127E+03 0.  0.
          5    1    4    4  502    0  0.32008727693E+02 -0.17494814780E+02  0.13874606858E+02  0.39250532585E+02  0.41800000000E+01 0.  1.
         -5    1    4    4    0  502 -0.11492672265E+03 -0.20767177923E+02  0.76480170532E+01  0.11711273125E+03  0.41800000000E+01 0.  1.
        -11    1    3    3    0    0 -0.12722741186E+02  0.13896577997E+00 -0.21772038732E+02  0.25217238654E+02  0.00000000000E+00 0.  1.
         11    1    3    3    0    0  0.95640736138E+02  0.38123026924E+02  0.15039248604E+02  0.10405140359E+03  0.00000000000E+00 0. -1.
</event>
<event>
 8    1  0.9181008E-006  0.8549528E+02  0.7561462E-02  0.1314142E+00
         -1   -1    0    0    0  501 -0.00000000000E+00  0.00000000000E+00  0.45584957283E+02  0.45584957283E+02  0.00000000000E+00 0.  1.
          1   -1    0    0  501    0  0.00000000000E+00 -0.00000000000E+00 -0.27623712008E+03  0.27623712008E+03  0.00000000000E+00 0. -1.
         23    2    1    2    0    0  0.66794911604E+01  0.27534120694E+02 -0.61284925016E+02  0.10936951063E+03  0.86041294836E+02 0.  0.
         23    2    1    2    0    0 -0.66794911604E+01 -0.27534120694E+02 -0.16936723778E+03  0.21245256673E+03  0.12509231980E+03 0.  0.
          5    1    4    4  502    0 -0.23982829946E+02 -0.56353805343E+02 -0.16764944910E+03  0.17853497610E+03  0.41800000000E+01 0.  1.
         -5    1    4    4    0  502  0.17303338786E+02  0.28819684649E+02 -0.17177886856E+01  0.33917590633E+02  0.41800000000E+01 0.  1.
        -11    1    3    3    0    0 -0.14271506947E+02  0.45776250452E+02 -0.70915990868E+01  0.48470937618E+02  0.00000000000E+00 0.  1.
         11    1    3    3    0    0  0.20950998108E+02 -0.18242129758E+02 -0.54193325929E+02  0.60898573014E+02  0.00000000000E+00 0. -1.
</event>
<event>
 8    1  0.9181008E-006  0.8486557E+02  0.7561462E-02  0.1315784E+00
         -2   -1    0    0    0  501 -0.00000000000E+00  0.00000000000E+00  0.85859622774E+02  0.85859622774E+02  0.00000000000E+00 0.  1.
          2   -1    0    0  501    0  0.00000000000E+00 -0.00000000000E+00 -0.13560869308E+03  0.13560869308E+03  0.00000000000E+00 0. -1.
         23    2    1    2    0    0 -0.15268449999E+02 -0.81397376767E+01 -0.25294747366E+02  0.92848708003E+02  0.87645179210E+02 0.  0.
         23    2    1    2    0    0  0.15268449999E+02  0.81397376767E+01 -0.24454322945E+02  0.12861960785E+03  0.12508240771E+03 0.  0.
          5    1    4    4  502    0 -0.53136237988E+02  0.10526236587E+02 -0.25548282437E+02  0.60037060052E+02  0.41800000000E+01 0.  1.
         -5    1    4    4    0  502  0.68404687987E+02 -0.23864989099E+01  0.10939594925E+01  0.68582547802E+02  0.41800000000E+01 0.  1.
        -11    1    3    3    0    0 -0.32048213781E+01 -0.25492612664E+02  0.26498477273E+02  0.36909530995E+02  0.00000000000E+00 0.  1.
         11    1    3    3    0    0 -0.12063628621E+02  0.17352874988E+02 -0.51793224638E+02  0.55939177008E+02  0.00000000000E+00 0. -1.
</event>
<event>
 8    1  0.9181008E-006  0.1436930E+03  0.7561462E-02  0.1208444E+00
          2   -1    0    0  501    0  0.00000000000E+00  0.00000000000E+00  0.17259330021E+03  0.17259330021E+03  0.00000000000E+00 0. -1.
         -2   -1    0    0    0  501 -0.00000000000E+00 -0.00000000000E+00 -0.15612136567E+03  0.15612136567E+03  0.00000000000E+00 0.  1.
         23    2    1    2    0    0 -0.99714037302E+02 -0.23433443737E+02 -0.58633185350E+02  0.15044672286E+03  0.93297108607E+02 0.  0.
         23    2    1    2    0    0  0.99714037302E+02  0.23433443737E+02  0.75105119896E+02  0.17826794302E+03  0.12508662980E+03 0.  0.
          5    1    4    4  502    0  0.24554316762E+02 -0.50399464416E+02  0.27299655948E+02  0.62496112679E+02  0.41800000000E+01 0. -1.
         -5    1    4    4    0  502  0.75159720540E+02  0.73832908153E+02  0.47805463948E+02  0.11577183034E+03  0.41800000000E+01 0. -1.
        -11    1    3    3    0    0 -0.10830673595E+03 -0.32655111527E+02 -0.70369872625E+02  0.13322396306E+03  0.00000000000E+00 0.  1.
         11    1    3    3    0    0  0.85926986462E+01  0.92216677904E+01  0.11736687275E+02  0.17222759798E+02  0.00000000000E+00 0. -1.
</event>
<event>
 8    1  0.9181008E-006  0.1376455E+03  0.7561462E-02  0.1216533E+00
          1   -1    0    0  501    0  0.00000000000E+00  0.00000000000E+00  0.68129267798E+03  0.68129267798E+03  0.00000000000E+00 0. -1.
         -1   -1    0    0    0  501 -0.00000000000E+00 -0.00000000000E+00 -0.63345000855E+02  0.63345000855E+02  0.00000000000E+00 0.  1.
         23    2    1    2    0    0  0.37513767540E+02 -0.89818357926E+02  0.32864434532E+02  0.13846550607E+03  0.92833211399E+02 0.  0.
         23    2    1    2    0    0 -0.37513767540E+02  0.89818357926E+02  0.58508324259E+03  0.60617217276E+03  0.12509069548E+03 0.  0.
          5    1    4    4  502    0  0.46009028230E+02  0.37574969491E+02  0.24000187872E+03  0.24727936267E+03  0.41800000000E+01 0. -1.
         -5    1    4    4    0  502 -0.83522795770E+02  0.52243388435E+02  0.34508136387E+03  0.35889281010E+03  0.41800000000E+01 0. -1.
        -11    1    3    3    0    0  0.54646278363E+02 -0.51182254114E+02  0.52917909479E+02  0.91685026142E+02  0.00000000000E+00 0. -1.
         11    1    3    3    0    0 -0.17132510823E+02 -0.38636103812E+02 -0.20053474946E+02  0.46780479928E+02  0.00000000000E+00 0.  1.
</event>
<event>
 8    1  0.9181008E-006  0.9135953E+02  0.7561462E-02  0.1299592E+00
         -2   -1    0    0    0  501 -0.00000000000E+00  0.00000000000E+00  0.18069893908E+02  0.18069893908E+02  0.00000000000E+00 0.  1.
          2   -1    0    0  501    0  0.00000000000E+00 -0.00000000000E+00 -0.79946695241E+03  0.79946695241E+03  0.00000000000E+00 0. -1.
         23    2    1    2    0    0 -0.34842350532E+02 -0.24276621261E+02 -0.27203798221E+03  0.29134706130E+03  0.95263333083E+02 0.  0.
         23    2    1    2    0    0  0.34842350532E+02  0.24276621261E+02 -0.50935907629E+03  0.52618978502E+03  0.12500271009E+03 0.  0.
          5    1    4    4  502    0 -0.19354881215E+02  0.29142754937E+01 -0.41319143688E+03  0.41367588803E+03  0.41800000000E+01 0. -1.
         -5    1    4    4    0  502  0.54197231747E+02  0.21362345767E+02 -0.96167639408E+02  0.11251389699E+03  0.41800000000E+01 0. -1.
        -11    1    3    3    0    0 -0.92136112245E+01  0.36867526224E+02 -0.99453299088E+02  0.10646625673E+03  0.00000000000E+00 0. -1.
         11    1    3    3    0    0 -0.25628739307E+02 -0.61144147485E+02 -0.17258468312E+03  0.18488080457E+03  0.00000000000E+00 0.  1.
</event>
<event>
 8    1  0.9181008E-006  0.1051636E+03  0.7561462E-02  0.1269798E+00
         -1   -1    0    0    0  501 -0.00000000000E+00  0.00000000000E+00  0.18327321353E+03  0.18327321353E+03  0.00000000000E+00 0.  1.
          1   -1    0    0  501    0  0.00000000000E+00 -0.00000000000E+00 -0.68766988212E+02  0.68766988212E+02  0.00000000000E+00 0. -1.
         23    2    1    2    0    0 -0.19165330424E+02 -0.16103578418E+02  0.59077085310E+02  0.11296352340E+03  0.92973224546E+02 0.  0.
         23    2    1    2    0    0  0.19165330424E+02  0.16103578418E+02  0.55429140006E+02  0.13907667834E+03  0.12507316966E+03 0.  0.
          5    1    4    4  502    0  0.24083008805E+02  0.62747669377E+02  0.61995712503E+02  0.91532519325E+02  0.41800000000E+01 0.  1.
         -5    1    4    4    0  502 -0.49176783802E+01 -0.46644090958E+02 -0.65665724967E+01  0.47544159014E+02  0.41800000000E+01 0.  1.
        -11    1    3    3    0    0  0.33449383456E+02  0.12862365861E+02  0.27026770275E+02  0.44885944578E+02  0.00000000000E+00 0.  1.
         11    1    3    3    0    0 -0.52614713880E+02 -0.28965944279E+02  0.32050315035E+02  0.68077578824E+02  0.00000000000E+00 0. -1.
</event>
<event>
 8    1  0.9181008E-006  0.2433220E+03  0.7561462E-02  0.1117599E+00
         -1   -1    0    0    0  501 -0.00000000000E+00  0.00000000000E+00  0.79860100410E+02  0.79860100410E+02  0.00000000000E+00 0.  1.
          1   -1    0    0  501    0  0.00000000000E+00 -0.00000000000E+00 -0.87675716572E+03  0.87675716572E+03  0.00000000000E+00 0. -1.
         23    2    1    2    0    0 -0.29099835532E+02 -0.23308413415E+03 -0.29056888309E+03  0.38460976655E+03  0.91210650069E+02 0.  0.
         23    2    1    2    0    0  0.29099835532E+02  0.23308413415E+03 -0.50632818222E+03  0.57200749958E+03  0.12509731189E+03 0.  0.
          5    1    4    4  502    0  0.29023978287E+02  0.22287074249E+03 -0.35440083597E+03  0.41967985907E+03  0.41800000000E+01 0. -1.
         -5    1    4    4    0  502  0.75857245695E-01  0.10213391657E+02 -0.15192734625E+03  0.15232764050E+03  0.41800000000E+01 0. -1.
        -11    1    3    3    0    0 -0.60848561338E+02 -0.15640410872E+03 -0.21135751736E+03  0.26988292422E+03  0.00000000000E+00 0.  1.
         11    1    3    3    0    0  0.31748725805E+02 -0.76680025434E+02 -0.79211365726E+02  0.11472684233E+03  0.00000000000E+00 0. -1.
</event>
<event>
 8    1  0.9181008E-006  0.1839385E+03  0.7561462E-02  0.1164045E+00
         -1   -1    0    0    0  501 -0.00000000000E+00  0.00000000000E+00  0.42392289712E+02  0.42392289712E+02  0.00000000000E+00 0.  1.
          1   -1    0    0  501    0  0.00000000000E+00 -0.00000000000E+00 -0.89416154225E+03  0.89416154225E+03  0.00000000000E+00 0. -1.
         23    2    1    2    0    0  0.91924256891E+02  0.13205518489E+03 -0.38680705804E+03  0.42888685081E+03  0.91845466871E+02 0.  0.
         23    2    1    2    0    0 -0.91924256891E+02 -0.13205518489E+03 -0.46496219450E+03  0.50766698115E+03  0.12508909056E+03 0.  0.
          5    1    4    4  502    0 -0.81608986744E+02 -0.40327760802E+02 -0.34154944816E+03  0.35349660952E+03  0.41800000000E+01 0. -1.
         -5    1    4    4    0  502 -0.10315270147E+02 -0.91727424092E+02 -0.12341274634E+03  0.15417037163E+03  0.41800000000E+01 0. -1.
        -11    1    3    3    0    0  0.61192056328E+02  0.13984542343E+03 -0.33517090525E+03  0.36829437402E+03  0.00000000000E+00 0. -1.
         11    1    3    3    0    0  0.30732200562E+02 -0.77902385369E+01 -0.51636152794E+02  0.60592476787E+02  0.00000000000E+00 0.  1.
</event>
<event>
 8    1  0.9181008E-006  0.9658211E+02  0.7561462E-02  0.1287652E+00
          2   -1    0    0  501    0  0.00000000000E+00  0.00000000000E+00  0.24841610663E+03  0.24841610663E+03  0.00000000000E+00 0.  1.
         -2   -1    0    0    0  501 -0.00000000000E+00 -0.00000000000E+00 -0.48885029764E+02  0.48885029764E+02  0.00000000000E+00 0. -1.
         23    2    1    2    0    0  0.94703918339E+01 -0.77831969991E+01  0.97737537597E+02  0.13559911194E+03  0.93189196940E+02 0.  0.
         23    2    1    2    0    0 -0.94703918339E+01  0.77831969991E+01  0.10179353927E+03  0.16170202446E+03  0.12504140754E+03 0.  0.
          5    1    4    4  502    0  0.16333539656E+02  0.52749516218E+02  0.10111658507E+02  0.56293996276E+02  0.41800000000E+01 0. -1.
         -5    1    4    4    0  502 -0.25803931490E+02 -0.44966319219E+02  0.91681880766E+02  0.10540802818E+03  0.41800000000E+01 0. -1.
        -11    1    3    3    0    0  0.13816249553E+02  0.37664416125E+02  0.18564171690E+02  0.44205491336E+02  0.00000000000E+00 0. -1.
         11    1    3    3    0    0 -0.43458577188E+01 -0.45447613124E+02  0.79173365907E+02  0.91393620603E+02  0.00000000000E+00 0.  1.
</event>
<event>
 8    1  0.9181008E-006  0.8407901E+02  0.7561462E-02  0.1317859E+00
          1   -1    0    0  501    0  0.00000000000E+00  0.00000000000E+00  0.39058546490E+03  0.39058546490E+03  0.00000000000E+00 0. -1.
         -1   -1    0    0    0  501 -0.00000000000E+00 -0.00000000000E+00 -0.43143786275E+02  0.43143786275E+02  0.00000000000E+00 0.  1.
         23    2    1    2    0    0 -0.16932349530E+02 -0.60577319345E+02  0.99750459619E+02  0.14920310447E+03  0.91406214839E+02 0.  0.
         23    2    1    2    0    0  0.16932349530E+02  0.60577319345E+02  0.24769121901E+03  0.28452614671E+03  0.12509145496E+03 0.  0.
          5    1    4    4  502    0 -0.18670088534E+01  0.15435787473E+02 -0.12099704564E+02  0.20140121834E+02  0.41800000000E+01 0. -1.
         -5    1    4    4    0  502  0.18799358383E+02  0.45141531872E+02  0.25979092357E+03  0.26438602487E+03  0.41800000000E+01 0. -1.
        -11    1    3    3    0    0 -0.26924673771E+01 -0.79362033011E+02  0.49166774300E+02  0.93396752402E+02  0.00000000000E+00 0.  1.
         11    1    3    3    0    0 -0.14239882152E+02  0.18784713666E+02  0.50583685318E+02  0.55806352072E+02  0.00000000000E+00 0. -1.
</event>
<event>
 8    1  0.9181008E-006  0.2283529E+03  0.7561462E-02  0.1127804E+00
         -1   -1    0    0    0  501 -0.00000000000E+00  0.00000000000E+00  0.41223884804E+02  0.41223884804E+02  0.00000000000E+00 0.  1.
          1   -1    0    0  501    0  0.00000000000E+00 -0.00000000000E+00 -0.23089847598E+04  0.23089847598E+04  0.00000000000E+00 0. -1.
         23    2    1    2    0    0  0.18080806780E+03  0.87883737107E+02 -0.32346755659E+03  0.39154949200E+03  0.90910042827E+02 0.  0.
         23    2    1    2    0    0 -0.18080806780E+03 -0.87883737107E+02 -0.19442933184E+04  0.19586591526E+04  0.12511618388E+03 0.  0.
          5    1    4    4  502    0 -0.15146345693E+03 -0.83542987081E+01 -0.12115091685E+04  0.12209762122E+04  0.41800000000E+01 0.  1.
         -5    1    4    4    0  502 -0.29344610863E+02 -0.79529438399E+02 -0.73278414997E+03  0.73768294043E+03  0.41800000000E+01 0.  1.
        -11    1    3    3    0    0  0.90336979980E+02  0.92757735725E+02 -0.20380518795E+03  0.24145666718E+03  0.00000000000E+00 0. -1.
         11    1    3    3    0    0  0.90471087818E+02 -0.48739986179E+01 -0.11966236864E+03  0.15009282482E+03  0.00000000000E+00 0.  1.
</event>
<event>
 8    1  0.9181008E-006  0.1389587E+03  0.7561462E-02  0.1214737E+00
          2   -1    0    0  501    0  0.00000000000E+00  0.00000000000E+00  0.33247726084E+03  0.33247726084E+03  0.00000000000E+00 0. -1.
         -2   -1    0    0    0  501 -0.00000000000E+00 -0.00000000000E+00 -0.98359563364E+02  0.98359563364E+02  0.00000000000E+00 0.  1.
         23    2    1    2    0    0 -0.63231537352E+02  0.89256640698E+02 -0.42073362998E+01  0.14030122310E+03  0.87759650744E+02 0.  0.
         23    2    1    2    0    0  0.63231537352E+02 -0.89256640698E+02  0.23832503378E+03  0.29053560111E+03  0.12508852291E+03 0.  0.
          5    1    4    4  502    0  0.90839269722E+02 -0.40593385530E+02  0.99373232051E+02  0.14068442530E+03  0.41800000000E+01 0.  1.
         -5    1    4    4    0  502 -0.27607732370E+02 -0.48663255168E+02  0.13895180173E+03  0.14985117582E+03  0.41800000000E+01 0.  1.
        -11    1    3    3    0    0 -0.35220696854E+02  0.77785320616E+01  0.30674939091E+02  0.47349286543E+02  0.00000000000E+00 0. -1.
         11    1    3    3    0    0 -0.28010840498E+02  0.81478108637E+02 -0.34882275391E+02  0.92951936552E+02  0.00000000000E+00 0.  1.
</event>
<event>
 6    1  0.9181008E-006  0.5395335E+02  0.7561462E-02  0.1425114E+00
          2   -1    0    0  501    0  0.00000000000E+00  0.00000000000E+00  0.14294815084E+03  0.14294815084E+03  0.00000000000E+00 0. -1.
         -2   -1    0    0    0  501 -0.00000000000E+00 -0.00000000000E+00 -0.93449262559E+02  0.93449262559E+02  0.00000000000E+00 0.  1.
          5    1    1    2  502    0 -0.25290334237E+02  0.14280887776E+02  0.12206631638E+03  0.12554362890E+03  0.41800000000E+01 0. -1.
         -5    1    1    2    0  502  0.29955822385E+02 -0.38933663487E+02 -0.57832735072E+02  0.75995257044E+02  0.41800000000E+01 0.  1.
        -11    1    1    2    0    0 -0.94750322965E+01  0.97212861093E+01 -0.35731967136E+00  0.13579665607E+02  0.00000000000E+00 0. -1.
         11    1    1    2    0    0  0.48095441485E+01  0.14931489602E+02 -0.14377373362E+02  0.21278861846E+02  0.00000000000E+00 0.  1.
</event>
<event>
 8    1  0.9181008E-006  0.2720338E+03  0.7561462E-02  0.1100121E+00
         -1   -1    0    0    0  501 -0.00000000000E+00  0.00000000000E+00  0.95405107133E+03  0.95405107133E+03  0.00000000000E+00 0.  1.
          1   -1    0    0  501    0  0.00000000000E+00 -0.00000000000E+00 -0.12398526261E+03  0.12398526261E+03  0.00000000000E+00 0. -1.
         23    2    1    2    0    0 -0.69901854450E+02 -0.25486054789E+03  0.70798886120E+03  0.76119265196E+03  0.91246137910E+02 0.  0.
         23    2    1    2    0    0  0.69901854450E+02  0.25486054789E+03  0.12207694751E+03  0.31684368198E+03  0.12508784742E+03 0.  0.
          5    1    4    4  502    0 -0.46457667738E+01  0.63539520752E+02  0.87907401355E+02  0.10864638724E+03  0.41800000000E+01 0. -1.
         -5    1    4    4    0  502  0.74547621224E+02  0.19132102713E+03  0.34169546156E+02  0.20819729474E+03  0.41800000000E+01 0. -1.
        -11    1    3    3    0    0  0.10116029517E+02 -0.10023490774E+03  0.32998494771E+03  0.34502092182E+03  0.00000000000E+00 0.  1.
         11    1    3    3    0    0 -0.80017883967E+02 -0.15462564014E+03  0.37800391350E+03  0.41617173014E+03  0.00000000000E+00 0. -1.
</event>
<event>
 8    1  0.9181008E-006  0.2532303E+03  0.7561462E-02  0.1111280E+00
          2   -1    0    0  501    0  0.00000000000E+00  0.00000000000E+00  0.64023034432E+03  0.64023034432E+03  0.00000000000E+00 0. -1.
         -2   -1    0    0    0  501 -0.00000000000E+00 -0.00000000000E+00 -0.13576727831E+03  0.13576727831E+03  0.00000000000E+00 0.  1.
         23    2    1    2    0    0 -0.21078783792E+03 -0.94044153080E+02  0.55877498994E+02  0.25623734209E+03  0.96226115185E+02 0.  0.
         23    2    1    2    0    0  0.21078783792E+03  0.94044153080E+02  0.44858556702E+03  0.51976028053E+03  0.12508366375E+03 0.  0.
          5    1    4    4  502    0  0.14180810967E+02  0.56764957587E+02  0.68411240009E+02  0.90116180396E+02  0.41800000000E+01 0. -1.
         -5    1    4    4    0  502  0.19660702696E+03  0.37279195493E+02  0.38017432701E+03  0.42964410014E+03  0.41800000000E+01 0. -1.
        -11    1    3    3    0    0 -0.17362413824E+03 -0.11175386895E+03  0.59576744940E+02  0.21490383231E+03  0.00000000000E+00 0.  1.
         11    1    3    3    0    0 -0.37163699680E+02  0.17709715868E+02 -0.36992459454E+01  0.41333509779E+02  0.00000000000E+00 0. -1.
</event>
<event>
 8    1  0.9181008E-006  0.1014078E+03  0.7561462E-02  0.1277363E+00
         -2   -1    0    0    0  501 -0.00000000000E+00  0.00000000000E+00  0.79611859863E+02  0.79611859863E+02  0.00000000000E+00 0.  1.
          2   -1    0    0  501    0  0.00000000000E+00 -0.00000000000E+00 -0.16223347286E+03  0.16223347286E+03  0.00000000000E+00 0. -1.
         23    2    1    2    0    0 -0.61835678209E+01 -0.76011806946E+01 -0.12105370589E+01  0.92276122730E+02  0.91746405745E+02 0.  0.
         23    2    1    2    0    0  0.61835678209E+01  0.76011806946E+01 -0.81411075943E+02  0.14956921000E+03  0.12508865190E+03 0.  0.
          5    1    4    4  502    0  0.26702829932E+02 -0.53212818077E+02 -0.50625627337E+02  0.78262837141E+02  0.41800000000E+01 0.  1.
         -5    1    4    4    0  502 -0.20519262111E+02  0.60813998772E+02 -0.30785448606E+02  0.71306372857E+02  0.41800000000E+01 0.  1.
        -11    1    3    3    0    0 -0.42238507939E+02 -0.65505947448E+01  0.23285222309E+02  0.48674463761E+02  0.00000000000E+00 0.  1.
         11    1    3    3    0    0  0.36054940118E+02 -0.10505859498E+01 -0.24495759368E+02  0.43601658968E+02  0.00000000000E+00 0. -1.
</event>
<event>
 8    1  0.9181008E-006  0.9649007E+02  0.7561462E-02  0.1287855E+00
          1   -1    0    0  501    0  0.00000000000E+00  0.00000000000E+00  0.35146378939E+02  0.35146378939E+02  0.00000000000E+00 0. -1.
         -1   -1    0    0    0  501 -0.00000000000E+00 -0.00000000000E+00 -0.48741860426E+03  0.48741860426E+03  0.00000000000E+00 0.  1.
         23    2    1    2    0    0 -0.65802679840E+02  0.28106007501E+02 -0.18028589095E+03  0.21475853196E+03  0.92186139103E+02 0.  0.
         23    2    1    2    0    0  0.65802679840E+02 -0.28106007501E+02 -0.27198633437E+03  0.30780645124E+03  0.12509318530E+03 0.  0.
          5    1    4    4  502    0  0.19647402921E+01  0.19584379993E+02 -0.19790406501E+03  0.19892435621E+03  0.41800000000E+01 0. -1.
         -5    1    4    4    0  502  0.63837939548E+02 -0.47690387494E+02 -0.74082269361E+02  0.10888209503E+03  0.41800000000E+01 0. -1.
        -11    1    3    3    0    0 -0.64704755958E+02 -0.23177792555E+00 -0.17409648665E+03  0.18573191925E+03  0.00000000000E+00 0.  1.
         11    1    3    3    0    0 -0.10979238818E+01  0.28337785427E+02 -0.61894042966E+01  0.29026612708E+02  0.00000000000E+00 0. -1.
</event>
<event>
 8    1  0.9181008E-006  0.8918016E+02  0.7561462E-02  0.1304849E+00
         -1   -1    0    0    0  501 -0.00000000000E+00  0.00000000000E+00  0.13754500526E+03  0.13754500526E+03  0.00000000000E+00 0.  1.
          1   -1    0    0  501    0  0.00000000000E+00 -0.00000000000E+00 -0.91729151543E+02  0.91729151543E+02  0.00000000000E+00 0. -1.
         23    2    1    2    0    0 -0.18175157705E+02  0.10575202133E+02  0.28995633411E+02  0.10132031635E+03  0.94778101320E+02 0.  0.
         23    2    1    2    0    0  0.18175157705E+02 -0.10575202133E+02  0.16820220310E+02  0.12795384046E+03  0.12508834566E+03 0.  0.
          5    1    4    4  502    0  0.23664775533E+02 -0.63345662910E+02  0.28444277955E+02  0.73479547895E+02  0.41800000000E+01 0.  1.
         -5    1    4    4    0  502 -0.54896178283E+01  0.52770460776E+02 -0.11624057645E+02  0.54474292566E+02  0.41800000000E+01 0.  1.
        -11    1    3    3    0    0 -0.35348261556E+02  0.16781809791E+02  0.56245631492E+02  0.68517879396E+02  0.00000000000E+00 0.  1.
         11    1    3    3    0    0  0.17173103852E+02 -0.62066076575E+01 -0.27249998081E+02  0.32802436951E+02  0.00000000000E+00 0. -1.
</event>
<event>
 8    1  0.9181008E-006  0.1198134E+03  0.7561462E-02  0.1243405E+00
          1   -1    0    0  501    0  0.00000000000E+00  0.00000000000E+00  0.31187990162E+02  0.31187990162E+02  0.00000000000E+00 0. -1.
         -1   -1    0    0    0  501 -0.00000000000E+00 -0.00000000000E+00 -0.57305152566E+03  0.57305152566E+03  0.00000000000E+00 0.  1.
         23    2    1    2    0    0 -0.42726659499E+02  0.58508591039E+02 -0.30626584080E+03  0.32782735501E+03  0.91777921055E+02 0.  0.
         23    2    1    2    0    0  0.42726659499E+02 -0.58508591039E+02 -0.23559769470E+03  0.27641216081E+03  0.12509430939E+03 0.  0.
          5    1    4    4  502    0  0.63529139932E+02  0.17159831448E+02 -0.10451636237E+03  0.12357812848E+03  0.41800000000E+01 0.  1.
         -5    1    4    4    0  502 -0.20802480433E+02 -0.75668422488E+02 -0.13108133233E+03  0.15283403233E+03  0.41800000000E+01 0.  1.
        -11    1    3    3    0    0 -0.29780218554E+01  0.55128810863E+02 -0.74906161684E+02  0.93053680527E+02  0.00000000000E+00 0. -1.
         11    1    3    3    0    0 -0.39748637643E+02  0.33797801760E+01 -0.23135967912E+03  0.23477367448E+03  0.00000000000E+00 0.  1.
</event>
<event>
 8    1  0.9181008E-006  0.1780573E+03  0.7561462E-02  0.1169697E+00
          1   -1    0    0  501    0  0.00000000000E+00  0.00000000000E+00  0.32155444124E+03  0.32155444124E+03  0.00000000000E+00 0.  1.
         -1   -1    0    0    0  501 -0.00000000000E+00 -0.00000000000E+00 -0.13858733815E+03  0.13858733815E+03  0.00000000000E+00 0. -1.
         23    2    1    2    0    0 -0.14392303594E+03  0.50740006128E+02 -0.17564042482E+02  0.17880092220E+03  0.91503473681E+02 0.  0.
         23    2    1    2    0    0  0.14392303594E+03 -0.50740006128E+02  0.20053114557E+03  0.28134085719E+03  0.12510615126E+03 0.  0.
          5    1    4    4  502    0  0.76779538024E+02  0.31030535485E+02  0.48474224833E+02  0.96047980014E+02  0.41800000000E+01 0.  1.
         -5    1    4    4    0  502  0.67143497920E+02 -0.81770541613E+02  0.15205692073E+03  0.18529287717E+03  0.41800000000E+01 0.  1.
        -11    1    3    3    0    0 -0.76205842176E+02  0.62525376081E+02  0.19835949172E+02  0.10054957939E+03  0.00000000000E+00 0.  1.
         11    1    3    3    0    0 -0.67717193768E+02 -0.11785369952E+02 -0.37399991654E+02  0.78251342815E+02  0.00000000000E+00 0. -1.
</event>
<event>
 8    1  0.9181008E-006  0.9483717E+02  0.7561462E-02  0.1291543E+00
         -1   -1    0    0    0  501 -0.00000000000E+00  0.00000000000E+00  0.23245474197E+02  0.23245474197E+02  0.00000000000E+00 0.  1.
          1   -1    0    0  501    0  0.00000000000E+00 -0.00000000000E+00 -0.70320266323E+03  0.70320266323E+03  0.00000000000E+00 0. -1.
         23    2    1    2    0    0  0.46657038117E+02  0.65824342174E+01 -0.16387046114E+03  0.19333183659E+03  0.91123341473E+02 0.  0.
         23    2    1    2    0    0 -0.46657038117E+02 -0.65824342174E+01 -0.51608672790E+03  0.53311630084E+03  0.12508905571E+03 0.  0.
          5    1    4    4  502    0 -0.53010917058E+02  0.43070598650E+02 -0.41080068835E+03  0.41646117676E+03  0.41800000000E+01 0.  1.
         -5    1    4    4    0  502  0.63538789408E+01 -0.49653032868E+02 -0.10528603955E+03  0.11665512408E+03  0.41800000000E+01 0.  1.
        -11    1    3    3    0    0  0.20013034241E+02  0.29648351436E+02 -0.12466970058E+02  0.37881019321E+02  0.00000000000E+00 0.  1.
         11    1    3    3    0    0  0.26644003876E+02 -0.23065917218E+02 -0.15140349108E+03  0.15545081727E+03  0.00000000000E+00 0. -1.
</event>
<event>
 8    1  0.9181008E-006  0.8224175E+02  0.7561462E-02  0.1322807E+00
          4   -1    0    0  501    0  0.00000000000E+00  0.00000000000E+00  0.10240516149E+03  0.10240516149E+03  0.00000000000E+00 0.  1.
         -4   -1    0    0    0  501 -0.00000000000E+00 -0.00000000000E+00 -0.12192284501E+03  0.12192284501E+03  0.00000000000E+00 0. -1.
         23    2    1    2    0    0  0.10422591979E+01  0.23180306514E+02 -0.66409093969E-01  0.95632173350E+02  0.92774432120E+02 0.  0.
         23    2    1    2    0    0 -0.10422591979E+01 -0.23180306514E+02 -0.19451274429E+02  0.12869583315E+03  0.12508338211E+03 0.  0.
          5    1    4    4  502    0  0.57197541941E+02 -0.67370829845E+01  0.14007998225E+02  0.59419218318E+02  0.41800000000E+01 0.  1.
         -5    1    4    4    0  502 -0.58239801139E+02 -0.16443223530E+02 -0.33459272654E+02  0.69276614837E+02  0.41800000000E+01 0.  1.
        -11    1    3    3    0    0  0.18693913737E+02  0.24543830609E+01 -0.41770611178E+02  0.45828706780E+02  0.00000000000E+00 0. -1.
         11    1    3    3    0    0 -0.17651654539E+02  0.20725923453E+02  0.41704202084E+02  0.49803466570E+02  0.00000000000E+00 0.  1.
</event>
<event>
 8    1  0.9181008E-006  0.8838660E+02  0.7561462E-02  0.1306806E+00
         -2   -1    0    0    0  501 -0.00000000000E+00  0.00000000000E+00  0.83775580971E+02  0.83775580971E+02  0.00000000000E+00 0.  1.
          2   -1    0    0  501    0  0.00000000000E+00 -0.00000000000E+00 -0.17010423293E+03  0.17010423293E+03  0.00000000000E+00 0. -1.
         23    2    1    2    0    0 -0.27147810953E+02 -0.39429543432E+02 -0.22311823870E+02  0.10542889408E+03  0.91245502283E+02 0.  0.
         23    2    1    2    0    0  0.27147810953E+02  0.39429543432E+02 -0.64016828094E+02  0.14845091983E+03  0.12509128181E+03 0.  0.
          5    1    4    4  502    0  0.68681317702E+02  0.27605239205E+01 -0.62299522151E+02  0.92862515333E+02  0.41800000000E+01 0. -1.
         -5    1    4    4    0  502 -0.41533506750E+02  0.36669019511E+02 -0.17173059424E+01  0.55588404497E+02  0.41800000000E+01 0. -1.
        -11    1    3    3    0    0 -0.19679145876E+02 -0.10173589439E+02 -0.55980303952E+02  0.60204361429E+02  0.00000000000E+00 0. -1.
         11    1    3    3    0    0 -0.74686650765E+01 -0.29255953993E+02  0.33668480082E+02  0.45224532647E+02  0.00000000000E+00 0.  1.
</event>
<event>
 8    1  0.9181008E-006  0.8048214E+02  0.7561462E-02  0.1327689E+00
          2   -1    0    0  501    0  0.00000000000E+00  0.00000000000E+00  0.11890315189E+03  0.11890315189E+03  0.00000000000E+00 0. -1.
         -2   -1    0    0    0  501 -0.00000000000E+00 -0.00000000000E+00 -0.10447872545E+03  0.10447872545E+03  0.00000000000E+00 0.  1.
         23    2    1    2    0    0 -0.22422127313E+02  0.40201566238E+01 -0.21232067194E+01  0.95163182014E+02  0.92372126487E+02 0.  0.
         23    2    1    2    0    0  0.22422127313E+02 -0.40201566238E+01  0.16547633160E+02  0.12821869532E+03  0.12508915306E+03 0.  0.
          5    1    4    4  502    0 -0.25047976526E+02 -0.38686548200E+02  0.43414960455E+02  0.63453773182E+02  0.41800000000E+01 0.  1.
         -5    1    4    4    0  502  0.47470103839E+02  0.34666391577E+02 -0.26867327294E+02  0.64764922137E+02  0.41800000000E+01 0.  1.
        -11    1    3    3    0    0  0.16505592612E+02 -0.84949831713E+00 -0.38352711998E+02  0.41762264695E+02  0.00000000000E+00 0.  1.
         11    1    3    3    0    0 -0.38927719925E+02  0.48696549409E+01  0.36229505279E+02  0.53400917319E+02  0.00000000000E+00 0. -1.
</event>
<event>
 8    1  0.9181008E-006  0.7548572E+02  0.7561462E-02  0.1342373E+00
         -2   -1    0    0    0  501 -0.00000000000E+00  0.00000000000E+00  0.31714047121E+02  0.31714047121E+02  0.00000000000E+00 0.  1.
          2   -1    0    0  501    0  0.00000000000E+00 -0.00000000000E+00 -0.93704170405E+03  0.93704170405E+03  0.00000000000E+00 0. -1.
         23    2    1    2    0    0 -0.69263973031E+01  0.35538557873E+02 -0.47537745144E+02  0.10113711025E+03  0.81596040226E+02 0.  0.
         23    2    1    2    0    0  0.69263973031E+01 -0.35538557873E+02 -0.85778991178E+03  0.86761864092E+03  0.12509040427E+03 0.  0.
          5    1    4    4  502    0 -0.53692782191E+01  0.22623581656E+02 -0.32497128766E+02  0.40177000555E+02  0.41800000000E+01 0.  1.
         -5    1    4    4    0  502  0.12295675522E+02 -0.58162139529E+02 -0.82529278301E+03  0.82744164036E+03  0.41800000000E+01 0.  1.
        -11    1    3    3    0    0 -0.21271971652E+02  0.45540874886E+02 -0.61019121590E+02  0.79055684571E+02  0.00000000000E+00 0. -1.
         11    1    3    3    0    0  0.14345574349E+02 -0.10002317013E+02  0.13481376446E+02  0.22081425677E+02  0.00000000000E+00 0.  1.
</event>
<event>
 6    1  0.9181008E-006  0.9921704E+02  0.7561462E-02  0.1281951E+00
         -1   -1    0    0    0  501 -0.00000000000E+00  0.00000000000E+00  0.39322971098E+02  0.39322971098E+02  0.00000000000E+00 0.  1.
          1   -1    0    0  501    0  0.00000000000E+00 -0.00000000000E+00 -0.43096808121E+03  0.43096808121E+03  0.00000000000E+00 0. -1.
          5    1    1    2  502    0  0.55449343254E+02  0.58204944495E+02 -0.30298527577E+03  0.31349640343E+03  0.41800000000E+01 0. -1.
         -5    1    1    2    0  502 -0.61560704595E+02 -0.64099807404E+02 -0.47587569822E+02  0.10089873568E+03  0.41800000000E+01 0.  1.
        -11    1    1    2    0    0 -0.26645745330E+00  0.16546847055E+02 -0.40172884826E+02  0.43448012869E+02  0.00000000000E+00 0. -1.
         11    1    1    2    0    0  0.63778187949E+01 -0.10651984146E+02 -0.89937969398E+00  0.12447900331E+02  0.00000000000E+00 0.  1.
</event>
<event>
 8    1  0.9181008E-006  0.1232403E+03  0.7561462E-02  0.1237845E+00
         -2   -1    0    0    0  501 -0.00000000000E+00  0.00000000000E+00  0.85482397276E+02  0.85482397276E+02  0.00000000000E+00 0.  1.
          2   -1    0    0  501    0  0.00000000000E+00 -0.00000000000E+00 -0.21548740321E+03  0.21548740321E+03  0.00000000000E+00 0. -1.
         23    2    1    2    0    0 -0.13369791277E+02  0.79770810134E+02 -0.59670015514E+02  0.13492072827E+03  0.90005325938E+02 0.  0.
         23    2    1    2    0    0  0.13369791277E+02 -0.79770810134E+02 -0.70334990416E+02  0.16604907221E+03  0.12681935987E+03 0.  0.
          5    1    4    4  502    0 -0.24085992182E+02 -0.93707088844E+02 -0.78957834714E+02  0.12495185305E+03  0.41800000000E+01 0. -1.
         -5    1    4    4    0  502  0.37455783458E+02  0.13936278710E+02  0.86228442977E+01  0.41097219158E+02  0.41800000000E+01 0.  1.
        -11    1    3    3    0    0  0.30609323076E+02  0.27545986844E+02  0.42444397410E+01  0.41397189749E+02  0.00000000000E+00 0.  1.
         11    1    3    3    0    0 -0.43979114353E+02  0.52224823290E+02 -0.63914455255E+02  0.93523538521E+02  0.00000000000E+00 0. -1.
</event>
<event>
 8    1  0.9181008E-006  0.1496459E+03  0.7561462E-02  0.1200909E+00
         -2   -1    0    0    0  501 -0.00000000000E+00  0.00000000000E+00  0.72368132163E+02  0.72368132163E+02  0.00000000000E+00 0.  1.
          2   -1    0    0  501    0  0.00000000000E+00 -0.00000000000E+00 -0.35938062857E+03  0.35938062857E+03  0.00000000000E+00 0. -1.
         23    2    1    2    0    0  0.67003715133E+02 -0.97536493578E+02 -0.11962220724E+03  0.19160450166E+03  0.91651225694E+02 0.  0.
         23    2    1    2    0    0 -0.67003715133E+02  0.97536493578E+02 -0.16739028917E+03  0.24014425907E+03  0.12508753270E+03 0.  0.
          5    1    4    4  502    0 -0.96392475276E+02  0.54004835181E+02 -0.14631867544E+03  0.18339754278E+03  0.41800000000E+01 0.  1.
         -5    1    4    4    0  502  0.29388760143E+02  0.43531658397E+02 -0.21071613728E+02  0.56746716298E+02  0.41800000000E+01 0.  1.
        -11    1    3    3    0    0 -0.13709496448E+02 -0.18881154181E+02 -0.59410629979E+02  0.63828451576E+02  0.00000000000E+00 0.  1.
         11    1    3    3    0    0  0.80713211581E+02 -0.78655339397E+02 -0.60211577258E+02  0.12777605008E+03  0.00000000000E+00 0. -1.
</event>
<event>
 8    1  0.9181008E-006  0.1512161E+03  0.7561462E-02  0.1198987E+00
          2   -1    0    0  501    0  0.00000000000E+00  0.00000000000E+00  0.82274851470E+02  0.82274851470E+02  0.00000000000E+00 0. -1.
         -2   -1    0    0    0  501 -0.00000000000E+00 -0.00000000000E+00 -0.29252709378E+03  0.29252709378E+03  0.00000000000E+00 0.  1.
         23    2    1    2    0    0 -0.65545987441E+02  0.85787597652E+02 -0.69669038039E+02  0.15785309663E+03  0.91695348150E+02 0.  0.
         23    2    1    2    0    0  0.65545987441E+02 -0.85787597652E+02 -0.14058320427E+03  0.21694884862E+03  0.12508947684E+03 0.  0.
          5    1    4    4  502    0  0.65982434537E+02 -0.11426448324E+03 -0.13252420663E+03  0.18705665329E+03  0.41800000000E+01 0.  1.
         -5    1    4    4    0  502 -0.43644709573E+00  0.28476885587E+02 -0.80589976381E+01  0.29892195331E+02  0.41800000000E+01 0.  1.
        -11    1    3    3    0    0 -0.58324085990E+02  0.10555034565E+03 -0.60083115551E+02  0.13473141894E+03  0.00000000000E+00 0. -1.
         11    1    3    3    0    0 -0.72219014510E+01 -0.19762748003E+02 -0.95859224878E+01  0.23121677688E+02  0.00000000000E+00 0.  1.
</event>
<event>
 7    1  0.9181008E-006  0.1696971E+03  0.7561462E-02  0.1178164E+00
          1   -1    0    0  501    0  0.00000000000E+00  0.00000000000E+00  0.29061660365E+03  0.29061660365E+03  0.00000000000E+00 0. -1.
         -1   -1    0    0    0  501 -0.00000000000E+00 -0.00000000000E+00 -0.11357316610E+03  0.11357316610E+03  0.00000000000E+00 0.  1.
         23    2    1    2    0    0  0.51793394487E+02 -0.47582897865E+02  0.34971696674E+02  0.12189420420E+03  0.93212067720E+02 0.  0.
          5    1    1    2  502    0 -0.96603552676E+02 -0.66880649042E+02  0.92874136046E+02  0.14982771824E+03  0.41800000000E+01 0. -1.
         -5    1    1    2    0  502  0.44810158189E+02  0.11446354691E+03  0.49197604830E+02  0.13246784730E+03  0.41800000000E+01 0.  1.
        -11    1    3    3    0    0  0.19196121026E+02 -0.60722813370E+02 -0.10372596152E+02  0.64523963587E+02  0.00000000000E+00 0.  1.
         11    1    3    3    0    0  0.32597273462E+02  0.13139915506E+02  0.45344292826E+02  0.57370240618E+02  0.00000000000E+00 0. -1.
</event>
<event>
 8    1  0.9181008E-006  0.1260372E+03  0.7561462E-02  0.1233457E+00
          3   -1    0    0  501    0  0.00000000000E+00  0.00000000000E+00  0.10139160838E+04  0.10139160838E+04  0.00000000000E+00 0. -1.
         -3   -1    0    0    0  501 -0.00000000000E+00 -0.00000000000E+00 -0.19829266402E+02  0.19829266402E+02  0.00000000000E+00 0.  1.
         23    2    1    2    0    0  0.59210613009E+02  0.36490475727E+02  0.22960154489E+03  0.25597761063E+03  0.89276067448E+02 0.  0.
         23    2    1    2    0    0 -0.59210613009E+02 -0.36490475727E+02  0.76448527252E+03  0.77776773958E+03  0.12508986097E+03 0.  0.
          5    1    4    4  502    0  0.23671458746E+01 -0.71434769860E+02  0.41972019679E+03  0.42578286217E+03  0.41800000000E+01 0. -1.
         -5    1    4    4    0  502 -0.61577758884E+02  0.34944294132E+02  0.34476507574E+03  0.35198487741E+03  0.41800000000E+01 0. -1.
        -11    1    3    3    0    0 -0.10436801180E+02  0.38486885288E+02  0.54567937552E+02  0.67585700904E+02  0.00000000000E+00 0.  1.
         11    1    3    3    0    0  0.69647414189E+02 -0.19964095607E+01  0.17503360734E+03  0.18839190973E+03  0.00000000000E+00 0. -1.
</event>
<event>
 7    1  0.9181008E-006  0.1180840E+03  0.7561462E-02  0.1246292E+00
          1   -1    0    0  501    0  0.00000000000E+00  0.00000000000E+00  0.18200030480E+04  0.18200030480E+04  0.00000000000E+00 0. -1.
         -1   -1    0    0    0  501 -0.00000000000E+00 -0.00000000000E+00 -0.28512708185E+02  0.28512708185E+02  0.00000000000E+00 0.  1.
         23    2    1    2    0    0 -0.17746955866E+02 -0.28028685851E+01  0.16469454233E+04  0.16507849139E+04  0.11108012462E+03 0.  0.
          5    1    3    3  502    0 -0.15056278960E+01 -0.50870117733E+02  0.11734600230E+04  0.11745705316E+04  0.41800000000E+01 0. -1.
         -5    1    3    3    0  502 -0.16241327970E+02  0.48067249148E+02  0.47348540027E+03  0.47621438223E+03  0.41800000000E+01 0.  1.
        -11    1    1    2    0    0  0.28324540367E+02  0.65106080652E+02  0.86669128456E+02  0.11203847175E+03  0.00000000000E+00 0.  1.
         11    1    1    2    0    0 -0.10577584501E+02 -0.62303212066E+02  0.57875788089E+02  0.85692370574E+02  0.00000000000E+00 0. -1.
</event>
<event>
 7    1  0.9181008E-006  0.8237869E+02  0.7561462E-02  0.1322433E+00
          2   -1    0    0  501    0  0.00000000000E+00  0.00000000000E+00  0.44869506233E+03  0.44869506233E+03  0.00000000000E+00 0. -1.
         -2   -1    0    0    0  501 -0.00000000000E+00 -0.00000000000E+00 -0.75196036240E+02  0.75196036240E+02  0.00000000000E+00 0.  1.
         23    2    1    2    0    0 -0.26684652911E+02 -0.29821938791E+02  0.42835464886E+02  0.10701350307E+03  0.89529850072E+02 0.  0.
          5    1    1    2  502    0  0.69999869773E+02  0.28760791965E+02  0.35769566530E+03  0.36563756138E+03  0.41800000000E+01 0. -1.
         -5    1    1    2    0  502 -0.43315216862E+02  0.10611468261E+01 -0.27032104092E+02  0.51240034114E+02  0.41800000000E+01 0.  1.
        -11    1    3    3    0    0 -0.89349377304E+01 -0.25705163049E+02 -0.24890146305E+02  0.36879640762E+02  0.00000000000E+00 0.  1.
         11    1    3    3    0    0 -0.17749715181E+02 -0.41167757419E+01  0.67725611192E+02  0.70133862312E+02  0.00000000000E+00 0. -1.
</event>
<event>
 8    1  0.9181008E-006  0.8629517E+02  0.7561462E-02  0.1312080E+00
         -1   -1    0    0    0  501 -0.00000000000E+00  0.00000000000E+00  0.63981282366E+02  0.63981282366E+02  0.00000000000E+00 0.  1.
          1   -1    0    0  501    0  0.00000000000E+00 -0.00000000000E+00 -0.21010484181E+03  0.21010484181E+03  0.00000000000E+00 0. -1.
         23    2    1    2    0    0 -0.32267495186E+01 -0.22626498874E+02 -0.18684186210E+02  0.94050807911E+02  0.89297733961E+02 0.  0.
         23    2    1    2    0    0  0.32267495186E+01  0.22626498874E+02 -0.12743937324E+03  0.18003531627E+03  0.12509816501E+03 0.  0.
          5    1    4    4  502    0 -0.38814351841E+01 -0.50804549360E+02 -0.68729805433E+02  0.85658778474E+02  0.41800000000E+01 0. -1.
         -5    1    4    4    0  502  0.71081847027E+01  0.73431048234E+02 -0.58709567805E+02  0.94376537796E+02  0.41800000000E+01 0. -1.
        -11    1    3    3    0    0  0.93177720981E+01 -0.31080167256E+02  0.29312554931E+02  0.43726691507E+02  0.00000000000E+00 0.  1.
         11    1    3    3    0    0 -0.12544521617E+02  0.84536683823E+01 -0.47996741141E+02  0.50324116404E+02  0.00000000000E+00 0. -1.
</event>
<event>
 6    1  0.9181008E-006  0.1870110E+03  0.7561462E-02  0.1161185E+00
          2   -1    0    0  501    0  0.00000000000E+00  0.00000000000E+00  0.41855241865E+03  0.41855241865E+03  0.00000000000E+00 0. -1.
         -2   -1    0    0    0  501 -0.00000000000E+00 -0.00000000000E+00 -0.88419519148E+02  0.88419519148E+02  0.00000000000E+00 0.  1.
          5    1    1    2  502    0  0.14604793694E+03 -0.67336914276E+02  0.10038714995E+03  0.18962940748E+03  0.41800000000E+01 0. -1.
         -5    1    1    2    0  502 -0.13436596757E+03 -0.79432284062E+01  0.17539691592E+03  0.22113086314E+03  0.41800000000E+01 0.  1.
        -11    1    1    2    0    0 -0.16567100532E+02  0.48365406161E+02  0.28279548243E+02  0.58424431379E+02  0.00000000000E+00 0. -1.
         11    1    1    2    0    0  0.48851311596E+01  0.26914736522E+02  0.26069285390E+02  0.37787235798E+02  0.00000000000E+00 0.  1.
</event>
<event>
 8    1  0.9181008E-006  0.1232773E+03  0.7561462E-02  0.1237786E+00
          1   -1    0    0  501    0  0.00000000000E+00  0.00000000000E+00  0.33899689942E+03  0.33899689942E+03  0.00000000000E+00 0. -1.
         -1   -1    0    0    0  501 -0.00000000000E+00 -0.00000000000E+00 -0.50047821557E+02  0.50047821557E+02  0.00000000000E+00 0.  1.
         23    2    1    2    0    0  0.60712509310E+02  0.16150332939E+01  0.70247778313E+02  0.12987944125E+03  0.90803644107E+02 0.  0.
         23    2    1    2    0    0 -0.60712509310E+02 -0.16150332939E+01  0.21870129955E+03  0.25916527972E+03  0.12509103353E+03 0.  0.
          5    1    4    4  502    0 -0.58926260594E+02  0.55684643360E+02  0.11833947814E+03  0.14350884356E+03  0.41800000000E+01 0.  1.
         -5    1    4    4    0  502 -0.17862487161E+01 -0.57299676654E+02  0.10036182141E+03  0.11565643616E+03  0.41800000000E+01 0.  1.
        -11    1    3    3    0    0 -0.20249297909E+02 -0.15054818985E+02  0.82305022405E+01  0.26540964708E+02  0.00000000000E+00 0.  1.
         11    1    3    3    0    0  0.80961807219E+02  0.16669852279E+02  0.62017276072E+02  0.10333847654E+03  0.00000000000E+00 0. -1.
</event>
<event>
 8    1  0.9181008E-006  0.1015583E+03  0.7561462E-02  0.1277053E+00
         -2   -1    0    0    0  501 -0.00000000000E+00  0.00000000000E+00  0.17120610232E+02  0.17120610232E+02  0.00000000000E+00 0. -1.
          2   -1    0    0  501    0  0.00000000000E+00 -0.00000000000E+00 -0.90995469079E+03  0.90995469079E+03  0.00000000000E+00 0.  1.
         23    2    1    2    0    0  0.32062381151E+02  0.16608952041E+02 -0.20840416781E+03  0.23037236899E+03  0.91297741810E+02 0.  0.
         23    2    1    2    0    0 -0.32062381151E+02 -0.16608952041E+02 -0.68442991275E+03  0.69670293204E+03  0.12508723543E+03 0.  0.
          5    1    4    4  502    0  0.32380322923E+02  0.16307937133E+02 -0.79866039729E+02  0.87809400568E+02  0.41800000000E+01 0.  1.
         -5    1    4    4    0  502 -0.64442704074E+02 -0.32916889174E+02 -0.60456387302E+03  0.60889353147E+03  0.41800000000E+01 0.  1.
        -11    1    3    3    0    0  0.30408376457E+01  0.49888732509E+02 -0.14277988733E+03  0.15127534020E+03  0.00000000000E+00 0.  1.
         11    1    3    3    0    0  0.29021543505E+02 -0.33279780468E+02 -0.65624280476E+02  0.79097028790E+02  0.00000000000E+00 0. -1.
</event>
<event>
 8    1  0.9181008E-006  0.1464605E+03  0.7561462E-02  0.1204891E+00
         -2   -1    0    0    0  501 -0.00000000000E+00  0.00000000000E+00  0.15389806110E+02  0.15389806110E+02  0.00000000000E+00 0. -1.
          2   -1    0    0  501    0  0.00000000000E+00 -0.00000000000E+00 -0.16153080614E+04  0.16153080614E+04  0.00000000000E+00 0.  1.
         23    2    1    2    0    0 -0.77524218188E+02  0.69574318399E+02 -0.46755751395E+03  0.48669628138E+03  0.86096755341E+02 0.  0.
         23    2    1    2    0    0  0.77524218188E+02 -0.69574318399E+02 -0.11323607414E+04  0.11440015861E+04  0.12509272694E+03 0.  0.
          5    1    4    4  502    0  0.10515270715E+03 -0.30129568272E+02 -0.64212959298E+03  0.65139294537E+03  0.41800000000E+01 0. -1.
         -5    1    4    4    0  502 -0.27628488958E+02 -0.39444750127E+02 -0.49023114839E+03  0.49260864077E+03  0.41800000000E+01 0. -1.
        -11    1    3    3    0    0 -0.96478034121E+02  0.53840716736E+02 -0.37873498643E+03  0.39452125899E+03  0.00000000000E+00 0.  1.
         11    1    3    3    0    0  0.18953815933E+02  0.15733601662E+02 -0.88822527516E+02  0.92175022398E+02  0.00000000000E+00 0. -1.
</event>
<event>
 8    1  0.9181008E-006  0.7857803E+02  0.7561462E-02  0.1333136E+00
          1   -1    0    0  501    0  0.00000000000E+00  0.00000000000E+00  0.17116632377E+03  0.17116632377E+03  0.00000000000E+00 0. -1.
         -1   -1    0    0    0  501 -0.00000000000E+00 -0.00000000000E+00 -0.77352260324E+02  0.77352260324E+02  0.00000000000E+00 0.  1.
         23    2    1    2    0    0 -0.91524511163E+01 -0.12990810104E+02 -0.42870548407E+01  0.88756923658E+02  0.87217453239E+02 0.  0.
         23    2    1    2    0    0  0.91524511163E+01  0.12990810104E+02  0.98101118287E+02  0.15976166044E+03  0.12508968873E+03 0.  0.
          5    1    4    4  502    0  0.47268338590E+02 -0.16904751809E+02  0.11338113695E+00  0.50374117581E+02  0.41800000000E+01 0.  1.
         -5    1    4    4    0  502 -0.38115887474E+02  0.29895561913E+02  0.97987737150E+02  0.10938754285E+03  0.41800000000E+01 0.  1.
        -11    1    3    3    0    0 -0.32551833968E+02 -0.12152513208E+02 -0.35541871848E+02  0.49704427634E+02  0.00000000000E+00 0.  1.
         11    1    3    3    0    0  0.23399382852E+02 -0.83829689560E+00  0.31254817007E+02  0.39052496024E+02  0.00000000000E+00 0. -1.
</event>
<event>
 8    1  0.9181008E-006  0.4373842E+03  0.7561462E-02  0.1031552E+00
         -1   -1    0    0    0  501 -0.00000000000E+00  0.00000000000E+00  0.13096371283E+04  0.13096371283E+04  0.00000000000E+00 0.  1.
          1   -1    0    0  501    0  0.00000000000E+00 -0.00000000000E+00 -0.15268149376E+03  0.15268149376E+03  0.00000000000E+00 0. -1.
         23    2    1    2    0    0 -0.11804491865E+03  0.41508522816E+03  0.64437215204E+03  0.78068826487E+03  0.89601044193E+02 0.  0.
         23    2    1    2    0    0  0.11804491865E+03 -0.41508522816E+03  0.51258348252E+03  0.68163035721E+03  0.12509103830E+03 0.  0.
          5    1    4    4  502    0  0.87724295637E+01 -0.21455984335E+03  0.30468198138E+03  0.37277535336E+03  0.41800000000E+01 0.  1.
         -5    1    4    4    0  502  0.10927248909E+03 -0.20052538481E+03  0.20790150114E+03  0.30885500384E+03  0.41800000000E+01 0.  1.
        -11    1    3    3    0    0 -0.72001441695E+02  0.24254348531E+03  0.45350444540E+03  0.51930514331E+03  0.00000000000E+00 0.  1.
         11    1    3    3    0    0 -0.46043476955E+02  0.17254174285E+03  0.19086770664E+03  0.26138312156E+03  0.00000000000E+00 0. -1.
</event>
<event>
 8    1  0.9181008E-006  0.1317350E+03  0.7561462E-02  0.1224904E+00
         -2   -1    0    0    0  501 -0.00000000000E+00  0.00000000000E+00  0.43537470430E+02  0.43537470430E+02  0.00000000000E+00 0.  1.
          2   -1    0    0  501    0  0.00000000000E+00 -0.00000000000E+00 -0.42375575718E+03  0.42375575718E+03  0.00000000000E+00 0. -1.
         23    2    1    2    0    0  0.20179509527E+02 -0.75985844918E+02 -0.20429163764E+03  0.23755708269E+03  0.92288856818E+02 0.  0.
         23    2    1    2    0    0 -0.20179509527E+02  0.75985844918E+02 -0.17592664911E+03  0.22973614492E+03  0.12508976451E+03 0.  0.
          5    1    4    4  502    0  0.37441305249E+02 -0.13811295845E+02 -0.37573476487E+02  0.54971281293E+02  0.41800000000E+01 0.  1.
         -5    1    4    4    0  502 -0.57620814777E+02  0.89797140763E+02 -0.13835317262E+03  0.17476486363E+03  0.41800000000E+01 0.  1.
        -11    1    3    3    0    0  0.18922719900E+02 -0.95326522470E+02 -0.19020978109E+03  0.21360003754E+03  0.00000000000E+00 0. -1.
         11    1    3    3    0    0  0.12567896271E+01  0.19340677553E+02 -0.14081856554E+02  0.23957045151E+02  0.00000000000E+00 0.  1.
</event>
<event>
 8    1  0.9181008E-006  0.1448210E+03  0.7561462E-02  0.1206985E+00
         -1   -1    0    0    0  501 -0.00000000000E+00  0.00000000000E+00  0.23437313699E+02  0.23437313699E+02  0.00000000000E+00 0.  1.
          1   -1    0    0  501    0  0.00000000000E+00 -0.00000000000E+00 -0.20535684421E+04  0.20535684421E+04  0.00000000000E+00 0. -1.
         23    2    1    2    0    0 -0.81831551855E+02 -0.89093348187E+02 -0.28610936562E+03  0.32431876791E+03  0.93220526466E+02 0.  0.
         23    2    1    2    0    0  0.81831551855E+02  0.89093348187E+02 -0.17440217628E+04  0.17526869879E+04  0.12516285745E+03 0.  0.
          5    1    4    4  502    0  0.61214526826E+02 -0.60727470268E+01 -0.36034001373E+03  0.36557693369E+03  0.41800000000E+01 0.  1.
         -5    1    4    4    0  502  0.20617025029E+02  0.95166095213E+02 -0.13836817491E+04  0.13871100542E+04  0.41800000000E+01 0.  1.
        -11    1    3    3    0    0 -0.78295976564E+02 -0.53675666302E+02 -0.11297021806E+03  0.14755882647E+03  0.00000000000E+00 0.  1.
         11    1    3    3    0    0 -0.35355752908E+01 -0.35417681884E+02 -0.17313914756E+03  0.17675994145E+03  0.00000000000E+00 0. -1.
</event>
<event>
 8    1  0.9181008E-006  0.1053057E+03  0.7561462E-02  0.1269518E+00
         -2   -1    0    0    0  501 -0.00000000000E+00  0.00000000000E+00  0.99956709740E+01  0.99956709740E+01  0.00000000000E+00 0.  1.
          2   -1    0    0  501    0  0.00000000000E+00 -0.00000000000E+00 -0.29377578358E+04  0.29377578358E+04  0.00000000000E+00 0. -1.
         23    2    1    2    0    0  0.40901321709E+01  0.54574897340E+02 -0.33442479829E+03  0.35082487175E+03  0.90790948500E+02 0.  0.
         23    2    1    2    0    0 -0.40901321709E+01 -0.54574897340E+02 -0.25933373665E+04  0.25969286350E+04  0.12507793614E+03 0.  0.
          5    1    4    4  502    0 -0.27921168533E+02  0.17756345784E+02 -0.17041074558E+04  0.17044337983E+04  0.41800000000E+01 0. -1.
         -5    1    4    4    0  502  0.23831036362E+02 -0.72331243124E+02 -0.88922991071E+03  0.89249483670E+03  0.41800000000E+01 0. -1.
        -11    1    3    3    0    0 -0.46903228979E+01  0.76877377924E+02 -0.29311366046E+03  0.30306393437E+03  0.00000000000E+00 0.  1.
         11    1    3    3    0    0  0.87804550689E+01 -0.22302480584E+02 -0.41311137827E+02  0.47760937386E+02  0.00000000000E+00 0. -1.
</event>
<event>
 8    1  0.9181008E-006  0.1096454E+03  0.7561462E-02  0.1261228E+00
         -2   -1    0    0    0  501 -0.00000000000E+00  0.00000000000E+00  0.88190040436E+02  0.88190040436E+02  0.00000000000E+00 0.  1.
          2   -1    0    0  501    0  0.00000000000E+00 -0.00000000000E+00 -0.14124785428E+03  0.14124785428E+03  0.00000000000E+00 0. -1.
         23    2    1    2    0    0 -0.15049553661E+02 -0.20967191773E+02 -0.87406393891E+01  0.94241310819E+02  0.90215928148E+02 0.  0.
         23    2    1    2    0    0  0.15049553661E+02  0.20967191773E+02 -0.44317174452E+02  0.13519658390E+03  0.12509193479E+03 0.  0.
          5    1    4    4  502    0 -0.36404638386E+02  0.54853162153E+02 -0.23649706658E+02  0.70078157219E+02  0.41800000000E+01 0.  1.
         -5    1    4    4    0  502  0.51454192047E+02 -0.33885970380E+02 -0.20667467794E+02  0.65118426677E+02  0.41800000000E+01 0.  1.
        -11    1    3    3    0    0  0.33130070649E+02 -0.27364195388E+02  0.61530101241E+01  0.43408067269E+02  0.00000000000E+00 0.  1.
         11    1    3    3    0    0 -0.48179624310E+02  0.63970036151E+01 -0.14893649513E+02  0.50833243550E+02  0.00000000000E+00 0. -1.
</event>
<event>
 8    1  0.9181008E-006  0.8718821E+02  0.7561462E-02  0.1309807E+00
          1   -1    0    0  501    0  0.00000000000E+00  0.00000000000E+00  0.48766756661E+02  0.48766756661E+02  0.00000000000E+00 0. -1.
         -1   -1    0    0    0  501 -0.00000000000E+00 -0.00000000000E+00 -0.29940363714E+03  0.29940363714E+03  0.00000000000E+00 0.  1.
         23    2    1    2    0    0  0.26701645242E+02 -0.31171558313E+02 -0.15846579532E+03  0.18745916550E+03  0.91350350518E+02 0.  0.
         23    2    1    2    0    0 -0.26701645242E+02  0.31171558313E+02 -0.92171085163E+02  0.16071122830E+03  0.12509175055E+03 0.  0.
          5    1    4    4  502    0 -0.60587670907E+02 -0.49234946752E+00 -0.96418801177E+02  0.11395247208E+03  0.41800000000E+01 0.  1.
         -5    1    4    4    0  502  0.33886025665E+02  0.31663907780E+02  0.42477160136E+01  0.46758756213E+02  0.41800000000E+01 0.  1.
        -11    1    3    3    0    0  0.39546268558E+02 -0.76532464431E+01 -0.17411735816E+02  0.43882206897E+02  0.00000000000E+00 0. -1.
         11    1    3    3    0    0 -0.12844623316E+02 -0.23518311870E+02 -0.14105405950E+03  0.14357695861E+03  0.00000000000E+00 0.  1.
</event>
<event>
 8    1  0.9181008E-006  0.1189109E+03  0.7561462E-02  0.1244905E+00
         -2   -1    0    0    0  501 -0.00000000000E+00  0.00000000000E+00  0.28451961383E+02  0.28451961383E+02  0.00000000000E+00 0.  1.
          2   -1    0    0  501    0  0.00000000000E+00 -0.00000000000E+00 -0.65297019931E+03  0.65297019931E+03  0.00000000000E+00 0. -1.
         23    2    1    2    0    0  0.66642015267E+02 -0.20831043114E+02 -0.18096811021E+03  0.21531134574E+03  0.93458162467E+02 0.  0.
         23    2    1    2    0    0 -0.66642015267E+02  0.20831043114E+02 -0.44355012772E+03  0.46611081496E+03  0.12508990955E+03 0.  0.
          5    1    4    4  502    0 -0.85175778760E+02 -0.14292812637E+02 -0.38907091050E+03  0.39856347496E+03  0.41800000000E+01 0. -1.
         -5    1    4    4    0  502  0.18533763493E+02  0.35123855751E+02 -0.54479217220E+02  0.67547339999E+02  0.41800000000E+01 0. -1.
        -11    1    3    3    0    0  0.41104604303E+02  0.32427840460E+02 -0.11736046671E+03  0.12850927001E+03  0.00000000000E+00 0. -1.
         11    1    3    3    0    0  0.25537410964E+02 -0.53258883573E+02 -0.63607643505E+02  0.86802075727E+02  0.00000000000E+00 0.  1.
</event>
<event>
 8    1  0.9181008E-006  0.1056937E+03  0.7561462E-02  0.1268759E+00
         -3   -1    0    0    0  501 -0.00000000000E+00  0.00000000000E+00  0.29763847363E+03  0.29763847363E+03  0.00000000000E+00 0.  1.
          3   -1    0    0  501    0  0.00000000000E+00 -0.00000000000E+00 -0.46234472748E+02  0.46234472748E+02  0.00000000000E+00 0. -1.
         23    2    1    2    0    0 -0.68458687477E+01  0.45415150278E+02  0.14725800551E+03  0.17982725713E+03  0.92431165885E+02 0.  0.
         23    2    1    2    0    0  0.68458687477E+01 -0.45415150278E+02  0.10414599538E+03  0.16404568925E+03  0.11813212101E+03 0.  0.
          5    1    4    4  502    0 -0.53920109763E+02 -0.28003106039E+02  0.67278619784E+02  0.90749309996E+02  0.41800000000E+01 0. -1.
         -5    1    4    4    0  502  0.60765978510E+02 -0.17412044238E+02  0.36867375594E+02  0.73296379256E+02  0.41800000000E+01 0.  1.
        -11    1    3    3    0    0  0.33731328198E+02  0.18924777378E+02  0.19764123625E+02  0.43434666840E+02  0.00000000000E+00 0.  1.
         11    1    3    3    0    0 -0.40577196946E+02  0.26490372900E+02  0.12749388188E+03  0.13639259029E+03  0.00000000000E+00 0. -1.
</event>
<event>
 8    1  0.9181008E-006  0.1109604E+03  0.7561462E-02  0.1258802E+00
         -2   -1    0    0    0  501 -0.00000000000E+00  0.00000000000E+00  0.61826833052E+02  0.61826833052E+02  0.00000000000E+00 0.  1.
          2   -1    0    0  501    0  0.00000000000E+00 -0.00000000000E+00 -0.31246436749E+03  0.31246436749E+03  0.00000000000E+00 0. -1.
         23    2    1    2    0    0  0.68927883369E+02 -0.15835493638E+02 -0.55964194201E+02  0.13232585692E+03  0.96831427808E+02 0.  0.
         23    2    1    2    0    0 -0.68927883369E+02  0.15835493638E+02 -0.19467334024E+03  0.24196534363E+03  0.12509077565E+03 0.  0.
          5    1    4    4  502    0  0.73576143193E+01 -0.17212587273E+02 -0.14236920000E+03  0.14365538332E+03  0.41800000000E+01 0. -1.
         -5    1    4    4    0  502 -0.76285497689E+02  0.33048080911E+02 -0.52304140244E+02  0.98309960310E+02  0.41800000000E+01 0. -1.
        -11    1    3    3    0    0  0.14234584833E+02  0.39323922727E+02 -0.24857030404E+02  0.48650449788E+02  0.00000000000E+00 0.  1.
         11    1    3    3    0    0  0.54693298536E+02 -0.55159416366E+02 -0.31107163797E+02  0.83675407128E+02  0.00000000000E+00 0. -1.
</event>
<event>
 8    1  0.9181008E-006  0.1873890E+03  0.7561462E-02  0.1160838E+00
         -2   -1    0    0    0  501 -0.00000000000E+00  0.00000000000E+00  0.45331761034E+03  0.45331761034E+03  0.00000000000E+00 0.  1.
          2   -1    0    0  501    0  0.00000000000E+00 -0.00000000000E+00 -0.98375536368E+02  0.98375536368E+02  0.00000000000E+00 0. -1.
         23    2    1    2    0    0 -0.76805605337E+02  0.14342788601E+03  0.27190064758E+03  0.33030463474E+03  0.93276632029E+02 0.  0.
         23    2    1    2    0    0  0.76805605337E+02 -0.14342788601E+03  0.83041426395E+02  0.22138851197E+03  0.12508531184E+03 0.  0.
          5    1    4    4  502    0 -0.22221466639E+02 -0.20216820042E+02 -0.16508652979E+02  0.34532903373E+02  0.41800000000E+01 0.  1.
         -5    1    4    4    0  502  0.99027071975E+02 -0.12321106596E+03  0.99550079375E+02  0.18685560860E+03  0.41800000000E+01 0.  1.
        -11    1    3    3    0    0 -0.13836989514E+01  0.98538141639E+02  0.16250471537E+03  0.19005121020E+03  0.00000000000E+00 0.  1.
         11    1    3    3    0    0 -0.75421906385E+02  0.44889744367E+02  0.10939593220E+03  0.14025342454E+03  0.00000000000E+00 0. -1.
</event>
<event>
 8    1  0.9181008E-006  0.9293789E+02  0.7561462E-02  0.1295889E+00
         -1   -1    0    0    0  501 -0.00000000000E+00  0.00000000000E+00  0.24392982872E+02  0.24392982872E+02  0.00000000000E+00 0.  1.
          1   -1    0    0  501    0  0.00000000000E+00 -0.00000000000E+00 -0.58828028267E+03  0.58828028267E+03  0.00000000000E+00 0. -1.
         23    2    1    2    0    0 -0.48227091863E+02  0.17915429489E+02 -0.22559921504E+03  0.24834765057E+03  0.90192764198E+02 0.  0.
         23    2    1    2    0    0  0.48227091863E+02 -0.17915429489E+02 -0.33828808475E+03  0.36432561497E+03  0.12509000932E+03 0.  0.
          5    1    4    4  502    0  0.63620462473E+02 -0.40047647245E+02 -0.32568370996E+03  0.33427343393E+03  0.41800000000E+01 0. -1.
         -5    1    4    4    0  502 -0.15393370610E+02  0.22132217755E+02 -0.12604374793E+02  0.30052181043E+02  0.41800000000E+01 0. -1.
        -11    1    3    3    0    0 -0.51111144921E+02  0.37572480393E+02 -0.21805707499E+03  0.22709673791E+03  0.00000000000E+00 0. -1.
         11    1    3    3    0    0  0.28840530576E+01 -0.19657050903E+02 -0.75421400534E+01  0.21250912659E+02  0.00000000000E+00 0.  1.
</event>
<event>
 8    1  0.9181008E-006  0.1613284E+03  0.7561462E-02  0.1187205E+00
          2   -1    0    0  501    0  0.00000000000E+00  0.00000000000E+00  0.21551864289E+03  0.21551864289E+03  0.00000000000E+00 0. -1.
         -2   -1    0    0    0  501 -0.00000000000E+00 -0.00000000000E+00 -0.13889604136E+03  0.13889604136E+03  0.00000000000E+00 0.  1.
         23    2    1    2    0    0  0.10982279501E+03 -0.73553313216E+02 -0.55937201887E+01  0.15471763655E+03  0.80219206954E+02 0.  0.
         23    2    1    2    0    0 -0.10982279501E+03  0.73553313216E+02  0.82216321725E+02  0.19969704770E+03  0.12509296988E+03 0.  0.
          5    1    4    4  502    0 -0.34466269976E+02 -0.34691002395E+02  0.31552164769E+02  0.58347244278E+02  0.41800000000E+01 0. -1.
         -5    1    4    4    0  502 -0.75356525036E+02  0.10824431561E+03  0.50664156956E+02  0.14134980342E+03  0.41800000000E+01 0. -1.
        -11    1    3    3    0    0  0.96173992861E+02 -0.37777052198E+02  0.24291606393E+02  0.10614435791E+03  0.00000000000E+00 0. -1.
         11    1    3    3    0    0  0.13648802151E+02 -0.35776261019E+02 -0.29885326581E+02  0.48573278637E+02  0.00000000000E+00 0.  1.
</event>
<event>
 8    1  0.9181008E-006  0.9749753E+02  0.7561462E-02  0.1285648E+00
         -1   -1    0    0    0  501 -0.00000000000E+00  0.00000000000E+00  0.14845133957E+03  0.14845133957E+03  0.00000000000E+00 0.  1.
          1   -1    0    0  501    0  0.00000000000E+00 -0.00000000000E+00 -0.94768606930E+02  0.94768606930E+02  0.00000000000E+00 0. -1.
         23    2    1    2    0    0 -0.45256667389E+02  0.18332564864E+02  0.30395794697E+02  0.10693251491E+03  0.90146600226E+02 0.  0.
         23    2    1    2    0    0  0.45256667389E+02 -0.18332564864E+02  0.23286937945E+02  0.13628743159E+03  0.12509090156E+03 0.  0.
          5    1    4    4  502    0  0.52414864554E+02 -0.64656257425E+02  0.30367165925E+02  0.88698290946E+02  0.41800000000E+01 0. -1.
         -5    1    4    4    0  502 -0.71581971645E+01  0.46323692561E+02 -0.70802279793E+01  0.47589140646E+02  0.41800000000E+01 0. -1.
        -11    1    3    3    0    0 -0.42000299622E+02 -0.38508025306E+01  0.57782869878E+02  0.71538198885E+02  0.00000000000E+00 0.  1.
         11    1    3    3    0    0 -0.32563677673E+01  0.22183367394E+02 -0.27387075181E+02  0.35394316026E+02  0.00000000000E+00 0. -1.
</event>
<event>
 8    1  0.9181008E-006  0.9840461E+02  0.7561462E-02  0.1283687E+00
          1   -1    0    0  501    0  0.00000000000E+00  0.00000000000E+00  0.15173907449E+03  0.15173907449E+03  0.00000000000E+00 0. -1.
         -1   -1    0    0    0  501 -0.00000000000E+00 -0.00000000000E+00 -0.12498817100E+03  0.12498817100E+03  0.00000000000E+00 0.  1.
         23    2    1    2    0    0  0.39959984571E+02 -0.52237563298E+02 -0.41781820270E+02  0.11964626534E+03  0.90796172376E+02 0.  0.
         23    2    1    2    0    0 -0.39959984571E+02  0.52237563298E+02  0.68532723757E+02  0.15708098015E+03  0.12510849977E+03 0.  0.
          5    1    4    4  502    0 -0.41486018041E+02 -0.28141079700E+02 -0.15781359270E+01  0.50328649620E+02  0.41800000000E+01 0. -1.
         -5    1    4    4    0  502  0.15260334703E+01  0.80378642998E+02  0.70110859684E+02  0.10675233053E+03  0.41800000000E+01 0. -1.
        -11    1    3    3    0    0  0.23104251289E+02 -0.34618418931E+02 -0.70564128263E+02  0.81923974235E+02  0.00000000000E+00 0.  1.
         11    1    3    3    0    0  0.16855733282E+02 -0.17619144368E+02  0.28782307993E+02  0.37722291104E+02  0.00000000000E+00 0. -1.
</event>
<event>
 8    1  0.9181008E-006  0.2093461E+03  0.7561462E-02  0.1142085E+00
          2   -1    0    0  501    0  0.00000000000E+00  0.00000000000E+00  0.15534986832E+03  0.15534986832E+03  0.00000000000E+00 0. -1.
         -2   -1    0    0    0  501 -0.00000000000E+00 -0.00000000000E+00 -0.31035192559E+03  0.31035192559E+03  0.00000000000E+00 0.  1.
         23    2    1    2    0    0 -0.16223407953E+03  0.10015307324E+03 -0.71162254136E+02  0.22274588876E+03  0.90560090032E+02 0.  0.
         23    2    1    2    0    0  0.16223407953E+03 -0.10015307324E+03 -0.83839803125E+02  0.24295590515E+03  0.12509166487E+03 0.  0.
          5    1    4    4  502    0 -0.20701626468E+02 -0.16630980968E+02 -0.93082983319E+01  0.28447560251E+02  0.41800000000E+01 0. -1.
         -5    1    4    4    0  502  0.18293570599E+03 -0.83522092272E+02 -0.74531504793E+02  0.21450834490E+03  0.41800000000E+01 0. -1.
        -11    1    3    3    0    0 -0.66067082483E+02  0.39751694464E+02 -0.77086217948E+02  0.10902908602E+03  0.00000000000E+00 0.  1.
         11    1    3    3    0    0 -0.96166997044E+02  0.60401378775E+02  0.59239638127E+01  0.11371680274E+03  0.00000000000E+00 0. -1.
</event>
<event>
 8    1  0.9181008E-006  0.1656434E+03  0.7561462E-02  0.1182469E+00
          1   -1    0    0  501    0  0.00000000000E+00  0.00000000000E+00  0.10474487613E+04  0.10474487613E+04  0.00000000000E+00 0. -1.
         -1   -1    0    0    0  501 -0.00000000000E+00 -0.00000000000E+00 -0.59635074893E+02  0.59635074893E+02  0.00000000000E+00 0.  1.
         23    2    1    2    0    0 -0.56952256620E+02  0.14830721184E+03  0.12676598705E+03  0.22261252008E+03  0.90819216060E+02 0.  0.
         23    2    1    2    0    0  0.56952256620E+02 -0.14830721184E+03  0.86104769941E+03  0.88447131616E+03  0.12509108621E+03 0.  0.
          5    1    4    4  502    0  0.16072379269E+02  0.18200380314E+01  0.34636719012E+03  0.34676986130E+03  0.41800000000E+01 0.  1.
         -5    1    4    4    0  502  0.40879877351E+02 -0.15012724987E+03  0.51468050929E+03  0.53770145487E+03  0.41800000000E+01 0.  1.
        -11    1    3    3    0    0 -0.14473351715E+02  0.32448605643E+02  0.85345617076E+02  0.92446007334E+02  0.00000000000E+00 0. -1.
         11    1    3    3    0    0 -0.42478904905E+02  0.11585860619E+03  0.41420369976E+02  0.13016651274E+03  0.00000000000E+00 0.  1.
</event>
<event>
 7    1  0.9181008E-006  0.6184268E+02  0.7561462E-02  0.1390258E+00
          2   -1    0    0  501    0  0.00000000000E+00  0.00000000000E+00  0.89707289263E+02  0.89707289263E+02  0.00000000000E+00 0. -1.
         -2   -1    0    0    0  501 -0.00000000000E+00 -0.00000000000E+00 -0.82011110923E+02  0.82011110923E+02  0.00000000000E+00 0.  1.
         23    2    1    2    0    0  0.38650477524E+02  0.53928537362E+01  0.10327734810E+02  0.12453957043E+03  0.11781553468E+03 0.  0.
          5    1    3    3  502    0  0.17078927832E+02  0.35538236249E+02  0.54070691319E+02  0.67050488971E+02  0.41800000000E+01 0. -1.
         -5    1    3    3    0  502  0.21571549691E+02 -0.30145382513E+02 -0.43742956510E+02  0.57489081460E+02  0.41800000000E+01 0.  1.
        -11    1    1    2    0    0 -0.29122698111E+02  0.80870236580E+01  0.11405086749E+01  0.30246194091E+02  0.00000000000E+00 0. -1.
         11    1    1    2    0    0 -0.95277794125E+01 -0.13479877394E+02 -0.37720651448E+01  0.16932635665E+02  0.00000000000E+00 0.  1.
</event>
<event>
 8    1  0.9181008E-006  0.1302493E+03  0.7561462E-02  0.1227086E+00
          2   -1    0    0  501    0  0.00000000000E+00  0.00000000000E+00  0.19355235052E+04  0.19355235052E+04  0.00000000000E+00 0. -1.
         -2   -1    0    0    0  501 -0.00000000000E+00 -0.00000000000E+00 -0.10899983477E+02  0.10899983477E+02  0.00000000000E+00 0.  1.
         23    2    1    2    0    0 -0.76088890951E+02  0.24146515929E+02  0.56931512415E+03  0.58301555198E+03  0.97030148413E+02 0.  0.
         23    2    1    2    0    0  0.76088890951E+02 -0.24146515929E+02  0.13553083976E+04  0.13634079367E+04  0.12509106991E+03 0.  0.
          5    1    4    4  502    0  0.10366627282E+03 -0.88274129720E+01  0.12187862591E+04  0.12232260776E+04  0.41800000000E+01 0.  1.
         -5    1    4    4    0  502 -0.27577381874E+02 -0.15319102957E+02  0.13652213854E+03  0.14018185909E+03  0.41800000000E+01 0.  1.
        -11    1    3    3    0    0 -0.53606336527E+02 -0.33131479935E+02  0.32643044893E+03  0.33245777516E+03  0.00000000000E+00 0. -1.
         11    1    3    3    0    0 -0.22482554424E+02  0.57277995864E+02  0.24288467523E+03  0.25055777682E+03  0.00000000000E+00 0.  1.
</event>
<event>
 8    1  0.9181008E-006  0.1069049E+03  0.7561462E-02  0.1266411E+00
          2   -1    0    0  501    0  0.00000000000E+00  0.00000000000E+00  0.35971043361E+03  0.35971043361E+03  0.00000000000E+00 0. -1.
         -2   -1    0    0    0  501 -0.00000000000E+00 -0.00000000000E+00 -0.69089291715E+02  0.69089291715E+02  0.00000000000E+00 0.  1.
         23    2    1    2    0    0 -0.77632720672E+02  0.63823909356E+02  0.61981950332E+02  0.14947061134E+03  0.91648081065E+02 0.  0.
         23    2    1    2    0    0  0.77632720672E+02 -0.63823909356E+02  0.22863919156E+03  0.27932911399E+03  0.12509413766E+03 0.  0.
          5    1    4    4  502    0  0.58035480490E+02 -0.67440582820E+02  0.24001163729E+03  0.25600665546E+03  0.41800000000E+01 0. -1.
         -5    1    4    4    0  502  0.19597240182E+02  0.36166734637E+01 -0.11372445728E+02  0.23322458523E+02  0.41800000000E+01 0. -1.
        -11    1    3    3    0    0 -0.68353351253E+01  0.19944432531E+02 -0.22499132745E+02  0.30833636982E+02  0.00000000000E+00 0.  1.
         11    1    3    3    0    0 -0.70797385547E+02  0.43879476825E+02  0.84481083078E+02  0.11863697436E+03  0.00000000000E+00 0. -1.
</event>
<event>
 8    1  0.9181008E-006  0.9112648E+02  0.7561462E-02  0.1300146E+00
          1   -1    0    0  501    0  0.00000000000E+00  0.00000000000E+00  0.26078006849E+03  0.26078006849E+03  0.00000000000E+00 0. -1.
         -1   -1    0    0    0  501 -0.00000000000E+00 -0.00000000000E+00 -0.67068073894E+02  0.67068073894E+02  0.00000000000E+00 0.  1.
         23    2    1    2    0    0  0.50704329133E+02 -0.23128246085E+02  0.27656015239E+02  0.11260795085E+03  0.93860804681E+02 0.  0.
         23    2    1    2    0    0 -0.50704329133E+02  0.23128246085E+02  0.16605597936E+03  0.21524019154E+03  0.12509159450E+03 0.  0.
          5    1    4    4  502    0 -0.68302435492E+02  0.50942319526E+02  0.16027087998E+03  0.18156147714E+03  0.41800000000E+01 0. -1.
         -5    1    4    4    0  502  0.17598106360E+02 -0.27814073441E+02  0.57850993844E+01  0.33678714401E+02  0.41800000000E+01 0. -1.
        -11    1    3    3    0    0  0.16104549571E+02 -0.24291903414E+02  0.59064526852E+02  0.65864037385E+02  0.00000000000E+00 0. -1.
         11    1    3    3    0    0  0.34599779562E+02  0.11636573282E+01 -0.31408511613E+02  0.46743913463E+02  0.00000000000E+00 0.  1.
</event>
<event>
 8    1  0.9181008E-006  0.8929124E+02  0.7561462E-02  0.1304577E+00
          1   -1    0    0  501    0  0.00000000000E+00  0.00000000000E+00  0.16345716114E+03  0.16345716114E+03  0.00000000000E+00 0. -1.
         -1   -1    0    0    0  501 -0.00000000000E+00 -0.00000000000E+00 -0.13671912945E+03  0.13671912945E+03  0.00000000000E+00 0.  1.
         23    2    1    2    0    0 -0.43572986408E+02 -0.72354139498E+02 -0.46255479913E+02  0.13251864770E+03  0.91037881775E+02 0.  0.
         23    2    1    2    0    0  0.43572986408E+02  0.72354139498E+02  0.72993511604E+02  0.16765764290E+03  0.12508919154E+03 0.  0.
          5    1    4    4  502    0  0.28913086079E+02  0.53864669361E+02 -0.25441003328E+02  0.66348219285E+02  0.41800000000E+01 0. -1.
         -5    1    4    4    0  502  0.14659900329E+02  0.18489470137E+02  0.98434514933E+02  0.10130942362E+03  0.41800000000E+01 0. -1.
        -11    1    3    3    0    0  0.68965598438E+01 -0.17462857185E+02 -0.54361424268E+02  0.57512419243E+02  0.00000000000E+00 0.  1.
         11    1    3    3    0    0 -0.50469546252E+02 -0.54891282313E+02  0.81059443544E+01  0.75006228453E+02  0.00000000000E+00 0. -1.
</event>
<event>
 8    1  0.9181008E-006  0.8807685E+02  0.7561462E-02  0.1307577E+00
         -1   -1    0    0    0  501 -0.00000000000E+00  0.00000000000E+00  0.43157112033E+02  0.43157112033E+02  0.00000000000E+00 0.  1.
          1   -1    0    0  501    0  0.00000000000E+00 -0.00000000000E+00 -0.51396246587E+03  0.51396246587E+03  0.00000000000E+00 0. -1.
         23    2    1    2    0    0 -0.21006317533E+01  0.62670561548E+02 -0.68148720679E+02  0.13084426735E+03  0.92433555761E+02 0.  0.
         23    2    1    2    0    0  0.21006317533E+01 -0.62670561548E+02 -0.40265663316E+03  0.42627531055E+03  0.12508502795E+03 0.  0.
          5    1    4    4  502    0  0.65045672032E+01 -0.20363747694E+02 -0.43222030194E+00  0.21786482713E+02  0.41800000000E+01 0.  1.
         -5    1    4    4    0  502 -0.44039354499E+01 -0.42306813855E+02 -0.40222441286E+03  0.40448882784E+03  0.41800000000E+01 0.  1.
        -11    1    3    3    0    0  0.41152261194E+02  0.53363655973E+02 -0.43309119987E+02  0.80105357213E+02  0.00000000000E+00 0. -1.
         11    1    3    3    0    0 -0.43252892948E+02  0.93069055753E+01 -0.24839600693E+02  0.50738910141E+02  0.00000000000E+00 0.  1.
</event>
<event>
 8    1  0.9181008E-006  0.2732482E+03  0.7561462E-02  0.1099435E+00
         -1   -1    0    0    0  501 -0.00000000000E+00  0.00000000000E+00  0.91969879549E+03  0.91969879549E+03  0.00000000000E+00 0.  1.
          1   -1    0    0  501    0  0.00000000000E+00 -0.00000000000E+00 -0.16878055435E+03  0.16878055435E+03  0.00000000000E+00 0. -1.
         23    2    1    2    0    0 -0.20782780883E+03  0.15483282749E+03  0.75223619219E+03  0.80070419412E+03  0.90012860506E+02 0.  0.
         23    2    1    2    0    0  0.20782780883E+03 -0.15483282749E+03 -0.13179510460E+01  0.28777515572E+03  0.12508877114E+03 0.  0.
          5    1    4    4  502    0  0.18653938691E+02  0.20613996310E+02  0.90218968225E+01  0.29525807268E+02  0.41800000000E+01 0.  1.
         -5    1    4    4    0  502  0.18917387014E+03 -0.17544682380E+03 -0.10339847868E+02  0.25824934846E+03  0.41800000000E+01 0.  1.
        -11    1    3    3    0    0 -0.68627610809E+02  0.37015093176E+02  0.35710713809E+03  0.36552068910E+03  0.00000000000E+00 0.  1.
         11    1    3    3    0    0 -0.13920019802E+03  0.11781773431E+03  0.39512905410E+03  0.43518350502E+03  0.00000000000E+00 0. -1.
</event>
<event>
 8    1  0.9181008E-006  0.1291310E+03  0.7561462E-02  0.1228751E+00
         -1   -1    0    0    0  501 -0.00000000000E+00  0.00000000000E+00  0.10645657016E+03  0.10645657016E+03  0.00000000000E+00 0.  1.
          1   -1    0    0  501    0  0.00000000000E+00 -0.00000000000E+00 -0.42276923597E+03  0.42276923597E+03  0.00000000000E+00 0. -1.
         23    2    1    2    0    0  0.11072250475E+03  0.30887182742E+01  0.34654466009E+02  0.14051702058E+03  0.79215451899E+02 0.  0.
         23    2    1    2    0    0 -0.11072250475E+03 -0.30887182742E+01 -0.35096713182E+03  0.38870878555E+03  0.12509028383E+03 0.  0.
          5    1    4    4  502    0 -0.36999397756E+02  0.23046647607E+02 -0.19189909531E+02  0.47810338088E+02  0.41800000000E+01 0.  1.
         -5    1    4    4    0  502 -0.73723106991E+02 -0.26135365881E+02 -0.33177722229E+03  0.34089844747E+03  0.41800000000E+01 0.  1.
        -11    1    3    3    0    0  0.10025686965E+03  0.32124036618E+02  0.25456478576E+02  0.10831170732E+03  0.00000000000E+00 0. -1.
         11    1    3    3    0    0  0.10465635097E+02 -0.29035318344E+02  0.91979874328E+01  0.32205313259E+02  0.00000000000E+00 0.  1.
</event>
<event>
 8    1  0.9181008E-006  0.1434373E+03  0.7561462E-02  0.1208777E+00
          2   -1    0    0  501    0  0.00000000000E+00  0.00000000000E+00  0.25221072280E+03  0.25221072280E+03  0.00000000000E+00 0.  1.
         -2   -1    0    0    0  501 -0.00000000000E+00 -0.00000000000E+00 -0.11729206711E+03  0.11729206711E+03  0.00000000000E+00 0. -1.
         23    2    1    2    0    0  0.12324195672E+03  0.50325264909E+02  0.75417117294E+02  0.17738361531E+03  0.89755184890E+02 0.  0.
         23    2    1    2    0    0 -0.12324195672E+03 -0.50325264909E+02  0.59501538393E+02  0.19211917460E+03  0.12509249376E+03 0.  0.
          5    1    4    4  502    0 -0.31040697993E+02  0.14415997176E+02  0.70866624069E+02  0.78809242563E+02  0.41800000000E+01 0. -1.
         -5    1    4    4    0  502 -0.92201258724E+02 -0.64741262085E+02 -0.11365085676E+02  0.11330993204E+03  0.41800000000E+01 0. -1.
        -11    1    3    3    0    0  0.68048995484E+02  0.50033378045E+02  0.66824195736E+00  0.84465680914E+02  0.00000000000E+00 0. -1.
         11    1    3    3    0    0  0.55192961233E+02  0.29188686445E+00  0.74748875337E+02  0.92917934392E+02  0.00000000000E+00 0.  1.
</event>
<event>
 8    1  0.9181008E-006  0.9375502E+02  0.7561462E-02  0.1294005E+00
         -2   -1    0    0    0  501 -0.00000000000E+00  0.00000000000E+00  0.54250958422E+02  0.54250958422E+02  0.00000000000E+00 0. -1.
          2   -1    0    0  501    0  0.00000000000E+00 -0.00000000000E+00 -0.30017743205E+03  0.30017743205E+03  0.00000000000E+00 0.  1.
         23    2    1    2    0    0 -0.11144076103E+02  0.67760391338E+02 -0.67403933977E+02  0.12588076429E+03  0.81160430234E+02 0.  0.
         23    2    1    2    0    0  0.11144076103E+02 -0.67760391338E+02 -0.17852253965E+03  0.22854762618E+03  0.12509220281E+03 0.  0.
          5    1    4    4  502    0 -0.12240350265E+01 -0.77224231915E+02 -0.19234192405E+03  0.20731128383E+03  0.41800000000E+01 0.  1.
         -5    1    4    4    0  502  0.12368111130E+02  0.94638405763E+01  0.13819384399E+02  0.21236342353E+02  0.41800000000E+01 0.  1.
        -11    1    3    3    0    0 -0.30259213524E+02  0.68524318459E+02 -0.74336914014E+02  0.10553283379E+03  0.00000000000E+00 0.  1.
         11    1    3    3    0    0  0.19115137420E+02 -0.76392712028E+00  0.69329800373E+01  0.20347930495E+02  0.00000000000E+00 0. -1.
</event>
<event>
 8    1  0.9181008E-006  0.1112627E+03  0.7561462E-02  0.1258249E+00
         -1   -1    0    0    0  501 -0.00000000000E+00  0.00000000000E+00  0.18332051796E+02  0.18332051796E+02  0.00000000000E+00 0.  1.
          1   -1    0    0  501    0  0.00000000000E+00 -0.00000000000E+00 -0.14386193325E+04  0.14386193325E+04  0.00000000000E+00 0. -1.
         23    2    1    2    0    0 -0.38858963650E+02  0.73331836310E+02 -0.26965942233E+03  0.29657246373E+03  0.91386240330E+02 0.  0.
         23    2    1    2    0    0  0.38858963650E+02 -0.73331836310E+02 -0.11506278584E+04  0.11603789206E+04  0.12508874267E+03 0.  0.
          5    1    4    4  502    0  0.52937230261E+02 -0.23803075352E+02 -0.19859206569E+03  0.20694254685E+03  0.41800000000E+01 0.  1.
         -5    1    4    4    0  502 -0.14078266612E+02 -0.49528760958E+02 -0.95203579269E+03  0.95343637371E+03  0.41800000000E+01 0.  1.
        -11    1    3    3    0    0  0.19823529802E+02  0.41313533115E+02 -0.54168265703E+02  0.70950555753E+02  0.00000000000E+00 0.  1.
         11    1    3    3    0    0 -0.58682493452E+02  0.32018303194E+02 -0.21549115662E+03  0.22562190798E+03  0.00000000000E+00 0. -1.
</event>
<event>
 8    1  0.9181008E-006  0.2184797E+03  0.7561462E-02  0.1135022E+00
         -1   -1    0    0    0  501 -0.00000000000E+00  0.00000000000E+00  0.27065288746E+03  0.27065288746E+03  0.00000000000E+00 0.  1.
          1   -1    0    0  501    0  0.00000000000E+00 -0.00000000000E+00 -0.22687300068E+03  0.22687300068E+03  0.00000000000E+00 0. -1.
         23    2    1    2    0    0 -0.13010328334E+03  0.17468123718E+03  0.66570119599E+02  0.24532550784E+03  0.91173598247E+02 0.  0.
         23    2    1    2    0    0  0.13010328334E+03 -0.17468123718E+03 -0.22790232814E+02  0.25220038030E+03  0.12508092642E+03 0.  0.
          5    1    4    4  502    0  0.81169052681E+02 -0.11617687332E+03  0.46351882261E+02  0.14916920057E+03  0.41800000000E+01 0.  1.
         -5    1    4    4    0  502  0.48934230655E+02 -0.58504363855E+02 -0.69142115074E+02  0.10303117973E+03  0.41800000000E+01 0.  1.
        -11    1    3    3    0    0 -0.70120766380E+02  0.11110940289E+03 -0.62907498922E+01  0.13153628710E+03  0.00000000000E+00 0. -1.
         11    1    3    3    0    0 -0.59982516955E+02  0.63571834287E+02  0.72860869492E+02  0.11378922075E+03  0.00000000000E+00 0.  1.
</event>
<event>
 8    1  0.9181008E-006  0.9646280E+02  0.7561462E-02  0.1287915E+00
          2   -1    0    0  501    0  0.00000000000E+00  0.00000000000E+00  0.28501253370E+03  0.28501253370E+03  0.00000000000E+00 0. -1.
         -2   -1    0    0    0  501 -0.00000000000E+00 -0.00000000000E+00 -0.62616625312E+02  0.62616625312E+02  0.00000000000E+00 0.  1.
         23    2    1    2    0    0 -0.63570894742E+02 -0.44097234084E+02  0.92075448289E+02  0.15111841859E+03  0.91504445502E+02 0.  0.
         23    2    1    2    0    0  0.63570894742E+02  0.44097234084E+02  0.13032046010E+03  0.19651074043E+03  0.12508886469E+03 0.  0.
          5    1    4    4  502    0 -0.14045206726E+02 -0.21253482258E+01  0.10005824175E+03  0.10114795638E+03  0.41800000000E+01 0. -1.
         -5    1    4    4    0  502  0.77616101468E+02  0.46222582310E+02  0.30262218352E+02  0.95362784051E+02  0.41800000000E+01 0. -1.
        -11    1    3    3    0    0 -0.67258361219E+01 -0.27724379282E+02  0.87215818044E+02  0.91763157069E+02  0.00000000000E+00 0. -1.
         11    1    3    3    0    0 -0.56845058620E+02 -0.16372854802E+02  0.48596302450E+01  0.59355261519E+02  0.00000000000E+00 0.  1.
</event>
<event>
 8    1  0.9181008E-006  0.1327001E+03  0.7561462E-02  0.1223503E+00
         -2   -1    0    0    0  501 -0.00000000000E+00  0.00000000000E+00  0.17135422449E+02  0.17135422449E+02  0.00000000000E+00 0.  1.
          2   -1    0    0  501    0  0.00000000000E+00 -0.00000000000E+00 -0.10425105160E+04  0.10425105160E+04  0.00000000000E+00 0. -1.
         23    2    1    2    0    0 -0.76043895681E+02  0.37654028942E+01 -0.43429637245E+03  0.45069774258E+03  0.93371642957E+02 0.  0.
         23    2    1    2    0    0  0.76043895681E+02 -0.37654028942E+01 -0.59107872110E+03  0.60894819588E+03  0.12508796262E+03 0.  0.
          5    1    4    4  502    0  0.91402932086E+02 -0.44915587902E+02 -0.39156244361E+03  0.40461157383E+03  0.41800000000E+01 0. -1.
         -5    1    4    4    0  502 -0.15359036404E+02  0.41150185008E+02 -0.19951627749E+03  0.20433662205E+03  0.41800000000E+01 0. -1.
        -11    1    3    3    0    0 -0.49116260460E+02 -0.43070188691E+02 -0.20669353511E+03  0.21677099818E+03  0.00000000000E+00 0.  1.
         11    1    3    3    0    0 -0.26927635221E+02  0.46835591585E+02 -0.22760283734E+03  0.23392674440E+03  0.00000000000E+00 0. -1.
</event>
<event>
 8    1  0.9181008E-006  0.8493824E+02  0.7561462E-02  0.1315594E+00
         -3   -1    0    0    0  501 -0.00000000000E+00  0.00000000000E+00  0.59744513574E+02  0.59744513574E+02  0.00000000000E+00 0.  1.
          3   -1    0    0  501    0  0.00000000000E+00 -0.00000000000E+00 -0.25936802375E+03  0.25936802375E+03  0.00000000000E+00 0. -1.
         23    2    1    2    0    0 -0.38159131542E+02  0.33800321468E+02 -0.46239700100E+02  0.11472765495E+03  0.91791850913E+02 0.  0.
         23    2    1    2    0    0  0.38159131542E+02 -0.33800321468E+02 -0.15338381008E+03  0.20438488237E+03  0.12509198974E+03 0.  0.
          5    1    4    4  502    0  0.52083077222E+02 -0.19612297350E+02 -0.16950183250E+03  0.17845344704E+03  0.41800000000E+01 0.  1.
         -5    1    4    4    0  502 -0.13923945680E+02 -0.14188024118E+02  0.16118022421E+02  0.25931435333E+02  0.41800000000E+01 0.  1.
        -11    1    3    3    0    0 -0.46708854807E+02  0.54250068216E+02 -0.10049962091E+02  0.72289617213E+02  0.00000000000E+00 0.  1.
         11    1    3    3    0    0  0.85497232650E+01 -0.20449746748E+02 -0.36189738010E+02  0.42438037739E+02  0.00000000000E+00 0. -1.
</event>
<event>
 8    1  0.9181008E-006  0.1221669E+03  0.7561462E-02  0.1239565E+00
         -1   -1    0    0    0  501 -0.00000000000E+00  0.00000000000E+00  0.17187919434E+03  0.17187919434E+03  0.00000000000E+00 0.  1.
          1   -1    0    0  501    0  0.00000000000E+00 -0.00000000000E+00 -0.17220910509E+03  0.17220910509E+03  0.00000000000E+00 0. -1.
         23    2    1    2    0    0  0.61903736090E+02 -0.64309691008E+02  0.96024866913E+02  0.16270431406E+03  0.96354085795E+02 0.  0.
         23    2    1    2    0    0 -0.61903736090E+02  0.64309691008E+02 -0.96354777669E+02  0.18138398537E+03  0.12509235815E+03 0.  0.
          5    1    4    4  502    0  0.19629895980E+02  0.40387036268E+02  0.89805811889E+01  0.45984440338E+02  0.41800000000E+01 0.  1.
         -5    1    4    4    0  502 -0.81533632070E+02  0.23922654739E+02 -0.10533535886E+03  0.13539954503E+03  0.41800000000E+01 0.  1.
        -11    1    3    3    0    0  0.43646019120E+02  0.36437034007E+01  0.17259219031E+00  0.43798188862E+02  0.00000000000E+00 0.  1.
         11    1    3    3    0    0  0.18257716970E+02 -0.67953394408E+02  0.95852274723E+02  0.11890612520E+03  0.00000000000E+00 0. -1.
</event>
<event>
 8    1  0.9181008E-006  0.1030241E+03  0.7561462E-02  0.1274062E+00
          1   -1    0    0  501    0  0.00000000000E+00  0.00000000000E+00  0.12708425619E+04  0.12708425619E+04  0.00000000000E+00 0. -1.
         -1   -1    0    0    0  501 -0.00000000000E+00 -0.00000000000E+00 -0.12451076556E+02  0.12451076556E+02  0.00000000000E+00 0.  1.
         23    2    1    2    0    0 -0.19313820864E+02  0.18710907882E+02  0.22083186852E+03  0.23787573317E+03  0.84231992290E+02 0.  0.
         23    2    1    2    0    0  0.19313820864E+02 -0.18710907882E+02  0.10375596169E+04  0.10454179053E+04  0.12508203903E+03 0.  0.
          5    1    4    4  502    0  0.49487872158E+02 -0.52985706058E+02  0.81220602175E+03  0.81544627579E+03  0.41800000000E+01 0. -1.
         -5    1    4    4    0  502 -0.30174051295E+02  0.34274798175E+02  0.22535359510E+03  0.22997162953E+03  0.41800000000E+01 0. -1.
        -11    1    3    3    0    0 -0.47490191001E+02  0.31124555158E+02  0.15828426699E+03  0.16816053446E+03  0.00000000000E+00 0. -1.
         11    1    3    3    0    0  0.28176370137E+02 -0.12413647275E+02  0.62547601535E+02  0.69715198706E+02  0.00000000000E+00 0.  1.
</event>
<event>
 8    1  0.9181008E-006  0.7331322E+02  0.7561462E-02  0.1349175E+00
         -2   -1    0    0    0  501 -0.00000000000E+00  0.00000000000E+00  0.27149467762E+02  0.27149467762E+02  0.00000000000E+00 0.  1.
          2   -1    0    0  501    0  0.00000000000E+00 -0.00000000000E+00 -0.96858229391E+03  0.96858229391E+03  0.00000000000E+00 0. -1.
         23    2    1    2    0    0 -0.15430365931E+02 -0.26072723655E+02 -0.77180023322E+02  0.12194745486E+03  0.89423389753E+02 0.  0.
         23    2    1    2    0    0  0.15430365931E+02  0.26072723655E+02 -0.86425280282E+03  0.87378430681E+03  0.12509286363E+03 0.  0.
          5    1    4    4  502    0 -0.11877896347E+02  0.30033898054E+02 -0.82488382591E+03  0.82552644906E+03  0.41800000000E+01 0.  1.
         -5    1    4    4    0  502  0.27308262278E+02 -0.39611743989E+01 -0.39368976911E+02  0.48257857747E+02  0.41800000000E+01 0.  1.
        -11    1    3    3    0    0  0.53202738313E+01  0.27860260806E+02 -0.51323001599E+02  0.58639150223E+02  0.00000000000E+00 0. -1.
         11    1    3    3    0    0 -0.20750639762E+02 -0.53932984461E+02 -0.25857021724E+02  0.63308304636E+02  0.00000000000E+00 0.  1.
</event>
<event>
 8    1  0.9181008E-006  0.1213799E+03  0.7561462E-02  0.1240838E+00
         -1   -1    0    0    0  501 -0.00000000000E+00  0.00000000000E+00  0.10149273852E+03  0.10149273852E+03  0.00000000000E+00 0.  1.
          1   -1    0    0  501    0  0.00000000000E+00 -0.00000000000E+00 -0.23121250359E+03  0.23121250359E+03  0.00000000000E+00 0. -1.
         23    2    1    2    0    0 -0.60897846793E+02 -0.62562377985E+01  0.27164672199E+02  0.12292620102E+03  0.10307882045E+03 0.  0.
         23    2    1    2    0    0  0.60897846793E+02  0.62562377985E+01 -0.15688443727E+03  0.20977904110E+03  0.12508729420E+03 0.  0.
          5    1    4    4  502    0  0.24046885914E+02  0.61499993244E+02 -0.11005467159E+03  0.12841341453E+03  0.41800000000E+01 0. -1.
         -5    1    4    4    0  502  0.36850960878E+02 -0.55243755446E+02 -0.46829765678E+02  0.81365626569E+02  0.41800000000E+01 0. -1.
        -11    1    3    3    0    0 -0.11902448359E+02  0.40571099728E+02  0.34749955909E+02  0.54728802707E+02  0.00000000000E+00 0.  1.
         11    1    3    3    0    0 -0.48995398434E+02 -0.46827337527E+02 -0.75852837100E+01  0.68197398312E+02  0.00000000000E+00 0. -1.
</event>
<event>
 7    1  0.9181008E-006  0.8691140E+02  0.7561462E-02  0.1310508E+00
         -2   -1    0    0    0  501 -0.00000000000E+00  0.00000000000E+00  0.81755125911E+01  0.81755125911E+01  0.00000000000E+00 0.  1.
          2   -1    0    0  501    0  0.00000000000E+00 -0.00000000000E+00 -0.17208841867E+04  0.17208841867E+04  0.00000000000E+00 0. -1.
         23    2    1    2    0    0 -0.67710163901E-02  0.53880906697E+02 -0.15433884652E+04  0.15485781957E+04  0.11464432587E+03 0.  0.
          5    1    3    3  502    0  0.45568403169E+02  0.57623681198E+02 -0.11813241750E+04  0.11836136391E+04  0.41800000000E+01 0. -1.
         -5    1    3    3    0  502 -0.45575174185E+02 -0.37427745011E+01 -0.36206429022E+03  0.36496455652E+03  0.41800000000E+01 0.  1.
        -11    1    1    2    0    0  0.33680356444E+01 -0.32937264784E+02 -0.54893854275E+02  0.64105712013E+02  0.00000000000E+00 0.  1.
         11    1    1    2    0    0 -0.33612646280E+01 -0.20943641913E+02 -0.11442635464E+03  0.11637579161E+03  0.00000000000E+00 0. -1.
</event>
<event>
 8    1  0.9181008E-006  0.1056283E+03  0.7561462E-02  0.1268887E+00
         -2   -1    0    0    0  501 -0.00000000000E+00  0.00000000000E+00  0.55875798335E+02  0.55875798335E+02  0.00000000000E+00 0. -1.
          2   -1    0    0  501    0  0.00000000000E+00 -0.00000000000E+00 -0.23480404293E+03  0.23480404293E+03  0.00000000000E+00 0.  1.
         23    2    1    2    0    0  0.25943120166E+02  0.39945971470E+02 -0.70758514231E+02  0.11858513673E+03  0.82382893836E+02 0.  0.
         23    2    1    2    0    0 -0.25943120166E+02 -0.39945971470E+02 -0.10816973036E+03  0.17209470453E+03  0.12508865113E+03 0.  0.
          5    1    4    4  502    0  0.28968832318E+02 -0.59720618222E+02 -0.26422084632E+02  0.71563569244E+02  0.41800000000E+01 0. -1.
         -5    1    4    4    0  502 -0.54911952484E+02  0.19774646751E+02 -0.81747645732E+02  0.10053113529E+03  0.41800000000E+01 0. -1.
        -11    1    3    3    0    0 -0.15430018611E+02 -0.12200071808E+02  0.22355359456E+01  0.19797091893E+02  0.00000000000E+00 0. -1.
         11    1    3    3    0    0  0.41373138777E+02  0.52146043278E+02 -0.72994050177E+02  0.98788044839E+02  0.00000000000E+00 0.  1.
</event>
<event>
 8    1  0.9181008E-006  0.9112925E+02  0.7561462E-02  0.1300140E+00
          1   -1    0    0  501    0  0.00000000000E+00  0.00000000000E+00  0.16482631796E+03  0.16482631796E+03  0.00000000000E+00 0. -1.
         -1   -1    0    0    0  501 -0.00000000000E+00 -0.00000000000E+00 -0.71821935994E+02  0.71821935994E+02  0.00000000000E+00 0.  1.
         23    2    1    2    0    0 -0.43551148549E+01 -0.11829860989E+02  0.55179860196E+02  0.10535641588E+03  0.88860816780E+02 0.  0.
         23    2    1    2    0    0  0.43551148549E+01  0.11829860989E+02  0.37824521767E+02  0.13129183808E+03  0.12509172499E+03 0.  0.
          5    1    4    4  502    0  0.22910686011E+02 -0.41515617116E+02  0.54395166440E+02  0.72282449668E+02  0.41800000000E+01 0. -1.
         -5    1    4    4    0  502 -0.18555571157E+02  0.53345478106E+02 -0.16570644673E+02  0.59009388407E+02  0.41800000000E+01 0. -1.
        -11    1    3    3    0    0 -0.40735476009E+02 -0.58543141176E+01  0.27287749177E+01  0.41244371883E+02  0.00000000000E+00 0.  1.
         11    1    3    3    0    0  0.36380361155E+02 -0.59755468717E+01  0.52451085279E+02  0.64112043994E+02  0.00000000000E+00 0. -1.
</event>
<event>
 7    1  0.9181008E-006  0.1434520E+03  0.7561462E-02  0.1208758E+00
         -2   -1    0    0    0  501 -0.00000000000E+00  0.00000000000E+00  0.17073747346E+02  0.17073747346E+02  0.00000000000E+00 0.  1.
          2   -1    0    0  501    0  0.00000000000E+00 -0.00000000000E+00 -0.13971685401E+04  0.13971685401E+04  0.00000000000E+00 0. -1.
         23    2    1    2    0    0 -0.16584578176E+02  0.68036300936E+02 -0.90092188474E+03  0.91225625003E+03  0.12508891572E+03 0.  0.
          5    1    3    3  502    0 -0.67612799527E+02  0.18766274299E+02 -0.52417868578E+03  0.52887090177E+03  0.41800000000E+01 0.  1.
         -5    1    3    3    0  502  0.51028221351E+02  0.49270026637E+02 -0.37674319895E+03  0.38338534825E+03  0.41800000000E+01 0.  1.
        -11    1    1    2    0    0 -0.55489245596E+02 -0.39141166380E+02 -0.28232198089E+03  0.29037353215E+03  0.00000000000E+00 0. -1.
         11    1    1    2    0    0  0.72073823772E+02 -0.28895134556E+02 -0.19685092715E+03  0.21161250529E+03  0.00000000000E+00 0.  1.
</event>
<event>
 8    1  0.9181008E-006  0.1054981E+03  0.7561462E-02  0.1269141E+00
         -2   -1    0    0    0  501 -0.00000000000E+00  0.00000000000E+00  0.15647081061E+03  0.15647081061E+03  0.00000000000E+00 0.  1.
          2   -1    0    0  501    0  0.00000000000E+00 -0.00000000000E+00 -0.78269555782E+02  0.78269555782E+02  0.00000000000E+00 0. -1.
         23    2    1    2    0    0 -0.49369393501E+01  0.23508748131E+02  0.33089501587E+02  0.99613713235E+02  0.90834696787E+02 0.  0.
         23    2    1    2    0    0  0.49369393501E+01 -0.23508748131E+02  0.45111753243E+02  0.13512665316E+03  0.12508839876E+03 0.  0.
          5    1    4    4  502    0 -0.52337704562E+02 -0.34112408877E+02  0.21883395402E+01  0.62651041397E+02  0.41800000000E+01 0.  1.
         -5    1    4    4    0  502  0.57274643912E+02  0.10603660746E+02  0.42923413702E+02  0.72475611762E+02  0.41800000000E+01 0.  1.
        -11    1    3    3    0    0  0.28436063398E+02  0.42839659295E+02  0.45187253012E+01  0.51616518562E+02  0.00000000000E+00 0. -1.
         11    1    3    3    0    0 -0.33373002748E+02 -0.19330911164E+02  0.28570776286E+02  0.47997194673E+02  0.00000000000E+00 0.  1.
</event>
<event>
 8    1  0.9181008E-006  0.1586133E+03  0.7561462E-02  0.1190271E+00
          1   -1    0    0  501    0  0.00000000000E+00  0.00000000000E+00  0.43440384468E+03  0.43440384468E+03  0.00000000000E+00 0. -1.
         -1   -1    0    0    0  501 -0.00000000000E+00 -0.00000000000E+00 -0.67576553008E+02  0.67576553008E+02  0.00000000000E+00 0.  1.
         23    2    1    2    0    0  0.11638419685E+03 -0.58468495110E+02  0.13855688802E+03  0.21092377871E+03  0.91252304139E+02 0.  0.
         23    2    1    2    0    0 -0.11638419685E+03  0.58468495110E+02  0.22827040365E+03  0.29105661898E+03  0.12507090817E+03 0.  0.
          5    1    4    4  502    0 -0.41675771717E+02 -0.39081347264E+02  0.64343462902E+02  0.86149725887E+02  0.41800000000E+01 0.  1.
         -5    1    4    4    0  502 -0.74708425133E+02  0.97549842374E+02  0.16392694075E+03  0.20490689309E+03  0.41800000000E+01 0.  1.
        -11    1    3    3    0    0  0.47861907492E+02 -0.14963456095E+01  0.20809442050E+01  0.47930486830E+02  0.00000000000E+00 0.  1.
         11    1    3    3    0    0  0.68522289358E+02 -0.56972149501E+02  0.13647594382E+03  0.16299329188E+03  0.00000000000E+00 0. -1.
</event>
<event>
 8    1  0.9181008E-006  0.1128070E+03  0.7561462E-02  0.1255458E+00
         -1   -1    0    0    0  501 -0.00000000000E+00  0.00000000000E+00  0.27597397730E+02  0.27597397730E+02  0.00000000000E+00 0. -1.
          1   -1    0    0  501    0  0.00000000000E+00 -0.00000000000E+00 -0.75866469850E+03  0.75866469850E+03  0.00000000000E+00 0.  1.
         23    2    1    2    0    0 -0.94043262255E+02 -0.75019363875E+01 -0.31562685150E+03  0.34227256673E+03  0.92896643237E+02 0.  0.
         23    2    1    2    0    0  0.94043262255E+02  0.75019363875E+01 -0.41544044927E+03  0.44398952950E+03  0.12504207767E+03 0.  0.
          5    1    4    4  502    0  0.33484895669E+01 -0.21592375518E+02 -0.52400253435E+01  0.22855487930E+02  0.41800000000E+01 0.  1.
         -5    1    4    4    0  502  0.90694772688E+02  0.29094311906E+02 -0.41020042393E+03  0.42113404157E+03  0.41800000000E+01 0.  1.
        -11    1    3    3    0    0 -0.14172900753E+02  0.19153998581E+02 -0.11038579265E+02  0.26260179161E+02  0.00000000000E+00 0. -1.
         11    1    3    3    0    0 -0.79870361502E+02 -0.26655934968E+02 -0.30458827223E+03  0.31601238757E+03  0.00000000000E+00 0.  1.
</event>
<event>
 8    1  0.9181008E-006  0.1347559E+03  0.7561462E-02  0.1220565E+00
         -1   -1    0    0    0  501 -0.00000000000E+00  0.00000000000E+00  0.14314365226E+03  0.14314365226E+03  0.00000000000E+00 0.  1.
          1   -1    0    0  501    0  0.00000000000E+00 -0.00000000000E+00 -0.16264767234E+03  0.16264767234E+03  0.00000000000E+00 0. -1.
         23    2    1    2    0    0  0.66872507110E+01  0.10135088479E+03 -0.29092613473E+02  0.14437071316E+03  0.98385982180E+02 0.  0.
         23    2    1    2    0    0 -0.66872507110E+01 -0.10135088479E+03  0.95885933919E+01  0.16142061143E+03  0.12509177232E+03 0.  0.
          5    1    4    4  502    0  0.45171851904E+02 -0.82514336511E+02 -0.23365953826E+02  0.97018308233E+02  0.41800000000E+01 0. -1.
         -5    1    4    4    0  502 -0.51859102615E+02 -0.18836548279E+02  0.32954547218E+02  0.64402303200E+02  0.41800000000E+01 0. -1.
        -11    1    3    3    0    0 -0.17887592057E+02  0.23852712094E+01  0.23505064054E+02  0.29633486203E+02  0.00000000000E+00 0.  1.
         11    1    3    3    0    0  0.24574842768E+02  0.98965613580E+02 -0.52597677527E+02  0.11473722696E+03  0.00000000000E+00 0. -1.
</event>
<event>
 8    1  0.9181008E-006  0.1096706E+03  0.7561462E-02  0.1261181E+00
          2   -1    0    0  501    0  0.00000000000E+00  0.00000000000E+00  0.11320542518E+04  0.11320542518E+04  0.00000000000E+00 0. -1.
         -2   -1    0    0    0  501 -0.00000000000E+00 -0.00000000000E+00 -0.15482799817E+02  0.15482799817E+02  0.00000000000E+00 0.  1.
         23    2    1    2    0    0  0.39879358483E+02  0.54955021976E+02  0.37075555047E+03  0.38826147071E+03  0.93149738372E+02 0.  0.
         23    2    1    2    0    0 -0.39879358483E+02 -0.54955021976E+02  0.74581590152E+03  0.75927558092E+03  0.12509049181E+03 0.  0.
          5    1    4    4  502    0 -0.16634902793E+02  0.19748613098E+02  0.32728366493E+02  0.41896850521E+02  0.41800000000E+01 0. -1.
         -5    1    4    4    0  502 -0.23244455690E+02 -0.74703635074E+02  0.71308753503E+03  0.71737873040E+03  0.41800000000E+01 0. -1.
        -11    1    3    3    0    0 -0.10688490629E+02  0.62764968112E+02  0.18866474812E+03  0.19911823683E+03  0.00000000000E+00 0. -1.
         11    1    3    3    0    0  0.50567849112E+02 -0.78099461362E+01  0.18209080235E+03  0.18914323388E+03  0.00000000000E+00 0.  1.
</event>
<event>
 8    1  0.9181008E-006  0.1836692E+03  0.7561462E-02  0.1164299E+00
         -2   -1    0    0    0  501 -0.00000000000E+00  0.00000000000E+00  0.72016470414E+02  0.72016470414E+02  0.00000000000E+00 0. -1.
          2   -1    0    0  501    0  0.00000000000E+00 -0.00000000000E+00 -0.49615562523E+03  0.49615562523E+03  0.00000000000E+00 0.  1.
         23    2    1    2    0    0  0.93256476358E+02 -0.12055656531E+03 -0.23902455663E+03  0.29770678674E+03  0.90917195186E+02 0.  0.
         23    2    1    2    0    0 -0.93256476358E+02  0.12055656531E+03 -0.18511459819E+03  0.27046530890E+03  0.12511360052E+03 0.  0.
          5    1    4    4  502    0  0.20813035637E+02  0.53478358825E+02 -0.25086266074E+02  0.62768706061E+02  0.41800000000E+01 0.  1.
         -5    1    4    4    0  502 -0.11406951200E+03  0.67078206481E+02 -0.16002833211E+03  0.20769660284E+03  0.41800000000E+01 0.  1.
        -11    1    3    3    0    0  0.55477348726E+01 -0.80997072373E+02 -0.11351828271E+03  0.13956254370E+03  0.00000000000E+00 0. -1.
         11    1    3    3    0    0  0.87708741486E+02 -0.39559492933E+02 -0.12550627392E+03  0.15814424304E+03  0.00000000000E+00 0.  1.
</event>
<event>
 8    1  0.9181008E-006  0.1571969E+03  0.7561462E-02  0.1191898E+00
          2   -1    0    0  501    0  0.00000000000E+00  0.00000000000E+00  0.10803972202E+04  0.10803972202E+04  0.00000000000E+00 0. -1.
         -2   -1    0    0    0  501 -0.00000000000E+00 -0.00000000000E+00 -0.34702411374E+02  0.34702411374E+02  0.00000000000E+00 0.  1.
         23    2    1    2    0    0  0.87035701716E+02 -0.11349973200E+03  0.28719526826E+03  0.33316402455E+03  0.89776069241E+02 0.  0.
         23    2    1    2    0    0 -0.87035701716E+02  0.11349973200E+03  0.75849954052E+03  0.78193560698E+03  0.12507732788E+03 0.  0.
          5    1    4    4  502    0  0.72939319683E+01  0.31324604020E+02  0.41629218445E+03  0.41755369414E+03  0.41800000000E+01 0. -1.
         -5    1    4    4    0  502 -0.94329633684E+02  0.82175127979E+02  0.34220735608E+03  0.36438191284E+03  0.41800000000E+01 0. -1.
        -11    1    3    3    0    0  0.91002044028E+01 -0.63596326273E+02  0.60252284863E+02  0.88077490126E+02  0.00000000000E+00 0.  1.
         11    1    3    3    0    0  0.77935497313E+02 -0.49903405726E+02  0.22694298340E+03  0.24508653443E+03  0.00000000000E+00 0. -1.
</event>
<event>
 7    1  0.9181008E-006  0.1866039E+03  0.7561462E-02  0.1161561E+00
          2   -1    0    0  501    0  0.00000000000E+00  0.00000000000E+00  0.14571780897E+04  0.14571780897E+04  0.00000000000E+00 0. -1.
         -2   -1    0    0    0  501 -0.00000000000E+00 -0.00000000000E+00 -0.40017503073E+02  0.40017503073E+02  0.00000000000E+00 0.  1.
         23    2    1    2    0    0  0.10002748040E+03 -0.10921949879E+03  0.48981266608E+03  0.51993129200E+03  0.92074452478E+02 0.  0.
          5    1    1    2  502    0  0.28986560151E+02 -0.13309945863E+02  0.62929869428E+03  0.63012038084E+03  0.41800000000E+01 0. -1.
         -5    1    1    2    0  502 -0.12901404055E+03  0.12252944465E+03  0.29804922626E+03  0.34714391993E+03  0.41800000000E+01 0.  1.
        -11    1    3    3    0    0  0.62390178477E+02 -0.10880425753E+03  0.28053771121E+03  0.30729840260E+03  0.00000000000E+00 0. -1.
         11    1    3    3    0    0  0.37637301923E+02 -0.41524126062E+00  0.20927495487E+03  0.21263288940E+03  0.00000000000E+00 0.  1.
</event>
<event>
 8    1  0.9181008E-006  0.1010919E+03  0.7561462E-02  0.1278016E+00
         -2   -1    0    0    0  501 -0.00000000000E+00  0.00000000000E+00  0.87511664400E+02  0.87511664400E+02  0.00000000000E+00 0.  1.
          2   -1    0    0  501    0  0.00000000000E+00 -0.00000000000E+00 -0.14913321038E+03  0.14913321038E+03  0.00000000000E+00 0. -1.
         23    2    1    2    0    0 -0.62180934309E+01  0.22990024920E+02 -0.10261882135E+02  0.99345372638E+02  0.95900943206E+02 0.  0.
         23    2    1    2    0    0  0.62180934309E+01 -0.22990024920E+02 -0.51359663843E+02  0.13729950214E+03  0.12508450058E+03 0.  0.
          5    1    4    4  502    0  0.35056156960E+02  0.30440356120E+02  0.13327228263E+02  0.48483366577E+02  0.41800000000E+01 0. -1.
         -5    1    4    4    0  502 -0.28838063529E+02 -0.53430381040E+02 -0.64686892106E+02  0.88816135564E+02  0.41800000000E+01 0. -1.
        -11    1    3    3    0    0 -0.48800915963E+02  0.17150884703E+02 -0.19680131655E+02  0.55344284500E+02  0.00000000000E+00 0.  1.
         11    1    3    3    0    0  0.42582822532E+02  0.58391402169E+01  0.94182495200E+01  0.44001088137E+02  0.00000000000E+00 0. -1.
</event>
<event>
 8    1  0.9181008E-006  0.1331689E+03  0.7561462E-02  0.1222828E+00
         -1   -1    0    0    0  501 -0.00000000000E+00  0.00000000000E+00  0.43446689911E+02  0.43446689911E+02  0.00000000000E+00 0.  1.
          1   -1    0    0  501    0  0.00000000000E+00 -0.00000000000E+00 -0.49280719869E+03  0.49280719869E+03  0.00000000000E+00 0. -1.
         23    2    1    2    0    0 -0.97223866189E+02  0.13607941609E+02 -0.20794705548E+03  0.24717536548E+03  0.90642303533E+02 0.  0.
         23    2    1    2    0    0  0.97223866189E+02 -0.13607941609E+02 -0.24141345330E+03  0.28907852311E+03  0.12509308877E+03 0.  0.
          5    1    4    4  502    0  0.26916545525E+02  0.37095795402E+02 -0.18027697388E+02  0.49427408718E+02  0.41800000000E+01 0.  1.
         -5    1    4    4    0  502  0.70307320664E+02 -0.50703737012E+02 -0.22338575591E+03  0.23965111439E+03  0.41800000000E+01 0.  1.
        -11    1    3    3    0    0 -0.87702214685E+02 -0.27045562330E+02 -0.13875524060E+03  0.16636152709E+03  0.00000000000E+00 0.  1.
         11    1    3    3    0    0 -0.95216515043E+01  0.40653503940E+02 -0.69191814878E+02  0.80813838394E+02  0.00000000000E+00 0. -1.
</event>
<event>
 8    1  0.9181008E-006  0.1330458E+03  0.7561462E-02  0.1223005E+00
          1   -1    0    0  501    0  0.00000000000E+00  0.00000000000E+00  0.52346926728E+03  0.52346926728E+03  0.00000000000E+00 0. -1.
         -1   -1    0    0    0  501 -0.00000000000E+00 -0.00000000000E+00 -0.45382310145E+02  0.45382310145E+02  0.00000000000E+00 0.  1.
         23    2    1    2    0    0  0.10587625496E+03  0.12851532524E+02  0.17779619350E+03  0.22651097853E+03  0.91218384769E+02 0.  0.
         23    2    1    2    0    0 -0.10587625496E+03 -0.12851532524E+02  0.30029076363E+03  0.34234059889E+03  0.12509036604E+03 0.  0.
          5    1    4    4  502    0 -0.40382624056E+02 -0.38731042403E+02  0.31292772695E+02  0.64246089330E+02  0.41800000000E+01 0.  1.
         -5    1    4    4    0  502 -0.65493630900E+02  0.25879509879E+02  0.26899799094E+03  0.27809450956E+03  0.41800000000E+01 0.  1.
        -11    1    3    3    0    0  0.96685717867E+02  0.44533135720E+02  0.14607305132E+03  0.18074474968E+03  0.00000000000E+00 0.  1.
         11    1    3    3    0    0  0.91905370890E+01 -0.31681603196E+02  0.31723142182E+02  0.45766228848E+02  0.00000000000E+00 0. -1.
</event>
<event>
 8    1  0.9181008E-006  0.1337022E+03  0.7561462E-02  0.1222063E+00
         -1   -1    0    0    0  501 -0.00000000000E+00  0.00000000000E+00  0.28086556342E+02  0.28086556342E+02  0.00000000000E+00 0.  1.
          1   -1    0    0  501    0  0.00000000000E+00 -0.00000000000E+00 -0.74980805765E+03  0.74980805765E+03  0.00000000000E+00 0. -1.
         23    2    1    2    0    0  0.85196898359E+02 -0.28640778345E+02 -0.24432491300E+03  0.27626411444E+03  0.92457515314E+02 0.  0.
         23    2    1    2    0    0 -0.85196898359E+02  0.28640778345E+02 -0.47739658830E+03  0.50163049955E+03  0.12508736900E+03 0.  0.
          5    1    4    4  502    0  0.26785371564E+02  0.12208025033E+02 -0.40188698935E+02  0.49990958454E+02  0.41800000000E+01 0.  1.
         -5    1    4    4    0  502 -0.11198226992E+03  0.16432753312E+02 -0.43720788936E+03  0.45163954110E+03  0.41800000000E+01 0.  1.
        -11    1    3    3    0    0  0.26210204144E+02  0.30956169296E+02 -0.11678464472E+03  0.12362812165E+03  0.00000000000E+00 0. -1.
         11    1    3    3    0    0  0.58986694215E+02 -0.59596947641E+02 -0.12754026828E+03  0.15263599279E+03  0.00000000000E+00 0.  1.
</event>
<event>
 8    1  0.9181008E-006  0.9876974E+02  0.7561462E-02  0.1282904E+00
         -1   -1    0    0    0  501 -0.00000000000E+00  0.00000000000E+00  0.97740542286E+02  0.97740542286E+02  0.00000000000E+00 0.  1.
          1   -1    0    0  501    0  0.00000000000E+00 -0.00000000000E+00 -0.16129093136E+03  0.16129093136E+03  0.00000000000E+00 0. -1.
         23    2    1    2    0    0  0.46068262149E+02 -0.24873934327E+02  0.78875027783E+01  0.10557543136E+03  0.91339813992E+02 0.  0.
         23    2    1    2    0    0 -0.46068262149E+02  0.24873934327E+02 -0.71437891847E+02  0.15345604228E+03  0.12531714621E+03 0.  0.
          5    1    4    4  502    0 -0.77406590248E+02  0.97354464908E+01 -0.49393455623E+01  0.78284281096E+02  0.41800000000E+01 0.  1.
         -5    1    4    4    0  502  0.31338328099E+02  0.15138487836E+02 -0.66498546285E+02  0.75171761187E+02  0.41800000000E+01 0.  1.
        -11    1    3    3    0    0 -0.16806134946E+02 -0.17747453032E+00  0.30093176160E+02  0.34468491705E+02  0.00000000000E+00 0.  1.
         11    1    3    3    0    0  0.62874397095E+02 -0.24696459796E+02 -0.22205673381E+02  0.71106939653E+02  0.00000000000E+00 0. -1.
</event>
<event>
 8    1  0.9181008E-006  0.1130397E+03  0.7561462E-02  0.1255042E+00
          1   -1    0    0  501    0  0.00000000000E+00  0.00000000000E+00  0.80810774494E+03  0.80810774494E+03  0.00000000000E+00 0. -1.
         -1   -1    0    0    0  501 -0.00000000000E+00 -0.00000000000E+00 -0.16724822157E+02  0.16724822157E+02  0.00000000000E+00 0.  1.
         23    2    1    2    0    0 -0.38886098193E+02 -0.16415842588E+02  0.34666875504E+03  0.36093564746E+03  0.91179533685E+02 0.  0.
         23    2    1    2    0    0  0.38886098193E+02  0.16415842588E+02  0.44471416775E+03  0.46389691964E+03  0.12509217617E+03 0.  0.
          5    1    4    4  502    0 -0.30939846237E+02  0.41943773674E+02  0.12254024755E+03  0.13322964724E+03  0.41800000000E+01 0. -1.
         -5    1    4    4    0  502  0.69825944431E+02 -0.25527931086E+02  0.32217392020E+03  0.33066727240E+03  0.41800000000E+01 0. -1.
        -11    1    3    3    0    0 -0.68423379008E+02 -0.11226327488E+02  0.21541612322E+03  0.22630045375E+03  0.00000000000E+00 0.  1.
         11    1    3    3    0    0  0.29537280815E+02 -0.51895150999E+01  0.13125263182E+03  0.13463519371E+03  0.00000000000E+00 0. -1.
</event>
<event>
 8    1  0.9181008E-006  0.1621667E+03  0.7561462E-02  0.1186272E+00
          4   -1    0    0  501    0  0.00000000000E+00  0.00000000000E+00  0.51856227507E+03  0.51856227507E+03  0.00000000000E+00 0. -1.
         -4   -1    0    0    0  501 -0.00000000000E+00 -0.00000000000E+00 -0.63881894870E+02  0.63881894870E+02  0.00000000000E+00 0.  1.
         23    2    1    2    0    0  0.71684023377E+02  0.97408517369E+02  0.84559039897E+02  0.17346514581E+03  0.91175145297E+02 0.  0.
         23    2    1    2    0    0 -0.71684023377E+02 -0.97408517369E+02  0.37012134030E+03  0.40897902412E+03  0.12508803766E+03 0.  0.
          5    1    4    4  502    0 -0.10692443810E+03 -0.78102937791E+02  0.30200193494E+03  0.32978105686E+03  0.41800000000E+01 0.  1.
         -5    1    4    4    0  502  0.35240414722E+02 -0.19305579578E+02  0.68119405360E+02  0.79197967267E+02  0.41800000000E+01 0.  1.
        -11    1    3    3    0    0  0.19541697435E+02  0.97372785635E+02  0.55934400343E+02  0.11398243050E+03  0.00000000000E+00 0.  1.
         11    1    3    3    0    0  0.52142325941E+02  0.35731734213E-01  0.28624639554E+02  0.59482715312E+02  0.00000000000E+00 0. -1.
</event>
<event>
 8    1  0.9181008E-006  0.1174305E+03  0.7561462E-02  0.1247397E+00
          1   -1    0    0  501    0  0.00000000000E+00  0.00000000000E+00  0.10048689205E+04  0.10048689205E+04  0.00000000000E+00 0. -1.
         -1   -1    0    0    0  501 -0.00000000000E+00 -0.00000000000E+00 -0.16985817984E+02  0.16985817984E+02  0.00000000000E+00 0.  1.
         23    2    1    2    0    0 -0.52613233751E+02  0.59852679119E+02  0.32224051502E+03  0.33989051928E+03  0.73048750935E+02 0.  0.
         23    2    1    2    0    0  0.52613233751E+02 -0.59852679119E+02  0.66564258749E+03  0.68196421919E+03  0.12507856100E+03 0.  0.
          5    1    4    4  502    0  0.81576498731E+02 -0.70766643727E+02  0.59485305640E+03  0.60459099738E+03  0.41800000000E+01 0.  1.
         -5    1    4    4    0  502 -0.28963264980E+02  0.10913964608E+02  0.70789531092E+02  0.77373221814E+02  0.41800000000E+01 0.  1.
        -11    1    3    3    0    0 -0.48374057988E+01  0.45376001876E+02  0.76055952886E+02  0.88695490362E+02  0.00000000000E+00 0.  1.
         11    1    3    3    0    0 -0.47775827952E+02  0.14476677243E+02  0.24618456213E+03  0.25119502892E+03  0.00000000000E+00 0. -1.
</event>
<event>
 8    1  0.9181008E-006  0.1204645E+03  0.7561462E-02  0.1242333E+00
          2   -1    0    0  501    0  0.00000000000E+00  0.00000000000E+00  0.70100792816E+03  0.70100792816E+03  0.00000000000E+00 0. -1.
         -2   -1    0    0    0  501 -0.00000000000E+00 -0.00000000000E+00 -0.29020546377E+02  0.29020546377E+02  0.00000000000E+00 0.  1.
         23    2    1    2    0    0  0.74890008971E+02  0.33519389700E+02  0.21030816199E+03  0.24466254495E+03  0.94330138201E+02 0.  0.
         23    2    1    2    0    0 -0.74890008971E+02 -0.33519389700E+02  0.46167921979E+03  0.48536592958E+03  0.12530092052E+03 0.  0.
          5    1    4    4  502    0 -0.40226654524E+02 -0.73907062777E+02  0.18090034937E+03  0.19955662470E+03  0.41800000000E+01 0.  1.
         -5    1    4    4    0  502 -0.34663354448E+02  0.40387673077E+02  0.28077887043E+03  0.28580930488E+03  0.41800000000E+01 0.  1.
        -11    1    3    3    0    0  0.38995411703E+02  0.50319780600E+02  0.18948536455E+03  0.19989353624E+03  0.00000000000E+00 0. -1.
         11    1    3    3    0    0  0.35894597268E+02 -0.16800390900E+02  0.20822797439E+02  0.44769008707E+02  0.00000000000E+00 0.  1.
</event>
<event>
 8    1  0.9181008E-006  0.6758223E+02  0.7561462E-02  0.1368513E+00
          2   -1    0    0  501    0  0.00000000000E+00  0.00000000000E+00  0.58469758162E+03  0.58469758162E+03  0.00000000000E+00 0. -1.
         -2   -1    0    0    0  501 -0.00000000000E+00 -0.00000000000E+00 -0.21985167935E+02  0.21985167935E+02  0.00000000000E+00 0.  1.
         23    2    1    2    0    0 -0.12551947820E+02 -0.26299858012E+01  0.16583649443E+03  0.19036195860E+03  0.92582202272E+02 0.  0.
         23    2    1    2    0    0  0.12551947820E+02  0.26299858012E+01  0.39687591926E+03  0.41632079096E+03  0.12509211597E+03 0.  0.
          5    1    4    4  502    0  0.26812532303E+02  0.30878476667E+02  0.37586723311E+03  0.37810850498E+03  0.41800000000E+01 0. -1.
         -5    1    4    4    0  502 -0.14260584484E+02 -0.28248490866E+02  0.21008686141E+02  0.38212285974E+02  0.41800000000E+01 0. -1.
        -11    1    3    3    0    0 -0.90700685610E+00 -0.31237586949E+02  0.12032340434E+02  0.33487112687E+02  0.00000000000E+00 0.  1.
         11    1    3    3    0    0 -0.11644940964E+02  0.28607601147E+02  0.15380415400E+03  0.15687484591E+03  0.00000000000E+00 0. -1.
</event>
<event>
 8    1  0.9181008E-006  0.1000113E+03  0.7561462E-02  0.1280272E+00
          1   -1    0    0  501    0  0.00000000000E+00  0.00000000000E+00  0.46413263470E+02  0.46413263470E+02  0.00000000000E+00 0. -1.
         -1   -1    0    0    0  501 -0.00000000000E+00 -0.00000000000E+00 -0.35853761921E+03  0.35853761921E+03  0.00000000000E+00 0.  1.
         23    2    1    2    0    0  0.47915421228E+02 -0.32066692565E+02 -0.19358607297E+03  0.22322627883E+03  0.95027593634E+02 0.  0.
         23    2    1    2    0    0 -0.47915421228E+02  0.32066692565E+02 -0.11853828278E+03  0.18172460385E+03  0.12509335233E+03 0.  0.
          5    1    4    4  502    0 -0.34945726121E+02 -0.18213862457E+02  0.11810826874E+02  0.41351137726E+02  0.41800000000E+01 0.  1.
         -5    1    4    4    0  502 -0.12969695107E+02  0.50280555023E+02 -0.13034910965E+03  0.14037346612E+03  0.41800000000E+01 0.  1.
        -11    1    3    3    0    0  0.58423063191E+02 -0.56765309184E+02 -0.12126226584E+03  0.14608248271E+03  0.00000000000E+00 0. -1.
         11    1    3    3    0    0 -0.10507641963E+02  0.24698616618E+02 -0.72323807128E+02  0.77143796121E+02  0.00000000000E+00 0.  1.
</event>
<event>
 8    1  0.9181008E-006  0.1165337E+03  0.7561462E-02  0.1248927E+00
         -1   -1    0    0    0  501 -0.00000000000E+00  0.00000000000E+00  0.20243649066E+02  0.20243649066E+02  0.00000000000E+00 0.  1.
          1   -1    0    0  501    0  0.00000000000E+00 -0.00000000000E+00 -0.75373305048E+03  0.75373305048E+03  0.00000000000E+00 0. -1.
         23    2    1    2    0    0 -0.36338900530E+02 -0.43517324582E+02 -0.36641645645E+03  0.38205546603E+03  0.92147090760E+02 0.  0.
         23    2    1    2    0    0  0.36338900530E+02  0.43517324582E+02 -0.36707294496E+03  0.39192123352E+03  0.12508170580E+03 0.  0.
          5    1    4    4  502    0 -0.28360191949E+02  0.53306737908E+02 -0.99769701483E+02  0.11669350679E+03  0.41800000000E+01 0.  1.
         -5    1    4    4    0  502  0.64699092480E+02 -0.97894133256E+01 -0.26730324348E+03  0.27522772672E+03  0.41800000000E+01 0.  1.
        -11    1    3    3    0    0  0.90141838798E+01 -0.58514111423E+02 -0.17392442243E+03  0.18372496147E+03  0.00000000000E+00 0.  1.
         11    1    3    3    0    0 -0.45353084410E+02  0.14996786841E+02 -0.19249203402E+03  0.19833050456E+03  0.00000000000E+00 0. -1.
</event>
<event>
 8    1  0.9181008E-006  0.1109406E+03  0.7561462E-02  0.1258838E+00
          3   -1    0    0  501    0  0.00000000000E+00  0.00000000000E+00  0.22699145665E+03  0.22699145665E+03  0.00000000000E+00 0. -1.
         -3   -1    0    0    0  501 -0.00000000000E+00 -0.00000000000E+00 -0.72256613374E+02  0.72256613374E+02  0.00000000000E+00 0.  1.
         23    2    1    2    0    0  0.13824435022E+02  0.60478463071E+02  0.37740041188E+02  0.11704717024E+03  0.91798528606E+02 0.  0.
         23    2    1    2    0    0 -0.13824435022E+02 -0.60478463071E+02  0.11699480209E+03  0.18220089978E+03  0.12514241753E+03 0.  0.
          5    1    4    4  502    0  0.47240666015E+02  0.68075283259E+01  0.49857913238E+02  0.69146994728E+02  0.41800000000E+01 0.  1.
         -5    1    4    4    0  502 -0.61065101037E+02 -0.67285991397E+02  0.67136888847E+02  0.11305390505E+03  0.41800000000E+01 0.  1.
        -11    1    3    3    0    0  0.86402128706E+01  0.70870820255E+02 -0.61372995937E+01  0.71658864688E+02  0.00000000000E+00 0.  1.
         11    1    3    3    0    0  0.51842221513E+01 -0.10392357184E+02  0.43877340782E+02  0.45388305556E+02  0.00000000000E+00 0. -1.
</event>
<event>
 7    1  0.9181008E-006  0.1139322E+03  0.7561462E-02  0.1253457E+00
          2   -1    0    0  501    0  0.00000000000E+00  0.00000000000E+00  0.21746117394E+03  0.21746117394E+03  0.00000000000E+00 0. -1.
         -2   -1    0    0    0  501 -0.00000000000E+00 -0.00000000000E+00 -0.12241795518E+03  0.12241795518E+03  0.00000000000E+00 0.  1.
         23    2    1    2    0    0  0.42786708214E+01  0.67882766618E+02 -0.53110282530E+02  0.12903620237E+03  0.95933635307E+02 0.  0.
          5    1    1    2  502    0 -0.44616819364E+02 -0.92938042142E+01  0.12926386634E+03  0.13712641944E+03  0.41800000000E+01 0. -1.
         -5    1    1    2    0  502  0.40338148542E+02 -0.58588962404E+02  0.18889634949E+02  0.73716507323E+02  0.41800000000E+01 0.  1.
        -11    1    3    3    0    0 -0.10827141291E+02  0.86326711184E+02 -0.21817985118E+02  0.89697004002E+02  0.00000000000E+00 0.  1.
         11    1    3    3    0    0  0.15105812112E+02 -0.18443944566E+02 -0.31292297412E+02  0.39339198365E+02  0.00000000000E+00 0. -1.
</event>
<event>
 7    1  0.9181008E-006  0.1596860E+03  0.7561462E-02  0.1189052E+00
          1   -1    0    0  501    0  0.00000000000E+00  0.00000000000E+00  0.58754017996E+03  0.58754017996E+03  0.00000000000E+00 0. -1.
         -1   -1    0    0    0  501 -0.00000000000E+00 -0.00000000000E+00 -0.17968898296E+03  0.17968898296E+03  0.00000000000E+00 0.  1.
         23    2    1    2    0    0  0.12628735152E+03 -0.45806992850E+02 -0.12393389913E+03  0.20384515334E+03  0.90257738941E+02 0.  0.
          5    1    1    2  502    0 -0.13451294520E+03  0.61867280146E+02  0.34199206454E+03  0.37268933093E+03  0.41800000000E+01 0. -1.
         -5    1    1    2    0  502  0.82255936837E+01 -0.16060287295E+02  0.18979303160E+03  0.19069467864E+03  0.41800000000E+01 0.  1.
        -11    1    3    3    0    0  0.39342769452E+02 -0.52414448530E+02 -0.87552385592E+02  0.10936429100E+03  0.00000000000E+00 0.  1.
         11    1    3    3    0    0  0.86944582069E+02  0.66074556793E+01 -0.36381513542E+02  0.94480862344E+02  0.00000000000E+00 0. -1.
</event>
<event>
 8    1  0.9181008E-006  0.1172056E+03  0.7561462E-02  0.1247779E+00
         -1   -1    0    0    0  501 -0.00000000000E+00  0.00000000000E+00  0.65844440814E+03  0.65844440814E+03  0.00000000000E+00 0.  1.
          1   -1    0    0  501    0  0.00000000000E+00 -0.00000000000E+00 -0.24292274544E+02  0.24292274544E+02  0.00000000000E+00 0. -1.
         23    2    1    2    0    0  0.50987298642E+02  0.26828404368E+02  0.30077060062E+03  0.32202944237E+03  0.99601905869E+02 0.  0.
         23    2    1    2    0    0 -0.50987298642E+02 -0.26828404368E+02  0.33338153298E+03  0.36070724032E+03  0.12508796417E+03 0.  0.
          5    1    4    4  502    0 -0.75260800093E+02  0.15772242304E+02  0.12686326088E+03  0.14840724719E+03  0.41800000000E+01 0. -1.
         -5    1    4    4    0  502  0.24273501450E+02 -0.42600646672E+02  0.20651827210E+03  0.21229999312E+03  0.41800000000E+01 0. -1.
        -11    1    3    3    0    0  0.77814481184E+02  0.22640613796E+02  0.26503767616E+03  0.27715097088E+03  0.00000000000E+00 0.  1.
         11    1    3    3    0    0 -0.26827182542E+02  0.41877905716E+01  0.35732924460E+02  0.44878471492E+02  0.00000000000E+00 0. -1.
</event>
<event>
 8    1  0.9181008E-006  0.1642238E+03  0.7561462E-02  0.1184009E+00
          1   -1    0    0  501    0  0.00000000000E+00  0.00000000000E+00  0.88417239970E+03  0.88417239970E+03  0.00000000000E+00 0. -1.
         -1   -1    0    0    0  501 -0.00000000000E+00 -0.00000000000E+00 -0.32233408687E+02  0.32233408687E+02  0.00000000000E+00 0.  1.
         23    2    1    2    0    0 -0.62990646820E+02  0.10593570942E+03  0.30033667882E+03  0.33752493896E+03  0.92362154902E+02 0.  0.
         23    2    1    2    0    0  0.62990646820E+02 -0.10593570942E+03  0.55160231219E+03  0.57888086942E+03  0.12509098311E+03 0.  0.
          5    1    4    4  502    0  0.39905530982E+02 -0.13342238127E+03  0.44724358351E+03  0.46844239627E+03  0.41800000000E+01 0.  1.
         -5    1    4    4    0  502  0.23085115837E+02  0.27486671845E+02  0.10435872867E+03  0.11043847315E+03  0.41800000000E+01 0.  1.
        -11    1    3    3    0    0 -0.10449578495E+02 -0.16625507425E+02  0.26891953747E+02  0.33298323744E+02  0.00000000000E+00 0. -1.
         11    1    3    3    0    0 -0.52541068325E+02  0.12256121685E+03  0.27344472508E+03  0.30422661522E+03  0.00000000000E+00 0.  1.
</event>
<event>
 8    1  0.9181008E-006  0.1057327E+03  0.7561462E-02  0.1268683E+00
         -2   -1    0    0    0  501 -0.00000000000E+00  0.00000000000E+00  0.16485644061E+02  0.16485644061E+02  0.00000000000E+00 0.  1.
          2   -1    0    0  501    0  0.00000000000E+00 -0.00000000000E+00 -0.89827726631E+03  0.89827726631E+03  0.00000000000E+00 0. -1.
         23    2    1    2    0    0  0.27049278716E+02  0.10818772738E+02 -0.21377507034E+03  0.23451032506E+03  0.91905399930E+02 0.  0.
         23    2    1    2    0    0 -0.27049278716E+02 -0.10818772738E+02 -0.66801655190E+03  0.68025258531E+03  0.12509499143E+03 0.  0.
          5    1    4    4  502    0  0.38572510592E+00 -0.59406818062E+02 -0.19374597042E+03  0.20269260537E+03  0.41800000000E+01 0.  1.
         -5    1    4    4    0  502 -0.27435003822E+02  0.48588045324E+02 -0.47427058148E+03  0.47755997994E+03  0.41800000000E+01 0.  1.
        -11    1    3    3    0    0  0.61189663346E+01 -0.40276990719E+02 -0.79644154639E+02  0.89458756411E+02  0.00000000000E+00 0. -1.
         11    1    3    3    0    0  0.20930312382E+02  0.51095763457E+02 -0.13413091570E+03  0.14505156865E+03  0.00000000000E+00 0.  1.
</event>
<event>
 8    1  0.9181008E-006  0.2335130E+03  0.7561462E-02  0.1124191E+00
         -2   -1    0    0    0  501 -0.00000000000E+00  0.00000000000E+00  0.18813390007E+03  0.18813390007E+03  0.00000000000E+00 0.  1.
          2   -1    0    0  501    0  0.00000000000E+00 -0.00000000000E+00 -0.33459467073E+03  0.33459467073E+03  0.00000000000E+00 0. -1.
         23    2    1    2    0    0 -0.91247074196E+01 -0.21677953113E+03 -0.18265066101E+02  0.24137654222E+03  0.10417483906E+03 0.  0.
         23    2    1    2    0    0  0.91247074196E+01  0.21677953113E+03 -0.12819570456E+03  0.28135202857E+03  0.12509276522E+03 0.  0.
          5    1    4    4  502    0  0.37753844999E+02  0.71408321432E+02 -0.10306729063E+03  0.13101465559E+03  0.41800000000E+01 0. -1.
         -5    1    4    4    0  502 -0.28629137579E+02  0.14537120970E+03 -0.25128413930E+02  0.15033737298E+03  0.41800000000E+01 0. -1.
        -11    1    3    3    0    0 -0.47429318938E+02 -0.59745773763E+02 -0.22981911072E+02  0.79669730852E+02  0.00000000000E+00 0. -1.
         11    1    3    3    0    0  0.38304611519E+02 -0.15703375737E+03  0.47168449711E+01  0.16170681137E+03  0.00000000000E+00 0.  1.
</event>
<event>
 8    1  0.9181008E-006  0.9028709E+02  0.7561462E-02  0.1302158E+00
         -3   -1    0    0    0  501 -0.00000000000E+00  0.00000000000E+00  0.71279655282E+03  0.71279655282E+03  0.00000000000E+00 0.  1.
          3   -1    0    0  501    0  0.00000000000E+00 -0.00000000000E+00 -0.22752115428E+02  0.22752115428E+02  0.00000000000E+00 0. -1.
         23    2    1    2    0    0  0.56253691757E+02 -0.32293717713E+02  0.32861601896E+03  0.34762389004E+03  0.92986660189E+02 0.  0.
         23    2    1    2    0    0 -0.56253691757E+02  0.32293717713E+02  0.36142841843E+03  0.38792477821E+03  0.12509104626E+03 0.  0.
          5    1    4    4  502    0 -0.63205704255E+02  0.33523092875E+02  0.36951744598E+03  0.37640320680E+03  0.41800000000E+01 0.  1.
         -5    1    4    4    0  502  0.69520124981E+01 -0.12293751621E+01 -0.80890275441E+01  0.11521571406E+02  0.41800000000E+01 0.  1.
        -11    1    3    3    0    0  0.58234278766E+02  0.93769928901E+01  0.10761432895E+03  0.12271920393E+03  0.00000000000E+00 0. -1.
         11    1    3    3    0    0 -0.19805870086E+01 -0.41670710603E+02  0.22100169001E+03  0.22490468611E+03  0.00000000000E+00 0.  1.
</event>
<event>
 8    1  0.9181008E-006  0.1997494E+03  0.7561462E-02  0.1149951E+00
         -2   -1    0    0    0  501 -0.00000000000E+00  0.00000000000E+00  0.77457387742E+03  0.77457387742E+03  0.00000000000E+00 0.  1.
          2   -1    0    0  501    0  0.00000000000E+00 -0.00000000000E+00 -0.54617590264E+02  0.54617590264E+02  0.00000000000E+00 0. -1.
         23    2    1    2    0    0  0.11205950753E+03  0.13063150752E+03  0.40013577893E+03  0.44498143364E+03  0.90983024355E+02 0.  0.
         23    2    1    2    0    0 -0.11205950753E+03 -0.13063150752E+03  0.31982050823E+03  0.38421003404E+03  0.12534061111E+03 0.  0.
          5    1    4    4  502    0 -0.15999877878E+02  0.24980883483E+02  0.47430285751E+02  0.56099421014E+02  0.41800000000E+01 0.  1.
         -5    1    4    4    0  502 -0.96059629653E+02 -0.15561239100E+03  0.27239022248E+03  0.32811061303E+03  0.41800000000E+01 0.  1.
        -11    1    3    3    0    0  0.32025762347E+02  0.92652627260E+02  0.14609055881E+03  0.17593353906E+03  0.00000000000E+00 0. -1.
         11    1    3    3    0    0  0.80033745183E+02  0.37978880259E+02  0.25404522012E+03  0.26904789458E+03  0.00000000000E+00 0.  1.
</event>
<event>
 8    1  0.9181008E-006  0.1142594E+03  0.7561462E-02  0.1252879E+00
          2   -1    0    0  501    0  0.00000000000E+00  0.00000000000E+00  0.45251452787E+03  0.45251452787E+03  0.00000000000E+00 0. -1.
         -2   -1    0    0    0  501 -0.00000000000E+00 -0.00000000000E+00 -0.33345207913E+02  0.33345207913E+02  0.00000000000E+00 0.  1.
         23    2    1    2    0    0 -0.26348313784E+02 -0.49741980233E+02  0.12051124504E+03  0.15720634329E+03  0.83799617855E+02 0.  0.
         23    2    1    2    0    0  0.26348313784E+02  0.49741980233E+02  0.29865807491E+03  0.32865339249E+03  0.12509160023E+03 0.  0.
          5    1    4    4  502    0  0.89496331833E+01  0.89696308559E+02  0.23171857330E+03  0.24866944589E+03  0.41800000000E+01 0.  1.
         -5    1    4    4    0  502  0.17398680601E+02 -0.39954328326E+02  0.66939501609E+02  0.79983946603E+02  0.41800000000E+01 0.  1.
        -11    1    3    3    0    0  0.26275657053E+02 -0.84152085024E+01  0.12826019543E+02  0.30425855206E+02  0.00000000000E+00 0.  1.
         11    1    3    3    0    0 -0.52623970837E+02 -0.41326771731E+02  0.10768522550E+03  0.12678048808E+03  0.00000000000E+00 0. -1.
</event>
<event>
 8    1  0.9181008E-006  0.1191231E+03  0.7561462E-02  0.1244551E+00
         -1   -1    0    0    0  501 -0.00000000000E+00  0.00000000000E+00  0.41332324071E+02  0.41332324071E+02  0.00000000000E+00 0.  1.
          1   -1    0    0  501    0  0.00000000000E+00 -0.00000000000E+00 -0.66052854287E+03  0.66052854287E+03  0.00000000000E+00 0. -1.
         23    2    1    2    0    0  0.33657923901E+02  0.48469418240E+02 -0.52809031964E+02  0.11883106183E+03  0.88599588336E+02 0.  0.
         23    2    1    2    0    0 -0.33657923901E+02 -0.48469418240E+02 -0.56638718683E+03  0.58302980510E+03  0.12508864012E+03 0.  0.
          5    1    4    4  502    0  0.33814527286E+02 -0.56276199687E+02 -0.20519681780E+03  0.21548466150E+03  0.41800000000E+01 0. -1.
         -5    1    4    4    0  502 -0.67472451186E+02  0.78067814469E+01 -0.36119036904E+03  0.36754514361E+03  0.41800000000E+01 0. -1.
        -11    1    3    3    0    0 -0.24989040408E+02  0.37003390735E+02 -0.34198907686E+02  0.56242940476E+02  0.00000000000E+00 0.  1.
         11    1    3    3    0    0  0.58646964308E+02  0.11466027505E+02 -0.18610124277E+02  0.62588121356E+02  0.00000000000E+00 0. -1.
</event>
<event>
 8    1  0.9181008E-006  0.8118020E+02  0.7561462E-02  0.1325735E+00
         -3   -1    0    0    0  501 -0.00000000000E+00  0.00000000000E+00  0.26629815667E+03  0.26629815667E+03  0.00000000000E+00 0.  1.
          3   -1    0    0  501    0  0.00000000000E+00 -0.00000000000E+00 -0.59954054527E+02  0.59954054527E+02  0.00000000000E+00 0. -1.
         23    2    1    2    0    0 -0.18704670584E+02 -0.59243439252E+02  0.10825512858E+03  0.15558444809E+03  0.92885401580E+02 0.  0.
         23    2    1    2    0    0  0.18704670584E+02  0.59243439252E+02  0.98088973568E+02  0.17066776311E+03  0.12508552608E+03 0.  0.
          5    1    4    4  502    0  0.22626202014E+02  0.64952015854E+02  0.12490865124E+03  0.14265466321E+03  0.41800000000E+01 0.  1.
         -5    1    4    4    0  502 -0.39215314300E+01 -0.57085766020E+01 -0.26819677674E+02  0.28013099902E+02  0.41800000000E+01 0.  1.
        -11    1    3    3    0    0  0.20975660484E+02 -0.27275380593E+02 -0.16434213785E+01  0.34447431734E+02  0.00000000000E+00 0. -1.
         11    1    3    3    0    0 -0.39680331068E+02 -0.31968058659E+02  0.10989854996E+03  0.12113701635E+03  0.00000000000E+00 0.  1.
</event>
<event>
 8    1  0.9181008E-006  0.1414027E+03  0.7561462E-02  0.1211454E+00
         -2   -1    0    0    0  501 -0.00000000000E+00  0.00000000000E+00  0.18402590969E+02  0.18402590969E+02  0.00000000000E+00 0.  1.
          2   -1    0    0  501    0  0.00000000000E+00 -0.00000000000E+00 -0.14696907334E+04  0.14696907334E+04  0.00000000000E+00 0. -1.
         23    2    1    2    0    0  0.90335509846E+02  0.66235608414E+02 -0.43394455930E+03  0.45698525683E+03  0.89330757611E+02 0.  0.
         23    2    1    2    0    0 -0.90335509846E+02 -0.66235608414E+02 -0.10173435832E+04  0.10311080676E+04  0.12509284808E+03 0.  0.
          5    1    4    4  502    0 -0.89610817810E+02 -0.99731544585E+02 -0.81750885835E+03  0.82844111772E+03  0.41800000000E+01 0.  1.
         -5    1    4    4    0  502 -0.72469203565E+00  0.33495936171E+02 -0.19983472481E+03  0.20266694984E+03  0.41800000000E+01 0.  1.
        -11    1    3    3    0    0  0.44603793400E+02  0.48387529260E+02 -0.37284025247E+03  0.37860362549E+03  0.00000000000E+00 0. -1.
         11    1    3    3    0    0  0.45731716446E+02  0.17848079154E+02 -0.61104306831E+02  0.78381631342E+02  0.00000000000E+00 0.  1.
</event>
<event>
 8    1  0.9181008E-006  0.1205157E+03  0.7561462E-02  0.1242249E+00
         -1   -1    0    0    0  501 -0.00000000000E+00  0.00000000000E+00  0.32537940259E+02  0.32537940259E+02  0.00000000000E+00 0.  1.
          1   -1    0    0  501    0  0.00000000000E+00 -0.00000000000E+00 -0.62015838623E+03  0.62015838623E+03  0.00000000000E+00 0. -1.
         23    2    1    2    0    0  0.89550745431E+02 -0.22486347813E+02 -0.19167235842E+03  0.22731690448E+03  0.80060665961E+02 0.  0.
         23    2    1    2    0    0 -0.89550745431E+02  0.22486347813E+02 -0.39594808755E+03  0.42537942201E+03  0.12509113793E+03 0.  0.
          5    1    4    4  502    0 -0.75268422591E+02  0.55165281993E+02 -0.14918572828E+03  0.17601817434E+03  0.41800000000E+01 0.  1.
         -5    1    4    4    0  502 -0.14282322840E+02 -0.32678934181E+02 -0.24676235927E+03  0.24936124767E+03  0.41800000000E+01 0.  1.
        -11    1    3    3    0    0  0.49182236164E+02  0.20009927516E+02 -0.45842706084E+02  0.70148722400E+02  0.00000000000E+00 0.  1.
         11    1    3    3    0    0  0.40368509267E+02 -0.42496275329E+02 -0.14582965234E+03  0.15716818208E+03  0.00000000000E+00 0. -1.
</event>
<event>
 8    1  0.9181008E-006  0.7396178E+02  0.7561462E-02  0.1347117E+00
         -2   -1    0    0    0  501 -0.00000000000E+00  0.00000000000E+00  0.98389838481E+02  0.98389838481E+02  0.00000000000E+00 0.  1.
          2   -1    0    0  501    0  0.00000000000E+00 -0.00000000000E+00 -0.13992794145E+03  0.13992794145E+03  0.00000000000E+00 0. -1.
         23    2    1    2    0    0  0.30732781281E+02  0.11394150344E+02 -0.15293423948E+02  0.10636550380E+03  0.10002700173E+03 0.  0.
         23    2    1    2    0    0 -0.30732781281E+02 -0.11394150344E+02 -0.26244679023E+02  0.13195227614E+03  0.12509312328E+03 0.  0.
          5    1    4    4  502    0 -0.41231531267E+02  0.11320103220E+02 -0.69558191935E+02  0.81755723793E+02  0.41800000000E+01 0. -1.
         -5    1    4    4    0  502  0.10498749987E+02 -0.22714253565E+02  0.43313512912E+02  0.50196552343E+02  0.41800000000E+01 0. -1.
        -11    1    3    3    0    0  0.23090541491E+02 -0.29798033835E+02 -0.42191175788E+02  0.56579070699E+02  0.00000000000E+00 0. -1.
         11    1    3    3    0    0  0.76422397899E+01  0.41192184180E+02  0.26897751840E+02  0.49786433097E+02  0.00000000000E+00 0.  1.
</event>
<event>
 8    1  0.9181008E-006  0.1224778E+03  0.7561462E-02  0.1239064E+00
          2   -1    0    0  501    0  0.00000000000E+00  0.00000000000E+00  0.24449894510E+04  0.24449894510E+04  0.00000000000E+00 0. -1.
         -2   -1    0    0    0  501 -0.00000000000E+00 -0.00000000000E+00 -0.19370617057E+02  0.19370617057E+02  0.00000000000E+00 0.  1.
         23    2    1    2    0    0 -0.62018838788E+02  0.78151562240E+02  0.25751424081E+03  0.29035928976E+03  0.89671232185E+02 0.  0.
         23    2    1    2    0    0  0.62018838788E+02 -0.78151562240E+02  0.21681045931E+04  0.21740007783E+04  0.12509138361E+03 0.  0.
          5    1    4    4  502    0  0.30717232114E+02  0.39520282642E-01  0.15340406554E+04  0.15343538558E+04  0.41800000000E+01 0.  1.
         -5    1    4    4    0  502  0.31301606674E+02 -0.78191082523E+02  0.63406393768E+03  0.63964692248E+03  0.41800000000E+01 0.  1.
        -11    1    3    3    0    0 -0.80730286332E+02  0.47359689771E+02  0.21589301112E+03  0.23530854552E+03  0.00000000000E+00 0. -1.
         11    1    3    3    0    0  0.18711447545E+02  0.30791872469E+02  0.41621229693E+02  0.55050744232E+02  0.00000000000E+00 0.  1.
</event>
<event>
 8    1  0.9181008E-006  0.8939573E+02  0.7561462E-02  0.1304322E+00
          2   -1    0    0  501    0  0.00000000000E+00  0.00000000000E+00  0.13736495570E+03  0.13736495570E+03  0.00000000000E+00 0. -1.
         -2   -1    0    0    0  501 -0.00000000000E+00 -0.00000000000E+00 -0.95394030272E+02  0.95394030272E+02  0.00000000000E+00 0.  1.
         23    2    1    2    0    0  0.30899669051E+02 -0.15139320902E+02 -0.17969332928E+01  0.95838993612E+02  0.89430951815E+02 0.  0.
         23    2    1    2    0    0 -0.30899669051E+02  0.15139320902E+02  0.43767858719E+02  0.13691999236E+03  0.12508984877E+03 0.  0.
          5    1    4    4  502    0 -0.70479732125E+02  0.35568585494E+02  0.47159724520E+02  0.92054488925E+02  0.41800000000E+01 0.  1.
         -5    1    4    4    0  502  0.39580063075E+02 -0.20429264592E+02 -0.33918658007E+01  0.44865503434E+02  0.41800000000E+01 0.  1.
        -11    1    3    3    0    0  0.64935179615E+01 -0.27065295063E+02 -0.40141800549E+02  0.48847314396E+02  0.00000000000E+00 0.  1.
         11    1    3    3    0    0  0.24406151089E+02  0.11925974161E+02  0.38344867256E+02  0.46991679216E+02  0.00000000000E+00 0. -1.
</event>
<event>
 8    1  0.9181008E-006  0.2125458E+03  0.7561462E-02  0.1139566E+00
         -1   -1    0    0    0  501 -0.00000000000E+00  0.00000000000E+00  0.55057599656E+02  0.55057599656E+02  0.00000000000E+00 0.  1.
          1   -1    0    0  501    0  0.00000000000E+00 -0.00000000000E+00 -0.10197183482E+04  0.10197183482E+04  0.00000000000E+00 0. -1.
         23    2    1    2    0    0  0.13178602996E+03  0.12831288971E+03 -0.23640408560E+03  0.31330536036E+03  0.91878189917E+02 0.  0.
         23    2    1    2    0    0 -0.13178602996E+03 -0.12831288971E+03 -0.72825666299E+03  0.76147058754E+03  0.12509169897E+03 0.  0.
          5    1    4    4  502    0 -0.14808140723E+03 -0.78815924828E+02 -0.59850565988E+03  0.62158390462E+03  0.41800000000E+01 0. -1.
         -5    1    4    4    0  502  0.16295377266E+02 -0.49496964878E+02 -0.12975100311E+03  0.13988668293E+03  0.41800000000E+01 0. -1.
        -11    1    3    3    0    0  0.12079330747E+03  0.58273323875E+02 -0.16575428299E+03  0.21321652312E+03  0.00000000000E+00 0.  1.
         11    1    3    3    0    0  0.10992722495E+02  0.70039565831E+02 -0.70649802615E+02  0.10008883724E+03  0.00000000000E+00 0. -1.
</event>
<event>
 8    1  0.9181008E-006  0.1147753E+03  0.7561462E-02  0.1251974E+00
          1   -1    0    0  501    0  0.00000000000E+00  0.00000000000E+00  0.34974592122E+03  0.34974592122E+03  0.00000000000E+00 0. -1.
         -1   -1    0    0    0  501 -0.00000000000E+00 -0.00000000000E+00 -0.65772869753E+02  0.65772869753E+02  0.00000000000E+00 0.  1.
         23    2    1    2    0    0 -0.25143498141E+02 -0.96697850152E+02  0.92544525865E+02  0.16597053074E+03  0.94863365338E+02 0.  0.
         23    2    1    2    0    0  0.25143498141E+02  0.96697850152E+02  0.19142852560E+03  0.24954826023E+03  0.12508710585E+03 0.  0.
          5    1    4    4  502    0  0.24389033921E+02  0.55800915008E+02  0.79945864838E+01  0.61562593386E+02  0.41800000000E+01 0. -1.
         -5    1    4    4    0  502  0.75446422020E+00  0.40896935144E+02  0.18343393912E+03  0.18798566685E+03  0.41800000000E+01 0. -1.
        -11    1    3    3    0    0  0.43632257057E+01 -0.97768850532E+02  0.94936290025E+02  0.13634766238E+03  0.00000000000E+00 0. -1.
         11    1    3    3    0    0 -0.29506723847E+02  0.10710003795E+01 -0.23917641594E+01  0.29622868359E+02  0.00000000000E+00 0.  1.
</event>
<event>
 8    1  0.9181008E-006  0.1065025E+03  0.7561462E-02  0.1267187E+00
         -1   -1    0    0    0  501 -0.00000000000E+00  0.00000000000E+00  0.17074367625E+02  0.17074367625E+02  0.00000000000E+00 0.  1.
          1   -1    0    0  501    0  0.00000000000E+00 -0.00000000000E+00 -0.82082007402E+03  0.82082007402E+03  0.00000000000E+00 0. -1.
         23    2    1    2    0    0 -0.48140365564E+02 -0.10956502707E+02 -0.30657100480E+03  0.32285295649E+03  0.88378225729E+02 0.  0.
         23    2    1    2    0    0  0.48140365564E+02  0.10956502707E+02 -0.49717470160E+03  0.51504148516E+03  0.12508999870E+03 0.  0.
          5    1    4    4  502    0  0.80146362928E+01 -0.47305706058E+02 -0.93306927548E+02  0.10500342542E+03  0.41800000000E+01 0. -1.
         -5    1    4    4    0  502  0.40125729271E+02  0.58262208765E+02 -0.40386777405E+03  0.41003805974E+03  0.41800000000E+01 0. -1.
        -11    1    3    3    0    0 -0.36711386380E+02 -0.44994871408E+02 -0.24300168377E+03  0.24984411671E+03  0.00000000000E+00 0.  1.
         11    1    3    3    0    0 -0.11428979184E+02  0.34038368701E+02 -0.63569321031E+02  0.73008839776E+02  0.00000000000E+00 0. -1.
</event>
<event>
 8    1  0.9181008E-006  0.5848923E+02  0.7561462E-02  0.1404283E+00
         -2   -1    0    0    0  501 -0.00000000000E+00  0.00000000000E+00  0.36097775377E+02  0.36097775377E+02  0.00000000000E+00 0. -1.
          2   -1    0    0  501    0  0.00000000000E+00 -0.00000000000E+00 -0.55686872607E+03  0.55686872607E+03  0.00000000000E+00 0.  1.
         23    2    1    2    0    0  0.39045138981E+02  0.37346778177E+01 -0.70090448554E+02  0.12360839560E+03  0.93956871953E+02 0.  0.
         23    2    1    2    0    0 -0.39045138981E+02 -0.37346778177E+01 -0.45068050214E+03  0.46935810585E+03  0.12508255603E+03 0.  0.
          5    1    4    4  502    0 -0.40877686650E+02 -0.55048207704E+01 -0.45837084742E+03  0.46024188692E+03  0.41800000000E+01 0.  1.
         -5    1    4    4    0  502  0.18325476692E+01  0.17701429527E+01  0.76903452774E+01  0.91162189266E+01  0.41800000000E+01 0.  1.
        -11    1    3    3    0    0  0.26780358643E+02 -0.26697447969E+02  0.82239733651E+01  0.38698515152E+02  0.00000000000E+00 0. -1.
         11    1    3    3    0    0  0.12264780338E+02  0.30432125786E+02 -0.78314421919E+02  0.84909880445E+02  0.00000000000E+00 0.  1.
</event>
<event>
 8    1  0.9181008E-006  0.1992518E+03  0.7561462E-02  0.1150372E+00
         -2   -1    0    0    0  501 -0.00000000000E+00  0.00000000000E+00  0.33337352742E+02  0.33337352742E+02  0.00000000000E+00 0.  1.
          2   -1    0    0  501    0  0.00000000000E+00 -0.00000000000E+00 -0.15287094171E+04  0.15287094171E+04  0.00000000000E+00 0. -1.
         23    2    1    2    0    0 -0.25894578437E+01  0.19065750192E+03 -0.54595563561E+03  0.58562678892E+03  0.92380688018E+02 0.  0.
         23    2    1    2    0    0  0.25894578437E+01 -0.19065750192E+03 -0.94941642874E+03  0.97641998091E+03  0.12508971034E+03 0.  0.
          5    1    4    4  502    0  0.35209230217E+02 -0.63161945067E+02 -0.57463826948E+03  0.57918540585E+03  0.41800000000E+01 0.  1.
         -5    1    4    4    0  502 -0.32619772374E+02 -0.12749555685E+03 -0.37477815925E+03  0.39723457506E+03  0.41800000000E+01 0.  1.
        -11    1    3    3    0    0 -0.17097611789E+02  0.15448015066E+03 -0.50791254900E+03  0.53116061856E+03  0.00000000000E+00 0. -1.
         11    1    3    3    0    0  0.14508153945E+02  0.36177351261E+02 -0.38043086608E+02  0.54466170362E+02  0.00000000000E+00 0.  1.
</event>
<event>
 8    1  0.9181008E-006  0.8432666E+02  0.7561462E-02  0.1317203E+00
         -1   -1    0    0    0  501 -0.00000000000E+00  0.00000000000E+00  0.51671032427E+02  0.51671032427E+02  0.00000000000E+00 0.  1.
          1   -1    0    0  501    0  0.00000000000E+00 -0.00000000000E+00 -0.40692042286E+03  0.40692042286E+03  0.00000000000E+00 0. -1.
         23    2    1    2    0    0  0.23341056411E+02  0.19727590574E+02 -0.16655573408E+02  0.96339130954E+02  0.89832273061E+02 0.  0.
         23    2    1    2    0    0 -0.23341056411E+02 -0.19727590574E+02 -0.33859381703E+03  0.36225232434E+03  0.12508793233E+03 0.  0.
          5    1    4    4  502    0  0.74887191853E+01 -0.38505989837E+02 -0.31809062910E+03  0.32052755403E+03  0.41800000000E+01 0. -1.
         -5    1    4    4    0  502 -0.30829775596E+02  0.18778399264E+02 -0.20503187925E+02  0.41724770308E+02  0.41800000000E+01 0. -1.
        -11    1    3    3    0    0  0.49988800978E+02  0.36034521576E+02 -0.15614061538E+01  0.61642558006E+02  0.00000000000E+00 0.  1.
         11    1    3    3    0    0 -0.26647744567E+02 -0.16306931002E+02 -0.15094167255E+02  0.34696572948E+02  0.00000000000E+00 0. -1.
</event>
<event>
 8    1  0.9181008E-006  0.1277293E+03  0.7561462E-02  0.1230865E+00
          1   -1    0    0  501    0  0.00000000000E+00  0.00000000000E+00  0.59569132553E+02  0.59569132553E+02  0.00000000000E+00 0.  1.
         -1   -1    0    0    0  501 -0.00000000000E+00 -0.00000000000E+00 -0.35465380915E+03  0.35465380915E+03  0.00000000000E+00 0. -1.
         23    2    1    2    0    0  0.49969743294E+02  0.56000939345E+02 -0.22026916242E+03  0.25026869926E+03  0.92102320619E+02 0.  0.
         23    2    1    2    0    0 -0.49969743294E+02 -0.56000939345E+02 -0.74815514174E+02  0.16395424244E+03  0.12510216625E+03 0.  0.
          5    1    4    4  502    0 -0.54034474569E+02 -0.90733243331E+02 -0.36257924015E+02  0.11173341193E+03  0.41800000000E+01 0. -1.
         -5    1    4    4    0  502  0.40647312755E+01  0.34732303986E+02 -0.38557590160E+02  0.52220830513E+02  0.41800000000E+01 0. -1.
        -11    1    3    3    0    0 -0.11520599335E+02 -0.16096981009E+02 -0.68889520731E+02  0.71677074949E+02  0.00000000000E+00 0. -1.
         11    1    3    3    0    0  0.61490342629E+02  0.72097920354E+02 -0.15137964169E+03  0.17859162431E+03  0.00000000000E+00 0.  1.
</event>
<event>
 8    1  0.9181008E-006  0.8215556E+02  0.7561462E-02  0.1323043E+00
         -2   -1    0    0    0  501 -0.00000000000E+00  0.00000000000E+00  0.34098075136E+02  0.34098075136E+02  0.00000000000E+00 0.  1.
          2   -1    0    0  501    0  0.00000000000E+00 -0.00000000000E+00 -0.50902491449E+03  0.50902491449E+03  0.00000000000E+00 0. -1.
         23    2    1    2    0    0 -0.15697030907E+02 -0.29460081895E+02 -0.80082236505E+02  0.12759500971E+03  0.93557622320E+02 0.  0.
         23    2    1    2    0    0  0.15697030907E+02  0.29460081895E+02 -0.39484460285E+03  0.41552797992E+03  0.12508776315E+03 0.  0.
          5    1    4    4  502    0 -0.21571017056E+02 -0.28123240990E+02 -0.27558972966E+03  0.27789098034E+03  0.41800000000E+01 0. -1.
         -5    1    4    4    0  502  0.37268047963E+02  0.57583322884E+02 -0.11925487319E+03  0.13763699958E+03  0.41800000000E+01 0. -1.
        -11    1    3    3    0    0  0.17938972479E+02 -0.14609463158E+02 -0.87136884304E+02  0.90155863668E+02  0.00000000000E+00 0. -1.
         11    1    3    3    0    0 -0.33636003386E+02 -0.14850618737E+02  0.70546477992E+01  0.37439146041E+02  0.00000000000E+00 0.  1.
</event>
<event>
 8    1  0.9181008E-006  0.1260658E+03  0.7561462E-02  0.1233413E+00
         -1   -1    0    0    0  501 -0.00000000000E+00  0.00000000000E+00  0.26788766775E+03  0.26788766775E+03  0.00000000000E+00 0.  1.
          1   -1    0    0  501    0  0.00000000000E+00 -0.00000000000E+00 -0.10080468589E+03  0.10080468589E+03  0.00000000000E+00 0. -1.
         23    2    1    2    0    0  0.89161830155E+02 -0.77464640949E+02  0.12001238114E+03  0.19032676961E+03  0.88716994138E+02 0.  0.
         23    2    1    2    0    0 -0.89161830155E+02  0.77464640949E+02  0.47070600718E+02  0.17836558404E+03  0.12509211631E+03 0.  0.
          5    1    4    4  502    0 -0.83427859878E+02  0.62482454744E+02  0.86550761835E+02  0.13554619777E+03  0.41800000000E+01 0.  1.
         -5    1    4    4    0  502 -0.57339702774E+01  0.14982186205E+02 -0.39480161117E+02  0.42819386269E+02  0.41800000000E+01 0.  1.
        -11    1    3    3    0    0  0.23503546398E+02 -0.58270471807E+02  0.14343392306E+02  0.64448409451E+02  0.00000000000E+00 0.  1.
         11    1    3    3    0    0  0.65658283757E+02 -0.19194169142E+02  0.10566898883E+03  0.12587836016E+03  0.00000000000E+00 0. -1.
</event>
<event>
 6    1  0.9181008E-006  0.9902152E+02  0.7561462E-02  0.1282367E+00
          1   -1    0    0  501    0  0.00000000000E+00  0.00000000000E+00  0.46917857691E+03  0.46917857691E+03  0.00000000000E+00 0. -1.
         -1   -1    0    0    0  501 -0.00000000000E+00 -0.00000000000E+00 -0.34177945146E+02  0.34177945146E+02  0.00000000000E+00 0.  1.
          5    1    1    2  502    0 -0.86987597218E+01 -0.27198035655E+02  0.11819740115E+02  0.31186218439E+02  0.41800000000E+01 0. -1.
         -5    1    1    2    0  502 -0.53471419228E+02  0.73328896731E+02  0.35687174035E+03  0.36825430239E+03  0.41800000000E+01 0.  1.
        -11    1    1    2    0    0  0.54863538509E+02 -0.35198777052E+02  0.46226115226E+02  0.79911297652E+02  0.00000000000E+00 0. -1.
         11    1    1    2    0    0  0.73066404410E+01 -0.10932084025E+02  0.20083036071E+02  0.24004703570E+02  0.00000000000E+00 0.  1.
</event>
<event>
 7    1  0.9181008E-006  0.1825857E+03  0.7561462E-02  0.1165324E+00
          1   -1    0    0  501    0  0.00000000000E+00  0.00000000000E+00  0.34756268179E+02  0.34756268179E+02  0.00000000000E+00 0. -1.
         -1   -1    0    0    0  501 -0.00000000000E+00 -0.00000000000E+00 -0.10396114143E+04  0.10396114143E+04  0.00000000000E+00 0.  1.
         23    2    1    2    0    0 -0.12183034829E+03  0.60726482412E+02 -0.50950328400E+03  0.54200688020E+03  0.12509005693E+03 0.  0.
          5    1    3    3  502    0 -0.72287562178E+02 -0.20727533413E+02 -0.33243823735E+03  0.34086328100E+03  0.41800000000E+01 0.  1.
         -5    1    3    3    0  502 -0.49542786112E+02  0.81454015825E+02 -0.17706504666E+03  0.20114359920E+03  0.41800000000E+01 0.  1.
        -11    1    1    2    0    0  0.12491377698E+02 -0.82076572723E+02 -0.19111951211E+03  0.20837290183E+03  0.00000000000E+00 0.  1.
         11    1    1    2    0    0  0.10933897059E+03  0.21350090311E+02 -0.30423234997E+03  0.32398790042E+03  0.00000000000E+00 0. -1.
</event>
<event>
 7    1  0.9181008E-006  0.1128521E+03  0.7561462E-02  0.1255378E+00
          4   -1    0    0  501    0  0.00000000000E+00  0.00000000000E+00  0.20361931940E+03  0.20361931940E+03  0.00000000000E+00 0. -1.
         -4   -1    0    0    0  501 -0.00000000000E+00 -0.00000000000E+00 -0.13610243441E+03  0.13610243441E+03  0.00000000000E+00 0.  1.
         23    2    1    2    0    0  0.37680246853E+02 -0.12987770071E+01 -0.23671709026E+02  0.10063815377E+03  0.90256303719E+02 0.  0.
          5    1    1    2  502    0 -0.78969482196E+02 -0.20817159842E+02  0.14570740157E+03  0.16708576401E+03  0.41800000000E+01 0. -1.
         -5    1    1    2    0  502  0.41289235343E+02  0.22115936850E+02 -0.54518807543E+02  0.71997836035E+02  0.41800000000E+01 0.  1.
        -11    1    3    3    0    0  0.18454123944E+02  0.43989893731E+02 -0.48096097129E+01  0.47945779653E+02  0.00000000000E+00 0. -1.
         11    1    3    3    0    0  0.19226122910E+02 -0.45288670738E+02 -0.18862099313E+02  0.52692374115E+02  0.00000000000E+00 0.  1.
</event>
<event>
 8    1  0.9181008E-006  0.1199842E+03  0.7561462E-02  0.1243123E+00
          1   -1    0    0  501    0  0.00000000000E+00  0.00000000000E+00  0.46527742293E+02  0.46527742293E+02  0.00000000000E+00 0. -1.
         -1   -1    0    0    0  501 -0.00000000000E+00 -0.00000000000E+00 -0.43312091251E+03  0.43312091251E+03  0.00000000000E+00 0.  1.
         23    2    1    2    0    0  0.47817901849E+02 -0.31074034794E+02 -0.29882219978E+03  0.31654294667E+03  0.87479041060E+02 0.  0.
         23    2    1    2    0    0 -0.47817901849E+02  0.31074034794E+02 -0.87770970429E+02  0.16310570813E+03  0.12509029299E+03 0.  0.
          5    1    4    4  502    0 -0.36606152604E+02  0.79450567100E+02 -0.58322616122E+02  0.10522073452E+03  0.41800000000E+01 0. -1.
         -5    1    4    4    0  502 -0.11211749245E+02 -0.48376532306E+02 -0.29448354307E+02  0.57884973616E+02  0.41800000000E+01 0. -1.
        -11    1    3    3    0    0  0.70426066619E+02 -0.90701637232E+01 -0.17725369062E+03  0.19094755712E+03  0.00000000000E+00 0.  1.
         11    1    3    3    0    0 -0.22608164771E+02 -0.22003871071E+02 -0.12156850916E+03  0.12559538955E+03  0.00000000000E+00 0. -1.
</event>
<event>
 7    1  0.9181008E-006  0.1979796E+03  0.7561462E-02  0.1151455E+00
         -2   -1    0    0    0  501 -0.00000000000E+00  0.00000000000E+00  0.70059003782E+02  0.70059003782E+02  0.00000000000E+00 0.  1.
          2   -1    0    0  501    0  0.00000000000E+00 -0.00000000000E+00 -0.88516674698E+03  0.88516674698E+03  0.00000000000E+00 0. -1.
         23    2    1    2    0    0 -0.96265784019E+02  0.36051168843E+01 -0.54553955763E+02  0.14284689519E+03  0.90271830250E+02 0.  0.
          5    1    1    2  502    0  0.18380413009E+03  0.27878661841E+02 -0.58223960382E+03  0.61121322521E+03  0.41800000000E+01 0. -1.
         -5    1    1    2    0  502 -0.87538346073E+02 -0.31483778725E+02 -0.17831418362E+03  0.20116563036E+03  0.41800000000E+01 0.  1.
        -11    1    3    3    0    0 -0.96243476152E+02 -0.15754593940E+02 -0.68335392936E+02  0.11908291170E+03  0.00000000000E+00 0.  1.
         11    1    3    3    0    0 -0.22307866410E-01  0.19359710824E+02  0.13781437172E+02  0.23763983491E+02  0.00000000000E+00 0. -1.
</event>
<event>
 8    1  0.9181008E-006  0.1134803E+03  0.7561462E-02  0.1254257E+00
          2   -1    0    0  501    0  0.00000000000E+00  0.00000000000E+00  0.13773217572E+04  0.13773217572E+04  0.00000000000E+00 0. -1.
         -2   -1    0    0    0  501 -0.00000000000E+00 -0.00000000000E+00 -0.12829469577E+02  0.12829469577E+02  0.00000000000E+00 0.  1.
         23    2    1    2    0    0  0.69819848616E+02 -0.14898309506E+02  0.43426585475E+03  0.44884053473E+03  0.88171549390E+02 0.  0.
         23    2    1    2    0    0 -0.69819848616E+02  0.14898309506E+02  0.93022643283E+03  0.94131069201E+03  0.12509129335E+03 0.  0.
          5    1    4    4  502    0 -0.38067800619E+02 -0.39609838383E+02  0.17559702769E+03  0.18403772785E+03  0.41800000000E+01 0. -1.
         -5    1    4    4    0  502 -0.31752047997E+02  0.54508147889E+02  0.75462940514E+03  0.75727296415E+03  0.41800000000E+01 0. -1.
        -11    1    3    3    0    0 -0.76925542007E+01 -0.28874729900E+02  0.69221440777E+02  0.75395843918E+02  0.00000000000E+00 0.  1.
         11    1    3    3    0    0  0.77512402816E+02  0.13976420394E+02  0.36504441398E+03  0.37344469081E+03  0.00000000000E+00 0. -1.
</event>
<event>
 8    1  0.9181008E-006  0.7538198E+02  0.7561462E-02  0.1342692E+00
          2   -1    0    0  501    0  0.00000000000E+00  0.00000000000E+00  0.13134030829E+03  0.13134030829E+03  0.00000000000E+00 0. -1.
         -2   -1    0    0    0  501 -0.00000000000E+00 -0.00000000000E+00 -0.99880549725E+02  0.99880549725E+02  0.00000000000E+00 0.  1.
         23    2    1    2    0    0  0.33767385246E+02  0.87166600697E+01  0.91684471027E+01  0.99461998572E+02  0.92695265620E+02 0.  0.
         23    2    1    2    0    0 -0.33767385246E+02 -0.87166600697E+01  0.22291311466E+02  0.13175885945E+03  0.12508908029E+03 0.  0.
          5    1    4    4  502    0 -0.56670438920E+02 -0.10607330121E+02 -0.36590416796E+02  0.68413340080E+02  0.41800000000E+01 0.  1.
         -5    1    4    4    0  502  0.22903053674E+02  0.18906700508E+01  0.58881728262E+02  0.63345519367E+02  0.41800000000E+01 0.  1.
        -11    1    3    3    0    0 -0.14736982782E+02 -0.97817787386E+01  0.36671492348E+02  0.40714373480E+02  0.00000000000E+00 0. -1.
         11    1    3    3    0    0  0.48504368028E+02  0.18498438808E+02 -0.27503045246E+02  0.58747625092E+02  0.00000000000E+00 0.  1.
</event>
<event>
 8    1  0.9181008E-006  0.1180240E+03  0.7561462E-02  0.1246393E+00
          1   -1    0    0  501    0  0.00000000000E+00  0.00000000000E+00  0.76295739778E+02  0.76295739778E+02  0.00000000000E+00 0. -1.
         -1   -1    0    0    0  501 -0.00000000000E+00 -0.00000000000E+00 -0.32595049797E+03  0.32595049797E+03  0.00000000000E+00 0.  1.
         23    2    1    2    0    0  0.84490020822E+02 -0.46462023157E+02 -0.18292767998E+03  0.23078882219E+03  0.10248737059E+03 0.  0.
         23    2    1    2    0    0 -0.84490020822E+02  0.46462023157E+02 -0.66727078206E+02  0.17145741555E+03  0.12509140325E+03 0.  0.
          5    1    4    4  502    0 -0.10896738856E+02  0.19311729555E+02  0.35787398063E+02  0.42307116142E+02  0.41800000000E+01 0. -1.
         -5    1    4    4    0  502 -0.73593281965E+02  0.27150293601E+02 -0.10251447627E+03  0.12915029941E+03  0.41800000000E+01 0. -1.
        -11    1    3    3    0    0  0.34153450592E+01 -0.53446457348E+02 -0.42023294131E+02  0.68074559379E+02  0.00000000000E+00 0. -1.
         11    1    3    3    0    0  0.81074675763E+02  0.69844341913E+01 -0.14090438585E+03  0.16271426281E+03  0.00000000000E+00 0.  1.
</event>
<event>
 8    1  0.9181008E-006  0.1976996E+03  0.7561462E-02  0.1151695E+00
         -2   -1    0    0    0  501 -0.00000000000E+00  0.00000000000E+00  0.41230452918E+02  0.41230452918E+02  0.00000000000E+00 0.  1.
          2   -1    0    0  501    0  0.00000000000E+00 -0.00000000000E+00 -0.10830927504E+04  0.10830927504E+04  0.00000000000E+00 0. -1.
         23    2    1    2    0    0 -0.15961555794E+03 -0.68423132213E+02 -0.36128714616E+03  0.41088773143E+03  0.90230119713E+02 0.  0.
         23    2    1    2    0    0  0.15961555794E+03  0.68423132213E+02 -0.68057515137E+03  0.71343547194E+03  0.12509510218E+03 0.  0.
          5    1    4    4  502    0  0.16885732955E+03  0.33557970162E+02 -0.48869235699E+03  0.51814730269E+03  0.41800000000E+01 0. -1.
         -5    1    4    4    0  502 -0.92417716030E+01  0.34865162051E+02 -0.19188279439E+03  0.19528816925E+03  0.41800000000E+01 0. -1.
        -11    1    3    3    0    0 -0.11563938257E+03 -0.80944492956E+02 -0.21149785906E+03  0.25427509144E+03  0.00000000000E+00 0.  1.
         11    1    3    3    0    0 -0.43976175376E+02  0.12521360744E+02 -0.14978928710E+03  0.15661263999E+03  0.00000000000E+00 0. -1.
</event>
<event>
 8    1  0.9181008E-006  0.1080560E+03  0.7561462E-02  0.1264213E+00
         -2   -1    0    0    0  501 -0.00000000000E+00  0.00000000000E+00  0.27762184468E+02  0.27762184468E+02  0.00000000000E+00 0.  1.
          2   -1    0    0  501    0  0.00000000000E+00 -0.00000000000E+00 -0.77935790638E+03  0.77935790638E+03  0.00000000000E+00 0. -1.
         23    2    1    2    0    0 -0.37356006011E+02 -0.38287574479E+02 -0.11362766890E+03  0.15480815009E+03  0.90514676438E+02 0.  0.
         23    2    1    2    0    0  0.37356006011E+02  0.38287574479E+02 -0.63796805301E+03  0.65231194075E+03  0.12508485857E+03 0.  0.
          5    1    4    4  502    0 -0.32602850483E+02  0.35482075339E+01 -0.55391480198E+02  0.64507550836E+02  0.41800000000E+01 0. -1.
         -5    1    4    4    0  502  0.69958856493E+02  0.34739366945E+02 -0.58257657281E+03  0.58780438992E+03  0.41800000000E+01 0. -1.
        -11    1    3    3    0    0 -0.55930227772E+02  0.65357534857E+01 -0.66928263666E+02  0.87465987273E+02  0.00000000000E+00 0.  1.
         11    1    3    3    0    0  0.18574221762E+02 -0.44823327965E+02 -0.46699405231E+02  0.67342162817E+02  0.00000000000E+00 0. -1.
</event>
<event>
 8    1  0.9181008E-006  0.2099075E+03  0.7561462E-02  0.1141639E+00
         -1   -1    0    0    0  501 -0.00000000000E+00  0.00000000000E+00  0.57117188954E+02  0.57117188954E+02  0.00000000000E+00 0.  1.
          1   -1    0    0  501    0  0.00000000000E+00 -0.00000000000E+00 -0.85305668998E+03  0.85305668998E+03  0.00000000000E+00 0. -1.
         23    2    1    2    0    0 -0.14041627986E+03 -0.12993353172E+03 -0.38598534647E+03  0.44080468219E+03  0.93405705584E+02 0.  0.
         23    2    1    2    0    0  0.14041627986E+03  0.12993353172E+03 -0.40995415456E+03  0.46936919675E+03  0.12508229170E+03 0.  0.
          5    1    4    4  502    0  0.15214572099E+03  0.13216042718E+03 -0.40982935117E+03  0.45671902567E+03  0.41800000000E+01 0. -1.
         -5    1    4    4    0  502 -0.11729441126E+02 -0.22268954580E+01 -0.12480339346E+00  0.12650171081E+02  0.41800000000E+01 0. -1.
        -11    1    3    3    0    0 -0.10912653912E+03 -0.13532197374E+03 -0.27476057362E+03  0.32513691105E+03  0.00000000000E+00 0.  1.
         11    1    3    3    0    0 -0.31289740745E+02  0.53884420173E+01 -0.11122477285E+03  0.11566777113E+03  0.00000000000E+00 0. -1.
</event>
<event>
 8    1  0.9181008E-006  0.8771500E+02  0.7561462E-02  0.1308481E+00
         -2   -1    0    0    0  501 -0.00000000000E+00  0.00000000000E+00  0.48124438945E+03  0.48124438945E+03  0.00000000000E+00 0.  1.
          2   -1    0    0  501    0  0.00000000000E+00 -0.00000000000E+00 -0.33187344964E+02  0.33187344964E+02  0.00000000000E+00 0. -1.
         23    2    1    2    0    0 -0.26434017668E+02 -0.58385959424E+02  0.24006488432E+03  0.26431328249E+03  0.90125940042E+02 0.  0.
         23    2    1    2    0    0  0.26434017668E+02  0.58385959424E+02  0.20799216017E+03  0.25011845193E+03  0.12325105985E+03 0.  0.
          5    1    4    4  502    0  0.43375360629E+02  0.21714022029E+02  0.12245146091E+02  0.50202954745E+02  0.41800000000E+01 0. -1.
         -5    1    4    4    0  502 -0.16941342960E+02  0.36671937395E+02  0.19574701408E+03  0.19991549718E+03  0.41800000000E+01 0.  1.
        -11    1    3    3    0    0 -0.41614495696E+02 -0.57428331350E+02  0.23873277636E+03  0.24904440970E+03  0.00000000000E+00 0. -1.
         11    1    3    3    0    0  0.15180478028E+02 -0.95762807371E+00  0.13321079613E+01  0.15268872791E+02  0.00000000000E+00 0.  1.
</event>
<event>
 7    1  0.9181008E-006  0.1360632E+03  0.7561462E-02  0.1218727E+00
         -1   -1    0    0    0  501 -0.00000000000E+00  0.00000000000E+00  0.34803298070E+02  0.34803298070E+02  0.00000000000E+00 0.  1.
          1   -1    0    0  501    0  0.00000000000E+00 -0.00000000000E+00 -0.90148310303E+03  0.90148310303E+03  0.00000000000E+00 0. -1.
         23    2    1    2    0    0 -0.10740900874E+03  0.49600700430E+02 -0.27167440056E+03  0.31477680257E+03  0.10620984359E+03 0.  0.
          5    1    1    2  502    0  0.88759639858E+02 -0.33982994407E+02 -0.58828730047E+03  0.59592997732E+03  0.41800000000E+01 0. -1.
         -5    1    1    2    0  502  0.18649368878E+02 -0.15617706023E+02 -0.67181039351E+01  0.25579621214E+02  0.41800000000E+01 0.  1.
        -11    1    3    3    0    0 -0.82007485167E+02 -0.14572769387E+02 -0.10256494161E+03  0.13212554816E+03  0.00000000000E+00 0.  1.
         11    1    3    3    0    0 -0.25401523569E+02  0.64173469816E+02 -0.16910945895E+03  0.18265125440E+03  0.00000000000E+00 0. -1.
</event>
<event>
 8    1  0.9181008E-006  0.1587880E+03  0.7561462E-02  0.1190072E+00
         -2   -1    0    0    0  501 -0.00000000000E+00  0.00000000000E+00  0.13620359402E+03  0.13620359402E+03  0.00000000000E+00 0.  1.
          2   -1    0    0  501    0  0.00000000000E+00 -0.00000000000E+00 -0.24290564144E+03  0.24290564144E+03  0.00000000000E+00 0. -1.
         23    2    1    2    0    0 -0.99789838847E+02  0.10508065463E+03 -0.57385332096E+02  0.18142691839E+03  0.92858464684E+02 0.  0.
         23    2    1    2    0    0  0.99789838847E+02 -0.10508065463E+03 -0.49316715328E+02  0.19768231706E+03  0.12508478786E+03 0.  0.
          5    1    4    4  502    0  0.91038893674E+02 -0.50727304716E+02  0.22892214216E+02  0.10678420050E+03  0.41800000000E+01 0.  1.
         -5    1    4    4    0  502  0.87509451729E+01 -0.54353349916E+02 -0.72208929544E+02  0.90898116561E+02  0.41800000000E+01 0.  1.
        -11    1    3    3    0    0 -0.37348213449E+02  0.84385117148E+02  0.27198596314E+01  0.92320824738E+02  0.00000000000E+00 0.  1.
         11    1    3    3    0    0 -0.62441625398E+02  0.20695537483E+02 -0.60105191727E+02  0.89106093655E+02  0.00000000000E+00 0. -1.
</event>
<event>
 8    1  0.9181008E-006  0.2037193E+03  0.7561462E-02  0.1146638E+00
         -4   -1    0    0    0  501 -0.00000000000E+00  0.00000000000E+00  0.32236899083E+03  0.32236899083E+03  0.00000000000E+00 0.  1.
          4   -1    0    0  501    0  0.00000000000E+00 -0.00000000000E+00 -0.14620172837E+03  0.14620172837E+03  0.00000000000E+00 0. -1.
         23    2    1    2    0    0  0.16143077107E+03 -0.91723582100E+02  0.54431943713E+02  0.21373811615E+03  0.90818700913E+02 0.  0.
         23    2    1    2    0    0 -0.16143077107E+03  0.91723582100E+02  0.12173531875E+03  0.25483260305E+03  0.12508820241E+03 0.  0.
          5    1    4    4  502    0 -0.55430264077E+02 -0.77088630452E+01  0.89919549397E+02  0.10599499285E+03  0.41800000000E+01 0.  1.
         -5    1    4    4    0  502 -0.10600050700E+03  0.99432445145E+02  0.31815769353E+02  0.14883761020E+03  0.41800000000E+01 0.  1.
        -11    1    3    3    0    0  0.14659656983E+03 -0.39775188438E+02  0.48169000440E+02  0.15935141199E+03  0.00000000000E+00 0.  1.
         11    1    3    3    0    0  0.14834201248E+02 -0.51948393662E+02  0.62629432729E+01  0.54386704158E+02  0.00000000000E+00 0. -1.
</event>
<event>
 8    1  0.9181008E-006  0.1185325E+03  0.7561462E-02  0.1245538E+00
         -2   -1    0    0    0  501 -0.00000000000E+00  0.00000000000E+00  0.44627839701E+02  0.44627839701E+02  0.00000000000E+00 0.  1.
          2   -1    0    0  501    0  0.00000000000E+00 -0.00000000000E+00 -0.34920876977E+03  0.34920876977E+03  0.00000000000E+00 0. -1.
         23    2    1    2    0    0  0.10095737891E+02  0.54220774038E+02 -0.99306127173E+02  0.14720532192E+03  0.93626297845E+02 0.  0.
         23    2    1    2    0    0 -0.10095737891E+02 -0.54220774038E+02 -0.20527480290E+03  0.24663128755E+03  0.12508969195E+03 0.  0.
          5    1    4    4  502    0  0.30757034959E+02  0.26009185110E+02 -0.10092639498E+03  0.10874779314E+03  0.41800000000E+01 0. -1.
         -5    1    4    4    0  502 -0.40852772849E+02 -0.80229959148E+02 -0.10434840792E+03  0.13788349440E+03  0.41800000000E+01 0. -1.
        -11    1    3    3    0    0  0.25376815435E+02 -0.18961889400E+02 -0.43969121174E+02  0.54192431465E+02  0.00000000000E+00 0.  1.
         11    1    3    3    0    0 -0.15281077544E+02  0.73182663438E+02 -0.55337005999E+02  0.93012890460E+02  0.00000000000E+00 0. -1.
</event>
<event>
 8    1  0.9181008E-006  0.9086388E+02  0.7561462E-02  0.1300773E+00
         -2   -1    0    0    0  501 -0.00000000000E+00  0.00000000000E+00  0.22681523859E+02  0.22681523859E+02  0.00000000000E+00 0.  1.
          2   -1    0    0  501    0  0.00000000000E+00 -0.00000000000E+00 -0.57869953017E+03  0.57869953017E+03  0.00000000000E+00 0. -1.
         23    2    1    2    0    0  0.10466980426E+02  0.31540529389E+02 -0.18590242159E+03  0.20928621323E+03  0.90203359276E+02 0.  0.
         23    2    1    2    0    0 -0.10466980426E+02 -0.31540529389E+02 -0.37011558472E+03  0.39209484079E+03  0.12509378661E+03 0.  0.
          5    1    4    4  502    0  0.35471104165E+02 -0.20877455896E+02 -0.32180428236E+03  0.32445267134E+03  0.41800000000E+01 0. -1.
         -5    1    4    4    0  502 -0.45938084590E+02 -0.10663073493E+02 -0.48311302360E+02  0.67642169450E+02  0.41800000000E+01 0. -1.
        -11    1    3    3    0    0  0.20021960863E+02  0.59862655764E+02 -0.14884526800E+03  0.16167662254E+03  0.00000000000E+00 0. -1.
         11    1    3    3    0    0 -0.95549804372E+01 -0.28322126375E+02 -0.37057153590E+02  0.47609590691E+02  0.00000000000E+00 0.  1.
</event>
<event>
 8    1  0.9181008E-006  0.1058707E+03  0.7561462E-02  0.1268414E+00
         -1   -1    0    0    0  501 -0.00000000000E+00  0.00000000000E+00  0.54504013830E+02  0.54504013830E+02  0.00000000000E+00 0.  1.
          1   -1    0    0  501    0  0.00000000000E+00 -0.00000000000E+00 -0.28814073307E+03  0.28814073307E+03  0.00000000000E+00 0. -1.
         23    2    1    2    0    0  0.44680815821E+02  0.32309808396E+02 -0.22424545941E+02  0.97730799512E+02  0.77512256396E+02 0.  0.
         23    2    1    2    0    0 -0.44680815821E+02 -0.32309808396E+02 -0.21121217330E+03  0.24491394739E+03  0.11104936044E+03 0.  0.
          5    1    4    4  502    0 -0.42079854918E+02  0.32974691803E+02 -0.12981448706E+03  0.14045397089E+03  0.41800000000E+01 0. -1.
         -5    1    4    4    0  502 -0.26009609030E+01 -0.65284500199E+02 -0.81397686243E+02  0.10445997650E+03  0.41800000000E+01 0.  1.
        -11    1    3    3    0    0 -0.13392460968E+02  0.31873468134E+02  0.22182402734E+01  0.34643853301E+02  0.00000000000E+00 0. -1.
         11    1    3    3    0    0  0.58073276789E+02  0.43634026193E+00 -0.24642786215E+02  0.63086946211E+02  0.00000000000E+00 0.  1.
</event>
<event>
 8    1  0.9181008E-006  0.2160022E+03  0.7561462E-02  0.1136899E+00
          1   -1    0    0  501    0  0.00000000000E+00  0.00000000000E+00  0.13850821448E+04  0.13850821448E+04  0.00000000000E+00 0. -1.
         -1   -1    0    0    0  501 -0.00000000000E+00 -0.00000000000E+00 -0.40795270970E+02  0.40795270970E+02  0.00000000000E+00 0.  1.
         23    2    1    2    0    0 -0.19480561698E+03 -0.75691060384E+02  0.55059829118E+03  0.59565560395E+03  0.89267884730E+02 0.  0.
         23    2    1    2    0    0  0.19480561698E+03  0.75691060384E+02  0.79368858263E+03  0.83022181180E+03  0.12509326741E+03 0.  0.
          5    1    4    4  502    0  0.15939553242E+03  0.25802058426E+02  0.39348611172E+03  0.42534865051E+03  0.41800000000E+01 0. -1.
         -5    1    4    4    0  502  0.35410084564E+02  0.49889001958E+02  0.40020247091E+03  0.40487316128E+03  0.41800000000E+01 0. -1.
        -11    1    3    3    0    0 -0.13301722986E+03 -0.55809839650E+02  0.25460932852E+03  0.29263327188E+03  0.00000000000E+00 0.  1.
         11    1    3    3    0    0 -0.61788387123E+02 -0.19881220734E+02  0.29598896265E+03  0.30302233207E+03  0.00000000000E+00 0. -1.
</event>
<event>
 7    1  0.9181008E-006  0.7980033E+02  0.7561462E-02  0.1329619E+00
         -2   -1    0    0    0  501 -0.00000000000E+00  0.00000000000E+00  0.24477776234E+02  0.24477776234E+02  0.00000000000E+00 0.  1.
          2   -1    0    0  501    0  0.00000000000E+00 -0.00000000000E+00 -0.87249804082E+03  0.87249804082E+03  0.00000000000E+00 0. -1.
         23    2    1    2    0    0 -0.47114252158E+01 -0.14974314958E+02 -0.11921271495E+03  0.15061815651E+03  0.90706835621E+02 0.  0.
          5    1    1    2  502    0  0.38223077051E+02  0.24698611844E+02 -0.69837569395E+03  0.69986935019E+03  0.41800000000E+01 0. -1.
         -5    1    1    2    0  502 -0.33511651835E+02 -0.97242968862E+01 -0.30431855690E+02  0.46488310352E+02  0.41800000000E+01 0.  1.
        -11    1    3    3    0    0  0.34158143535E+02 -0.19970609771E+02 -0.98805648456E+02  0.10643383011E+03  0.00000000000E+00 0.  1.
         11    1    3    3    0    0 -0.38869568751E+02  0.49962948129E+01 -0.20407066495E+02  0.44184326403E+02  0.00000000000E+00 0. -1.
</event>
<event>
 8    1  0.9384909E-006  0.1462320E+03  0.7561462E-02  0.1205181E+00
         -1   -1    0    0    0  501 -0.00000000000E+00  0.00000000000E+00  0.56367110717E+02  0.56367110717E+02  0.00000000000E+00 0.  1.
          1   -1    0    0  501    0  0.00000000000E+00 -0.00000000000E+00 -0.49133289457E+03  0.49133289457E+03  0.00000000000E+00 0. -1.
         23    2    1    2    0    0  0.97663303099E+02  0.66212358230E+02 -0.10942680470E+03  0.17953561492E+03  0.79602853478E+02 0.  0.
         23    2    1    2    0    0 -0.97663303099E+02 -0.66212358230E+02 -0.32553897915E+03  0.36816439037E+03  0.12508874544E+03 0.  0.
          5    1    4    4  502    0 -0.82086134876E+02  0.19071298299E+02 -0.14290935129E+03  0.16595904026E+03  0.41800000000E+01 0. -1.
         -5    1    4    4    0  502 -0.15577168222E+02 -0.85283656529E+02 -0.18262962785E+03  0.20220535010E+03  0.41800000000E+01 0. -1.
        -11    1    3    3    0    0  0.48775708736E+02  0.16301370191E+02 -0.95250119049E+02  0.10824689193E+03  0.00000000000E+00 0. -1.
         11    1    3    3    0    0  0.48887594362E+02  0.49910988040E+02 -0.14176685654E+02  0.71288722992E+02  0.00000000000E+00 0.  1.
</event>
<event>
 8    1  0.9181008E-006  0.1279151E+03  0.7561462E-02  0.1230583E+00
          1   -1    0    0  501    0  0.00000000000E+00  0.00000000000E+00  0.15442893574E+03  0.15442893574E+03  0.00000000000E+00 0. -1.
         -1   -1    0    0    0  501 -0.00000000000E+00 -0.00000000000E+00 -0.12071870414E+03  0.12071870414E+03  0.00000000000E+00 0.  1.
         23    2    1    2    0    0  0.75313124000E+02 -0.38351309015E+02  0.11170908613E+02  0.12251032494E+03  0.87983526689E+02 0.  0.
         23    2    1    2    0    0 -0.75313124000E+02  0.38351309015E+02  0.22539322980E+02  0.15263731493E+03  0.12508892549E+03 0.  0.
          5    1    4    4  502    0 -0.65399649527E+02  0.81866615103E+02  0.24788802579E+02  0.10775534307E+03  0.41800000000E+01 0. -1.
         -5    1    4    4    0  502 -0.99134744736E+01 -0.43515306088E+02 -0.22494795990E+01  0.44881971865E+02  0.41800000000E+01 0. -1.
        -11    1    3    3    0    0  0.15140791607E+02 -0.43195539386E+02 -0.24981559449E+02  0.52145723754E+02  0.00000000000E+00 0.  1.
         11    1    3    3    0    0  0.60172332393E+02  0.48442303711E+01  0.36152468062E+02  0.70364601189E+02  0.00000000000E+00 0. -1.
</event>
<event>
 8    1  0.9181008E-006  0.1212462E+03  0.7561462E-02  0.1241055E+00
          1   -1    0    0  501    0  0.00000000000E+00  0.00000000000E+00  0.47593598803E+03  0.47593598803E+03  0.00000000000E+00 0.  1.
         -1   -1    0    0    0  501 -0.00000000000E+00 -0.00000000000E+00 -0.44642005718E+02  0.44642005718E+02  0.00000000000E+00 0. -1.
         23    2    1    2    0    0  0.73910278163E+02  0.52375392108E+02  0.20773789429E+03  0.24886190845E+03  0.10281685580E+03 0.  0.
         23    2    1    2    0    0 -0.73910278163E+02 -0.52375392108E+02  0.22355608802E+03  0.27171608530E+03  0.12508555313E+03 0.  0.
          5    1    4    4  502    0  0.11029382612E+02  0.53130335494E+01 -0.10131679856E+02  0.16431644561E+02  0.41800000000E+01 0.  1.
         -5    1    4    4    0  502 -0.84939660775E+02 -0.57688425657E+02  0.23368776788E+03  0.25528444074E+03  0.41800000000E+01 0.  1.
        -11    1    3    3    0    0 -0.76321359193E+01  0.44186578078E+02  0.32413646830E+02  0.55329446787E+02  0.00000000000E+00 0. -1.
         11    1    3    3    0    0  0.81542414082E+02  0.81888140302E+01  0.17532424746E+03  0.19353246166E+03  0.00000000000E+00 0.  1.
</event>
<event>
 8    1  0.9181008E-006  0.1086379E+03  0.7561462E-02  0.1263113E+00
         -1   -1    0    0    0  501 -0.00000000000E+00  0.00000000000E+00  0.63257604747E+02  0.63257604747E+02  0.00000000000E+00 0.  1.
          1   -1    0    0  501    0  0.00000000000E+00 -0.00000000000E+00 -0.37518622538E+03  0.37518622538E+03  0.00000000000E+00 0. -1.
         23    2    1    2    0    0  0.45802997623E+02  0.34139513168E+02 -0.14571270740E+02  0.11083220835E+03  0.93851134921E+02 0.  0.
         23    2    1    2    0    0 -0.45802997623E+02 -0.34139513168E+02 -0.29735734989E+03  0.32761162178E+03  0.12507821648E+03 0.  0.
          5    1    4    4  502    0  0.23343334031E+02 -0.37993735391E+02 -0.36773911636E+02  0.57950221308E+02  0.41800000000E+01 0. -1.
         -5    1    4    4    0  502 -0.69146331654E+02  0.38542222224E+01 -0.26058343825E+03  0.26966140047E+03  0.41800000000E+01 0. -1.
        -11    1    3    3    0    0  0.29292432030E+02 -0.26964297653E+02  0.12873541225E+02  0.41843135468E+02  0.00000000000E+00 0.  1.
         11    1    3    3    0    0  0.16510565593E+02  0.61103810822E+02 -0.27444811965E+02  0.68989072881E+02  0.00000000000E+00 0. -1.
</event>
<event>
 8    1  0.9181008E-006  0.1280230E+03  0.7561462E-02  0.1230419E+00
         -1   -1    0    0    0  501 -0.00000000000E+00  0.00000000000E+00  0.27812394644E+02  0.27812394644E+02  0.00000000000E+00 0.  1.
          1   -1    0    0  501    0  0.00000000000E+00 -0.00000000000E+00 -0.10349733521E+04  0.10349733521E+04  0.00000000000E+00 0. -1.
         23    2    1    2    0    0 -0.91115357195E+02  0.52392931665E+02 -0.22409986325E+03  0.26285983790E+03  0.88473261883E+02 0.  0.
         23    2    1    2    0    0  0.91115357195E+02 -0.52392931665E+02 -0.78306109422E+03  0.79992590886E+03  0.12509897991E+03 0.  0.
          5    1    4    4  502    0  0.99745119384E+01 -0.41290128610E+02 -0.68743090204E+02  0.80916317636E+02  0.41800000000E+01 0.  1.
         -5    1    4    4    0  502  0.81140845256E+02 -0.11102803055E+02 -0.71431800402E+03  0.71900959122E+03  0.41800000000E+01 0.  1.
        -11    1    3    3    0    0 -0.83684549873E+02  0.71997645613E+02 -0.15256438022E+03  0.18831530732E+03  0.00000000000E+00 0.  1.
         11    1    3    3    0    0 -0.74308073216E+01 -0.19604713948E+02 -0.71535483035E+02  0.74544530581E+02  0.00000000000E+00 0. -1.
</event>
<event>
 8    1  0.9181008E-006  0.1061883E+03  0.7561462E-02  0.1267796E+00
         -1   -1    0    0    0  501 -0.00000000000E+00  0.00000000000E+00  0.15668897050E+03  0.15668897050E+03  0.00000000000E+00 0.  1.
          1   -1    0    0  501    0  0.00000000000E+00 -0.00000000000E+00 -0.12310030426E+03  0.12310030426E+03  0.00000000000E+00 0. -1.
         23    2    1    2    0    0  0.11744596083E+02  0.66116620954E+02  0.71180402884E+02  0.13292270097E+03  0.89958054524E+02 0.  0.
         23    2    1    2    0    0 -0.11744596083E+02 -0.66116620954E+02 -0.37591736642E+02  0.14686657379E+03  0.12508920309E+03 0.  0.
          5    1    4    4  502    0 -0.22527003470E+02  0.32535098954E+02  0.22272751660E+01  0.39855133973E+02  0.41800000000E+01 0. -1.
         -5    1    4    4    0  502  0.10782407387E+02 -0.98651719908E+02 -0.39819011808E+02  0.10701143981E+03  0.41800000000E+01 0. -1.
        -11    1    3    3    0    0  0.13721676002E+02  0.96969945975E+01 -0.19726682576E+02  0.25912508601E+02  0.00000000000E+00 0. -1.
         11    1    3    3    0    0 -0.19770799196E+01  0.56419626356E+02  0.90907085460E+02  0.10701019237E+03  0.00000000000E+00 0.  1.
</event>
<event>
 8    1  0.1459016E-005  0.1800051E+03  0.7561462E-02  0.1167798E+00
          2   -1    0    0  501    0  0.00000000000E+00  0.00000000000E+00  0.96111547632E+03  0.96111547632E+03  0.00000000000E+00 0. -1.
         -2   -1    0    0    0  501 -0.00000000000E+00 -0.00000000000E+00 -0.39209197259E+02  0.39209197259E+02  0.00000000000E+00 0.  1.
         23    2    1    2    0    0 -0.53714644178E+02  0.14585579332E+03  0.33999663531E+03  0.38516181373E+03  0.92697007994E+02 0.  0.
         23    2    1    2    0    0  0.53714644178E+02 -0.14585579332E+03  0.58190964376E+03  0.61516285985E+03  0.12508930890E+03 0.  0.
          5    1    4    4  502    0  0.87569646622E+02 -0.57994738515E+02  0.29490835416E+03  0.31308184627E+03  0.41800000000E+01 0.  1.
         -5    1    4    4    0  502 -0.33855002444E+02 -0.87861054805E+02  0.28700128959E+03  0.30208101359E+03  0.41800000000E+01 0.  1.
        -11    1    3    3    0    0 -0.92346045380E+01  0.83722513892E+02  0.87914576537E+02  0.12175265919E+03  0.00000000000E+00 0. -1.
         11    1    3    3    0    0 -0.44480039640E+02  0.62133279428E+02  0.25208205877E+03  0.26340915453E+03  0.00000000000E+00 0.  1.
</event>
<event>
 8    1  0.9181008E-006  0.1195570E+03  0.7561462E-02  0.1243830E+00
         -1   -1    0    0    0  501 -0.00000000000E+00  0.00000000000E+00  0.16193142204E+02  0.16193142204E+02  0.00000000000E+00 0.  1.
          1   -1    0    0  501    0  0.00000000000E+00 -0.00000000000E+00 -0.10760580153E+04  0.10760580153E+04  0.00000000000E+00 0. -1.
         23    2    1    2    0    0  0.19869804463E+02 -0.50366032818E+02 -0.25600997373E+03  0.27692194722E+03  0.90626220320E+02 0.  0.
         23    2    1    2    0    0 -0.19869804463E+02  0.50366032818E+02 -0.80385489940E+03  0.81532921032E+03  0.12508986978E+03 0.  0.
          5    1    4    4  502    0 -0.22762998630E+02  0.90336182459E+02 -0.47974015902E+03  0.48871962570E+03  0.41800000000E+01 0.  1.
         -5    1    4    4    0  502  0.28931941664E+01 -0.39970149641E+02 -0.32411474038E+03  0.32660958462E+03  0.41800000000E+01 0.  1.
        -11    1    3    3    0    0  0.44913130513E+02  0.46176637440E+01 -0.10961716827E+03  0.11855140527E+03  0.00000000000E+00 0.  1.
         11    1    3    3    0    0 -0.25043326050E+02 -0.54983696562E+02 -0.14639280546E+03  0.15837054195E+03  0.00000000000E+00 0. -1.
</event>
<event>
 7    1  0.9181008E-006  0.3631821E+03  0.7561462E-02  0.1057331E+00
         -2   -1    0    0    0  501 -0.00000000000E+00  0.00000000000E+00  0.12829919841E+03  0.12829919841E+03  0.00000000000E+00 0.  1.
          2   -1    0    0  501    0  0.00000000000E+00 -0.00000000000E+00 -0.13113706394E+04  0.13113706394E+04  0.00000000000E+00 0. -1.
         23    2    1    2    0    0  0.67148745334E+02 -0.47893508161E+02 -0.60061252602E+02  0.13638275532E+03  0.90499501442E+02 0.  0.
          5    1    1    2  502    0 -0.27478313033E+03 -0.16456235815E+03 -0.81335127720E+03  0.87415348250E+03  0.41800000000E+01 0. -1.
         -5    1    1    2    0  502  0.20763438500E+03  0.21245586631E+03 -0.30965891119E+03  0.42913359999E+03  0.41800000000E+01 0.  1.
        -11    1    3    3    0    0  0.67565778040E+02 -0.63864163627E+02 -0.22632502785E+02  0.95686968498E+02  0.00000000000E+00 0.  1.
         11    1    3    3    0    0 -0.41703270681E+00  0.15970655466E+02 -0.37428749818E+02  0.40695786824E+02  0.00000000000E+00 0. -1.
</event>
<event>
 7    1  0.9181008E-006  0.1391839E+03  0.7561462E-02  0.1214431E+00
          2   -1    0    0  501    0  0.00000000000E+00  0.00000000000E+00  0.52000902310E+03  0.52000902310E+03  0.00000000000E+00 0. -1.
         -2   -1    0    0    0  501 -0.00000000000E+00 -0.00000000000E+00 -0.68293761598E+02  0.68293761598E+02  0.00000000000E+00 0.  1.
         23    2    1    2    0    0 -0.37967683143E+02  0.27516365978E+01  0.11596371619E+03  0.15457538200E+03  0.94851719955E+02 0.  0.
          5    1    1    2  502    0 -0.73456007262E+02  0.43701722444E+02  0.29356084184E+03  0.30577943981E+03  0.41800000000E+01 0. -1.
         -5    1    1    2    0  502  0.11142369041E+03 -0.46453359042E+02  0.42190703468E+02  0.12794796289E+03  0.41800000000E+01 0.  1.
        -11    1    3    3    0    0 -0.51690052837E+02  0.14770986741E+02  0.20741588201E+02  0.57621672075E+02  0.00000000000E+00 0.  1.
         11    1    3    3    0    0  0.13722369694E+02 -0.12019350143E+02  0.95222127993E+02  0.96953709921E+02  0.00000000000E+00 0. -1.
</event>
<event>
 8    1  0.9181008E-006  0.1184697E+03  0.7561462E-02  0.1245643E+00
         -2   -1    0    0    0  501 -0.00000000000E+00  0.00000000000E+00  0.65539479683E+02  0.65539479683E+02  0.00000000000E+00 0.  1.
          2   -1    0    0  501    0  0.00000000000E+00 -0.00000000000E+00 -0.31190241826E+03  0.31190241826E+03  0.00000000000E+00 0. -1.
         23    2    1    2    0    0 -0.71772268533E+02 -0.39223191774E+02 -0.53932620537E+02  0.13379389798E+03  0.91117299534E+02 0.  0.
         23    2    1    2    0    0  0.71772268533E+02  0.39223191774E+02 -0.19243031804E+03  0.24364799996E+03  0.12508078703E+03 0.  0.
          5    1    4    4  502    0  0.10208722036E+03  0.52942065115E+02 -0.13761831147E+03  0.17939045368E+03  0.41800000000E+01 0. -1.
         -5    1    4    4    0  502 -0.30314951830E+02 -0.13718873341E+02 -0.54812006566E+02  0.64257546280E+02  0.41800000000E+01 0. -1.
        -11    1    3    3    0    0 -0.14503453945E+02 -0.25660992087E+02  0.22675755612E+02  0.37189065380E+02  0.00000000000E+00 0.  1.
         11    1    3    3    0    0 -0.57268814589E+02 -0.13562199686E+02 -0.76608376149E+02  0.96604832596E+02  0.00000000000E+00 0. -1.
</event>
<event>
 8    1  0.9181008E-006  0.1182987E+03  0.7561462E-02  0.1245930E+00
         -1   -1    0    0    0  501 -0.00000000000E+00  0.00000000000E+00  0.13991072413E+03  0.13991072413E+03  0.00000000000E+00 0.  1.
          1   -1    0    0  501    0  0.00000000000E+00 -0.00000000000E+00 -0.13440857195E+03  0.13440857195E+03  0.00000000000E+00 0. -1.
         23    2    1    2    0    0  0.10298424035E+02  0.76256414333E+02  0.36025577907E+02  0.12431389592E+03  0.90746923861E+02 0.  0.
         23    2    1    2    0    0 -0.10298424035E+02 -0.76256414333E+02 -0.30523425732E+02  0.15000540016E+03  0.12509533283E+03 0.  0.
          5    1    4    4  502    0 -0.40781515433E+02 -0.77354003623E+02  0.20958707516E+02  0.90019518430E+02  0.41800000000E+01 0. -1.
         -5    1    4    4    0  502  0.30483091398E+02  0.10975892908E+01 -0.51482133248E+02  0.59985881732E+02  0.41800000000E+01 0. -1.
        -11    1    3    3    0    0  0.22509446199E+02  0.94037226660E+02  0.24038950036E+02  0.99637072844E+02  0.00000000000E+00 0. -1.
         11    1    3    3    0    0 -0.12211022164E+02 -0.17780812327E+02  0.11986627871E+02  0.24676823074E+02  0.00000000000E+00 0.  1.
</event>
<event>
 8    1  0.9181008E-006  0.1049502E+03  0.7561462E-02  0.1270218E+00
         -2   -1    0    0    0  501 -0.00000000000E+00  0.00000000000E+00  0.71658484728E+01  0.71658484728E+01  0.00000000000E+00 0.  1.
          2   -1    0    0  501    0  0.00000000000E+00 -0.00000000000E+00 -0.24081547569E+04  0.24081547569E+04  0.00000000000E+00 0. -1.
         23    2    1    2    0    0  0.47774110957E+01  0.42452087980E+02 -0.29478843538E+03  0.30497628657E+03  0.65462281548E+02 0.  0.
         23    2    1    2    0    0 -0.47774110957E+01 -0.42452087980E+02 -0.21062004730E+04  0.21103443188E+04  0.12509079826E+03 0.  0.
          5    1    4    4  502    0 -0.57130053428E+02 -0.53172388295E+02 -0.11650744213E+04  0.11676930356E+04  0.41800000000E+01 0. -1.
         -5    1    4    4    0  502  0.52352642332E+02  0.10720300315E+02 -0.94112605179E+03  0.94265128322E+03  0.41800000000E+01 0. -1.
        -11    1    3    3    0    0 -0.18416043266E+02  0.50371385909E+02 -0.20607600606E+03  0.21294071344E+03  0.00000000000E+00 0.  1.
         11    1    3    3    0    0  0.23193454361E+02 -0.79192979294E+01 -0.88712429317E+02  0.92035573124E+02  0.00000000000E+00 0. -1.
</event>
<event>
 8    1  0.9181008E-006  0.9654394E+02  0.7561462E-02  0.1287736E+00
         -1   -1    0    0    0  501 -0.00000000000E+00  0.00000000000E+00  0.58405385021E+02  0.58405385021E+02  0.00000000000E+00 0.  1.
          1   -1    0    0  501    0  0.00000000000E+00 -0.00000000000E+00 -0.38821404891E+03  0.38821404891E+03  0.00000000000E+00 0. -1.
         23    2    1    2    0    0 -0.13103087215E+02 -0.94542089469E+02 -0.97615002594E+02  0.16613590061E+03  0.94670751365E+02 0.  0.
         23    2    1    2    0    0  0.13103087215E+02  0.94542089469E+02 -0.23219366129E+03  0.28048353332E+03  0.12508884260E+03 0.  0.
          5    1    4    4  502    0 -0.66646428842E+00  0.12031516538E+02 -0.18280678061E+03  0.18325117462E+03  0.41800000000E+01 0.  1.
         -5    1    4    4    0  502  0.13769551504E+02  0.82510572930E+02 -0.49386880687E+02  0.97232358698E+02  0.41800000000E+01 0.  1.
        -11    1    3    3    0    0 -0.26139315879E+01 -0.67822031981E+02 -0.37456876976E+01  0.67975663562E+02  0.00000000000E+00 0.  1.
         11    1    3    3    0    0 -0.10489155627E+02 -0.26720057488E+02 -0.93869314896E+02  0.98160237046E+02  0.00000000000E+00 0. -1.
</event>
<event>
 8    1  0.9181008E-006  0.1394598E+03  0.7561462E-02  0.1214058E+00
         -2   -1    0    0    0  501 -0.00000000000E+00  0.00000000000E+00  0.35564400106E+02  0.35564400106E+02  0.00000000000E+00 0.  1.
          2   -1    0    0  501    0  0.00000000000E+00 -0.00000000000E+00 -0.62792811591E+03  0.62792811591E+03  0.00000000000E+00 0. -1.
         23    2    1    2    0    0  0.93182881880E+02  0.40540452568E+02 -0.24547606050E+03  0.28099362322E+03  0.91500504036E+02 0.  0.
         23    2    1    2    0    0 -0.93182881880E+02 -0.40540452568E+02 -0.34688765529E+03  0.38249889279E+03  0.12509108610E+03 0.  0.
          5    1    4    4  502    0 -0.11089273342E+03 -0.72370482649E+01 -0.31093069717E+03  0.33021953915E+03  0.41800000000E+01 0.  1.
         -5    1    4    4    0  502  0.17709851541E+02 -0.33303404304E+02 -0.35956958124E+02  0.52279353643E+02  0.41800000000E+01 0.  1.
        -11    1    3    3    0    0  0.44063080321E+02 -0.22795993685E+02 -0.13992530218E+03  0.14845976750E+03  0.00000000000E+00 0. -1.
         11    1    3    3    0    0  0.49119801560E+02  0.63336446253E+02 -0.10555075832E+03  0.13253385572E+03  0.00000000000E+00 0.  1.
</event>
<event>
 8    1  0.9181008E-006  0.8943912E+02  0.7561462E-02  0.1304216E+00
         -1   -1    0    0    0  501 -0.00000000000E+00  0.00000000000E+00  0.12402335183E+03  0.12402335183E+03  0.00000000000E+00 0.  1.
          1   -1    0    0  501    0  0.00000000000E+00 -0.00000000000E+00 -0.11747610538E+03  0.11747610538E+03  0.00000000000E+00 0. -1.
         23    2    1    2    0    0  0.59653996544E+01  0.51315215890E+02  0.15670035809E+02  0.10585032643E+03  0.91048911076E+02 0.  0.
         23    2    1    2    0    0 -0.59653996544E+01 -0.51315215890E+02 -0.91227893634E+01  0.13564913078E+03  0.12509446039E+03 0.  0.
          5    1    4    4  502    0 -0.97134054345E+01 -0.67182032158E+02  0.43278054890E+02  0.80611650058E+02  0.41800000000E+01 0. -1.
         -5    1    4    4    0  502  0.37480057801E+01  0.15866816267E+02 -0.52400844253E+02  0.55037480722E+02  0.41800000000E+01 0. -1.
        -11    1    3    3    0    0  0.24778978641E+02 -0.12325322235E+02 -0.16373566694E+02  0.32155948703E+02  0.00000000000E+00 0. -1.
         11    1    3    3    0    0 -0.18813578987E+02  0.63640538125E+02  0.32043602503E+02  0.73694377726E+02  0.00000000000E+00 0.  1.
</event>
<event>
 8    1  0.9181008E-006  0.1237327E+03  0.7561462E-02  0.1237063E+00
          4   -1    0    0  501    0  0.00000000000E+00  0.00000000000E+00  0.11740500793E+03  0.11740500793E+03  0.00000000000E+00 0. -1.
         -4   -1    0    0    0  501 -0.00000000000E+00 -0.00000000000E+00 -0.13302449142E+03  0.13302449142E+03  0.00000000000E+00 0.  1.
         23    2    1    2    0    0 -0.52101273654E+02  0.28929209727E+02 -0.22966098510E+02  0.11167671818E+03  0.91612257968E+02 0.  0.
         23    2    1    2    0    0  0.52101273654E+02 -0.28929209727E+02  0.73466150231E+01  0.13875278118E+03  0.12508764784E+03 0.  0.
          5    1    4    4  502    0  0.93509065149E+02 -0.23263902535E+02  0.26211799687E+01  0.96485736825E+02  0.41800000000E+01 0. -1.
         -5    1    4    4    0  502 -0.41407791495E+02 -0.56653071917E+01  0.47254350544E+01  0.42267044355E+02  0.41800000000E+01 0. -1.
        -11    1    3    3    0    0  0.19188773415E+02  0.32380965654E+02 -0.11724083301E+02  0.39423217665E+02  0.00000000000E+00 0.  1.
         11    1    3    3    0    0 -0.71290047069E+02 -0.34517559270E+01 -0.11242015209E+02  0.72253500511E+02  0.00000000000E+00 0. -1.
</event>
<event>
 7    1  0.9181008E-006  0.1108646E+03  0.7561462E-02  0.1258977E+00
          1   -1    0    0  501    0  0.00000000000E+00  0.00000000000E+00  0.11435687010E+04  0.11435687010E+04  0.00000000000E+00 0. -1.
         -1   -1    0    0    0  501 -0.00000000000E+00 -0.00000000000E+00 -0.12330637563E+02  0.12330637563E+02  0.00000000000E+00 0.  1.
         23    2    1    2    0    0  0.56643190596E+01  0.35385673771E+02  0.37858386975E+03  0.39144362481E+03  0.92833908423E+02 0.  0.
          5    1    1    2  502    0 -0.60344659687E+02 -0.72633585297E+01  0.52793094663E+03  0.53143465368E+03  0.41800000000E+01 0. -1.
         -5    1    1    2    0  502  0.54680340627E+02 -0.28122315241E+02  0.22472324709E+03  0.23302106010E+03  0.41800000000E+01 0.  1.
        -11    1    3    3    0    0 -0.19769862187E+00 -0.31766774284E+02  0.13671533376E+03  0.14035757734E+03  0.00000000000E+00 0. -1.
         11    1    3    3    0    0  0.58620176815E+01  0.67152448054E+02  0.24186853599E+03  0.25108604747E+03  0.00000000000E+00 0.  1.
</event>
<event>
 8    1  0.9181008E-006  0.1101086E+03  0.7561462E-02  0.1260369E+00
         -1   -1    0    0    0  501 -0.00000000000E+00  0.00000000000E+00  0.29450554587E+03  0.29450554587E+03  0.00000000000E+00 0.  1.
          1   -1    0    0  501    0  0.00000000000E+00 -0.00000000000E+00 -0.68911250796E+02  0.68911250796E+02  0.00000000000E+00 0. -1.
         23    2    1    2    0    0  0.82072819275E+02 -0.62490931492E+02  0.13220552801E+03  0.17630347189E+03  0.54438482557E+02 0.  0.
         23    2    1    2    0    0 -0.82072819275E+02  0.62490931492E+02  0.93388767068E+02  0.18711332478E+03  0.12509544481E+03 0.  0.
          5    1    4    4  502    0 -0.22143566363E+02  0.16559219194E+02 -0.30869455726E+02  0.41652622587E+02  0.41800000000E+01 0.  1.
         -5    1    4    4    0  502 -0.59929252912E+02  0.45931712298E+02  0.12425822279E+03  0.14546070219E+03  0.41800000000E+01 0.  1.
        -11    1    3    3    0    0  0.30543910880E+02  0.57900682775E+01  0.34307023599E+02  0.46297162448E+02  0.00000000000E+00 0. -1.
         11    1    3    3    0    0  0.51528908394E+02 -0.68280999770E+02  0.97898504406E+02  0.13000630944E+03  0.00000000000E+00 0.  1.
</event>
<event>
 7    1  0.9181008E-006  0.1651564E+03  0.7561462E-02  0.1182995E+00
         -1   -1    0    0    0  501 -0.00000000000E+00  0.00000000000E+00  0.59582688879E+02  0.59582688879E+02  0.00000000000E+00 0.  1.
          1   -1    0    0  501    0  0.00000000000E+00 -0.00000000000E+00 -0.54477829666E+03  0.54477829666E+03  0.00000000000E+00 0. -1.
         23    2    1    2    0    0 -0.32965912705E+02 -0.41971300950E+02 -0.11256659403E+03  0.15446890988E+03  0.91329428565E+02 0.  0.
          5    1    1    2  502    0  0.79849554197E+02  0.11387793100E+03 -0.32043358176E+03  0.34934121886E+03  0.41800000000E+01 0. -1.
         -5    1    1    2    0  502 -0.46883641492E+02 -0.71906630047E+02 -0.52195431990E+02  0.10055085681E+03  0.41800000000E+01 0.  1.
        -11    1    3    3    0    0  0.31761792902E+02 -0.13522652475E+02 -0.44561925452E+02  0.56368775207E+02  0.00000000000E+00 0. -1.
         11    1    3    3    0    0 -0.64727705607E+02 -0.28448648476E+02 -0.68004668582E+02  0.98100134670E+02  0.00000000000E+00 0.  1.
</event>
<event>
 8    1  0.9181008E-006  0.9581490E+02  0.7561462E-02  0.1289351E+00
          4   -1    0    0  501    0  0.00000000000E+00  0.00000000000E+00  0.76300044385E+03  0.76300044385E+03  0.00000000000E+00 0. -1.
         -4   -1    0    0    0  501 -0.00000000000E+00 -0.00000000000E+00 -0.15499193642E+02  0.15499193642E+02  0.00000000000E+00 0.  1.
         23    2    1    2    0    0  0.30225402785E+02 -0.38572245724E+02  0.32208876479E+03  0.33626809030E+03  0.83268619771E+02 0.  0.
         23    2    1    2    0    0 -0.30225402785E+02  0.38572245724E+02  0.42541248542E+03  0.44223154719E+03  0.11041542223E+03 0.  0.
          5    1    4    4  502    0  0.30725568524E+02  0.96288408309E-02  0.25851428683E+03  0.26036737420E+03  0.41800000000E+01 0. -1.
         -5    1    4    4    0  502 -0.60950971309E+02  0.38562616883E+02  0.16689819859E+03  0.18186417299E+03  0.41800000000E+01 0.  1.
        -11    1    3    3    0    0 -0.22993212254E+02 -0.23912732146E+02  0.61295502594E+02  0.69696809157E+02  0.00000000000E+00 0.  1.
         11    1    3    3    0    0  0.53218615040E+02 -0.14659513578E+02  0.26079326219E+03  0.26657128114E+03  0.00000000000E+00 0. -1.
</event>
<event>
 8    1  0.9181008E-006  0.6867557E+02  0.7561462E-02  0.1364656E+00
         -3   -1    0    0    0  501 -0.00000000000E+00  0.00000000000E+00  0.16000048814E+02  0.16000048814E+02  0.00000000000E+00 0.  1.
          3   -1    0    0  501    0  0.00000000000E+00 -0.00000000000E+00 -0.12991232728E+04  0.12991232728E+04  0.00000000000E+00 0. -1.
         23    2    1    2    0    0  0.37317610368E+02 -0.40675896691E+02 -0.23160567578E+03  0.25475368489E+03  0.90615221083E+02 0.  0.
         23    2    1    2    0    0 -0.37317610368E+02  0.40675896691E+02 -0.10515175482E+04  0.10603696367E+04  0.12508988650E+03 0.  0.
          5    1    4    4  502    0 -0.29304381361E+02  0.43646843198E+01 -0.50829834054E+02  0.58982553914E+02  0.41800000000E+01 0.  1.
         -5    1    4    4    0  502 -0.80132290070E+01  0.36311212371E+02 -0.10006877142E+04  0.10013870828E+04  0.41800000000E+01 0.  1.
        -11    1    3    3    0    0  0.20052812160E+02 -0.47412274604E+02 -0.23051064788E+03  0.23618890289E+03  0.00000000000E+00 0. -1.
         11    1    3    3    0    0  0.17264798208E+02  0.67363779128E+01 -0.10950278997E+01  0.18564781999E+02  0.00000000000E+00 0.  1.
</event>
<event>
 8    1  0.1248743E-005  0.2948575E+03  0.7561462E-02  0.1087840E+00
         -2   -1    0    0    0  501 -0.00000000000E+00  0.00000000000E+00  0.68448212038E+03  0.68448212038E+03  0.00000000000E+00 0.  1.
          2   -1    0    0  501    0  0.00000000000E+00 -0.00000000000E+00 -0.12951033466E+03  0.12951033466E+03  0.00000000000E+00 0. -1.
         23    2    1    2    0    0  0.96826809524E+02 -0.25755811953E+03  0.31645488257E+03  0.42896088060E+03  0.90289137803E+02 0.  0.
         23    2    1    2    0    0 -0.96826809524E+02  0.25755811953E+03  0.23851690315E+03  0.38503157444E+03  0.12508950494E+03 0.  0.
          5    1    4    4  502    0 -0.98199500984E+02  0.88878062071E+02  0.89438807841E+02  0.15987252628E+03  0.41800000000E+01 0.  1.
         -5    1    4    4    0  502  0.13726914595E+01  0.16868005746E+03  0.14907809531E+03  0.22515904816E+03  0.41800000000E+01 0.  1.
        -11    1    3    3    0    0 -0.16357355387E+02 -0.40241137758E+02  0.62095370842E+02  0.75780916617E+02  0.00000000000E+00 0.  1.
         11    1    3    3    0    0  0.11318416491E+03 -0.21731698177E+03  0.25435951173E+03  0.35317996398E+03  0.00000000000E+00 0. -1.
</event>
<event>
 8    1  0.9181008E-006  0.9836375E+02  0.7561462E-02  0.1283775E+00
         -4   -1    0    0    0  501 -0.00000000000E+00  0.00000000000E+00  0.66111941170E+02  0.66111941170E+02  0.00000000000E+00 0.  1.
          4   -1    0    0  501    0  0.00000000000E+00 -0.00000000000E+00 -0.19632353662E+03  0.19632353662E+03  0.00000000000E+00 0. -1.
         23    2    1    2    0    0 -0.12197063752E+02 -0.11308329916E+02 -0.18316220913E+02  0.93779134569E+02  0.90456594244E+02 0.  0.
         23    2    1    2    0    0  0.12197063752E+02  0.11308329916E+02 -0.11189537454E+03  0.16865634322E+03  0.12509092923E+03 0.  0.
          5    1    4    4  502    0 -0.47304201048E+02  0.11667465865E+02 -0.90006848415E+01  0.49722247778E+02  0.41800000000E+01 0.  1.
         -5    1    4    4    0  502  0.59501264800E+02 -0.35913594952E+00 -0.10289468970E+03  0.11893409544E+03  0.41800000000E+01 0.  1.
        -11    1    3    3    0    0 -0.36354690277E+02 -0.37717731335E+02  0.23698475314E+01  0.52439555104E+02  0.00000000000E+00 0. -1.
         11    1    3    3    0    0  0.24157626525E+02  0.26409401419E+02 -0.20686068445E+02  0.41339579465E+02  0.00000000000E+00 0.  1.
</event>
<event>
 8    1  0.9181008E-006  0.1261307E+03  0.7561462E-02  0.1233313E+00
         -2   -1    0    0    0  501 -0.00000000000E+00  0.00000000000E+00  0.10130299558E+03  0.10130299558E+03  0.00000000000E+00 0.  1.
          2   -1    0    0  501    0  0.00000000000E+00 -0.00000000000E+00 -0.19163272115E+03  0.19163272115E+03  0.00000000000E+00 0. -1.
         23    2    1    2    0    0 -0.67349081318E+02 -0.54933269563E+02 -0.52739210615E+02  0.13604640468E+03  0.90408169043E+02 0.  0.
         23    2    1    2    0    0  0.67349081318E+02  0.54933269563E+02 -0.37590514954E+02  0.15688931206E+03  0.12509055346E+03 0.  0.
          5    1    4    4  502    0 -0.74585209404E+01 -0.28865336893E+02 -0.32592847700E+02  0.44368945556E+02  0.41800000000E+01 0. -1.
         -5    1    4    4    0  502  0.74807602259E+02  0.83798606456E+02 -0.49976672541E+01  0.11252036650E+03  0.41800000000E+01 0. -1.
        -11    1    3    3    0    0  0.10690763074E+02 -0.23119676431E+02 -0.44623062184E+02  0.51381217698E+02  0.00000000000E+00 0. -1.
         11    1    3    3    0    0 -0.78039844392E+02 -0.31813593132E+02 -0.81161484310E+01  0.84665186978E+02  0.00000000000E+00 0.  1.
</event>
<event>
 8    1  0.9181008E-006  0.9918917E+02  0.7561462E-02  0.1282010E+00
         -2   -1    0    0    0  501 -0.00000000000E+00  0.00000000000E+00  0.32063853989E+02  0.32063853989E+02  0.00000000000E+00 0.  1.
          2   -1    0    0  501    0  0.00000000000E+00 -0.00000000000E+00 -0.41662477902E+03  0.41662477902E+03  0.00000000000E+00 0. -1.
         23    2    1    2    0    0  0.23150180608E+02  0.22472996223E+02 -0.11383233022E+03  0.14871867962E+03  0.90102607307E+02 0.  0.
         23    2    1    2    0    0 -0.23150180608E+02 -0.22472996223E+02 -0.27072859482E+03  0.29996995339E+03  0.12508810681E+03 0.  0.
          5    1    4    4  502    0  0.14191586521E+02 -0.63069226376E+02 -0.89482790188E+02  0.11047067748E+03  0.41800000000E+01 0. -1.
         -5    1    4    4    0  502 -0.37341767128E+02  0.40596230153E+02 -0.18124580463E+03  0.18949927591E+03  0.41800000000E+01 0. -1.
        -11    1    3    3    0    0 -0.62231675660E+01 -0.23176388281E+02 -0.16030461129E+01  0.24050832525E+02  0.00000000000E+00 0.  1.
         11    1    3    3    0    0  0.29373348174E+02  0.45649384504E+02 -0.11222928410E+03  0.12466784709E+03  0.00000000000E+00 0. -1.
</event>
<event>
 8    1  0.9181008E-006  0.1198327E+03  0.7561462E-02  0.1243373E+00
         -2   -1    0    0    0  501 -0.00000000000E+00  0.00000000000E+00  0.22621520992E+02  0.22621520992E+02  0.00000000000E+00 0.  1.
          2   -1    0    0  501    0  0.00000000000E+00 -0.00000000000E+00 -0.73481205701E+03  0.73481205701E+03  0.00000000000E+00 0. -1.
         23    2    1    2    0    0  0.35878417656E+02 -0.44921656561E+02 -0.20269893501E+03  0.22966948514E+03  0.91411148498E+02 0.  0.
         23    2    1    2    0    0 -0.35878417656E+02  0.44921656561E+02 -0.50949160101E+03  0.52776409286E+03  0.12509208661E+03 0.  0.
          5    1    4    4  502    0 -0.15202180852E+02 -0.40763006759E+02 -0.24699669197E+03  0.25083374427E+03  0.41800000000E+01 0. -1.
         -5    1    4    4    0  502 -0.20676236804E+02  0.85684663321E+02 -0.26249490904E+03  0.27693034859E+03  0.41800000000E+01 0. -1.
        -11    1    3    3    0    0 -0.15105204585E+02 -0.53875093002E+02 -0.11339045051E+03  0.12644400784E+03  0.00000000000E+00 0. -1.
         11    1    3    3    0    0  0.50983622241E+02  0.89534364405E+01 -0.89308484497E+02  0.10322547730E+03  0.00000000000E+00 0.  1.
</event>
<event>
 8    1  0.9181008E-006  0.9526049E+02  0.7561462E-02  0.1290590E+00
          2   -1    0    0  501    0  0.00000000000E+00  0.00000000000E+00  0.62282367059E+03  0.62282367059E+03  0.00000000000E+00 0.  1.
         -2   -1    0    0    0  501 -0.00000000000E+00 -0.00000000000E+00 -0.36346664044E+02  0.36346664044E+02  0.00000000000E+00 0. -1.
         23    2    1    2    0    0  0.78121527736E+02 -0.45044894547E+02  0.16660953158E+03  0.21188664736E+03  0.94895730653E+02 0.  0.
         23    2    1    2    0    0 -0.78121527736E+02  0.45044894547E+02  0.41986747497E+03  0.44728368727E+03  0.12506792053E+03 0.  0.
          5    1    4    4  502    0 -0.26675670150E+02  0.15274644822E+02  0.36490153618E+03  0.36621784454E+03  0.41800000000E+01 0.  1.
         -5    1    4    4    0  502 -0.51445857586E+02  0.29770249725E+02  0.54965938788E+02  0.81065842735E+02  0.41800000000E+01 0.  1.
        -11    1    3    3    0    0  0.50289122643E+02 -0.41690736769E+01  0.15344046962E+02  0.52742931362E+02  0.00000000000E+00 0. -1.
         11    1    3    3    0    0  0.27832405093E+02 -0.40875820870E+02  0.15126548462E+03  0.15914371600E+03  0.00000000000E+00 0.  1.
</event>
<event>
 8    1  0.9181008E-006  0.9439120E+02  0.7561462E-02  0.1292553E+00
         -1   -1    0    0    0  501 -0.00000000000E+00  0.00000000000E+00  0.29194876613E+02  0.29194876613E+02  0.00000000000E+00 0.  1.
          1   -1    0    0  501    0  0.00000000000E+00 -0.00000000000E+00 -0.69572207706E+03  0.69572207706E+03  0.00000000000E+00 0. -1.
         23    2    1    2    0    0  0.74434736335E+02 -0.45979731277E+02 -0.23035272574E+03  0.26280172273E+03  0.91365756998E+02 0.  0.
         23    2    1    2    0    0 -0.74434736335E+02  0.45979731277E+02 -0.43617447472E+03  0.46211523095E+03  0.12509056169E+03 0.  0.
          5    1    4    4  502    0 -0.32210677975E+02  0.11731864807E+02 -0.15383354185E+02  0.37805878028E+02  0.41800000000E+01 0.  1.
         -5    1    4    4    0  502 -0.42224058360E+02  0.34247866470E+02 -0.42079112053E+03  0.42430935292E+03  0.41800000000E+01 0.  1.
        -11    1    3    3    0    0  0.50266305389E+02 -0.29316823975E+01 -0.35034592122E+02  0.61341004755E+02  0.00000000000E+00 0.  1.
         11    1    3    3    0    0  0.24168430945E+02 -0.43048048879E+02 -0.19531813361E+03  0.20146071797E+03  0.00000000000E+00 0. -1.
</event>
<event>
 8    1  0.9181008E-006  0.1228412E+03  0.7561462E-02  0.1238482E+00
         -2   -1    0    0    0  501 -0.00000000000E+00  0.00000000000E+00  0.42398590847E+02  0.42398590847E+02  0.00000000000E+00 0. -1.
          2   -1    0    0  501    0  0.00000000000E+00 -0.00000000000E+00 -0.42669943261E+03  0.42669943261E+03  0.00000000000E+00 0.  1.
         23    2    1    2    0    0 -0.47497191585E+02 -0.12289850374E+02 -0.20165392736E+03  0.24235099914E+03  0.12515061620E+03 0.  0.
         23    2    1    2    0    0  0.47497191585E+02  0.12289850374E+02 -0.18264691440E+03  0.22674702431E+03  0.12508914447E+03 0.  0.
          5    1    4    4  502    0  0.66628598237E+02 -0.39416224829E+02 -0.12319103494E+03  0.14555587371E+03  0.41800000000E+01 0. -1.
         -5    1    4    4    0  502 -0.19131406651E+02  0.51706075204E+02 -0.59455879464E+02  0.81191150603E+02  0.41800000000E+01 0. -1.
        -11    1    3    3    0    0  0.12693178120E+02 -0.43323890678E+02 -0.15149409022E+03  0.15807762538E+03  0.00000000000E+00 0.  1.
         11    1    3    3    0    0 -0.60190369705E+02  0.31034040303E+02 -0.50159837134E+02  0.84273373755E+02  0.00000000000E+00 0. -1.
</event>
<event>
 8    1  0.9181008E-006  0.7054162E+02  0.7561462E-02  0.1358261E+00
          2   -1    0    0  501    0  0.00000000000E+00  0.00000000000E+00  0.23235389064E+03  0.23235389064E+03  0.00000000000E+00 0. -1.
         -2   -1    0    0    0  501 -0.00000000000E+00 -0.00000000000E+00 -0.60436080623E+02  0.60436080623E+02  0.00000000000E+00 0.  1.
         23    2    1    2    0    0  0.13008038432E+02 -0.98973639186E+01  0.19454453767E+02  0.94884439237E+02  0.91418893898E+02 0.  0.
         23    2    1    2    0    0 -0.13008038432E+02  0.98973639186E+01  0.15246335625E+03  0.19790553203E+03  0.12511737582E+03 0.  0.
          5    1    4    4  502    0 -0.29952509142E+02  0.29154297932E+02 -0.12351694624E+01  0.42025277339E+02  0.41800000000E+01 0. -1.
         -5    1    4    4    0  502  0.16944470710E+02 -0.19256934013E+02  0.15369852572E+03  0.15588025469E+03  0.41800000000E+01 0. -1.
        -11    1    3    3    0    0  0.39644974414E+02 -0.20240268238E+02  0.39876562494E+02  0.59762301587E+02  0.00000000000E+00 0. -1.
         11    1    3    3    0    0 -0.26636935982E+02  0.10342904320E+02 -0.20422108727E+02  0.35122137650E+02  0.00000000000E+00 0.  1.
</event>
<event>
 7    1  0.9181008E-006  0.1853760E+03  0.7561462E-02  0.1162699E+00
         -1   -1    0    0    0  501 -0.00000000000E+00  0.00000000000E+00  0.38610753233E+02  0.38610753233E+02  0.00000000000E+00 0.  1.
          1   -1    0    0  501    0  0.00000000000E+00 -0.00000000000E+00 -0.96444674954E+03  0.96444674954E+03  0.00000000000E+00 0. -1.
         23    2    1    2    0    0 -0.12038120220E+03  0.79561459837E+02 -0.29821523438E+03  0.34327624041E+03  0.89914356357E+02 0.  0.
          5    1    1    2  502    0 -0.13622279145E+02  0.26933551743E+02 -0.13018587403E+03  0.13370421421E+03  0.41800000000E+01 0. -1.
         -5    1    1    2    0  502  0.13400348135E+03 -0.10649501158E+03 -0.49743488789E+03  0.52607704816E+03  0.41800000000E+01 0.  1.
        -11    1    3    3    0    0 -0.27640758221E+02  0.70687504860E+02 -0.11598033534E+03  0.13860798334E+03  0.00000000000E+00 0. -1.
         11    1    3    3    0    0 -0.92740443979E+02  0.88739549764E+01 -0.18223489903E+03  0.20466825707E+03  0.00000000000E+00 0.  1.
</event>
<event>
 8    1  0.9181008E-006  0.1781116E+03  0.7561462E-02  0.1169643E+00
          1   -1    0    0  501    0  0.00000000000E+00  0.00000000000E+00  0.18807337702E+04  0.18807337702E+04  0.00000000000E+00 0. -1.
         -1   -1    0    0    0  501 -0.00000000000E+00 -0.00000000000E+00 -0.17863417289E+02  0.17863417289E+02  0.00000000000E+00 0.  1.
         23    2    1    2    0    0  0.14403140268E+03 -0.19139469144E+02  0.73903161446E+03  0.75852154262E+03  0.89865673154E+02 0.  0.
         23    2    1    2    0    0 -0.14403140268E+03  0.19139469144E+02  0.11238387384E+04  0.11400756449E+04  0.12509037430E+03 0.  0.
          5    1    4    4  502    0 -0.43711488605E+02 -0.51781680687E+02  0.34840031160E+03  0.35495392125E+03  0.41800000000E+01 0.  1.
         -5    1    4    4    0  502 -0.10031991407E+03  0.70921149831E+02  0.77543842685E+03  0.78512172361E+03  0.41800000000E+01 0.  1.
        -11    1    3    3    0    0  0.72023689183E+02  0.30213391667E+02  0.25544837265E+03  0.26712194206E+03  0.00000000000E+00 0.  1.
         11    1    3    3    0    0  0.72007713494E+02 -0.49352860811E+02  0.48358324181E+03  0.49139960056E+03  0.00000000000E+00 0. -1.
</event>
<event>
 8    1  0.9181008E-006  0.1080066E+03  0.7561462E-02  0.1264307E+00
         -1   -1    0    0    0  501 -0.00000000000E+00  0.00000000000E+00  0.10180151530E+03  0.10180151530E+03  0.00000000000E+00 0. -1.
          1   -1    0    0  501    0  0.00000000000E+00 -0.00000000000E+00 -0.15143084216E+03  0.15143084216E+03  0.00000000000E+00 0.  1.
         23    2    1    2    0    0 -0.39569330465E+02  0.54075559098E+02 -0.24530078083E+01  0.10368456287E+03  0.79085860458E+02 0.  0.
         23    2    1    2    0    0  0.39569330465E+02 -0.54075559098E+02 -0.47176319051E+02  0.14954779460E+03  0.12509612218E+03 0.  0.
          5    1    4    4  502    0  0.50277578710E+02  0.19496472829E+02  0.10824758374E+02  0.55159724143E+02  0.41800000000E+01 0.  1.
         -5    1    4    4    0  502 -0.10708248245E+02 -0.73572031926E+02 -0.58001077425E+02  0.94388070458E+02  0.41800000000E+01 0.  1.
        -11    1    3    3    0    0 -0.52580809051E+02  0.31189915888E+02 -0.27782230620E+02  0.67152101023E+02  0.00000000000E+00 0.  1.
         11    1    3    3    0    0  0.13011478587E+02  0.22885643210E+02  0.25329222811E+02  0.36532461844E+02  0.00000000000E+00 0. -1.
</event>
<event>
 8    1  0.9181008E-006  0.1308377E+03  0.7561462E-02  0.1226218E+00
         -1   -1    0    0    0  501 -0.00000000000E+00  0.00000000000E+00  0.30897388743E+03  0.30897388743E+03  0.00000000000E+00 0.  1.
          1   -1    0    0  501    0  0.00000000000E+00 -0.00000000000E+00 -0.78298604117E+02  0.78298604117E+02  0.00000000000E+00 0. -1.
         23    2    1    2    0    0 -0.10684051413E+03 -0.59750163237E+01  0.14829418400E+03  0.20319154069E+03  0.88572235607E+02 0.  0.
         23    2    1    2    0    0  0.10684051413E+03  0.59750163237E+01  0.82381099313E+02  0.18408095085E+03  0.12509418317E+03 0.  0.
          5    1    4    4  502    0  0.11890507544E+03  0.34537439512E+01  0.20419710016E+02  0.12076747190E+03  0.41800000000E+01 0. -1.
         -5    1    4    4    0  502 -0.12064561302E+02  0.25212723725E+01  0.61961389297E+02  0.63313478955E+02  0.41800000000E+01 0. -1.
        -11    1    3    3    0    0  0.39268077113E+00 -0.21305076499E+02  0.59256717068E+02  0.62971572955E+02  0.00000000000E+00 0.  1.
         11    1    3    3    0    0 -0.10723319491E+03  0.15330060175E+02  0.89037466933E+02  0.14021996774E+03  0.00000000000E+00 0. -1.
</event>
<event>
 8    1  0.9181008E-006  0.9029263E+02  0.7561462E-02  0.1302145E+00
          1   -1    0    0  501    0  0.00000000000E+00  0.00000000000E+00  0.82781037068E+02  0.82781037068E+02  0.00000000000E+00 0. -1.
         -1   -1    0    0    0  501 -0.00000000000E+00 -0.00000000000E+00 -0.18292607584E+03  0.18292607584E+03  0.00000000000E+00 0.  1.
         23    2    1    2    0    0 -0.46728209066E+02 -0.11097368351E+01 -0.78106691337E+02  0.13037505916E+03  0.93339401005E+02 0.  0.
         23    2    1    2    0    0  0.46728209066E+02  0.11097368351E+01 -0.22038347432E+02  0.13533205375E+03  0.12507725203E+03 0.  0.
          5    1    4    4  502    0 -0.33374869249E+02 -0.27172797936E+02  0.10110785411E+02  0.44406567382E+02  0.41800000000E+01 0.  1.
         -5    1    4    4    0  502  0.80103078314E+02  0.28282534772E+02 -0.32149132842E+02  0.90925486367E+02  0.41800000000E+01 0.  1.
        -11    1    3    3    0    0 -0.13528951901E+02 -0.11233031671E+02 -0.91498384153E+02  0.93172784882E+02  0.00000000000E+00 0.  1.
         11    1    3    3    0    0 -0.33199257165E+02  0.10123294836E+02  0.13391692816E+02  0.37202274273E+02  0.00000000000E+00 0. -1.
</event>
<event>
 8    1  0.9181008E-006  0.9914805E+02  0.7561462E-02  0.1282098E+00
         -1   -1    0    0    0  501 -0.00000000000E+00  0.00000000000E+00  0.18128642518E+02  0.18128642518E+02  0.00000000000E+00 0.  1.
          1   -1    0    0  501    0  0.00000000000E+00 -0.00000000000E+00 -0.10791543286E+04  0.10791543286E+04  0.00000000000E+00 0. -1.
         23    2    1    2    0    0  0.86683733715E+02 -0.10429151181E+02 -0.44237611279E+03  0.46010191269E+03  0.91511245267E+02 0.  0.
         23    2    1    2    0    0 -0.86683733715E+02  0.10429151181E+02 -0.61864957333E+03  0.63718105846E+03  0.12509824059E+03 0.  0.
          5    1    4    4  502    0 -0.18770271920E+02  0.17222223745E+02 -0.15381279751E+02  0.30049696595E+02  0.41800000000E+01 0.  1.
         -5    1    4    4    0  502 -0.67913461795E+02 -0.67930725640E+01 -0.60326829358E+03  0.60713136187E+03  0.41800000000E+01 0.  1.
        -11    1    3    3    0    0  0.89276941509E+02 -0.22242927631E+02 -0.43748543137E+03  0.44705550301E+03  0.00000000000E+00 0. -1.
         11    1    3    3    0    0 -0.25932077944E+01  0.11813776450E+02 -0.48906814181E+01  0.13046409675E+02  0.00000000000E+00 0.  1.
</event>
<event>
 8    1  0.9181008E-006  0.1566909E+03  0.7561462E-02  0.1192484E+00
         -2   -1    0    0    0  501 -0.00000000000E+00  0.00000000000E+00  0.27519303591E+02  0.27519303591E+02  0.00000000000E+00 0.  1.
          2   -1    0    0  501    0  0.00000000000E+00 -0.00000000000E+00 -0.14031810448E+04  0.14031810448E+04  0.00000000000E+00 0. -1.
         23    2    1    2    0    0  0.12230382875E+03 -0.52066275992E+02 -0.30838018951E+03  0.34792284228E+03  0.91010105331E+02 0.  0.
         23    2    1    2    0    0 -0.12230382875E+03  0.52066275992E+02 -0.10672815517E+04  0.10827775061E+04  0.12509234000E+03 0.  0.
          5    1    4    4  502    0 -0.47946621630E+02 -0.37885184391E+02 -0.48908971863E+03  0.49291012466E+03  0.41800000000E+01 0. -1.
         -5    1    4    4    0  502 -0.74357207122E+02  0.89951460383E+02 -0.57819183306E+03  0.58986738144E+03  0.41800000000E+01 0. -1.
        -11    1    3    3    0    0  0.89130844769E+02 -0.49800924050E+02 -0.29484641342E+03  0.31202379241E+03  0.00000000000E+00 0. -1.
         11    1    3    3    0    0  0.33172983983E+02 -0.22653519417E+01 -0.13533776088E+02  0.35899049861E+02  0.00000000000E+00 0.  1.
</event>
<event>
 8    1  0.9181008E-006  0.9440093E+02  0.7561462E-02  0.1292531E+00
         -2   -1    0    0    0  501 -0.00000000000E+00  0.00000000000E+00  0.49942944329E+03  0.49942944329E+03  0.00000000000E+00 0.  1.
          2   -1    0    0  501    0  0.00000000000E+00 -0.00000000000E+00 -0.27790483342E+02  0.27790483342E+02  0.00000000000E+00 0. -1.
         23    2    1    2    0    0 -0.22140598611E+02  0.44658444454E+02  0.27361940297E+03  0.28776186918E+03  0.73856163623E+02 0.  0.
         23    2    1    2    0    0  0.22140598611E+02 -0.44658444454E+02  0.19801955698E+03  0.23945805745E+03  0.12507531157E+03 0.  0.
          5    1    4    4  502    0  0.54801183786E+02 -0.19240810429E+02  0.18780585426E+03  0.19662626941E+03  0.41800000000E+01 0. -1.
         -5    1    4    4    0  502 -0.32660585175E+02 -0.25417634024E+02  0.10213702724E+02  0.42831788040E+02  0.41800000000E+01 0. -1.
        -11    1    3    3    0    0 -0.96701703488E+01 -0.20482668873E+02  0.76573595312E+02  0.79853412061E+02  0.00000000000E+00 0. -1.
         11    1    3    3    0    0 -0.12470428262E+02  0.65141113327E+02  0.19704580765E+03  0.20790845712E+03  0.00000000000E+00 0.  1.
</event>
<event>
 8    1  0.9181008E-006  0.1249680E+03  0.7561462E-02  0.1235119E+00
          1   -1    0    0  501    0  0.00000000000E+00  0.00000000000E+00  0.16149787971E+02  0.16149787971E+02  0.00000000000E+00 0. -1.
         -1   -1    0    0    0  501 -0.00000000000E+00 -0.00000000000E+00 -0.10838481733E+04  0.10838481733E+04  0.00000000000E+00 0.  1.
         23    2    1    2    0    0 -0.48365171299E+02  0.56955372782E+02 -0.46498734613E+03  0.47981394405E+03  0.91788259352E+02 0.  0.
         23    2    1    2    0    0  0.48365171299E+02 -0.56955372782E+02 -0.60271103923E+03  0.62018401726E+03  0.12563643647E+03 0.  0.
          5    1    4    4  502    0 -0.27559719696E+02 -0.56746631168E+02 -0.18231087356E+03  0.19296228988E+03  0.41800000000E+01 0.  1.
         -5    1    4    4    0  502  0.75924890995E+02 -0.20874161397E+00 -0.42040016567E+03  0.42722172738E+03  0.41800000000E+01 0.  1.
        -11    1    3    3    0    0  0.21097946954E+01  0.60064888866E+02 -0.33475627682E+03  0.34010881638E+03  0.00000000000E+00 0.  1.
         11    1    3    3    0    0 -0.50474965994E+02 -0.31095160843E+01 -0.13023106931E+03  0.13970512767E+03  0.00000000000E+00 0. -1.
</event>
<event>
 8    1  0.9181008E-006  0.3391651E+03  0.7561462E-02  0.1067152E+00
         -1   -1    0    0    0  501 -0.00000000000E+00  0.00000000000E+00  0.15430601811E+03  0.15430601811E+03  0.00000000000E+00 0.  1.
          1   -1    0    0  501    0  0.00000000000E+00 -0.00000000000E+00 -0.76443100964E+03  0.76443100964E+03  0.00000000000E+00 0. -1.
         23    2    1    2    0    0  0.30832160532E+03  0.92821760446E+02 -0.24094963913E+03  0.41315488659E+03  0.94668580839E+02 0.  0.
         23    2    1    2    0    0 -0.30832160532E+03 -0.92821760446E+02 -0.36917535241E+03  0.50558214116E+03  0.12507905144E+03 0.  0.
          5    1    4    4  502    0 -0.24168677821E+03 -0.12368651830E+03 -0.29955617643E+03  0.40430462378E+03  0.41800000000E+01 0. -1.
         -5    1    4    4    0  502 -0.66634827117E+02  0.30864757858E+02 -0.69619175977E+02  0.10127751738E+03  0.41800000000E+01 0. -1.
        -11    1    3    3    0    0  0.13950805424E+03 -0.22024176247E+01 -0.76956786650E+02  0.15934144110E+03  0.00000000000E+00 0. -1.
         11    1    3    3    0    0  0.16881355108E+03  0.95024178071E+02 -0.16399285248E+03  0.25381344549E+03  0.00000000000E+00 0.  1.
</event>
<event>
 8    1  0.9181008E-006  0.9621049E+02  0.7561462E-02  0.1288473E+00
         -2   -1    0    0    0  501 -0.00000000000E+00  0.00000000000E+00  0.70755766805E+02  0.70755766805E+02  0.00000000000E+00 0.  1.
          2   -1    0    0  501    0  0.00000000000E+00 -0.00000000000E+00 -0.22677687879E+04  0.22677687879E+04  0.00000000000E+00 0. -1.
         23    2    1    2    0    0 -0.15182602033E+02  0.53899220349E+02  0.25254410353E+02  0.11193363957E+03  0.93571988688E+02 0.  0.
         23    2    1    2    0    0  0.15182602033E+02 -0.53899220349E+02 -0.22222674315E+04  0.22265909152E+04  0.12688155546E+03 0.  0.
          5    1    4    4  502    0  0.38317346989E+02 -0.47023560497E+02 -0.21372665817E+04  0.21381312747E+04  0.41800000000E+01 0. -1.
         -5    1    4    4    0  502 -0.23134744956E+02 -0.68756598523E+01 -0.85000849782E+02  0.88459640437E+02  0.41800000000E+01 0.  1.
        -11    1    3    3    0    0 -0.44677171367E+02  0.62109106669E+02  0.27339660499E+02  0.81246832608E+02  0.00000000000E+00 0.  1.
         11    1    3    3    0    0  0.29494569334E+02 -0.82098863197E+01 -0.20852501461E+01  0.30686806966E+02  0.00000000000E+00 0. -1.
</event>
<event>
 8    1  0.9181008E-006  0.1418493E+03  0.7561462E-02  0.1210862E+00
         -1   -1    0    0    0  501 -0.00000000000E+00  0.00000000000E+00  0.39209437695E+02  0.39209437695E+02  0.00000000000E+00 0.  1.
          1   -1    0    0  501    0  0.00000000000E+00 -0.00000000000E+00 -0.65589594377E+03  0.65589594377E+03  0.00000000000E+00 0. -1.
         23    2    1    2    0    0 -0.11487088250E+03 -0.12019512596E+02 -0.34034378501E+03  0.37052386274E+03  0.90079145938E+02 0.  0.
         23    2    1    2    0    0  0.11487088250E+03  0.12019512596E+02 -0.27634272107E+03  0.32458151873E+03  0.12509226389E+03 0.  0.
          5    1    4    4  502    0  0.14096611677E+03  0.97617235467E+01 -0.24998866808E+03  0.28719077961E+03  0.41800000000E+01 0.  1.
         -5    1    4    4    0  502 -0.26095234270E+02  0.22577890495E+01 -0.26354052986E+02  0.37390739118E+02  0.41800000000E+01 0.  1.
        -11    1    3    3    0    0 -0.29147894406E+02 -0.67795568099E+01 -0.13945487997E+02  0.33015735253E+02  0.00000000000E+00 0.  1.
         11    1    3    3    0    0 -0.85722988097E+02 -0.52399557863E+01 -0.32639829701E+03  0.33750812748E+03  0.00000000000E+00 0. -1.
</event>
<event>
 8    1  0.9181008E-006  0.1342191E+03  0.7561462E-02  0.1221326E+00
          2   -1    0    0  501    0  0.00000000000E+00  0.00000000000E+00  0.75327478640E+03  0.75327478640E+03  0.00000000000E+00 0. -1.
         -2   -1    0    0    0  501 -0.00000000000E+00 -0.00000000000E+00 -0.35612240397E+02  0.35612240397E+02  0.00000000000E+00 0.  1.
         23    2    1    2    0    0 -0.95712540300E+02 -0.35000858640E+02  0.16639603976E+03  0.21449453280E+03  0.89074755557E+02 0.  0.
         23    2    1    2    0    0  0.95712540300E+02  0.35000858640E+02  0.55126650624E+03  0.57439249399E+03  0.12508407483E+03 0.  0.
          5    1    4    4  502    0  0.10204055663E+03  0.64445603226E+02  0.50342613598E+03  0.51770730897E+03  0.41800000000E+01 0. -1.
         -5    1    4    4    0  502 -0.63280163323E+01 -0.29444744586E+02  0.47840370261E+02  0.56685185023E+02  0.41800000000E+01 0. -1.
        -11    1    3    3    0    0 -0.30701386018E+02 -0.41847481705E+02  0.12930877210E+03  0.13933608783E+03  0.00000000000E+00 0. -1.
         11    1    3    3    0    0 -0.65011154282E+02  0.68466230647E+01  0.37087267657E+02  0.75158444973E+02  0.00000000000E+00 0.  1.
</event>
<event>
 8    1  0.9181008E-006  0.1001909E+03  0.7561462E-02  0.1279895E+00
          2   -1    0    0  501    0  0.00000000000E+00  0.00000000000E+00  0.11463293793E+04  0.11463293793E+04  0.00000000000E+00 0. -1.
         -2   -1    0    0    0  501 -0.00000000000E+00 -0.00000000000E+00 -0.16640042272E+02  0.16640042272E+02  0.00000000000E+00 0.  1.
         23    2    1    2    0    0  0.22344483216E+01 -0.76963182552E+02  0.39921619652E+03  0.41787408602E+03  0.96523862201E+02 0.  0.
         23    2    1    2    0    0 -0.22344483216E+01  0.76963182552E+02  0.73047314053E+03  0.74509533557E+03  0.12509087030E+03 0.  0.
          5    1    4    4  502    0  0.12557792263E+02  0.34627087150E+02  0.66260760641E+03  0.66364376422E+03  0.41800000000E+01 0.  1.
         -5    1    4    4    0  502 -0.14792240585E+02  0.42336095402E+02  0.67865534121E+02  0.81451571359E+02  0.41800000000E+01 0.  1.
        -11    1    3    3    0    0 -0.41137021294E+02 -0.17580353551E+02  0.96668799443E+02  0.10651844975E+03  0.00000000000E+00 0.  1.
         11    1    3    3    0    0  0.43371469615E+02 -0.59382829001E+02  0.30254739708E+03  0.31135563627E+03  0.00000000000E+00 0. -1.
</event>
<event>
 8    1  0.9181008E-006  0.1151619E+03  0.7561462E-02  0.1251299E+00
          1   -1    0    0  501    0  0.00000000000E+00  0.00000000000E+00  0.27374861260E+03  0.27374861260E+03  0.00000000000E+00 0. -1.
         -1   -1    0    0    0  501 -0.00000000000E+00 -0.00000000000E+00 -0.10765882950E+03  0.10765882950E+03  0.00000000000E+00 0.  1.
         23    2    1    2    0    0 -0.37256746164E+02  0.33165377791E+02 -0.59219126707E+02  0.11892074165E+03  0.90262009766E+02 0.  0.
         23    2    1    2    0    0  0.37256746164E+02 -0.33165377791E+02  0.22530890981E+03  0.26248670046E+03  0.12508859125E+03 0.  0.
          5    1    4    4  502    0  0.38449126268E+02  0.41524252909E+02  0.70118611127E+02  0.90203608114E+02  0.41800000000E+01 0.  1.
         -5    1    4    4    0  502 -0.11923801039E+01 -0.74689630700E+02  0.15519029868E+03  0.17228309235E+03  0.41800000000E+01 0.  1.
        -11    1    3    3    0    0  0.12651932432E+01 -0.27158282304E+02 -0.19549400543E+01  0.27257930998E+02  0.00000000000E+00 0. -1.
         11    1    3    3    0    0 -0.38521939407E+02  0.60323660095E+02 -0.57264186653E+02  0.91662810649E+02  0.00000000000E+00 0.  1.
</event>
<event>
 8    1  0.9181008E-006  0.2620079E+03  0.7561462E-02  0.1105943E+00
          1   -1    0    0  501    0  0.00000000000E+00  0.00000000000E+00  0.12788665638E+04  0.12788665638E+04  0.00000000000E+00 0. -1.
         -1   -1    0    0    0  501 -0.00000000000E+00 -0.00000000000E+00 -0.73541759098E+02  0.73541759098E+02  0.00000000000E+00 0.  1.
         23    2    1    2    0    0  0.24599713038E+03  0.59727801346E+02  0.29518538136E+03  0.39947427674E+03  0.91451025173E+02 0.  0.
         23    2    1    2    0    0 -0.24599713038E+03 -0.59727801346E+02  0.91013942338E+03  0.95293404619E+03  0.12509007949E+03 0.  0.
          5    1    4    4  502    0 -0.80339923028E+02 -0.53714224292E+02  0.52154158815E+03  0.53043644453E+03  0.41800000000E+01 0.  1.
         -5    1    4    4    0  502 -0.16565720735E+03 -0.60135770537E+01  0.38859783524E+03  0.42249760166E+03  0.41800000000E+01 0.  1.
        -11    1    3    3    0    0  0.46785205816E+02  0.39496434446E+02  0.11414355422E+03  0.12952827795E+03  0.00000000000E+00 0.  1.
         11    1    3    3    0    0  0.19921192456E+03  0.20231366900E+02  0.18104182713E+03  0.26994599880E+03  0.00000000000E+00 0. -1.
</event>
<event>
 7    1  0.9181008E-006  0.1990688E+03  0.7561462E-02  0.1150527E+00
          1   -1    0    0  501    0  0.00000000000E+00  0.00000000000E+00  0.32100613105E+04  0.32100613105E+04  0.00000000000E+00 0. -1.
         -1   -1    0    0    0  501 -0.00000000000E+00 -0.00000000000E+00 -0.14706507188E+02  0.14706507188E+02  0.00000000000E+00 0.  1.
         23    2    1    2    0    0  0.17294051103E+02 -0.33990073714E+02  0.40885728329E+03  0.42070718254E+03  0.91519648311E+02 0.  0.
          5    1    1    2  502    0 -0.76337758700E+02  0.15184819955E+03  0.11837398972E+04  0.11958858414E+04  0.41800000000E+01 0. -1.
         -5    1    1    2    0  502  0.59043707597E+02 -0.11785812583E+03  0.16027576228E+04  0.16081747937E+04  0.41800000000E+01 0.  1.
        -11    1    3    3    0    0  0.39558240657E+02 -0.53570383399E+02  0.32527786499E+03  0.33202459221E+03  0.00000000000E+00 0.  1.
         11    1    3    3    0    0 -0.22264189554E+02  0.19580309686E+02  0.83579418302E+02  0.88682590330E+02  0.00000000000E+00 0. -1.
</event>
<event>
 8    1  0.9181008E-006  0.1130580E+03  0.7561462E-02  0.1255010E+00
         -2   -1    0    0    0  501 -0.00000000000E+00  0.00000000000E+00  0.11130172044E+02  0.11130172044E+02  0.00000000000E+00 0. -1.
          2   -1    0    0  501    0  0.00000000000E+00 -0.00000000000E+00 -0.13418777046E+04  0.13418777046E+04  0.00000000000E+00 0.  1.
         23    2    1    2    0    0  0.28399773461E+02  0.40045586017E+02 -0.42705453681E+03  0.43937772482E+03  0.90923107985E+02 0.  0.
         23    2    1    2    0    0 -0.28399773461E+02 -0.40045586017E+02 -0.90369299574E+03  0.91363015182E+03  0.12509527437E+03 0.  0.
          5    1    4    4  502    0  0.33213893137E+02 -0.50838364044E+02 -0.62580504758E+03  0.62875840505E+03  0.41800000000E+01 0.  1.
         -5    1    4    4    0  502 -0.61613666598E+02  0.10792778027E+02 -0.27788794817E+03  0.28487174676E+03  0.41800000000E+01 0.  1.
        -11    1    3    3    0    0  0.27282319397E-01 -0.28431876104E+02 -0.14392355272E+03  0.14670501474E+03  0.00000000000E+00 0.  1.
         11    1    3    3    0    0  0.28372491141E+02  0.68477462121E+02 -0.28313098410E+03  0.29267271008E+03  0.00000000000E+00 0. -1.
</event>
<event>
 8    1  0.9181008E-006  0.1031274E+03  0.7561462E-02  0.1273854E+00
         -2   -1    0    0    0  501 -0.00000000000E+00  0.00000000000E+00  0.82609176236E+02  0.82609176236E+02  0.00000000000E+00 0. -1.
          2   -1    0    0  501    0  0.00000000000E+00 -0.00000000000E+00 -0.16063598188E+03  0.16063598188E+03  0.00000000000E+00 0.  1.
         23    2    1    2    0    0 -0.42101307018E+02 -0.93412111982E+01 -0.29135387144E+02  0.10219041003E+03  0.87944475880E+02 0.  0.
         23    2    1    2    0    0  0.42101307018E+02  0.93412111982E+01 -0.48891418501E+02  0.14105474809E+03  0.12508514251E+03 0.  0.
          5    1    4    4  502    0  0.69102896343E+01 -0.45497074710E+02 -0.59045663120E+02  0.74977320860E+02  0.41800000000E+01 0. -1.
         -5    1    4    4    0  502  0.35191017383E+02  0.54838285908E+02  0.10154244619E+02  0.66077427232E+02  0.41800000000E+01 0. -1.
        -11    1    3    3    0    0 -0.51273215221E+02 -0.38543785473E+02 -0.31554268621E+02  0.71485927747E+02  0.00000000000E+00 0.  1.
         11    1    3    3    0    0  0.91719082036E+01  0.29202574274E+02  0.24188814770E+01  0.30704482278E+02  0.00000000000E+00 0. -1.
</event>
<event>
 8    1  0.9181008E-006  0.1219399E+03  0.7561462E-02  0.1239931E+00
          2   -1    0    0  501    0  0.00000000000E+00  0.00000000000E+00  0.64521184709E+03  0.64521184709E+03  0.00000000000E+00 0. -1.
         -2   -1    0    0    0  501 -0.00000000000E+00 -0.00000000000E+00 -0.33639253435E+02  0.33639253435E+02  0.00000000000E+00 0.  1.
         23    2    1    2    0    0  0.45287194901E+02  0.67324806565E+02  0.14639599429E+03  0.19036406033E+03  0.90681468458E+02 0.  0.
         23    2    1    2    0    0 -0.45287194901E+02 -0.67324806565E+02  0.46517659937E+03  0.48848704019E+03  0.12508701066E+03 0.  0.
          5    1    4    4  502    0 -0.51910536970E+02 -0.90771507279E+02  0.23828218568E+03  0.26024996214E+03  0.41800000000E+01 0. -1.
         -5    1    4    4    0  502  0.66233420696E+01  0.23446700715E+02  0.22689441369E+03  0.22823707805E+03  0.41800000000E+01 0. -1.
        -11    1    3    3    0    0  0.29358546944E+02 -0.13368552423E+02  0.74252969853E+02  0.80957680331E+02  0.00000000000E+00 0. -1.
         11    1    3    3    0    0  0.15928647956E+02  0.80693358988E+02  0.72143024435E+02  0.10940638000E+03  0.00000000000E+00 0.  1.
</event>
<event>
 8    1  0.9181008E-006  0.1171038E+03  0.7561462E-02  0.1247953E+00
         -1   -1    0    0    0  501 -0.00000000000E+00  0.00000000000E+00  0.13168580635E+02  0.13168580635E+02  0.00000000000E+00 0.  1.
          1   -1    0    0  501    0  0.00000000000E+00 -0.00000000000E+00 -0.16990275697E+04  0.16990275697E+04  0.00000000000E+00 0. -1.
         23    2    1    2    0    0  0.70137813021E+02 -0.39463925018E+02 -0.44335725743E+03  0.46082316459E+03  0.96517444582E+02 0.  0.
         23    2    1    2    0    0 -0.70137813021E+02  0.39463925018E+02 -0.12425017317E+04  0.12513729858E+04  0.12508829744E+03 0.  0.
          5    1    4    4  502    0 -0.62932926088E+02  0.62217086051E+02 -0.45760046892E+03  0.46609782293E+03  0.41800000000E+01 0. -1.
         -5    1    4    4    0  502 -0.72048869325E+01 -0.22753161033E+02 -0.78490126276E+03  0.78527516286E+03  0.41800000000E+01 0. -1.
        -11    1    3    3    0    0 -0.11958662248E+02 -0.37395020871E+02 -0.20472169883E+03  0.20845232347E+03  0.00000000000E+00 0. -1.
         11    1    3    3    0    0  0.82096475269E+02 -0.20689041473E+01 -0.23863555860E+03  0.25237084111E+03  0.00000000000E+00 0.  1.
</event>
<event>
 8    1  0.9181008E-006  0.7947988E+02  0.7561462E-02  0.1330534E+00
          4   -1    0    0  501    0  0.00000000000E+00  0.00000000000E+00  0.43387069248E+03  0.43387069248E+03  0.00000000000E+00 0. -1.
         -4   -1    0    0    0  501 -0.00000000000E+00 -0.00000000000E+00 -0.33818922778E+02  0.33818922778E+02  0.00000000000E+00 0.  1.
         23    2    1    2    0    0  0.25354045039E+02 -0.34515435477E+02  0.10807108683E+03  0.14716931457E+03  0.90251340468E+02 0.  0.
         23    2    1    2    0    0 -0.25354045039E+02  0.34515435477E+02  0.29198068287E+03  0.32052030068E+03  0.12508557510E+03 0.  0.
          5    1    4    4  502    0  0.16994947161E+02  0.34547458732E+02  0.26973641935E+03  0.27250241001E+03  0.41800000000E+01 0. -1.
         -5    1    4    4    0  502 -0.42348992200E+02 -0.32023255816E-01  0.22244263513E+02  0.48017890677E+02  0.41800000000E+01 0. -1.
        -11    1    3    3    0    0  0.58998721146E+01 -0.51509284396E+02  0.20304281446E+02  0.55680146507E+02  0.00000000000E+00 0.  1.
         11    1    3    3    0    0  0.19454172925E+02  0.16993848919E+02  0.87766805389E+02  0.91489168066E+02  0.00000000000E+00 0. -1.
</event>
<event>
 8    1  0.9181008E-006  0.1316910E+03  0.7561462E-02  0.1224968E+00
         -3   -1    0    0    0  501 -0.00000000000E+00  0.00000000000E+00  0.15446234786E+03  0.15446234786E+03  0.00000000000E+00 0.  1.
          3   -1    0    0  501    0  0.00000000000E+00 -0.00000000000E+00 -0.12592112740E+03  0.12592112740E+03  0.00000000000E+00 0. -1.
         23    2    1    2    0    0  0.75523359578E+02  0.22387400592E+02  0.49246195783E+02  0.13112438156E+03  0.92538868015E+02 0.  0.
         23    2    1    2    0    0 -0.75523359578E+02 -0.22387400592E+02 -0.20704975326E+02  0.14925909370E+03  0.12507840541E+03 0.  0.
          5    1    4    4  502    0  0.27138619113E+02 -0.31319265821E+02  0.75355829295E+01  0.42327986830E+02  0.41800000000E+01 0.  1.
         -5    1    4    4    0  502 -0.10266197869E+03  0.89318652291E+01 -0.28240558256E+02  0.10693110687E+03  0.41800000000E+01 0.  1.
        -11    1    3    3    0    0 -0.20468335058E+02  0.35858413606E+01  0.20457390235E+02  0.29160175128E+02  0.00000000000E+00 0. -1.
         11    1    3    3    0    0  0.95991694636E+02  0.18801559231E+02  0.28788805548E+02  0.10196420643E+03  0.00000000000E+00 0.  1.
</event>
<event>
 8    1  0.9181008E-006  0.1204174E+03  0.7561462E-02  0.1242410E+00
          1   -1    0    0  501    0  0.00000000000E+00  0.00000000000E+00  0.45926010397E+02  0.45926010397E+02  0.00000000000E+00 0. -1.
         -1   -1    0    0    0  501 -0.00000000000E+00 -0.00000000000E+00 -0.40972157851E+03  0.40972157851E+03  0.00000000000E+00 0.  1.
         23    2    1    2    0    0 -0.10406401761E+02  0.66425159480E+02 -0.25223663988E+03  0.27505419826E+03  0.86665416816E+02 0.  0.
         23    2    1    2    0    0  0.10406401761E+02 -0.66425159480E+02 -0.11155892824E+03  0.18059339065E+03  0.12509189929E+03 0.  0.
          5    1    4    4  502    0  0.24209385890E+02 -0.98217867055E+02 -0.58056529179E+02  0.11670851192E+03  0.41800000000E+01 0.  1.
         -5    1    4    4    0  502 -0.13802984129E+02  0.31792707576E+02 -0.53502399059E+02  0.63884878735E+02  0.41800000000E+01 0.  1.
        -11    1    3    3    0    0  0.37692946348E+01  0.82877457174E+02 -0.22740394694E+03  0.24206494082E+03  0.00000000000E+00 0.  1.
         11    1    3    3    0    0 -0.14175696395E+02 -0.16452297695E+02 -0.24832692939E+02  0.32989257438E+02  0.00000000000E+00 0. -1.
</event>
<event>
 8    1  0.9181008E-006  0.1173259E+03  0.7561462E-02  0.1247575E+00
          1   -1    0    0  501    0  0.00000000000E+00  0.00000000000E+00  0.10855792670E+03  0.10855792670E+03  0.00000000000E+00 0. -1.
         -1   -1    0    0    0  501 -0.00000000000E+00 -0.00000000000E+00 -0.20413602964E+03  0.20413602964E+03  0.00000000000E+00 0.  1.
         23    2    1    2    0    0  0.11143285062E+02  0.85196375263E+02 -0.10547620276E+03  0.16063661271E+03  0.85418363577E+02 0.  0.
         23    2    1    2    0    0 -0.11143285062E+02 -0.85196375263E+02  0.98980998213E+01  0.15205734363E+03  0.12506345674E+03 0.  0.
          5    1    4    4  502    0 -0.14839447061E+02 -0.99868657127E+02 -0.33059144660E+02  0.10632185717E+03  0.41800000000E+01 0.  1.
         -5    1    4    4    0  502  0.36961619993E+01  0.14672281864E+02  0.42957244481E+02  0.45735486463E+02  0.41800000000E+01 0.  1.
        -11    1    3    3    0    0 -0.30731483170E+02  0.10879694695E+02 -0.47061942336E+02  0.57250486731E+02  0.00000000000E+00 0.  1.
         11    1    3    3    0    0  0.41874768232E+02  0.74316680568E+02 -0.58414260421E+02  0.10338612598E+03  0.00000000000E+00 0. -1.
</event>
<event>
 8    1  0.9181008E-006  0.3940817E+03  0.7561462E-02  0.1045848E+00
         -4   -1    0    0    0  501 -0.00000000000E+00  0.00000000000E+00  0.60149906548E+03  0.60149906548E+03  0.00000000000E+00 0.  1.
          4   -1    0    0  501    0  0.00000000000E+00 -0.00000000000E+00 -0.26483555555E+03  0.26483555555E+03  0.00000000000E+00 0. -1.
         23    2    1    2    0    0  0.26016649182E+03 -0.28181772839E+03  0.19467986247E+03  0.43865086299E+03  0.86060997262E+02 0.  0.
         23    2    1    2    0    0 -0.26016649182E+03  0.28181772839E+03  0.14198364745E+03  0.42768375804E+03  0.12508479221E+03 0.  0.
          5    1    4    4  502    0 -0.13985198991E+02 -0.71788992208E+01  0.26060410373E+02  0.30720347876E+02  0.41800000000E+01 0.  1.
         -5    1    4    4    0  502 -0.24618129283E+03  0.28899662761E+03  0.11592323708E+03  0.39696341016E+03  0.41800000000E+01 0.  1.
        -11    1    3    3    0    0  0.16770365065E+03 -0.12123182315E+03  0.11704588585E+03  0.23774231592E+03  0.00000000000E+00 0.  1.
         11    1    3    3    0    0  0.92462841172E+02 -0.16058590524E+03  0.77633976624E+02  0.20090854707E+03  0.00000000000E+00 0. -1.
</event>
<event>
 8    1  0.9181008E-006  0.7094701E+02  0.7561462E-02  0.1356902E+00
          1   -1    0    0  501    0  0.00000000000E+00  0.00000000000E+00  0.61077951007E+03  0.61077951007E+03  0.00000000000E+00 0. -1.
         -1   -1    0    0    0  501 -0.00000000000E+00 -0.00000000000E+00 -0.59933338144E+02  0.59933338144E+02  0.00000000000E+00 0.  1.
         23    2    1    2    0    0  0.10258383956E+02 -0.65070468022E+02  0.11168925976E+02  0.11422671543E+03  0.92647705634E+02 0.  0.
         23    2    1    2    0    0 -0.10258383956E+02  0.65070468022E+02  0.53967724595E+03  0.55648613279E+03  0.11868397508E+03 0.  0.
          5    1    4    4  502    0 -0.86823290151E+01  0.44983196193E+02  0.53281023904E+03  0.53479257101E+03  0.41800000000E+01 0. -1.
         -5    1    4    4    0  502 -0.15760549413E+01  0.20087271830E+02  0.68670069022E+01  0.21693561776E+02  0.41800000000E+01 0.  1.
        -11    1    3    3    0    0  0.22998712974E+02 -0.52943530582E+02 -0.33136087114E+02  0.66557933397E+02  0.00000000000E+00 0.  1.
         11    1    3    3    0    0 -0.12740329017E+02 -0.12126937441E+02  0.44305013089E+02  0.47668782028E+02  0.00000000000E+00 0. -1.
</event>
<event>
 8    1  0.9181008E-006  0.1043265E+03  0.7561462E-02  0.1271452E+00
          1   -1    0    0  501    0  0.00000000000E+00  0.00000000000E+00  0.48364974045E+02  0.48364974045E+02  0.00000000000E+00 0. -1.
         -1   -1    0    0    0  501 -0.00000000000E+00 -0.00000000000E+00 -0.36322597215E+03  0.36322597215E+03  0.00000000000E+00 0.  1.
         23    2    1    2    0    0 -0.20237406428E+02 -0.67748176004E+02 -0.18435760905E+03  0.21746175692E+03  0.91118163605E+02 0.  0.
         23    2    1    2    0    0  0.20237406428E+02  0.67748176004E+02 -0.13050338905E+03  0.19412918927E+03  0.12512249838E+03 0.  0.
          5    1    4    4  502    0 -0.11306534064E+02  0.59337983365E+02 -0.14577218730E+03  0.15784751177E+03  0.41800000000E+01 0. -1.
         -5    1    4    4    0  502  0.31543940493E+02  0.84101926393E+01  0.15268798249E+02  0.36281677497E+02  0.41800000000E+01 0. -1.
        -11    1    3    3    0    0 -0.47172737844E+02 -0.73795827697E+02 -0.13543103991E+03  0.16128440084E+03  0.00000000000E+00 0. -1.
         11    1    3    3    0    0  0.26935331415E+02  0.60476516930E+01 -0.48926569139E+02  0.56177356089E+02  0.00000000000E+00 0.  1.
</event>
<event>
 7    1  0.9181008E-006  0.1185853E+03  0.7561462E-02  0.1245449E+00
         -2   -1    0    0    0  501 -0.00000000000E+00  0.00000000000E+00  0.47163176200E+02  0.47163176200E+02  0.00000000000E+00 0.  1.
          2   -1    0    0  501    0  0.00000000000E+00 -0.00000000000E+00 -0.41382550876E+03  0.41382550876E+03  0.00000000000E+00 0. -1.
         23    2    1    2    0    0 -0.74163324597E+02  0.56735068099E+02 -0.31087577210E+03  0.34405491231E+03  0.11406564048E+03 0.  0.
          5    1    3    3  502    0 -0.85914584878E+02  0.96160967712E+01 -0.25804720865E+03  0.27217571439E+03  0.41800000000E+01 0. -1.
         -5    1    3    3    0  502  0.11751260281E+02  0.47118971328E+02 -0.52828563453E+02  0.71879197921E+02  0.41800000000E+01 0.  1.
        -11    1    1    2    0    0  0.16985478907E+02 -0.38140048304E+02 -0.15388049587E+02  0.44496762224E+02  0.00000000000E+00 0. -1.
         11    1    1    2    0    0  0.57177845690E+02 -0.18595019795E+02 -0.40398510873E+02  0.72437010428E+02  0.00000000000E+00 0.  1.
</event>
<event>
 8    1  0.9181008E-006  0.1230706E+03  0.7561462E-02  0.1238116E+00
          1   -1    0    0  501    0  0.00000000000E+00  0.00000000000E+00  0.69578369667E+03  0.69578369667E+03  0.00000000000E+00 0. -1.
         -1   -1    0    0    0  501 -0.00000000000E+00 -0.00000000000E+00 -0.30796537837E+02  0.30796537837E+02  0.00000000000E+00 0.  1.
         23    2    1    2    0    0 -0.86296009723E+02 -0.27866909187E+02  0.21145414767E+03  0.24745199973E+03  0.91082762810E+02 0.  0.
         23    2    1    2    0    0  0.86296009723E+02  0.27866909187E+02  0.45353301117E+03  0.47912823478E+03  0.12509239475E+03 0.  0.
          5    1    4    4  502    0  0.64343270613E+02  0.61617602560E+02  0.41038850409E+03  0.41996783461E+03  0.41800000000E+01 0. -1.
         -5    1    4    4    0  502  0.21952739110E+02 -0.33750693373E+02  0.43144507080E+02  0.59160400175E+02  0.41800000000E+01 0. -1.
        -11    1    3    3    0    0 -0.76120076906E+02 -0.50712989737E+02  0.11049213179E+03  0.14343843496E+03  0.00000000000E+00 0.  1.
         11    1    3    3    0    0 -0.10175932817E+02  0.22846080551E+02  0.10096201588E+03  0.10401356477E+03  0.00000000000E+00 0. -1.
</event>
<event>
 8    1  0.9181008E-006  0.7891907E+02  0.7561462E-02  0.1332147E+00
          1   -1    0    0  501    0  0.00000000000E+00  0.00000000000E+00  0.75340760253E+02  0.75340760253E+02  0.00000000000E+00 0. -1.
         -1   -1    0    0    0  501 -0.00000000000E+00 -0.00000000000E+00 -0.16151183268E+03  0.16151183268E+03  0.00000000000E+00 0.  1.
         23    2    1    2    0    0 -0.25307336904E+02 -0.34328672149E+01 -0.46344263798E+02  0.10311458746E+03  0.88501872760E+02 0.  0.
         23    2    1    2    0    0  0.25307336904E+02  0.34328672149E+01 -0.39826808624E+02  0.13373800547E+03  0.12508970198E+03 0.  0.
          5    1    4    4  502    0  0.29943694240E+02  0.37530977823E+02 -0.71869245786E+02  0.86532421733E+02  0.41800000000E+01 0. -1.
         -5    1    4    4    0  502 -0.46363573366E+01 -0.34098110608E+02  0.32042437162E+02  0.47205583734E+02  0.41800000000E+01 0. -1.
        -11    1    3    3    0    0  0.15509236913E+02 -0.24538461046E+02 -0.49145943519E+02  0.57078860049E+02  0.00000000000E+00 0.  1.
         11    1    3    3    0    0 -0.40816573816E+02  0.21105593832E+02  0.28016797216E+01  0.46035727412E+02  0.00000000000E+00 0. -1.
</event>
<event>
 8    1  0.9181008E-006  0.1102123E+03  0.7561462E-02  0.1260177E+00
         -2   -1    0    0    0  501 -0.00000000000E+00  0.00000000000E+00  0.10113932107E+03  0.10113932107E+03  0.00000000000E+00 0.  1.
          2   -1    0    0  501    0  0.00000000000E+00 -0.00000000000E+00 -0.13069219477E+03  0.13069219477E+03  0.00000000000E+00 0. -1.
         23    2    1    2    0    0  0.11168051794E+02  0.34627034382E+02  0.30633462322E+01  0.97538491219E+02  0.90446759413E+02 0.  0.
         23    2    1    2    0    0 -0.11168051794E+02 -0.34627034382E+02 -0.32616219925E+02  0.13429302462E+03  0.12508813601E+03 0.  0.
          5    1    4    4  502    0 -0.47966190638E+02  0.26288915033E+02 -0.30943793301E+02  0.62982959932E+02  0.41800000000E+01 0.  1.
         -5    1    4    4    0  502  0.36798138844E+02 -0.60915949415E+02 -0.16724266244E+01  0.71310064691E+02  0.41800000000E+01 0.  1.
        -11    1    3    3    0    0  0.44234291404E+02  0.41329965272E+02 -0.10001349105E+02  0.61358500220E+02  0.00000000000E+00 0. -1.
         11    1    3    3    0    0 -0.33066239610E+02 -0.67029308903E+01  0.13064695337E+02  0.36179990999E+02  0.00000000000E+00 0.  1.
</event>
<event>
 8    1  0.9181008E-006  0.1073043E+03  0.7561462E-02  0.1265645E+00
         -1   -1    0    0    0  501 -0.00000000000E+00  0.00000000000E+00  0.68299564436E+02  0.68299564436E+02  0.00000000000E+00 0.  1.
          1   -1    0    0  501    0  0.00000000000E+00 -0.00000000000E+00 -0.50456967604E+03  0.50456967604E+03  0.00000000000E+00 0. -1.
         23    2    1    2    0    0  0.23323378343E+02  0.35393396016E+02  0.17186282576E+02  0.10057001863E+03  0.89567225478E+02 0.  0.
         23    2    1    2    0    0 -0.23323378343E+02 -0.35393396016E+02 -0.45345639418E+03  0.47229922184E+03  0.12508869283E+03 0.  0.
          5    1    4    4  502    0 -0.25692277546E+02 -0.75568833534E+02 -0.38116599901E+03  0.38945568802E+03  0.41800000000E+01 0.  1.
         -5    1    4    4    0  502  0.23688992031E+01  0.40175437519E+02 -0.72290395163E+02  0.82843533822E+02  0.41800000000E+01 0.  1.
        -11    1    3    3    0    0  0.22442965184E+01  0.61007188131E+02 -0.40498167206E+01  0.61182635494E+02  0.00000000000E+00 0. -1.
         11    1    3    3    0    0  0.21079081824E+02 -0.25613792115E+02  0.21236099297E+02  0.39387383137E+02  0.00000000000E+00 0.  1.
</event>
<event>
 8    1  0.9181008E-006  0.1088970E+03  0.7561462E-02  0.1262626E+00
         -1   -1    0    0    0  501 -0.00000000000E+00  0.00000000000E+00  0.15307747795E+02  0.15307747795E+02  0.00000000000E+00 0.  1.
          1   -1    0    0  501    0  0.00000000000E+00 -0.00000000000E+00 -0.13626161123E+04  0.13626161123E+04  0.00000000000E+00 0. -1.
         23    2    1    2    0    0 -0.21901066131E+02  0.84646089881E+02 -0.41190854218E+03  0.43015475122E+03  0.87862652146E+02 0.  0.
         23    2    1    2    0    0  0.21901066131E+02 -0.84646089881E+02 -0.93539982228E+03  0.94776910884E+03  0.12509531930E+03 0.  0.
          5    1    4    4  502    0  0.53861129722E+02 -0.40005102715E+02 -0.21490450049E+03  0.22517292526E+03  0.41800000000E+01 0. -1.
         -5    1    4    4    0  502 -0.31960063591E+02 -0.44640987166E+02 -0.72049532179E+03  0.72259618357E+03  0.41800000000E+01 0. -1.
        -11    1    3    3    0    0 -0.32834648741E+02  0.69097781413E+02 -0.40101430884E+03  0.40824636367E+03  0.00000000000E+00 0. -1.
         11    1    3    3    0    0  0.10933582610E+02  0.15548308467E+02 -0.10894233344E+02  0.21908387550E+02  0.00000000000E+00 0.  1.
</event>
<event>
 8    1  0.9181008E-006  0.1151594E+03  0.7561462E-02  0.1251303E+00
         -1   -1    0    0    0  501 -0.00000000000E+00  0.00000000000E+00  0.96509899353E+02  0.96509899353E+02  0.00000000000E+00 0.  1.
          1   -1    0    0  501    0  0.00000000000E+00 -0.00000000000E+00 -0.28107196818E+03  0.28107196818E+03  0.00000000000E+00 0. -1.
         23    2    1    2    0    0  0.10045404607E+03  0.37682786352E+02 -0.23372979997E+02  0.14705888719E+03  0.97821328695E+02 0.  0.
         23    2    1    2    0    0 -0.10045404607E+03 -0.37682786352E+02 -0.16118908883E+03  0.23052298035E+03  0.12509162383E+03 0.  0.
          5    1    4    4  502    0 -0.28878722656E+01 -0.15946419756E+02  0.18446139411E+02  0.24907038532E+02  0.41800000000E+01 0.  1.
         -5    1    4    4    0  502 -0.97566173803E+02 -0.21736366595E+02 -0.17963522824E+03  0.20561594181E+03  0.41800000000E+01 0.  1.
        -11    1    3    3    0    0  0.13476260699E+02  0.21033334202E+02  0.33517782499E+02  0.41802541714E+02  0.00000000000E+00 0.  1.
         11    1    3    3    0    0  0.86977785370E+02  0.16649452150E+02 -0.56890762496E+02  0.10525634547E+03  0.00000000000E+00 0. -1.
</event>
<event>
 7    1  0.9181008E-006  0.1042368E+03  0.7561462E-02  0.1271631E+00
          1   -1    0    0  501    0  0.00000000000E+00  0.00000000000E+00  0.82881226183E+02  0.82881226183E+02  0.00000000000E+00 0. -1.
         -1   -1    0    0    0  501 -0.00000000000E+00 -0.00000000000E+00 -0.22296466513E+03  0.22296466513E+03  0.00000000000E+00 0.  1.
         23    2    1    2    0    0  0.18788784225E+02  0.14763778112E+02 -0.12653071163E+03  0.15646244082E+03  0.88879057401E+02 0.  0.
          5    1    1    2  502    0  0.62601963742E+02  0.77345326507E+01  0.27649060552E+01  0.63276741108E+02  0.41800000000E+01 0. -1.
         -5    1    1    2    0  502 -0.81390747968E+02 -0.22498310763E+02 -0.16317633368E+02  0.86106709382E+02  0.41800000000E+01 0.  1.
        -11    1    3    3    0    0  0.30453529137E+02  0.29172964817E+02 -0.17156665378E+02  0.45528348092E+02  0.00000000000E+00 0. -1.
         11    1    3    3    0    0 -0.11664744912E+02 -0.14409186705E+02 -0.10937404626E+03  0.11093409273E+03  0.00000000000E+00 0.  1.
</event>
<event>
 8    1  0.9181008E-006  0.1643871E+03  0.7561462E-02  0.1183831E+00
          1   -1    0    0  501    0  0.00000000000E+00  0.00000000000E+00  0.78276698863E+02  0.78276698863E+02  0.00000000000E+00 0. -1.
         -1   -1    0    0    0  501 -0.00000000000E+00 -0.00000000000E+00 -0.45462453598E+03  0.45462453598E+03  0.00000000000E+00 0.  1.
         23    2    1    2    0    0  0.83814457300E+02 -0.12261176142E+03 -0.23844890849E+03  0.29472519162E+03  0.89143419955E+02 0.  0.
         23    2    1    2    0    0 -0.83814457300E+02  0.12261176142E+03 -0.13789892863E+03  0.23817604323E+03  0.12511277218E+03 0.  0.
          5    1    4    4  502    0 -0.10344307055E+03  0.78685264743E+02 -0.52836344134E+02  0.14036022013E+03  0.41800000000E+01 0. -1.
         -5    1    4    4    0  502  0.19628613252E+02  0.43926496676E+02 -0.85062584496E+02  0.97815823104E+02  0.41800000000E+01 0. -1.
        -11    1    3    3    0    0  0.24342519981E+02 -0.56492490718E+02 -0.17495541013E+03  0.18545445619E+03  0.00000000000E+00 0.  1.
         11    1    3    3    0    0  0.59471937319E+02 -0.66119270701E+02 -0.63493498361E+02  0.10927073543E+03  0.00000000000E+00 0. -1.
</event>
<event>
 8    1  0.9181008E-006  0.1012574E+03  0.7561462E-02  0.1277674E+00
          1   -1    0    0  501    0  0.00000000000E+00  0.00000000000E+00  0.62995335479E+03  0.62995335479E+03  0.00000000000E+00 0. -1.
         -1   -1    0    0    0  501 -0.00000000000E+00 -0.00000000000E+00 -0.21767771909E+02  0.21767771909E+02  0.00000000000E+00 0.  1.
         23    2    1    2    0    0 -0.22379964362E+02 -0.26916030430E+02  0.21351846206E+03  0.23625038103E+03  0.94861864814E+02 0.  0.
         23    2    1    2    0    0  0.22379964362E+02  0.26916030430E+02  0.39466712082E+03  0.41547074567E+03  0.12501387424E+03 0.  0.
          5    1    4    4  502    0 -0.37407963432E+02  0.52399316646E+02  0.18553190908E+03  0.19642964593E+03  0.41800000000E+01 0. -1.
         -5    1    4    4    0  502  0.59787927794E+02 -0.25483286217E+02  0.20913521174E+03  0.21904109974E+03  0.41800000000E+01 0. -1.
        -11    1    3    3    0    0 -0.37175563870E+02  0.51742252047E+01  0.19030440857E+03  0.19397052116E+03  0.00000000000E+00 0. -1.
         11    1    3    3    0    0  0.14795599508E+02 -0.32090255634E+02  0.23214053491E+02  0.42279859874E+02  0.00000000000E+00 0.  1.
</event>
<event>
 8    1  0.9181008E-006  0.1089321E+03  0.7561462E-02  0.1262560E+00
         -2   -1    0    0    0  501 -0.00000000000E+00  0.00000000000E+00  0.18742960640E+02  0.18742960640E+02  0.00000000000E+00 0. -1.
          2   -1    0    0  501    0  0.00000000000E+00 -0.00000000000E+00 -0.89385570756E+03  0.89385570756E+03  0.00000000000E+00 0.  1.
         23    2    1    2    0    0 -0.24839881041E+02 -0.57461994666E+02 -0.28122148435E+03  0.30245625326E+03  0.92061725765E+02 0.  0.
         23    2    1    2    0    0  0.24839881041E+02  0.57461994666E+02 -0.59389126257E+03  0.61014241495E+03  0.12509210303E+03 0.  0.
          5    1    4    4  502    0  0.26980941225E+02 -0.17035317132E+02 -0.41575790370E+03  0.41700153489E+03  0.41800000000E+01 0. -1.
         -5    1    4    4    0  502 -0.21410601844E+01  0.74497311798E+02 -0.17813335888E+03  0.19314088006E+03  0.41800000000E+01 0. -1.
        -11    1    3    3    0    0 -0.25568315510E+02 -0.82304398071E+02 -0.22700539618E+03  0.24281516138E+03  0.00000000000E+00 0.  1.
         11    1    3    3    0    0  0.72843446949E+00  0.24842403405E+02 -0.54216088173E+02  0.59641091879E+02  0.00000000000E+00 0. -1.
</event>
<event>
 8    1  0.9181008E-006  0.7502247E+02  0.7561462E-02  0.1343801E+00
         -1   -1    0    0    0  501 -0.00000000000E+00  0.00000000000E+00  0.13629133973E+02  0.13629133973E+02  0.00000000000E+00 0.  1.
          1   -1    0    0  501    0  0.00000000000E+00 -0.00000000000E+00 -0.15709966732E+04  0.15709966732E+04  0.00000000000E+00 0. -1.
         23    2    1    2    0    0 -0.15921094039E+02  0.36530873137E+02 -0.23907403374E+03  0.25981090639E+03  0.93580593836E+02 0.  0.
         23    2    1    2    0    0  0.15921094039E+02 -0.36530873137E+02 -0.13182935055E+04  0.13248149008E+04  0.12509503907E+03 0.  0.
          5    1    4    4  502    0  0.31121234173E+02 -0.31776211592E+02 -0.15258957370E+03  0.15899468306E+03  0.41800000000E+01 0. -1.
         -5    1    4    4    0  502 -0.15200140133E+02 -0.47546615442E+01 -0.11657039318E+04  0.11658202177E+04  0.41800000000E+01 0. -1.
        -11    1    3    3    0    0  0.29905272708E+02  0.30446702090E+02 -0.17895328551E+03  0.18397175163E+03  0.00000000000E+00 0.  1.
         11    1    3    3    0    0 -0.45826366747E+02  0.60841710468E+01 -0.60120748232E+02  0.75839154759E+02  0.00000000000E+00 0. -1.
</event>
<event>
 8    1  0.9181008E-006  0.1030879E+03  0.7561462E-02  0.1273933E+00
         -2   -1    0    0    0  501 -0.00000000000E+00  0.00000000000E+00  0.48915419346E+03  0.48915419346E+03  0.00000000000E+00 0.  1.
          2   -1    0    0  501    0  0.00000000000E+00 -0.00000000000E+00 -0.28240556245E+02  0.28240556245E+02  0.00000000000E+00 0. -1.
         23    2    1    2    0    0  0.16134249672E+02 -0.36725481991E+02  0.24436377536E+03  0.26411624470E+03  0.91840410315E+02 0.  0.
         23    2    1    2    0    0 -0.16134249672E+02  0.36725481991E+02  0.21654986186E+03  0.25327850501E+03  0.12508830236E+03 0.  0.
          5    1    4    4  502    0  0.41181918965E+02  0.51502855670E+02  0.75946688472E+02  0.10066710725E+03  0.41800000000E+01 0. -1.
         -5    1    4    4    0  502 -0.57316168637E+02 -0.14777373679E+02  0.14060317339E+03  0.15261139776E+03  0.41800000000E+01 0. -1.
        -11    1    3    3    0    0  0.42147394213E+02 -0.96950025761E+01  0.49751518578E+02  0.65921237206E+02  0.00000000000E+00 0. -1.
         11    1    3    3    0    0 -0.26013144541E+02 -0.27030479415E+02  0.19461225678E+03  0.19819500749E+03  0.00000000000E+00 0.  1.
</event>
<event>
 8    1  0.9181008E-006  0.1025261E+03  0.7561462E-02  0.1275072E+00
          1   -1    0    0  501    0  0.00000000000E+00  0.00000000000E+00  0.25123936667E+03  0.25123936667E+03  0.00000000000E+00 0. -1.
         -1   -1    0    0    0  501 -0.00000000000E+00 -0.00000000000E+00 -0.54238700558E+02  0.54238700558E+02  0.00000000000E+00 0.  1.
         23    2    1    2    0    0 -0.24887912351E+02  0.13115023021E+02  0.71571087181E+02  0.12611410016E+03  0.99954658370E+02 0.  0.
         23    2    1    2    0    0  0.24887912351E+02 -0.13115023021E+02  0.12542957893E+03  0.17936396707E+03  0.12508973339E+03 0.  0.
          5    1    4    4  502    0  0.62008941247E+02  0.30677165888E+02  0.55498581843E+02  0.88790552921E+02  0.41800000000E+01 0.  1.
         -5    1    4    4    0  502 -0.37121028896E+02 -0.43792188909E+02  0.69930997089E+02  0.90573414144E+02  0.41800000000E+01 0.  1.
        -11    1    3    3    0    0 -0.10096092351E+02  0.43357354178E+02 -0.26690607228E+01  0.44597254705E+02  0.00000000000E+00 0.  1.
         11    1    3    3    0    0 -0.14791820000E+02 -0.30242331158E+02  0.74240147904E+02  0.81516845459E+02  0.00000000000E+00 0. -1.
</event>
<event>
 7    1  0.9181008E-006  0.1868700E+03  0.7561462E-02  0.1161315E+00
          2   -1    0    0  501    0  0.00000000000E+00  0.00000000000E+00  0.24131706443E+04  0.24131706443E+04  0.00000000000E+00 0. -1.
         -2   -1    0    0    0  501 -0.00000000000E+00 -0.00000000000E+00 -0.34701070841E+02  0.34701070841E+02  0.00000000000E+00 0.  1.
         23    2    1    2    0    0  0.47773460013E+02  0.69500935530E+01  0.84950938236E+02  0.13412394314E+03  0.91880155283E+02 0.  0.
          5    1    1    2  502    0  0.11126057718E+03 -0.62825916726E+02  0.12717876939E+04  0.12781969420E+04  0.41800000000E+01 0. -1.
         -5    1    1    2    0  502 -0.15903403719E+03  0.55875823173E+02  0.10217309413E+04  0.10355508300E+04  0.41800000000E+01 0.  1.
        -11    1    3    3    0    0 -0.11985151633E+02 -0.95080966676E+01  0.68230713856E+02  0.69924803004E+02  0.00000000000E+00 0.  1.
         11    1    3    3    0    0  0.59758611646E+02  0.16458190221E+02  0.16720224380E+02  0.64199140138E+02  0.00000000000E+00 0. -1.
</event>
<event>
 8    1  0.9181008E-006  0.1125013E+03  0.7561462E-02  0.1256007E+00
          1   -1    0    0  501    0  0.00000000000E+00  0.00000000000E+00  0.75774642938E+03  0.75774642938E+03  0.00000000000E+00 0. -1.
         -1   -1    0    0    0  501 -0.00000000000E+00 -0.00000000000E+00 -0.22423813173E+02  0.22423813173E+02  0.00000000000E+00 0.  1.
         23    2    1    2    0    0 -0.62711065041E+02 -0.14700976264E+02  0.35102305508E+03  0.37092419970E+03  0.10108798318E+03 0.  0.
         23    2    1    2    0    0  0.62711065041E+02  0.14700976264E+02  0.38429956113E+03  0.40924604285E+03  0.12508946609E+03 0.  0.
          5    1    4    4  502    0  0.35106519700E+02 -0.34871829699E+02  0.51213443172E+02  0.71335835269E+02  0.41800000000E+01 0.  1.
         -5    1    4    4    0  502  0.27604545341E+02  0.49572805963E+02  0.33308611795E+03  0.33791020758E+03  0.41800000000E+01 0.  1.
        -11    1    3    3    0    0  0.21953701638E+02  0.17287725827E+02  0.60748671620E+02  0.66867268402E+02  0.00000000000E+00 0.  1.
         11    1    3    3    0    0 -0.84664766678E+02 -0.31988702090E+02  0.29027438346E+03  0.30405693130E+03  0.00000000000E+00 0. -1.
</event>
<event>
 8    1  0.9181008E-006  0.2313098E+03  0.7561462E-02  0.1125721E+00
         -2   -1    0    0    0  501 -0.00000000000E+00  0.00000000000E+00  0.55242494133E+03  0.55242494133E+03  0.00000000000E+00 0. -1.
          2   -1    0    0  501    0  0.00000000000E+00 -0.00000000000E+00 -0.31839805918E+03  0.31839805918E+03  0.00000000000E+00 0.  1.
         23    2    1    2    0    0  0.11143821767E+03 -0.19461589122E+03  0.46545311004E+03  0.52513597744E+03  0.93954114774E+02 0.  0.
         23    2    1    2    0    0 -0.11143821767E+03  0.19461589122E+03 -0.23142622789E+03  0.34568702307E+03  0.12509035730E+03 0.  0.
          5    1    4    4  502    0 -0.10584172435E+02  0.97791193701E+02 -0.34870632956E+02  0.10444412724E+03  0.41800000000E+01 0. -1.
         -5    1    4    4    0  502 -0.10085404523E+03  0.96824697523E+02 -0.19655559494E+03  0.24124289583E+03  0.41800000000E+01 0. -1.
        -11    1    3    3    0    0  0.29432995012E+02 -0.54932456704E+02  0.52273210124E+02  0.81341038176E+02  0.00000000000E+00 0.  1.
         11    1    3    3    0    0  0.82005222654E+02 -0.13968343452E+03  0.41317989992E+03  0.44379493927E+03  0.00000000000E+00 0. -1.
</event>
<event>
 8    1  0.9181008E-006  0.1086414E+03  0.7561462E-02  0.1263107E+00
         -2   -1    0    0    0  501 -0.00000000000E+00  0.00000000000E+00  0.94948386532E+02  0.94948386532E+02  0.00000000000E+00 0.  1.
          2   -1    0    0  501    0  0.00000000000E+00 -0.00000000000E+00 -0.22984487106E+03  0.22984487106E+03  0.00000000000E+00 0. -1.
         23    2    1    2    0    0  0.47716063392E+02  0.58867715618E+02  0.10656142996E+02  0.11845622862E+03  0.90421756611E+02 0.  0.
         23    2    1    2    0    0 -0.47716063392E+02 -0.58867715618E+02 -0.14555262752E+03  0.20633702897E+03  0.12508865455E+03 0.  0.
          5    1    4    4  502    0 -0.62341678591E+02 -0.29070374022E+02 -0.15661013631E+03  0.17110166198E+03  0.41800000000E+01 0. -1.
         -5    1    4    4    0  502  0.14625615199E+02 -0.29797341595E+02  0.11057508791E+02  0.35235366988E+02  0.41800000000E+01 0. -1.
        -11    1    3    3    0    0  0.72069470775E+02  0.32617685915E+02  0.19703167426E+02  0.81523842272E+02  0.00000000000E+00 0.  1.
         11    1    3    3    0    0 -0.24353407383E+02  0.26250029703E+02 -0.90470244302E+01  0.36932386352E+02  0.00000000000E+00 0. -1.
</event>
<event>
 8    1  0.9181008E-006  0.1975742E+03  0.7561462E-02  0.1151802E+00
          2   -1    0    0  501    0  0.00000000000E+00  0.00000000000E+00  0.10597484959E+04  0.10597484959E+04  0.00000000000E+00 0.  1.
         -2   -1    0    0    0  501 -0.00000000000E+00 -0.00000000000E+00 -0.43017202784E+02  0.43017202784E+02  0.00000000000E+00 0. -1.
         23    2    1    2    0    0 -0.15934294494E+03 -0.87851894493E+02  0.42129838742E+03  0.46770947962E+03  0.90286746589E+02 0.  0.
         23    2    1    2    0    0  0.15934294494E+03  0.87851894493E+02  0.59543290574E+03  0.63505621912E+03  0.12509167330E+03 0.  0.
          5    1    4    4  502    0  0.12539896070E+03  0.92131080845E+01  0.43887919899E+03  0.45655471131E+03  0.41800000000E+01 0.  1.
         -5    1    4    4    0  502  0.33943984241E+02  0.78638786408E+02  0.15655370675E+03  0.17850150781E+03  0.41800000000E+01 0.  1.
        -11    1    3    3    0    0 -0.10969702471E+03 -0.47194294916E+02  0.16613560176E+03  0.20460150751E+03  0.00000000000E+00 0. -1.
         11    1    3    3    0    0 -0.49645920229E+02 -0.40657599576E+02  0.25516278566E+03  0.26310797210E+03  0.00000000000E+00 0.  1.
</event>
<event>
 8    1  0.9181008E-006  0.1185904E+03  0.7561462E-02  0.1245441E+00
          2   -1    0    0  501    0  0.00000000000E+00  0.00000000000E+00  0.70013050602E+03  0.70013050602E+03  0.00000000000E+00 0. -1.
         -2   -1    0    0    0  501 -0.00000000000E+00 -0.00000000000E+00 -0.32560926335E+02  0.32560926335E+02  0.00000000000E+00 0.  1.
         23    2    1    2    0    0 -0.98712172476E+02  0.31347908707E+02  0.27139875671E+03  0.30452536865E+03  0.91387256396E+02 0.  0.
         23    2    1    2    0    0  0.98712172476E+02 -0.31347908707E+02  0.39617082298E+03  0.42816606371E+03  0.12509225699E+03 0.  0.
          5    1    4    4  502    0  0.96918769468E+01  0.11604990294E+02  0.25665950576E+03  0.25713845020E+03  0.41800000000E+01 0. -1.
         -5    1    4    4    0  502  0.89020295529E+02 -0.42952899001E+02  0.13951131722E+03  0.17102761350E+03  0.41800000000E+01 0. -1.
        -11    1    3    3    0    0 -0.30991389836E+02 -0.20600705159E+02  0.15954209284E+03  0.16382470718E+03  0.00000000000E+00 0. -1.
         11    1    3    3    0    0 -0.67720782640E+02  0.51948613866E+02  0.11185666388E+03  0.14070066147E+03  0.00000000000E+00 0.  1.
</event>
<event>
 8    1  0.9181008E-006  0.1377097E+03  0.7561462E-02  0.1216444E+00
         -2   -1    0    0    0  501 -0.00000000000E+00  0.00000000000E+00  0.11003656403E+02  0.11003656403E+02  0.00000000000E+00 0.  1.
          2   -1    0    0  501    0  0.00000000000E+00 -0.00000000000E+00 -0.29567176379E+04  0.29567176379E+04  0.00000000000E+00 0. -1.
         23    2    1    2    0    0  0.31217743909E+02  0.92257816420E+02 -0.51853900369E+03  0.53537445729E+03  0.90868360483E+02 0.  0.
         23    2    1    2    0    0 -0.31217743909E+02 -0.92257816420E+02 -0.24271749778E+04  0.24323468370E+04  0.12508681165E+03 0.  0.
          5    1    4    4  502    0 -0.68246738111E+02 -0.43097441187E+02 -0.18741544906E+04  0.18758964614E+04  0.41800000000E+01 0.  1.
         -5    1    4    4    0  502  0.37028994203E+02 -0.49160375233E+02 -0.55302048716E+03  0.55645037561E+03  0.41800000000E+01 0.  1.
        -11    1    3    3    0    0 -0.40324296352E+01  0.97225939507E+02 -0.36333421344E+03  0.37613946144E+03  0.00000000000E+00 0.  1.
         11    1    3    3    0    0  0.35250173544E+02 -0.49681230873E+01 -0.15520479026E+03  0.15923499584E+03  0.00000000000E+00 0. -1.
</event>
<event>
 8    1  0.9437886E-006  0.1333596E+03  0.7561462E-02  0.1222554E+00
          2   -1    0    0  501    0  0.00000000000E+00  0.00000000000E+00  0.51727506141E+03  0.51727506141E+03  0.00000000000E+00 0. -1.
         -2   -1    0    0    0  501 -0.00000000000E+00 -0.00000000000E+00 -0.49125546502E+02  0.49125546502E+02  0.00000000000E+00 0.  1.
         23    2    1    2    0    0 -0.11452380811E+03 -0.22050293706E+02  0.20448963870E+03  0.25213050242E+03  0.90287650517E+02 0.  0.
         23    2    1    2    0    0  0.11452380811E+03  0.22050293706E+02  0.26365987621E+03  0.31427010550E+03  0.12508897157E+03 0.  0.
          5    1    4    4  502    0  0.44049470792E+02  0.27448870792E+02  0.12814503226E+02  0.53623504900E+02  0.41800000000E+01 0. -1.
         -5    1    4    4    0  502  0.70474337323E+02 -0.53985770863E+01  0.25084537299E+03  0.26064660060E+03  0.41800000000E+01 0. -1.
        -11    1    3    3    0    0 -0.21608608870E+00  0.21515541692E+02  0.13751818920E+02  0.25535813108E+02  0.00000000000E+00 0.  1.
         11    1    3    3    0    0 -0.11430772203E+03 -0.43565835398E+02  0.19073781978E+03  0.22659468931E+03  0.00000000000E+00 0. -1.
</event>
<event>
 8    1  0.9181008E-006  0.2197449E+03  0.7561462E-02  0.1134073E+00
          2   -1    0    0  501    0  0.00000000000E+00  0.00000000000E+00  0.22060578755E+04  0.22060578755E+04  0.00000000000E+00 0. -1.
         -2   -1    0    0    0  501 -0.00000000000E+00 -0.00000000000E+00 -0.31707440372E+02  0.31707440372E+02  0.00000000000E+00 0.  1.
         23    2    1    2    0    0 -0.12086518299E+03  0.15622288071E+03  0.47854906082E+03  0.52592327689E+03  0.92585682718E+02 0.  0.
         23    2    1    2    0    0  0.12086518299E+03 -0.15622288071E+03  0.16958013743E+04  0.17118420390E+04  0.12508750698E+03 0.  0.
          5    1    4    4  502    0  0.59441727952E+02 -0.15779300265E+03  0.13623061242E+04  0.13727080532E+04  0.41800000000E+01 0.  1.
         -5    1    4    4    0  502  0.61423455041E+02  0.15701219346E+01  0.33349525003E+03  0.33913398578E+03  0.41800000000E+01 0.  1.
        -11    1    3    3    0    0 -0.69111624899E+02  0.35090699858E+02  0.25427943888E+03  0.26583041013E+03  0.00000000000E+00 0. -1.
         11    1    3    3    0    0 -0.51753558094E+02  0.12113218085E+03  0.22426962194E+03  0.26009286676E+03  0.00000000000E+00 0.  1.
</event>
<event>
 8    1  0.9181008E-006  0.1060615E+03  0.7561462E-02  0.1268042E+00
         -2   -1    0    0    0  501 -0.00000000000E+00  0.00000000000E+00  0.66756333701E+02  0.66756333701E+02  0.00000000000E+00 0.  1.
          2   -1    0    0  501    0  0.00000000000E+00 -0.00000000000E+00 -0.20441950905E+03  0.20441950905E+03  0.00000000000E+00 0. -1.
         23    2    1    2    0    0 -0.16453790180E+01  0.40045990641E+02 -0.43906629646E+02  0.10979445117E+03  0.92307316845E+02 0.  0.
         23    2    1    2    0    0  0.16453790180E+01 -0.40045990641E+02 -0.93756545701E+02  0.16138139157E+03  0.12508906845E+03 0.  0.
          5    1    4    4  502    0 -0.77091369894E+01  0.38971233852E+02 -0.65732148089E+02  0.76917979390E+02  0.41800000000E+01 0.  1.
         -5    1    4    4    0  502  0.93545160074E+01 -0.79017224493E+02 -0.28024397611E+02  0.84463412184E+02  0.41800000000E+01 0.  1.
        -11    1    3    3    0    0  0.30187543132E+02  0.50634977088E+02 -0.61249701233E+01  0.59268068334E+02  0.00000000000E+00 0.  1.
         11    1    3    3    0    0 -0.31832922150E+02 -0.10588986446E+02 -0.37781659522E+02  0.50526382840E+02  0.00000000000E+00 0. -1.
</event>
<event>
 8    1  0.9181008E-006  0.1115679E+03  0.7561462E-02  0.1257694E+00
         -1   -1    0    0    0  501 -0.00000000000E+00  0.00000000000E+00  0.34320544949E+03  0.34320544949E+03  0.00000000000E+00 0.  1.
          1   -1    0    0  501    0  0.00000000000E+00 -0.00000000000E+00 -0.66436304068E+02  0.66436304068E+02  0.00000000000E+00 0. -1.
         23    2    1    2    0    0 -0.82665334361E+02  0.52245860483E+02  0.17650154825E+03  0.22185160767E+03  0.92207113874E+02 0.  0.
         23    2    1    2    0    0  0.82665334361E+02 -0.52245860483E+02  0.10026759717E+03  0.18779014588E+03  0.12509340672E+03 0.  0.
          5    1    4    4  502    0  0.14256693073E+02 -0.27427656164E+02  0.10992196833E+03  0.11426215971E+03  0.41800000000E+01 0.  1.
         -5    1    4    4    0  502  0.68408641288E+02 -0.24818204319E+02 -0.96543711586E+01  0.73527986175E+02  0.41800000000E+01 0.  1.
        -11    1    3    3    0    0 -0.13599549208E+02  0.47962008486E+02  0.12795127202E+03  0.13732017335E+03  0.00000000000E+00 0.  1.
         11    1    3    3    0    0 -0.69065785153E+02  0.42838519967E+01  0.48550276229E+02  0.84531434323E+02  0.00000000000E+00 0. -1.
</event>
<event>
 8    1  0.9181008E-006  0.1123174E+03  0.7561462E-02  0.1256338E+00
         -1   -1    0    0    0  501 -0.00000000000E+00  0.00000000000E+00  0.48876470998E+02  0.48876470998E+02  0.00000000000E+00 0.  1.
          1   -1    0    0  501    0  0.00000000000E+00 -0.00000000000E+00 -0.54983057481E+03  0.54983057481E+03  0.00000000000E+00 0. -1.
         23    2    1    2    0    0  0.40389689561E+02  0.48476169285E+02 -0.40656252856E+02  0.11755987974E+03  0.90477225961E+02 0.  0.
         23    2    1    2    0    0 -0.40389689561E+02 -0.48476169285E+02 -0.46029785096E+03  0.48114716607E+03  0.12508883966E+03 0.  0.
          5    1    4    4  502    0  0.11072255685E+02 -0.61130188436E+02 -0.37853837641E+03  0.38362516810E+03  0.41800000000E+01 0. -1.
         -5    1    4    4    0  502 -0.51461945246E+02  0.12654019152E+02 -0.81759474545E+02  0.97521997965E+02  0.41800000000E+01 0. -1.
        -11    1    3    3    0    0  0.41081681032E+01  0.67921782646E+02 -0.33248970042E+02  0.75734665853E+02  0.00000000000E+00 0.  1.
         11    1    3    3    0    0  0.36281521458E+02 -0.19445613361E+02 -0.74072828131E+01  0.41825213890E+02  0.00000000000E+00 0. -1.
</event>
<event>
 7    1  0.9181008E-006  0.1036865E+03  0.7561462E-02  0.1272729E+00
          1   -1    0    0  501    0  0.00000000000E+00  0.00000000000E+00  0.27004769343E+03  0.27004769343E+03  0.00000000000E+00 0. -1.
         -1   -1    0    0    0  501 -0.00000000000E+00 -0.00000000000E+00 -0.10832566708E+03  0.10832566708E+03  0.00000000000E+00 0.  1.
         23    2    1    2    0    0 -0.43882983903E+02 -0.10349484004E+02 -0.53403051794E+02  0.11570274939E+03  0.92208525529E+02 0.  0.
          5    1    1    2  502    0  0.37702583204E+02  0.62219489525E+02  0.19205176479E+03  0.20541203085E+03  0.41800000000E+01 0. -1.
         -5    1    1    2    0  502  0.61804006985E+01 -0.51870005521E+02  0.23073313349E+02  0.57258580269E+02  0.41800000000E+01 0.  1.
        -11    1    3    3    0    0 -0.37812200122E+02 -0.38107490400E+02 -0.65613075647E+02  0.84776287949E+02  0.00000000000E+00 0.  1.
         11    1    3    3    0    0 -0.60707837810E+01  0.27758006396E+02  0.12210023853E+02  0.30926461441E+02  0.00000000000E+00 0. -1.
</event>
<event>
 8    1  0.9181008E-006  0.1548083E+03  0.7561462E-02  0.1194686E+00
         -2   -1    0    0    0  501 -0.00000000000E+00  0.00000000000E+00  0.73331306203E+03  0.73331306203E+03  0.00000000000E+00 0.  1.
          2   -1    0    0  501    0  0.00000000000E+00 -0.00000000000E+00 -0.50206223937E+02  0.50206223937E+02  0.00000000000E+00 0. -1.
         23    2    1    2    0    0  0.12926944024E+03  0.61536374145E+02  0.45991736828E+03  0.49033305185E+03  0.91679891837E+02 0.  0.
         23    2    1    2    0    0 -0.12926944024E+03 -0.61536374145E+02  0.22318946982E+03  0.29318623412E+03  0.12508922783E+03 0.  0.
          5    1    4    4  502    0 -0.67135875133E+02 -0.35497051406E+02  0.21139968337E+03  0.22466545110E+03  0.41800000000E+01 0.  1.
         -5    1    4    4    0  502 -0.62133565109E+02 -0.26039322738E+02  0.11789786448E+02  0.68520783025E+02  0.41800000000E+01 0.  1.
        -11    1    3    3    0    0  0.38076238013E+02 -0.20633989531E+02  0.78558079171E+02  0.89704700146E+02  0.00000000000E+00 0. -1.
         11    1    3    3    0    0  0.91193202229E+02  0.82170363676E+02  0.38135928911E+03  0.40062835170E+03  0.00000000000E+00 0.  1.
</event>
<event>
 8    1  0.9181008E-006  0.1147455E+03  0.7561462E-02  0.1252026E+00
         -2   -1    0    0    0  501 -0.00000000000E+00  0.00000000000E+00  0.15943817643E+02  0.15943817643E+02  0.00000000000E+00 0.  1.
          2   -1    0    0  501    0  0.00000000000E+00 -0.00000000000E+00 -0.16765712595E+04  0.16765712595E+04  0.00000000000E+00 0. -1.
         23    2    1    2    0    0  0.59100759263E+02  0.36855813582E+02 -0.25262708417E+03  0.27725303332E+03  0.90540322979E+02 0.  0.
         23    2    1    2    0    0 -0.59100759263E+02 -0.36855813582E+02 -0.14080003577E+04  0.14152620439E+04  0.12510153764E+03 0.  0.
          5    1    4    4  502    0  0.19709820508E+02 -0.41949803250E+02 -0.23293338354E+03  0.23753672681E+03  0.41800000000E+01 0.  1.
         -5    1    4    4    0  502 -0.78810579771E+02  0.50939896679E+01 -0.11750669742E+04  0.11777253170E+04  0.41800000000E+01 0.  1.
        -11    1    3    3    0    0  0.73358215906E+02  0.10776201982E+02 -0.22413257891E+03  0.23607830756E+03  0.00000000000E+00 0. -1.
         11    1    3    3    0    0 -0.14257456642E+02  0.26079611600E+02 -0.28494505258E+02  0.41174725755E+02  0.00000000000E+00 0.  1.
</event>
<event>
 8    1  0.9181008E-006  0.1274457E+03  0.7561462E-02  0.1231296E+00
         -4   -1    0    0    0  501 -0.00000000000E+00  0.00000000000E+00  0.25581523528E+03  0.25581523528E+03  0.00000000000E+00 0.  1.
          4   -1    0    0  501    0  0.00000000000E+00 -0.00000000000E+00 -0.71756616414E+02  0.71756616414E+02  0.00000000000E+00 0. -1.
         23    2    1    2    0    0 -0.18990626224E+02 -0.76477579873E+02  0.11924437947E+03  0.16614597055E+03  0.84710078427E+02 0.  0.
         23    2    1    2    0    0  0.18990626224E+02  0.76477579873E+02  0.64814239394E+02  0.16142588114E+03  0.12509182774E+03 0.  0.
          5    1    4    4  502    0 -0.40402881113E+02 -0.10794443005E+02  0.15022129383E+02  0.44632382563E+02  0.41800000000E+01 0. -1.
         -5    1    4    4    0  502  0.59393507338E+02  0.87272022878E+02  0.49792110011E+02  0.11679349858E+03  0.41800000000E+01 0. -1.
        -11    1    3    3    0    0  0.98623468026E+01 -0.77712534761E+02  0.11146242979E+03  0.13623647529E+03  0.00000000000E+00 0.  1.
         11    1    3    3    0    0 -0.28852973027E+02  0.12349548882E+01  0.77819496772E+01  0.29909495262E+02  0.00000000000E+00 0. -1.
</event>
<event>
 8    1  0.9181008E-006  0.8407626E+02  0.7561462E-02  0.1317866E+00
          3   -1    0    0  501    0  0.00000000000E+00  0.00000000000E+00  0.79025579129E+03  0.79025579129E+03  0.00000000000E+00 0. -1.
         -3   -1    0    0    0  501 -0.00000000000E+00 -0.00000000000E+00 -0.24873825973E+02  0.24873825973E+02  0.00000000000E+00 0.  1.
         23    2    1    2    0    0 -0.26840356484E+02  0.73810673252E+02  0.22573982881E+03  0.25563740175E+03  0.90684015349E+02 0.  0.
         23    2    1    2    0    0  0.26840356484E+02 -0.73810673252E+02  0.53964213651E+03  0.55949221552E+03  0.12509789568E+03 0.  0.
          5    1    4    4  502    0  0.10905984339E+02 -0.52739268051E+00 -0.26787858589E+01  0.11994454182E+02  0.41800000000E+01 0. -1.
         -5    1    4    4    0  502  0.15934372145E+02 -0.73283280571E+02  0.54232092237E+03  0.54749776134E+03  0.41800000000E+01 0. -1.
        -11    1    3    3    0    0  0.34068098176E+01  0.12891026430E+02 -0.56329855740E+01  0.14474648253E+02  0.00000000000E+00 0.  1.
         11    1    3    3    0    0 -0.30247166301E+02  0.60919646821E+02  0.23137281438E+03  0.24116275349E+03  0.00000000000E+00 0. -1.
</event>
<event>
 8    1  0.9181008E-006  0.2738628E+03  0.7561462E-02  0.1099089E+00
         -2   -1    0    0    0  501 -0.00000000000E+00  0.00000000000E+00  0.43774871640E+02  0.43774871640E+02  0.00000000000E+00 0.  1.
          2   -1    0    0  501    0  0.00000000000E+00 -0.00000000000E+00 -0.21417882846E+04  0.21417882846E+04  0.00000000000E+00 0. -1.
         23    2    1    2    0    0 -0.18713005658E+03  0.17861319912E+03 -0.58679996645E+03  0.64727277191E+03  0.87792412336E+02 0.  0.
         23    2    1    2    0    0  0.18713005658E+03 -0.17861319912E+03 -0.15112134465E+04  0.15382903843E+04  0.12510352758E+03 0.  0.
          5    1    4    4  502    0  0.18150598486E+03 -0.10050866829E+03 -0.11615292767E+04  0.11799212465E+04  0.41800000000E+01 0. -1.
         -5    1    4    4    0  502  0.56240717158E+01 -0.78104530826E+02 -0.34968416977E+03  0.35836913777E+03  0.41800000000E+01 0. -1.
        -11    1    3    3    0    0 -0.85279721175E+02  0.54381311166E+02 -0.32242294202E+03  0.33791494698E+03  0.00000000000E+00 0.  1.
         11    1    3    3    0    0 -0.10185033540E+03  0.12423188795E+03 -0.26437702443E+03  0.30935782494E+03  0.00000000000E+00 0. -1.
</event>
<event>
 8    1  0.9181008E-006  0.8491408E+02  0.7561462E-02  0.1315657E+00
          2   -1    0    0  501    0  0.00000000000E+00  0.00000000000E+00  0.12169420441E+03  0.12169420441E+03  0.00000000000E+00 0. -1.
         -2   -1    0    0    0  501 -0.00000000000E+00 -0.00000000000E+00 -0.12392757084E+03  0.12392757084E+03  0.00000000000E+00 0.  1.
         23    2    1    2    0    0 -0.21925227740E+02  0.50387211890E+02 -0.21913736923E+02  0.10758755326E+03  0.89862578510E+02 0.  0.
         23    2    1    2    0    0  0.21925227740E+02 -0.50387211890E+02  0.19680370500E+02  0.13803422199E+03  0.12508614121E+03 0.  0.
          5    1    4    4  502    0  0.47407676967E+02 -0.62313188632E+02  0.52684392268E+02  0.94464484869E+02  0.41800000000E+01 0.  1.
         -5    1    4    4    0  502 -0.25482449228E+02  0.11925976741E+02 -0.33004021768E+02  0.43569737120E+02  0.41800000000E+01 0.  1.
        -11    1    3    3    0    0  0.67642662622E+01  0.20323369065E+02  0.32620601110E+02  0.39024328886E+02  0.00000000000E+00 0. -1.
         11    1    3    3    0    0 -0.28689494002E+02  0.30063842825E+02 -0.54534338033E+02  0.68563224372E+02  0.00000000000E+00 0.  1.
</event>
<event>
 8    1  0.9181008E-006  0.1036529E+03  0.7561462E-02  0.1272797E+00
         -2   -1    0    0    0  501 -0.00000000000E+00  0.00000000000E+00  0.53617860029E+02  0.53617860029E+02  0.00000000000E+00 0.  1.
          2   -1    0    0  501    0  0.00000000000E+00 -0.00000000000E+00 -0.22466777446E+03  0.22466777446E+03  0.00000000000E+00 0. -1.
         23    2    1    2    0    0  0.11511178987E+02  0.11385615615E+02 -0.50989042993E+02  0.10414809850E+03  0.89357732917E+02 0.  0.
         23    2    1    2    0    0 -0.11511178987E+02 -0.11385615615E+02 -0.12006087143E+03  0.17413753598E+03  0.12508848510E+03 0.  0.
          5    1    4    4  502    0  0.48203778197E+02  0.25099281048E+02 -0.66075198911E+02  0.85656187475E+02  0.41800000000E+01 0. -1.
         -5    1    4    4    0  502 -0.59714957184E+02 -0.36484896663E+02 -0.53985672523E+02  0.88481348508E+02  0.41800000000E+01 0. -1.
        -11    1    3    3    0    0 -0.23974124886E+02 -0.23043134239E+02 -0.42531316457E+02  0.53987568746E+02  0.00000000000E+00 0. -1.
         11    1    3    3    0    0  0.35485303872E+02  0.34428749854E+02 -0.84577265361E+01  0.50160529758E+02  0.00000000000E+00 0.  1.
</event>
<event>
 8    1  0.9181008E-006  0.1070781E+03  0.7561462E-02  0.1266079E+00
          2   -1    0    0  501    0  0.00000000000E+00  0.00000000000E+00  0.10784425071E+03  0.10784425071E+03  0.00000000000E+00 0. -1.
         -2   -1    0    0    0  501 -0.00000000000E+00 -0.00000000000E+00 -0.18972372595E+03  0.18972372595E+03  0.00000000000E+00 0.  1.
         23    2    1    2    0    0  0.80911508313E+02 -0.41215745576E+02 -0.12666697997E+02  0.12820391475E+03  0.89612435847E+02 0.  0.
         23    2    1    2    0    0 -0.80911508313E+02  0.41215745576E+02 -0.69212777241E+02  0.16936406191E+03  0.12509343338E+03 0.  0.
          5    1    4    4  502    0  0.12424331348E+02  0.24550456387E+02 -0.69063093827E+02  0.74459870046E+02  0.41800000000E+01 0.  1.
         -5    1    4    4    0  502 -0.93335839661E+02  0.16665289189E+02 -0.14968341367E+00  0.94904191868E+02  0.41800000000E+01 0.  1.
        -11    1    3    3    0    0  0.24158267297E+02 -0.70014870855E+01 -0.47195264835E+02  0.53479301819E+02  0.00000000000E+00 0.  1.
         11    1    3    3    0    0  0.56753241016E+02 -0.34214258490E+02  0.34528566839E+02  0.74724612932E+02  0.00000000000E+00 0. -1.
</event>
<event>
 8    1  0.9181008E-006  0.1062996E+03  0.7561462E-02  0.1267580E+00
          2   -1    0    0  501    0  0.00000000000E+00  0.00000000000E+00  0.18712975710E+03  0.18712975710E+03  0.00000000000E+00 0. -1.
         -2   -1    0    0    0  501 -0.00000000000E+00 -0.00000000000E+00 -0.83507493803E+02  0.83507493803E+02  0.00000000000E+00 0.  1.
         23    2    1    2    0    0 -0.70325456163E+01 -0.14426289925E+02 -0.17549620328E+02  0.95741422755E+02  0.92740801801E+02 0.  0.
         23    2    1    2    0    0  0.70325456163E+01  0.14426289925E+02  0.12117188362E+03  0.17489582815E+03  0.12509336826E+03 0.  0.
          5    1    4    4  502    0 -0.57175890314E+02  0.19364476455E+02  0.47284996919E+02  0.76794587799E+02  0.41800000000E+01 0. -1.
         -5    1    4    4    0  502  0.64208435930E+02 -0.49381865295E+01  0.73886886706E+02  0.98101240348E+02  0.41800000000E+01 0. -1.
        -11    1    3    3    0    0  0.41673673342E+01  0.35827151682E+02 -0.24764574218E+02  0.43751981490E+02  0.00000000000E+00 0.  1.
         11    1    3    3    0    0 -0.11199912951E+02 -0.50253441607E+02  0.72149538891E+01  0.51989441265E+02  0.00000000000E+00 0. -1.
</event>
<event>
 8    1  0.9181008E-006  0.1507844E+03  0.7561462E-02  0.1199512E+00
         -1   -1    0    0    0  501 -0.00000000000E+00  0.00000000000E+00  0.63707077722E+02  0.63707077722E+02  0.00000000000E+00 0.  1.
          1   -1    0    0  501    0  0.00000000000E+00 -0.00000000000E+00 -0.47300380555E+03  0.47300380555E+03  0.00000000000E+00 0. -1.
         23    2    1    2    0    0  0.12502203377E+03 -0.10546494614E+02 -0.17150819250E+03  0.24017702631E+03  0.11192947063E+03 0.  0.
         23    2    1    2    0    0 -0.12502203377E+03  0.10546494614E+02 -0.23778853533E+03  0.29653385696E+03  0.12508878172E+03 0.  0.
          5    1    4    4  502    0 -0.33503552179E+02  0.57214061440E+02 -0.13847287966E+03  0.15358433395E+03  0.41800000000E+01 0. -1.
         -5    1    4    4    0  502 -0.91518481592E+02 -0.46667566826E+02 -0.99315655670E+02  0.14294952301E+03  0.41800000000E+01 0. -1.
        -11    1    3    3    0    0  0.73825391065E+02 -0.26902217344E+02 -0.22439859278E+02  0.81715757038E+02  0.00000000000E+00 0.  1.
         11    1    3    3    0    0  0.51196642706E+02  0.16355722731E+02 -0.14906833322E+03  0.15846126927E+03  0.00000000000E+00 0. -1.
</event>
<event>
 8    1  0.9181008E-006  0.1837893E+03  0.7561462E-02  0.1164185E+00
          1   -1    0    0  501    0  0.00000000000E+00  0.00000000000E+00  0.31537517937E+03  0.31537517937E+03  0.00000000000E+00 0. -1.
         -1   -1    0    0    0  501 -0.00000000000E+00 -0.00000000000E+00 -0.12052093417E+03  0.12052093417E+03  0.00000000000E+00 0.  1.
         23    2    1    2    0    0  0.13282296610E+03  0.68261165757E+02  0.24231339881E+02  0.17693551132E+03  0.91746881463E+02 0.  0.
         23    2    1    2    0    0 -0.13282296610E+03 -0.68261165757E+02  0.17062290532E+03  0.25896060223E+03  0.12508753179E+03 0.  0.
          5    1    4    4  502    0  0.22189743103E+02  0.18187954421E+01  0.93362265741E+01  0.24501637547E+02  0.41800000000E+01 0.  1.
         -5    1    4    4    0  502 -0.15501270921E+03 -0.70079961200E+02  0.16128667875E+03  0.23445896468E+03  0.41800000000E+01 0.  1.
        -11    1    3    3    0    0  0.32330940243E+02 -0.22463928122E+02 -0.15658396864E+00  0.39369306346E+02  0.00000000000E+00 0. -1.
         11    1    3    3    0    0  0.10049202586E+03  0.90725093879E+02  0.24387923849E+02  0.13756620497E+03  0.00000000000E+00 0.  1.
</event>
<event>
 7    1  0.9181008E-006  0.9915201E+02  0.7561462E-02  0.1282089E+00
          1   -1    0    0  501    0  0.00000000000E+00  0.00000000000E+00  0.41079344864E+03  0.41079344864E+03  0.00000000000E+00 0. -1.
         -1   -1    0    0    0  501 -0.00000000000E+00 -0.00000000000E+00 -0.96685681869E+02  0.96685681869E+02  0.00000000000E+00 0.  1.
         23    2    1    2    0    0 -0.65142726209E+02  0.34728092056E+02 -0.39324423524E+02  0.12303848742E+03  0.90235491604E+02 0.  0.
          5    1    1    2  502    0  0.79111264103E+02 -0.49711766185E+02  0.35117048302E+03  0.36341165688E+03  0.41800000000E+01 0. -1.
         -5    1    1    2    0  502 -0.13968537894E+02  0.14983674129E+02  0.22617072660E+01  0.21028986211E+02  0.41800000000E+01 0.  1.
        -11    1    3    3    0    0 -0.31695510950E+02 -0.48358936774E+01  0.24847843782E+02  0.40563612051E+02  0.00000000000E+00 0. -1.
         11    1    3    3    0    0 -0.33447215260E+02  0.39563985733E+02 -0.64172267306E+02  0.82474875368E+02  0.00000000000E+00 0.  1.
</event>
<event>
 8    1  0.9181008E-006  0.2091152E+03  0.7561462E-02  0.1142269E+00
         -1   -1    0    0    0  501 -0.00000000000E+00  0.00000000000E+00  0.18060028975E+03  0.18060028975E+03  0.00000000000E+00 0.  1.
          1   -1    0    0  501    0  0.00000000000E+00 -0.00000000000E+00 -0.32464798566E+03  0.32464798566E+03  0.00000000000E+00 0. -1.
         23    2    1    2    0    0  0.39645844131E+02  0.18208467710E+03  0.41299121467E+02  0.21416902945E+03  0.97139760908E+02 0.  0.
         23    2    1    2    0    0 -0.39645844131E+02 -0.18208467710E+03 -0.18534681738E+03  0.29107924596E+03  0.12508821737E+03 0.  0.
          5    1    4    4  502    0 -0.77342848095E+02 -0.10467005906E+03 -0.14800912762E+03  0.19713424785E+03  0.41800000000E+01 0.  1.
         -5    1    4    4    0  502  0.37697003964E+02 -0.77414618038E+02 -0.37337689764E+02  0.93944998115E+02  0.41800000000E+01 0.  1.
        -11    1    3    3    0    0 -0.23184678307E+02  0.63682026964E+02  0.42736546861E+02  0.80120798199E+02  0.00000000000E+00 0.  1.
         11    1    3    3    0    0  0.62830522438E+02  0.11840265014E+03 -0.14374253941E+01  0.13404823125E+03  0.00000000000E+00 0. -1.
</event>
<event>
 8    1  0.9181008E-006  0.1649954E+03  0.7561462E-02  0.1183170E+00
         -1   -1    0    0    0  501 -0.00000000000E+00  0.00000000000E+00  0.55581536903E+02  0.55581536903E+02  0.00000000000E+00 0.  1.
          1   -1    0    0  501    0  0.00000000000E+00 -0.00000000000E+00 -0.51520873186E+03  0.51520873186E+03  0.00000000000E+00 0. -1.
         23    2    1    2    0    0  0.68671510852E+02 -0.10544275047E+03 -0.17023675301E+03  0.23133675079E+03  0.93285530306E+02 0.  0.
         23    2    1    2    0    0 -0.68671510852E+02  0.10544275047E+03 -0.28939044195E+03  0.33945351797E+03  0.12509161819E+03 0.  0.
          5    1    4    4  502    0 -0.95402858665E+02  0.11164558627E+03 -0.26244591104E+03  0.30076863367E+03  0.41800000000E+01 0. -1.
         -5    1    4    4    0  502  0.26731347813E+02 -0.62028357981E+01 -0.26944530906E+02  0.38684884303E+02  0.41800000000E+01 0. -1.
        -11    1    3    3    0    0  0.82780410607E+02 -0.46991819853E+02 -0.11862493677E+03  0.15209438891E+03  0.00000000000E+00 0.  1.
         11    1    3    3    0    0 -0.14108899755E+02 -0.58450930615E+02 -0.51611816239E+02  0.79242361888E+02  0.00000000000E+00 0. -1.
</event>
<event>
 8    1  0.9181008E-006  0.1021649E+03  0.7561462E-02  0.1275808E+00
         -1   -1    0    0    0  501 -0.00000000000E+00  0.00000000000E+00  0.32986496197E+02  0.32986496197E+02  0.00000000000E+00 0.  1.
          1   -1    0    0  501    0  0.00000000000E+00 -0.00000000000E+00 -0.51700362562E+03  0.51700362562E+03  0.00000000000E+00 0. -1.
         23    2    1    2    0    0  0.32269029199E+02 -0.81195383688E+01 -0.73225773260E+02  0.11928881040E+03  0.88094206775E+02 0.  0.
         23    2    1    2    0    0 -0.32269029199E+02  0.81195383688E+01 -0.41079135616E+03  0.43070131142E+03  0.12508742628E+03 0.  0.
          5    1    4    4  502    0 -0.71963180343E+02  0.35282970258E+02 -0.28036808633E+03  0.29162874267E+03  0.41800000000E+01 0. -1.
         -5    1    4    4    0  502  0.39694151144E+02 -0.27163431889E+02 -0.13042326983E+03  0.13907256875E+03  0.41800000000E+01 0. -1.
        -11    1    3    3    0    0 -0.12812456282E+02 -0.24646896291E+02  0.42891188759E+01  0.28107384678E+02  0.00000000000E+00 0.  1.
         11    1    3    3    0    0  0.45081485481E+02  0.16527357922E+02 -0.77514892136E+02  0.91181425718E+02  0.00000000000E+00 0. -1.
</event>
<event>
 8    1  0.9181008E-006  0.1167756E+03  0.7561462E-02  0.1248513E+00
         -4   -1    0    0    0  501 -0.00000000000E+00  0.00000000000E+00  0.71122254338E+03  0.71122254338E+03  0.00000000000E+00 0. -1.
          4   -1    0    0  501    0  0.00000000000E+00 -0.00000000000E+00 -0.29000827285E+02  0.29000827285E+02  0.00000000000E+00 0.  1.
         23    2    1    2    0    0 -0.44767573390E+02 -0.27260478591E+02  0.51134775516E+03  0.52206506066E+03  0.91258597025E+02 0.  0.
         23    2    1    2    0    0  0.44767573390E+02  0.27260478591E+02  0.17087396094E+03  0.21815831001E+03  0.12509144007E+03 0.  0.
          5    1    4    4  502    0  0.64735809674E+02 -0.27133091759E+02  0.12769563052E+03  0.14577577362E+03  0.41800000000E+01 0.  1.
         -5    1    4    4    0  502 -0.19968236284E+02  0.54393570350E+02  0.43178330418E+02  0.72382536384E+02  0.41800000000E+01 0.  1.
        -11    1    3    3    0    0 -0.32581534584E+01  0.32343651476E+02  0.14784276983E+03  0.15137440981E+03  0.00000000000E+00 0.  1.
         11    1    3    3    0    0 -0.41509419932E+02 -0.59604130068E+02  0.36350498533E+03  0.37069065085E+03  0.00000000000E+00 0. -1.
</event>
<event>
 8    1  0.9181008E-006  0.1005774E+03  0.7561462E-02  0.1279086E+00
         -1   -1    0    0    0  501 -0.00000000000E+00  0.00000000000E+00  0.15928905514E+03  0.15928905514E+03  0.00000000000E+00 0.  1.
          1   -1    0    0  501    0  0.00000000000E+00 -0.00000000000E+00 -0.31101834810E+03  0.31101834810E+03  0.00000000000E+00 0. -1.
         23    2    1    2    0    0 -0.23841005861E+02 -0.66555454528E+02  0.12049514812E+03  0.16714495718E+03  0.91762377384E+02 0.  0.
         23    2    1    2    0    0  0.23841005861E+02  0.66555454528E+02 -0.27222444108E+03  0.30316244606E+03  0.11315166942E+03 0.  0.
          5    1    4    4  502    0  0.63709211835E-01  0.68787128076E+02 -0.27018133181E+03  0.27883166518E+03  0.41800000000E+01 0. -1.
         -5    1    4    4    0  502  0.23777296649E+02 -0.22316735486E+01 -0.20431092701E+01  0.24330780880E+02  0.41800000000E+01 0.  1.
        -11    1    3    3    0    0  0.10510052742E+02  0.15678681030E+02  0.50220602675E+02  0.53650640075E+02  0.00000000000E+00 0. -1.
         11    1    3    3    0    0 -0.34351058603E+02 -0.82234135557E+02  0.70274545447E+02  0.11349431711E+03  0.00000000000E+00 0.  1.
</event>
<event>
 8    1  0.9181008E-006  0.1222030E+03  0.7561462E-02  0.1239506E+00
          1   -1    0    0  501    0  0.00000000000E+00  0.00000000000E+00  0.35558869355E+03  0.35558869355E+03  0.00000000000E+00 0. -1.
         -1   -1    0    0    0  501 -0.00000000000E+00 -0.00000000000E+00 -0.44700509292E+02  0.44700509292E+02  0.00000000000E+00 0.  1.
         23    2    1    2    0    0  0.35749091509E+00  0.50610004175E+02  0.14195348209E+03  0.18407631292E+03  0.10569672454E+03 0.  0.
         23    2    1    2    0    0 -0.35749091509E+00 -0.50610004175E+02  0.16893470216E+03  0.21621288992E+03  0.12509028679E+03 0.  0.
          5    1    4    4  502    0 -0.18662656602E+02  0.38380147553E+02  0.67558133366E+02  0.80018149576E+02  0.41800000000E+01 0. -1.
         -5    1    4    4    0  502  0.18305165687E+02 -0.88990151728E+02  0.10137656880E+03  0.13619474034E+03  0.41800000000E+01 0. -1.
        -11    1    3    3    0    0 -0.22978198181E+02 -0.23506556266E+02  0.17192559396E+02  0.37096359360E+02  0.00000000000E+00 0.  1.
         11    1    3    3    0    0  0.23335689097E+02  0.74116560441E+02  0.12476092270E+03  0.14697995356E+03  0.00000000000E+00 0. -1.
</event>
<event>
 8    1  0.9181008E-006  0.1245033E+03  0.7561462E-02  0.1235848E+00
          2   -1    0    0  501    0  0.00000000000E+00  0.00000000000E+00  0.15346441825E+03  0.15346441825E+03  0.00000000000E+00 0. -1.
         -2   -1    0    0    0  501 -0.00000000000E+00 -0.00000000000E+00 -0.18194807478E+03  0.18194807478E+03  0.00000000000E+00 0.  1.
         23    2    1    2    0    0 -0.24364055727E+02 -0.86476101590E+02 -0.10783763465E+03  0.16862157029E+03  0.93448141565E+02 0.  0.
         23    2    1    2    0    0  0.24364055727E+02  0.86476101590E+02  0.79353978131E+02  0.16679092274E+03  0.11597600918E+03 0.  0.
          5    1    4    4  502    0 -0.59424559361E+01  0.10731245044E+03  0.46060154823E+02  0.11700549160E+03  0.41800000000E+01 0. -1.
         -5    1    4    4    0  502  0.30306511663E+02 -0.20836348854E+02  0.33293823309E+02  0.49785431135E+02  0.41800000000E+01 0.  1.
        -11    1    3    3    0    0 -0.41062989560E+02 -0.68757227341E+02 -0.11769163470E+03  0.14235535220E+03  0.00000000000E+00 0.  1.
         11    1    3    3    0    0  0.16698933833E+02 -0.17718874250E+02  0.98540000430E+01  0.26266218088E+02  0.00000000000E+00 0. -1.
</event>
<event>
 8    1  0.9181008E-006  0.1659520E+03  0.7561462E-02  0.1182136E+00
          3   -1    0    0  501    0  0.00000000000E+00  0.00000000000E+00  0.71940768285E+02  0.71940768285E+02  0.00000000000E+00 0. -1.
         -3   -1    0    0    0  501 -0.00000000000E+00 -0.00000000000E+00 -0.41123439284E+03  0.41123439284E+03  0.00000000000E+00 0.  1.
         23    2    1    2    0    0 -0.99811239978E+02  0.78660741441E+02 -0.16497815614E+03  0.23380934529E+03  0.10629779899E+03 0.  0.
         23    2    1    2    0    0  0.99811239978E+02 -0.78660741441E+02 -0.17431546842E+03  0.24936581584E+03  0.12509049408E+03 0.  0.
          5    1    4    4  502    0  0.65385160572E+02 -0.10445953416E+03 -0.83879300303E+02  0.14913156245E+03  0.41800000000E+01 0.  1.
         -5    1    4    4    0  502  0.34426079406E+02  0.25798792719E+02 -0.90436168113E+02  0.10023425339E+03  0.41800000000E+01 0.  1.
        -11    1    3    3    0    0  0.21694994664E+02  0.21844973980E+01 -0.17184736515E+02  0.27762564569E+02  0.00000000000E+00 0.  1.
         11    1    3    3    0    0 -0.12150623464E+03  0.76476244043E+02 -0.14779341963E+03  0.20604678072E+03  0.00000000000E+00 0. -1.
</event>
<event>
 8    1  0.9181008E-006  0.6369485E+02  0.7561462E-02  0.1382949E+00
          2   -1    0    0  501    0  0.00000000000E+00  0.00000000000E+00  0.21429652922E+03  0.21429652922E+03  0.00000000000E+00 0. -1.
         -2   -1    0    0    0  501 -0.00000000000E+00 -0.00000000000E+00 -0.92520914361E+02  0.92520914361E+02  0.00000000000E+00 0.  1.
         23    2    1    2    0    0 -0.33011092000E+02  0.27633940349E+02 -0.28199617944E+02  0.10683384464E+03  0.93620964822E+02 0.  0.
         23    2    1    2    0    0  0.33011092000E+02 -0.27633940349E+02  0.14997523281E+03  0.19998359894E+03  0.12508997776E+03 0.  0.
          5    1    4    4  502    0  0.27366349104E+02  0.14294940157E+00  0.16522398356E+03  0.16752723553E+03  0.41800000000E+01 0. -1.
         -5    1    4    4    0  502  0.56447428961E+01 -0.27776889751E+02 -0.15248750759E+02  0.32456363417E+02  0.41800000000E+01 0. -1.
        -11    1    3    3    0    0 -0.46990143950E+02  0.31474698142E+02  0.17248951089E+02  0.59129151569E+02  0.00000000000E+00 0. -1.
         11    1    3    3    0    0  0.13979051950E+02 -0.38407577932E+01 -0.45448569033E+02  0.47704693071E+02  0.00000000000E+00 0.  1.
</event>
<event>
 8    1  0.9181008E-006  0.1221124E+03  0.7561462E-02  0.1239652E+00
         -1   -1    0    0    0  501 -0.00000000000E+00  0.00000000000E+00  0.19319409237E+02  0.19319409237E+02  0.00000000000E+00 0.  1.
          1   -1    0    0  501    0  0.00000000000E+00 -0.00000000000E+00 -0.10259831569E+04  0.10259831569E+04  0.00000000000E+00 0. -1.
         23    2    1    2    0    0  0.69696766100E+02  0.16071545566E+02 -0.25138614095E+03  0.27640716383E+03  0.89944397122E+02 0.  0.
         23    2    1    2    0    0 -0.69696766100E+02 -0.16071545566E+02 -0.75527760670E+03  0.76889540230E+03  0.12505975654E+03 0.  0.
          5    1    4    4  502    0 -0.21960625744E+00 -0.54046780343E+02 -0.17437716195E+03  0.18260878868E+03  0.41800000000E+01 0.  1.
         -5    1    4    4    0  502 -0.69477159842E+02  0.37975234777E+02 -0.58090044475E+03  0.58628661362E+03  0.41800000000E+01 0.  1.
        -11    1    3    3    0    0  0.75372361473E+00  0.38286572696E+02 -0.54406765088E+02  0.66532141371E+02  0.00000000000E+00 0. -1.
         11    1    3    3    0    0  0.68943042485E+02 -0.22215027130E+02 -0.19697937587E+03  0.20987502246E+03  0.00000000000E+00 0.  1.
</event>
<event>
 8    1  0.9181008E-006  0.1180847E+03  0.7561462E-02  0.1246291E+00
          1   -1    0    0  501    0  0.00000000000E+00  0.00000000000E+00  0.10150938334E+04  0.10150938334E+04  0.00000000000E+00 0. -1.
         -1   -1    0    0    0  501 -0.00000000000E+00 -0.00000000000E+00 -0.15483137770E+02  0.15483137770E+02  0.00000000000E+00 0.  1.
         23    2    1    2    0    0 -0.51668537215E+02 -0.27540711226E+02  0.41186762754E+03  0.42682402431E+03  0.95476052526E+02 0.  0.
         23    2    1    2    0    0  0.51668537215E+02  0.27540711226E+02  0.58774306810E+03  0.60375294687E+03  0.12509028033E+03 0.  0.
          5    1    4    4  502    0 -0.28391917226E+02 -0.16440061660E+02  0.63519773229E+02  0.71614318277E+02  0.41800000000E+01 0. -1.
         -5    1    4    4    0  502  0.80060454441E+02  0.43980772886E+02  0.52422329487E+03  0.53213862859E+03  0.41800000000E+01 0. -1.
        -11    1    3    3    0    0  0.70128165829E+01 -0.48754932875E+02  0.16524268440E+03  0.17242786266E+03  0.00000000000E+00 0.  1.
         11    1    3    3    0    0 -0.58681353798E+02  0.21214221649E+02  0.24662494314E+03  0.25439616165E+03  0.00000000000E+00 0. -1.
</event>
<event>
 8    1  0.9181008E-006  0.1142890E+03  0.7561462E-02  0.1252827E+00
         -2   -1    0    0    0  501 -0.00000000000E+00  0.00000000000E+00  0.58805415751E+03  0.58805415751E+03  0.00000000000E+00 0.  1.
          2   -1    0    0  501    0  0.00000000000E+00 -0.00000000000E+00 -0.55617224947E+02  0.55617224947E+02  0.00000000000E+00 0. -1.
         23    2    1    2    0    0  0.74609865715E+02  0.48661271329E+02  0.45185995787E+03  0.47025073627E+03  0.94993589500E+02 0.  0.
         23    2    1    2    0    0 -0.74609865715E+02 -0.48661271329E+02  0.80576974686E+02  0.17342064618E+03  0.12509004870E+03 0.  0.
          5    1    4    4  502    0 -0.63737253985E+02 -0.14551228545E+02 -0.18432431876E+02  0.68054410163E+02  0.41800000000E+01 0. -1.
         -5    1    4    4    0  502 -0.10872611730E+02 -0.34110042784E+02  0.99009406562E+02  0.10536623602E+03  0.41800000000E+01 0. -1.
        -11    1    3    3    0    0  0.92723381449E+02  0.55028896365E+02  0.41386789372E+03  0.42768263743E+03  0.00000000000E+00 0. -1.
         11    1    3    3    0    0 -0.18113515734E+02 -0.63676250357E+01  0.37992064149E+02  0.42568098843E+02  0.00000000000E+00 0.  1.
</event>
<event>
 8    1  0.9181008E-006  0.8038461E+02  0.7561462E-02  0.1327963E+00
          1   -1    0    0  501    0  0.00000000000E+00  0.00000000000E+00  0.96221354357E+03  0.96221354357E+03  0.00000000000E+00 0. -1.
         -1   -1    0    0    0  501 -0.00000000000E+00 -0.00000000000E+00 -0.15622536354E+02  0.15622536354E+02  0.00000000000E+00 0.  1.
         23    2    1    2    0    0 -0.55590728661E+02  0.62827708078E+01  0.37130005790E+03  0.38645107335E+03  0.91383241223E+02 0.  0.
         23    2    1    2    0    0  0.55590728661E+02 -0.62827708078E+01  0.57529094932E+03  0.59138500657E+03  0.12508695899E+03 0.  0.
          5    1    4    4  502    0  0.51901496043E+02 -0.82089732540E+01  0.58087539818E+03  0.58326225075E+03  0.41800000000E+01 0. -1.
         -5    1    4    4    0  502  0.36892326176E+01  0.19262024462E+01 -0.55844488613E+01  0.81227558289E+01  0.41800000000E+01 0. -1.
        -11    1    3    3    0    0 -0.22853239538E+02 -0.39642924199E+02  0.22606360082E+03  0.23064818146E+03  0.00000000000E+00 0. -1.
         11    1    3    3    0    0 -0.32737489122E+02  0.45925695007E+02  0.14523645708E+03  0.15580289189E+03  0.00000000000E+00 0.  1.
</event>
<event>
 8    1  0.9181008E-006  0.1012468E+03  0.7561462E-02  0.1277696E+00
         -2   -1    0    0    0  501 -0.00000000000E+00  0.00000000000E+00  0.27950171338E+03  0.27950171338E+03  0.00000000000E+00 0.  1.
          2   -1    0    0  501    0  0.00000000000E+00 -0.00000000000E+00 -0.66968119871E+02  0.66968119871E+02  0.00000000000E+00 0. -1.
         23    2    1    2    0    0 -0.15705094931E+02  0.73544880366E+02  0.13952480349E+03  0.18327241850E+03  0.92011462111E+02 0.  0.
         23    2    1    2    0    0  0.15705094931E+02 -0.73544880366E+02  0.73008790026E+02  0.16319741476E+03  0.12509042060E+03 0.  0.
          5    1    4    4  502    0 -0.26223249008E+02 -0.43515382661E+02  0.94338937570E+02  0.10723131473E+03  0.41800000000E+01 0.  1.
         -5    1    4    4    0  502  0.41928343939E+02 -0.30029497704E+02 -0.21330147544E+02  0.55966100026E+02  0.41800000000E+01 0.  1.
        -11    1    3    3    0    0 -0.95894329494E+01 -0.11236663417E+02 -0.50071007403E+01  0.15597784678E+02  0.00000000000E+00 0. -1.
         11    1    3    3    0    0 -0.61156619814E+01  0.84781543783E+02  0.14453190423E+03  0.16767463382E+03  0.00000000000E+00 0.  1.
</event>
<event>
 8    1  0.9181008E-006  0.9667211E+02  0.7561462E-02  0.1287454E+00
         -1   -1    0    0    0  501 -0.00000000000E+00  0.00000000000E+00  0.34204584200E+03  0.34204584200E+03  0.00000000000E+00 0.  1.
          1   -1    0    0  501    0  0.00000000000E+00 -0.00000000000E+00 -0.36030894197E+02  0.36030894197E+02  0.00000000000E+00 0. -1.
         23    2    1    2    0    0 -0.23323275290E+02 -0.10527573995E+02  0.13457863001E+03  0.16431984285E+03  0.90745788410E+02 0.  0.
         23    2    1    2    0    0  0.23323275290E+02  0.10527573995E+02  0.17143631780E+03  0.21375689335E+03  0.12508714327E+03 0.  0.
          5    1    4    4  502    0  0.55674396263E+01  0.53200734597E+02  0.23253021549E+02  0.58476405129E+02  0.41800000000E+01 0.  1.
         -5    1    4    4    0  502  0.17755835663E+02 -0.42673160602E+02  0.14818329625E+03  0.15528048822E+03  0.41800000000E+01 0.  1.
        -11    1    3    3    0    0 -0.92895596246E+01  0.39884740193E+02  0.71122248247E+02  0.82069864225E+02  0.00000000000E+00 0. -1.
         11    1    3    3    0    0 -0.14033715665E+02 -0.50412314188E+02  0.63456381765E+02  0.82249978625E+02  0.00000000000E+00 0.  1.
</event>
<event>
 8    1  0.9181008E-006  0.1052061E+03  0.7561462E-02  0.1269714E+00
         -1   -1    0    0    0  501 -0.00000000000E+00  0.00000000000E+00  0.13539810511E+02  0.13539810511E+02  0.00000000000E+00 0.  1.
          1   -1    0    0  501    0  0.00000000000E+00 -0.00000000000E+00 -0.14046365788E+04  0.14046365788E+04  0.00000000000E+00 0. -1.
         23    2    1    2    0    0 -0.28863686306E+02  0.64973977855E+02 -0.39166250157E+03  0.40843829913E+03  0.91474580447E+02 0.  0.
         23    2    1    2    0    0  0.28863686306E+02 -0.64973977855E+02 -0.99943426670E+03  0.10097380902E+04  0.12508967624E+03 0.  0.
          5    1    4    4  502    0 -0.35212282660E+02 -0.27365256845E+02 -0.13780922149E+03  0.14490554185E+03  0.41800000000E+01 0.  1.
         -5    1    4    4    0  502  0.64075968966E+02 -0.37608721010E+02 -0.86162504521E+03  0.86483254832E+03  0.41800000000E+01 0.  1.
        -11    1    3    3    0    0  0.17393960080E+02  0.22202868181E+02 -0.29412323845E+02  0.40750484620E+02  0.00000000000E+00 0.  1.
         11    1    3    3    0    0 -0.46257646386E+02  0.42771109674E+02 -0.36225017773E+03  0.36768781451E+03  0.00000000000E+00 0. -1.
</event>
<event>
 8    1  0.9181008E-006  0.1306240E+03  0.7561462E-02  0.1226533E+00
          1   -1    0    0  501    0  0.00000000000E+00  0.00000000000E+00  0.85160198188E+02  0.85160198188E+02  0.00000000000E+00 0. -1.
         -1   -1    0    0    0  501 -0.00000000000E+00 -0.00000000000E+00 -0.25860829002E+03  0.25860829002E+03  0.00000000000E+00 0.  1.
         23    2    1    2    0    0  0.92292012846E+02  0.36134688974E+02 -0.98168928258E+02  0.16730993269E+03  0.92368521250E+02 0.  0.
         23    2    1    2    0    0 -0.92292012846E+02 -0.36134688974E+02 -0.75279163578E+02  0.17645855553E+03  0.12508852052E+03 0.  0.
          5    1    4    4  502    0 -0.10490828367E+03 -0.15857068185E+02 -0.97065990994E+02  0.14386269009E+03  0.41800000000E+01 0.  1.
         -5    1    4    4    0  502  0.12616270821E+02 -0.20277620790E+02  0.21786827416E+02  0.32595865431E+02  0.41800000000E+01 0.  1.
        -11    1    3    3    0    0  0.46840787289E+02  0.62631652908E+02 -0.36676209229E+02  0.86382449741E+02  0.00000000000E+00 0. -1.
         11    1    3    3    0    0  0.45451225558E+02 -0.26496963934E+02 -0.61492719029E+02  0.80927482946E+02  0.00000000000E+00 0.  1.
</event>
<event>
 7    1  0.9181008E-006  0.6488800E+02  0.7561462E-02  0.1378393E+00
         -1   -1    0    0    0  501 -0.00000000000E+00  0.00000000000E+00  0.31430699770E+02  0.31430699770E+02  0.00000000000E+00 0.  1.
          1   -1    0    0  501    0  0.00000000000E+00 -0.00000000000E+00 -0.27417890175E+03  0.27417890175E+03  0.00000000000E+00 0. -1.
         23    2    1    2    0    0 -0.37078344205E+01  0.18193715312E+02 -0.20610564753E+03  0.24181104215E+03  0.12509309673E+03 0.  0.
          5    1    3    3  502    0 -0.45629154343E+02  0.81765421434E+01 -0.18998617511E+03  0.19560443425E+03  0.41800000000E+01 0.  1.
         -5    1    3    3    0  502  0.41921319922E+02  0.10017173168E+02 -0.16119472427E+02  0.46206607900E+02  0.41800000000E+01 0.  1.
        -11    1    1    2    0    0 -0.12820220619E+02  0.28864022673E+01 -0.34509258642E+02  0.36926661192E+02  0.00000000000E+00 0. -1.
         11    1    1    2    0    0  0.16528055039E+02 -0.21080117579E+02 -0.21332958029E+01  0.26871898175E+02  0.00000000000E+00 0.  1.
</event>
<event>
 8    1  0.9181008E-006  0.1337126E+03  0.7561462E-02  0.1222049E+00
          1   -1    0    0  501    0  0.00000000000E+00  0.00000000000E+00  0.10136782682E+04  0.10136782682E+04  0.00000000000E+00 0. -1.
         -1   -1    0    0    0  501 -0.00000000000E+00 -0.00000000000E+00 -0.22032934584E+02  0.22032934584E+02  0.00000000000E+00 0.  1.
         23    2    1    2    0    0 -0.81183150980E+02 -0.41550637869E+02  0.29283682991E+03  0.31996120565E+03  0.91129603637E+02 0.  0.
         23    2    1    2    0    0  0.81183150980E+02  0.41550637869E+02  0.69880850374E+03  0.71574999716E+03  0.12509026354E+03 0.  0.
          5    1    4    4  502    0  0.25222983145E+02 -0.36840509243E+02  0.10512410026E+03  0.11428897959E+03  0.41800000000E+01 0. -1.
         -5    1    4    4    0  502  0.55960167835E+02  0.78391147112E+02  0.59368440348E+03  0.60146101757E+03  0.41800000000E+01 0. -1.
        -11    1    3    3    0    0 -0.26024468522E+02 -0.62085124173E+02  0.12303090298E+03  0.14024421091E+03  0.00000000000E+00 0.  1.
         11    1    3    3    0    0 -0.55158682458E+02  0.20534486304E+02  0.16980592693E+03  0.17971699474E+03  0.00000000000E+00 0. -1.
</event>
<event>
 8    1  0.9181008E-006  0.1491359E+03  0.7561462E-02  0.1201539E+00
          2   -1    0    0  501    0  0.00000000000E+00  0.00000000000E+00  0.46193603632E+03  0.46193603632E+03  0.00000000000E+00 0. -1.
         -2   -1    0    0    0  501 -0.00000000000E+00 -0.00000000000E+00 -0.65149440065E+02  0.65149440065E+02  0.00000000000E+00 0.  1.
         23    2    1    2    0    0  0.38019323735E+02 -0.11290777348E+03  0.10693875351E+03  0.18966414016E+03  0.10170031843E+03 0.  0.
         23    2    1    2    0    0 -0.38019323735E+02  0.11290777348E+03  0.28984784274E+03  0.33742133623E+03  0.12509097453E+03 0.  0.
          5    1    4    4  502    0 -0.17394166607E+02 -0.15877799667E+02  0.54761085286E+01  0.24538168612E+02  0.41800000000E+01 0. -1.
         -5    1    4    4    0  502 -0.20625157128E+02  0.12878557315E+03  0.28437173421E+03  0.31288316761E+03  0.41800000000E+01 0. -1.
        -11    1    3    3    0    0 -0.17505906645E+02 -0.74040635557E+02  0.93541860450E+02  0.12057591856E+03  0.00000000000E+00 0. -1.
         11    1    3    3    0    0  0.55525230379E+02 -0.38867137925E+02  0.13396893063E+02  0.69088221593E+02  0.00000000000E+00 0.  1.
</event>
<event>
 7    1  0.1480204E-005  0.8000966E+03  0.7561462E-02  0.9559877E-01
          2   -1    0    0  501    0  0.00000000000E+00  0.00000000000E+00  0.34470792972E+04  0.34470792972E+04  0.00000000000E+00 0. -1.
         -2   -1    0    0    0  501 -0.00000000000E+00 -0.00000000000E+00 -0.22057201231E+03  0.22057201231E+03  0.00000000000E+00 0.  1.
         23    2    1    2    0    0  0.56504296422E+02  0.12467044319E+01  0.37321248391E+02  0.11388626347E+03  0.91558263629E+02 0.  0.
          5    1    1    2  502    0 -0.17337845028E+03  0.73454017260E+03  0.21222039846E+04  0.22524157203E+04  0.41800000000E+01 0. -1.
         -5    1    1    2    0  502  0.11687415386E+03 -0.73578687703E+03  0.10669820519E+04  0.13013493258E+04  0.41800000000E+01 0.  1.
        -11    1    3    3    0    0 -0.21265800132E+02 -0.66061744820E+01  0.27068586901E+02  0.35051165364E+02  0.00000000000E+00 0. -1.
         11    1    3    3    0    0  0.77770096554E+02  0.78528789139E+01  0.10252661490E+02  0.78835098102E+02  0.00000000000E+00 0.  1.
</event>
<event>
 8    1  0.9181008E-006  0.1583270E+03  0.7561462E-02  0.1190599E+00
         -3   -1    0    0    0  501 -0.00000000000E+00  0.00000000000E+00  0.76691872540E+02  0.76691872540E+02  0.00000000000E+00 0.  1.
          3   -1    0    0  501    0  0.00000000000E+00 -0.00000000000E+00 -0.35573239396E+03  0.35573239396E+03  0.00000000000E+00 0. -1.
         23    2    1    2    0    0  0.22739552802E+01  0.11870270483E+03 -0.14193671202E+03  0.21210401496E+03  0.10366571244E+03 0.  0.
         23    2    1    2    0    0 -0.22739552802E+01 -0.11870270483E+03 -0.13710380940E+03  0.22032025155E+03  0.12509218873E+03 0.  0.
          5    1    4    4  502    0  0.56164393930E+02 -0.79914917694E+02 -0.54705085312E+02  0.11203103130E+03  0.41800000000E+01 0.  1.
         -5    1    4    4    0  502 -0.58438349210E+02 -0.38787787136E+02 -0.82398724090E+02  0.10828922024E+03  0.41800000000E+01 0.  1.
        -11    1    3    3    0    0 -0.43466365995E+02  0.63150385678E+02 -0.37675910272E+02  0.85421135552E+02  0.00000000000E+00 0.  1.
         11    1    3    3    0    0  0.45740321275E+02  0.55552319151E+02 -0.10426080175E+03  0.12668287941E+03  0.00000000000E+00 0. -1.
</event>
<event>
 8    1  0.9181008E-006  0.1485054E+03  0.7561462E-02  0.1202322E+00
         -2   -1    0    0    0  501 -0.00000000000E+00  0.00000000000E+00  0.18608821958E+02  0.18608821958E+02  0.00000000000E+00 0.  1.
          2   -1    0    0  501    0  0.00000000000E+00 -0.00000000000E+00 -0.12868187063E+04  0.12868187063E+04  0.00000000000E+00 0. -1.
         23    2    1    2    0    0  0.51590605368E+02 -0.94969588196E+02 -0.58105480938E+03  0.59866616085E+03  0.95371208456E+02 0.  0.
         23    2    1    2    0    0 -0.51590605368E+02  0.94969588196E+02 -0.68715507495E+03  0.70676136739E+03  0.12509484468E+03 0.  0.
          5    1    4    4  502    0  0.64532953924E+00 -0.25314632556E+02 -0.22128109183E+03  0.22276454178E+03  0.41800000000E+01 0. -1.
         -5    1    4    4    0  502 -0.52235934907E+02  0.12028422075E+03 -0.46587398311E+03  0.48399682561E+03  0.41800000000E+01 0. -1.
        -11    1    3    3    0    0  0.30732813918E+02  0.10616852349E+02 -0.83574223853E+02  0.89676498024E+02  0.00000000000E+00 0.  1.
         11    1    3    3    0    0  0.20857791450E+02 -0.10558644055E+03 -0.49748058552E+03  0.50898966282E+03  0.00000000000E+00 0. -1.
</event>
<event>
 8    1  0.9181008E-006  0.1063040E+03  0.7561462E-02  0.1267571E+00
         -1   -1    0    0    0  501 -0.00000000000E+00  0.00000000000E+00  0.19102663671E+03  0.19102663671E+03  0.00000000000E+00 0.  1.
          1   -1    0    0  501    0  0.00000000000E+00 -0.00000000000E+00 -0.62261245632E+02  0.62261245632E+02  0.00000000000E+00 0. -1.
         23    2    1    2    0    0  0.19969063323E+02  0.29871439174E+02  0.82165578976E+02  0.12750664200E+03  0.90640471185E+02 0.  0.
         23    2    1    2    0    0 -0.19969063323E+02 -0.29871439174E+02  0.46599812104E+02  0.12578124035E+03  0.11116794307E+03 0.  0.
          5    1    4    4  502    0  0.84878901531E+01 -0.68048149855E+02  0.22817207989E+02  0.72392626409E+02  0.41800000000E+01 0. -1.
         -5    1    4    4    0  502 -0.28456953477E+02  0.38176710681E+02  0.23782604114E+02  0.53388613937E+02  0.41800000000E+01 0.  1.
        -11    1    3    3    0    0  0.41085256720E+02 -0.17180981804E+02  0.27436507638E+02  0.52306275024E+02  0.00000000000E+00 0. -1.
         11    1    3    3    0    0 -0.21116193396E+02  0.47052420978E+02  0.54729071339E+02  0.75200366974E+02  0.00000000000E+00 0.  1.
</event>
<event>
 8    1  0.9181008E-006  0.2137956E+03  0.7561462E-02  0.1138595E+00
          1   -1    0    0  501    0  0.00000000000E+00  0.00000000000E+00  0.17069668268E+04  0.17069668268E+04  0.00000000000E+00 0. -1.
         -1   -1    0    0    0  501 -0.00000000000E+00 -0.00000000000E+00 -0.30104589984E+02  0.30104589984E+02  0.00000000000E+00 0.  1.
         23    2    1    2    0    0  0.16238472810E+03 -0.10994114040E+03  0.71124057153E+03  0.74382991683E+03  0.94678087813E+02 0.  0.
         23    2    1    2    0    0 -0.16238472810E+03  0.10994114040E+03  0.96562166534E+03  0.99324150000E+03  0.12509045722E+03 0.  0.
          5    1    4    4  502    0 -0.19266285480E+02  0.82719360978E+02  0.41765837505E+03  0.42622725521E+03  0.41800000000E+01 0. -1.
         -5    1    4    4    0  502 -0.14311844262E+03  0.27221779421E+02  0.54796329029E+03  0.56701424479E+03  0.41800000000E+01 0. -1.
        -11    1    3    3    0    0  0.82518254488E+02 -0.45798422575E+02  0.18466527170E+03  0.20738375155E+03  0.00000000000E+00 0.  1.
         11    1    3    3    0    0  0.79866473610E+02 -0.64142717824E+02  0.52657529983E+03  0.53644616528E+03  0.00000000000E+00 0. -1.
</event>
<event>
 8    1  0.9181008E-006  0.1135454E+03  0.7561462E-02  0.1254142E+00
         -2   -1    0    0    0  501 -0.00000000000E+00  0.00000000000E+00  0.10573541826E+02  0.10573541826E+02  0.00000000000E+00 0.  1.
          2   -1    0    0  501    0  0.00000000000E+00 -0.00000000000E+00 -0.17874258193E+04  0.17874258193E+04  0.00000000000E+00 0. -1.
         23    2    1    2    0    0  0.25741317275E+02  0.49737650770E+02 -0.37232264344E+03  0.38679881977E+03  0.88615612838E+02 0.  0.
         23    2    1    2    0    0 -0.25741317275E+02 -0.49737650770E+02 -0.14045296340E+04  0.14112005413E+04  0.12508807187E+03 0.  0.
          5    1    4    4  502    0  0.43682600804E+02 -0.15039143543E+02 -0.84822111330E+03  0.84948859610E+03  0.41800000000E+01 0. -1.
         -5    1    4    4    0  502 -0.69423918079E+02 -0.34698507228E+02 -0.55630852072E+03  0.56171194524E+03  0.41800000000E+01 0. -1.
        -11    1    3    3    0    0 -0.26412014852E+02  0.42900004359E+02 -0.14611166675E+03  0.15455298141E+03  0.00000000000E+00 0.  1.
         11    1    3    3    0    0  0.52153332127E+02  0.68376464113E+01 -0.22621097668E+03  0.23224583835E+03  0.00000000000E+00 0. -1.
</event>
<event>
 8    1  0.9181008E-006  0.1218283E+03  0.7561462E-02  0.1240111E+00
         -1   -1    0    0    0  501 -0.00000000000E+00  0.00000000000E+00  0.62231286183E+02  0.62231286183E+02  0.00000000000E+00 0.  1.
          1   -1    0    0  501    0  0.00000000000E+00 -0.00000000000E+00 -0.32682943912E+03  0.32682943912E+03  0.00000000000E+00 0. -1.
         23    2    1    2    0    0 -0.89174736323E+02  0.23673703734E+02 -0.13439733226E+03  0.18630137574E+03  0.90183046278E+02 0.  0.
         23    2    1    2    0    0  0.89174736323E+02 -0.23673703734E+02 -0.13020082067E+03  0.20275934956E+03  0.12508605951E+03 0.  0.
          5    1    4    4  502    0  0.36367288692E+02 -0.59192489639E+02 -0.11921237852E+03  0.13804127683E+03  0.41800000000E+01 0.  1.
         -5    1    4    4    0  502  0.52807447631E+02  0.35518785905E+02 -0.10988442156E+02  0.64718072735E+02  0.41800000000E+01 0.  1.
        -11    1    3    3    0    0 -0.96645217309E+02  0.13387522836E+02 -0.68559325327E+02  0.11924724267E+03  0.00000000000E+00 0.  1.
         11    1    3    3    0    0  0.74704809858E+01  0.10286180899E+02 -0.65838006935E+02  0.67054133063E+02  0.00000000000E+00 0. -1.
</event>
<event>
 8    1  0.9181008E-006  0.1115089E+03  0.7561462E-02  0.1257801E+00
          1   -1    0    0  501    0  0.00000000000E+00  0.00000000000E+00  0.21159465079E+03  0.21159465079E+03  0.00000000000E+00 0. -1.
         -1   -1    0    0    0  501 -0.00000000000E+00 -0.00000000000E+00 -0.68187321862E+02  0.68187321862E+02  0.00000000000E+00 0.  1.
         23    2    1    2    0    0  0.41885724199E+02  0.25911918820E+02  0.60121908645E+02  0.12163938130E+03  0.93571650378E+02 0.  0.
         23    2    1    2    0    0 -0.41885724199E+02 -0.25911918820E+02  0.83285420284E+02  0.15814259136E+03  0.12508707584E+03 0.  0.
          5    1    4    4  502    0 -0.69415096039E+02 -0.58986481548E+02  0.57440095371E+02  0.10777150607E+03  0.41800000000E+01 0. -1.
         -5    1    4    4    0  502  0.27529371840E+02  0.33074562729E+02  0.25845324913E+02  0.50371085292E+02  0.41800000000E+01 0. -1.
        -11    1    3    3    0    0  0.60626665652E+02  0.32426056218E+02  0.12273395564E+02  0.69840374774E+02  0.00000000000E+00 0.  1.
         11    1    3    3    0    0 -0.18740941453E+02 -0.65141373984E+01  0.47848513082E+02  0.51799006523E+02  0.00000000000E+00 0. -1.
</event>
<event>
 8    1  0.9181008E-006  0.1125247E+03  0.7561462E-02  0.1255965E+00
          2   -1    0    0  501    0  0.00000000000E+00  0.00000000000E+00  0.92534574910E+03  0.92534574910E+03  0.00000000000E+00 0. -1.
         -2   -1    0    0    0  501 -0.00000000000E+00 -0.00000000000E+00 -0.22991593125E+02  0.22991593125E+02  0.00000000000E+00 0.  1.
         23    2    1    2    0    0 -0.96137554841E+02 -0.17796942354E+02  0.33598578832E+03  0.36013719648E+03  0.85165660508E+02 0.  0.
         23    2    1    2    0    0  0.96137554841E+02  0.17796942354E+02  0.56636836766E+03  0.58820014574E+03  0.12508846055E+03 0.  0.
          5    1    4    4  502    0  0.39008776508E+02  0.19838547430E+02  0.42305582158E+02  0.61012189688E+02  0.41800000000E+01 0. -1.
         -5    1    4    4    0  502  0.57128778333E+02 -0.20416050759E+01  0.52406278550E+03  0.52718795606E+03  0.41800000000E+01 0. -1.
        -11    1    3    3    0    0  0.32398447236E+01 -0.23981290950E+02  0.11845306416E+03  0.12089965805E+03  0.00000000000E+00 0. -1.
         11    1    3    3    0    0 -0.99377399565E+02  0.61843485959E+01  0.21753272416E+03  0.23923753843E+03  0.00000000000E+00 0.  1.
</event>
<event>
 8    1  0.9181008E-006  0.9418616E+02  0.7561462E-02  0.1293020E+00
          3   -1    0    0  501    0  0.00000000000E+00  0.00000000000E+00  0.94108982559E+03  0.94108982559E+03  0.00000000000E+00 0. -1.
         -3   -1    0    0    0  501 -0.00000000000E+00 -0.00000000000E+00 -0.16673015445E+02  0.16673015445E+02  0.00000000000E+00 0.  1.
         23    2    1    2    0    0  0.20201980018E+02 -0.87388728601E+01  0.16951268083E+03  0.19224816933E+03  0.87979098397E+02 0.  0.
         23    2    1    2    0    0 -0.20201980018E+02  0.87388728601E+01  0.75490412931E+03  0.76551467170E+03  0.12509188717E+03 0.  0.
          5    1    4    4  502    0 -0.32922481054E+02  0.55825278215E+02  0.25202175646E+03  0.26025523929E+03  0.41800000000E+01 0. -1.
         -5    1    4    4    0  502  0.12720501035E+02 -0.47086405355E+02  0.50288237285E+03  0.50525943241E+03  0.41800000000E+01 0. -1.
        -11    1    3    3    0    0  0.42258891770E+02  0.12279379580E+02  0.14938594710E+03  0.15573297110E+03  0.00000000000E+00 0. -1.
         11    1    3    3    0    0 -0.22056911751E+02 -0.21018252440E+02  0.20126733734E+02  0.36515198239E+02  0.00000000000E+00 0.  1.
</event>
<event>
 8    1  0.9181008E-006  0.1968121E+03  0.7561462E-02  0.1152457E+00
         -2   -1    0    0    0  501 -0.00000000000E+00  0.00000000000E+00  0.62857018828E+02  0.62857018828E+02  0.00000000000E+00 0. -1.
          2   -1    0    0  501    0  0.00000000000E+00 -0.00000000000E+00 -0.82652777407E+03  0.82652777407E+03  0.00000000000E+00 0.  1.
         23    2    1    2    0    0 -0.17662086181E+03 -0.85987282050E+02 -0.44141021868E+03  0.49178184755E+03  0.91747822409E+02 0.  0.
         23    2    1    2    0    0  0.17662086181E+03  0.85987282050E+02 -0.32226053656E+03  0.39760294535E+03  0.12508999651E+03 0.  0.
          5    1    4    4  502    0  0.80997663196E+02  0.47610329590E+02 -0.50095979612E+02  0.10655723579E+03  0.41800000000E+01 0. -1.
         -5    1    4    4    0  502  0.95623198615E+02  0.38376952459E+02 -0.27216455695E+03  0.29104570956E+03  0.41800000000E+01 0. -1.
        -11    1    3    3    0    0 -0.83612626396E+02 -0.42077013309E+02 -0.10825154392E+03  0.14310815177E+03  0.00000000000E+00 0. -1.
         11    1    3    3    0    0 -0.93008235415E+02 -0.43910268741E+02 -0.33315867477E+03  0.34867369578E+03  0.00000000000E+00 0.  1.
</event>
<event>
 8    1  0.9181008E-006  0.1044005E+03  0.7561462E-02  0.1271305E+00
          1   -1    0    0  501    0  0.00000000000E+00  0.00000000000E+00  0.74779622029E+02  0.74779622029E+02  0.00000000000E+00 0. -1.
         -1   -1    0    0    0  501 -0.00000000000E+00 -0.00000000000E+00 -0.15603487848E+03  0.15603487848E+03  0.00000000000E+00 0.  1.
         23    2    1    2    0    0  0.18188387414E+01 -0.15028227404E+02 -0.38821204176E+02  0.97860552013E+02  0.88546292713E+02 0.  0.
         23    2    1    2    0    0 -0.18188387414E+01  0.15028227404E+02 -0.42434052274E+02  0.13295394850E+03  0.12508776053E+03 0.  0.
          5    1    4    4  502    0 -0.26947943983E+02 -0.45912512169E+02 -0.40243517551E+02  0.66866759780E+02  0.41800000000E+01 0. -1.
         -5    1    4    4    0  502  0.25129105242E+02  0.60940739573E+02 -0.21905347230E+01  0.66087188716E+02  0.41800000000E+01 0. -1.
        -11    1    3    3    0    0 -0.20008657001E+02 -0.46745275939E+02 -0.27074644329E+02  0.57606454006E+02  0.00000000000E+00 0. -1.
         11    1    3    3    0    0  0.21827495743E+02  0.31717048534E+02 -0.11746559847E+02  0.40254098007E+02  0.00000000000E+00 0.  1.
</event>
<event>
 7    1  0.9181008E-006  0.1184295E+03  0.7561462E-02  0.1245711E+00
         -2   -1    0    0    0  501 -0.00000000000E+00  0.00000000000E+00  0.65494081336E+03  0.65494081336E+03  0.00000000000E+00 0.  1.
          2   -1    0    0  501    0  0.00000000000E+00 -0.00000000000E+00 -0.37691422484E+02  0.37691422484E+02  0.00000000000E+00 0. -1.
         23    2    1    2    0    0 -0.43765732148E+02  0.25392459701E+02  0.27689145324E+03  0.29427031326E+03  0.85824961803E+02 0.  0.
          5    1    1    2  502    0  0.79201207486E+02 -0.56252308832E+02  0.60422374293E+02  0.11447920873E+03  0.41800000000E+01 0. -1.
         -5    1    1    2    0  502 -0.35435475338E+02  0.30859849131E+02  0.27993556334E+03  0.28388271385E+03  0.41800000000E+01 0.  1.
        -11    1    3    3    0    0  0.12187687339E+02  0.33742460254E+02  0.16540907145E+03  0.16925499776E+03  0.00000000000E+00 0. -1.
         11    1    3    3    0    0 -0.55953419487E+02 -0.83500005529E+01  0.11148238179E+03  0.12501531551E+03  0.00000000000E+00 0.  1.
</event>
<event>
 7    1  0.9181008E-006  0.1156569E+03  0.7561462E-02  0.1250439E+00
         -3   -1    0    0    0  501 -0.00000000000E+00  0.00000000000E+00  0.48085059452E+02  0.48085059452E+02  0.00000000000E+00 0.  1.
          3   -1    0    0  501    0  0.00000000000E+00 -0.00000000000E+00 -0.42366301460E+03  0.42366301460E+03  0.00000000000E+00 0. -1.
         23    2    1    2    0    0 -0.64473879941E+02  0.11563900729E+01 -0.70766788043E+02  0.13248419758E+03  0.91574591930E+02 0.  0.
          5    1    1    2  502    0  0.10008146700E+03 -0.11871200794E+02 -0.26972201023E+03  0.28796642278E+03  0.41800000000E+01 0. -1.
         -5    1    1    2    0  502 -0.35607587055E+02  0.10714810721E+02 -0.35089156868E+02  0.51297453683E+02  0.41800000000E+01 0.  1.
        -11    1    3    3    0    0 -0.60336921941E+01 -0.27346765277E+02  0.91469636455E+01  0.29460447324E+02  0.00000000000E+00 0.  1.
         11    1    3    3    0    0 -0.58440187747E+02  0.28503155350E+02 -0.79913751689E+02  0.10302375026E+03  0.00000000000E+00 0. -1.
</event>
<event>
 7    1  0.9181008E-006  0.1747470E+03  0.7561462E-02  0.1172986E+00
          2   -1    0    0  501    0  0.00000000000E+00  0.00000000000E+00  0.17267143809E+04  0.17267143809E+04  0.00000000000E+00 0. -1.
         -2   -1    0    0    0  501 -0.00000000000E+00 -0.00000000000E+00 -0.30983294622E+02  0.30983294622E+02  0.00000000000E+00 0.  1.
         23    2    1    2    0    0  0.83415453670E+02 -0.60150442676E+02  0.27642334395E+03  0.30960560667E+03  0.94178303979E+02 0.  0.
          5    1    1    2  502    0  0.46311169148E+02 -0.26992232397E+02  0.98565355986E+03  0.98711889733E+03  0.41800000000E+01 0. -1.
         -5    1    1    2    0  502 -0.12972662282E+03  0.87142675074E+02  0.43365418249E+03  0.46097317154E+03  0.41800000000E+01 0.  1.
        -11    1    3    3    0    0 -0.81901271872E+01 -0.45974367626E+02  0.88575867305E+02  0.10013193762E+03  0.00000000000E+00 0.  1.
         11    1    3    3    0    0  0.91605580857E+02 -0.14176075050E+02  0.18784747664E+03  0.20947366906E+03  0.00000000000E+00 0. -1.
</event>
<event>
 8    1  0.9181008E-006  0.1438478E+03  0.7561462E-02  0.1208243E+00
          2   -1    0    0  501    0  0.00000000000E+00  0.00000000000E+00  0.47819640450E+03  0.47819640450E+03  0.00000000000E+00 0. -1.
         -2   -1    0    0    0  501 -0.00000000000E+00 -0.00000000000E+00 -0.50074121072E+02  0.50074121072E+02  0.00000000000E+00 0.  1.
         23    2    1    2    0    0 -0.18828219072E+02  0.10507479683E+03  0.24359171298E+03  0.28109948024E+03  0.91020769024E+02 0.  0.
         23    2    1    2    0    0  0.18828219072E+02 -0.10507479683E+03  0.18453057044E+03  0.24717104533E+03  0.12508708750E+03 0.  0.
          5    1    4    4  502    0  0.68755760768E+02 -0.86066809368E+02  0.13399770194E+03  0.17351572505E+03  0.41800000000E+01 0.  1.
         -5    1    4    4    0  502 -0.49927541695E+02 -0.19007987462E+02  0.50532868503E+02  0.73655320285E+02  0.41800000000E+01 0.  1.
        -11    1    3    3    0    0 -0.40795878024E+01  0.10862478856E+03  0.24266772541E+03  0.26590150936E+03  0.00000000000E+00 0. -1.
         11    1    3    3    0    0 -0.14748631270E+02 -0.35499917344E+01  0.92398757537E+00  0.15197970874E+02  0.00000000000E+00 0.  1.
</event>
<event>
 8    1  0.9181008E-006  0.1095637E+03  0.7561462E-02  0.1261380E+00
          1   -1    0    0  501    0  0.00000000000E+00  0.00000000000E+00  0.53994114121E+03  0.53994114121E+03  0.00000000000E+00 0. -1.
         -1   -1    0    0    0  501 -0.00000000000E+00 -0.00000000000E+00 -0.58037670857E+02  0.58037670857E+02  0.00000000000E+00 0.  1.
         23    2    1    2    0    0 -0.36565730355E+02  0.12615571478E+02 -0.39504383882E+00  0.98223409671E+02  0.90285529670E+02 0.  0.
         23    2    1    2    0    0  0.36565730355E+02 -0.12615571478E+02  0.48229851419E+03  0.49975540239E+03  0.12508956852E+03 0.  0.
          5    1    4    4  502    0 -0.24221433055E+02 -0.45513380109E+02  0.11659425395E+03  0.12755327531E+03  0.41800000000E+01 0. -1.
         -5    1    4    4    0  502  0.60787163410E+02  0.32897808631E+02  0.36570426024E+03  0.37220212708E+03  0.41800000000E+01 0. -1.
        -11    1    3    3    0    0 -0.27000316017E+01 -0.37540595004E+02  0.16021547412E+01  0.37671651725E+02  0.00000000000E+00 0.  1.
         11    1    3    3    0    0 -0.33865698753E+02  0.50156166482E+02 -0.19971985801E+01  0.60551757946E+02  0.00000000000E+00 0. -1.
</event>
<event>
 8    1  0.9181008E-006  0.7958339E+02  0.7561462E-02  0.1330238E+00
          1   -1    0    0  501    0  0.00000000000E+00  0.00000000000E+00  0.26684514105E+03  0.26684514105E+03  0.00000000000E+00 0. -1.
         -1   -1    0    0    0  501 -0.00000000000E+00 -0.00000000000E+00 -0.52290503586E+02  0.52290503586E+02  0.00000000000E+00 0.  1.
         23    2    1    2    0    0 -0.34196188882E+02  0.26288081916E+02  0.70782944385E+02  0.12374088431E+03  0.91875669521E+02 0.  0.
         23    2    1    2    0    0  0.34196188882E+02 -0.26288081916E+02  0.14377169308E+03  0.19539476032E+03  0.12509344526E+03 0.  0.
          5    1    4    4  502    0  0.32991933393E+02 -0.21996886452E+01  0.16167098321E+03  0.16507054708E+03  0.41800000000E+01 0. -1.
         -5    1    4    4    0  502  0.12042554890E+01 -0.24088393270E+02 -0.17899290135E+02  0.30324213246E+02  0.41800000000E+01 0. -1.
        -11    1    3    3    0    0 -0.17957946822E+02  0.60704807294E+02  0.41079825144E+02  0.75465975886E+02  0.00000000000E+00 0.  1.
         11    1    3    3    0    0 -0.16238242060E+02 -0.34416725378E+02  0.29703119242E+02  0.48274908427E+02  0.00000000000E+00 0. -1.
</event>
<event>
 8    1  0.9181008E-006  0.1134716E+03  0.7561462E-02  0.1254273E+00
         -2   -1    0    0    0  501 -0.00000000000E+00  0.00000000000E+00  0.13922252075E+03  0.13922252075E+03  0.00000000000E+00 0.  1.
          2   -1    0    0  501    0  0.00000000000E+00 -0.00000000000E+00 -0.19853729302E+03  0.19853729302E+03  0.00000000000E+00 0. -1.
         23    2    1    2    0    0  0.26514960707E+02  0.86731479028E+02  0.61412076321E+02  0.14167907205E+03  0.89867256230E+02 0.  0.
         23    2    1    2    0    0 -0.26514960707E+02 -0.86731479028E+02 -0.12072684859E+03  0.19608074172E+03  0.12508913904E+03 0.  0.
          5    1    4    4  502    0  0.29976987178E+02  0.23936639884E+01 -0.75169446271E+02  0.81069522265E+02  0.41800000000E+01 0. -1.
         -5    1    4    4    0  502 -0.56491947885E+02 -0.89125143016E+02 -0.45557402320E+02  0.11501121945E+03  0.41800000000E+01 0. -1.
        -11    1    3    3    0    0  0.59459301026E+01  0.11013415370E+02 -0.23153783774E+02  0.26320089398E+02  0.00000000000E+00 0. -1.
         11    1    3    3    0    0  0.20569030604E+02  0.75718063658E+02  0.84565860095E+02  0.11535898265E+03  0.00000000000E+00 0.  1.
</event>
<event>
 8    1  0.9181008E-006  0.9636068E+02  0.7561462E-02  0.1288141E+00
          3   -1    0    0  501    0  0.00000000000E+00  0.00000000000E+00  0.17591746161E+03  0.17591746161E+03  0.00000000000E+00 0. -1.
         -3   -1    0    0    0  501 -0.00000000000E+00 -0.00000000000E+00 -0.11847135360E+03  0.11847135360E+03  0.00000000000E+00 0.  1.
         23    2    1    2    0    0 -0.83337724628E+02 -0.36973014462E+02 -0.22041285789E+01  0.12850720292E+03  0.90537632362E+02 0.  0.
         23    2    1    2    0    0  0.83337724628E+02  0.36973014462E+02  0.59650236588E+02  0.16588161230E+03  0.12508548449E+03 0.  0.
          5    1    4    4  502    0  0.87462197011E+01  0.73981631498E+01  0.81665328399E+02  0.82570742031E+02  0.41800000000E+01 0.  1.
         -5    1    4    4    0  502  0.74591504927E+02  0.29574851312E+02 -0.22015091812E+02  0.83310870268E+02  0.41800000000E+01 0.  1.
        -11    1    3    3    0    0 -0.52232314177E+02 -0.43992188160E+02 -0.39932506491E+02  0.79108358206E+02  0.00000000000E+00 0.  1.
         11    1    3    3    0    0 -0.31105410451E+02  0.70191736976E+01  0.37728377913E+02  0.49398844710E+02  0.00000000000E+00 0. -1.
</event>
<event>
 8    1  0.9181008E-006  0.1047595E+03  0.7561462E-02  0.1270594E+00
          1   -1    0    0  501    0  0.00000000000E+00  0.00000000000E+00  0.34192830929E+03  0.34192830929E+03  0.00000000000E+00 0. -1.
         -1   -1    0    0    0  501 -0.00000000000E+00 -0.00000000000E+00 -0.44003509609E+02  0.44003509609E+02  0.00000000000E+00 0.  1.
         23    2    1    2    0    0 -0.34028792153E+02  0.47549079589E+02  0.13477208591E+03  0.17219117712E+03  0.89818776838E+02 0.  0.
         23    2    1    2    0    0  0.34028792153E+02 -0.47549079589E+02  0.16315271377E+03  0.21374064177E+03  0.12508948905E+03 0.  0.
          5    1    4    4  502    0 -0.43931496308E+02 -0.20098458482E+02  0.94495041587E+02  0.10621068536E+03  0.41800000000E+01 0. -1.
         -5    1    4    4    0  502  0.77960288460E+02 -0.27450621108E+02  0.68657672179E+02  0.10752995641E+03  0.41800000000E+01 0. -1.
        -11    1    3    3    0    0 -0.13610185641E+02  0.54905227370E+02  0.27780368836E+02  0.63020393829E+02  0.00000000000E+00 0.  1.
         11    1    3    3    0    0 -0.20418606512E+02 -0.73561477811E+01  0.10699171708E+03  0.10917078329E+03  0.00000000000E+00 0. -1.
</event>
<event>
 8    1  0.9181008E-006  0.1053056E+03  0.7561462E-02  0.1269519E+00
         -1   -1    0    0    0  501 -0.00000000000E+00  0.00000000000E+00  0.12901047376E+03  0.12901047376E+03  0.00000000000E+00 0.  1.
          1   -1    0    0  501    0  0.00000000000E+00 -0.00000000000E+00 -0.10859558383E+03  0.10859558383E+03  0.00000000000E+00 0. -1.
         23    2    1    2    0    0 -0.41712379686E+02  0.65809103925E+01  0.10717646886E+02  0.10522376393E+03  0.95780695024E+02 0.  0.
         23    2    1    2    0    0  0.41712379686E+02 -0.65809103925E+01  0.96972430357E+01  0.13238229366E+03  0.12509118335E+03 0.  0.
          5    1    4    4  502    0  0.14238454961E+01  0.42564308349E+02  0.42871720921E+02  0.60573959223E+02  0.41800000000E+01 0.  1.
         -5    1    4    4    0  502  0.40288534190E+02 -0.49145218741E+02 -0.33174477885E+02  0.71808334441E+02  0.41800000000E+01 0.  1.
        -11    1    3    3    0    0 -0.27055141386E+02 -0.43899680810E+02  0.10664631896E+02  0.52658304418E+02  0.00000000000E+00 0.  1.
         11    1    3    3    0    0 -0.14657238299E+02  0.50480591203E+02  0.53014990179E-01  0.52565459508E+02  0.00000000000E+00 0. -1.
</event>
<event>
 8    1  0.9181008E-006  0.2471062E+03  0.7561462E-02  0.1115147E+00
         -2   -1    0    0    0  501 -0.00000000000E+00  0.00000000000E+00  0.61617434704E+02  0.61617434704E+02  0.00000000000E+00 0.  1.
          2   -1    0    0  501    0  0.00000000000E+00 -0.00000000000E+00 -0.10586289407E+04  0.10586289407E+04  0.00000000000E+00 0. -1.
         23    2    1    2    0    0 -0.19116653244E+03 -0.11954401280E+03 -0.37500535812E+03  0.44690791367E+03  0.90896922721E+02 0.  0.
         23    2    1    2    0    0  0.19116653244E+03  0.11954401280E+03 -0.62200614789E+03  0.67333846175E+03  0.12513041969E+03 0.  0.
          5    1    4    4  502    0  0.36532510387E+02 -0.24007106374E+02 -0.73289785068E+02  0.85439045330E+02  0.41800000000E+01 0. -1.
         -5    1    4    4    0  502  0.15463402206E+03  0.14355111918E+03 -0.54871636282E+03  0.58789941642E+03  0.41800000000E+01 0. -1.
        -11    1    3    3    0    0 -0.15808700341E+03 -0.12988865590E+03 -0.28823339993E+03  0.35347002194E+03  0.00000000000E+00 0.  1.
         11    1    3    3    0    0 -0.33079529032E+02  0.10344643099E+02 -0.86771958194E+02  0.93437891728E+02  0.00000000000E+00 0. -1.
</event>
<event>
 8    1  0.9181008E-006  0.1569268E+03  0.7561462E-02  0.1192211E+00
          1   -1    0    0  501    0  0.00000000000E+00  0.00000000000E+00  0.35559779731E+03  0.35559779731E+03  0.00000000000E+00 0. -1.
         -1   -1    0    0    0  501 -0.00000000000E+00 -0.00000000000E+00 -0.89257251300E+02  0.89257251300E+02  0.00000000000E+00 0.  1.
         23    2    1    2    0    0 -0.10357205350E+03 -0.68679405364E+02  0.44208045665E+02  0.16124912470E+03  0.92751808220E+02 0.  0.
         23    2    1    2    0    0  0.10357205350E+03  0.68679405364E+02  0.22213250035E+03  0.28360592391E+03  0.12508173880E+03 0.  0.
          5    1    4    4  502    0  0.82020717199E+02 -0.14408949289E+02  0.14907608426E+03  0.17081032512E+03  0.41800000000E+01 0. -1.
         -5    1    4    4    0  502  0.21551336301E+02  0.83088354653E+02  0.73056416088E+02  0.11279559879E+03  0.41800000000E+01 0. -1.
        -11    1    3    3    0    0 -0.46173110094E+02 -0.73641215909E+02 -0.26903652870E+01  0.86961042092E+02  0.00000000000E+00 0.  1.
         11    1    3    3    0    0 -0.57398943405E+02  0.49618105447E+01  0.46898410952E+02  0.74288082609E+02  0.00000000000E+00 0. -1.
</event>
<event>
 8    1  0.9181008E-006  0.1826628E+03  0.7561462E-02  0.1165251E+00
         -2   -1    0    0    0  501 -0.00000000000E+00  0.00000000000E+00  0.72860029084E+02  0.72860029084E+02  0.00000000000E+00 0. -1.
          2   -1    0    0  501    0  0.00000000000E+00 -0.00000000000E+00 -0.78286155216E+03  0.78286155216E+03  0.00000000000E+00 0.  1.
         23    2    1    2    0    0 -0.41461360641E+02  0.16486021774E+03 -0.11554335754E+03  0.22490740164E+03  0.91296966120E+02 0.  0.
         23    2    1    2    0    0  0.41461360641E+02 -0.16486021774E+03 -0.59445816554E+03  0.63081417960E+03  0.12509229709E+03 0.  0.
          5    1    4    4  502    0  0.62161885634E+02 -0.86136257700E+02 -0.18540498962E+03  0.21371952997E+03  0.41800000000E+01 0. -1.
         -5    1    4    4    0  502 -0.20700524992E+02 -0.78723960039E+02 -0.40905317592E+03  0.41709464963E+03  0.41800000000E+01 0. -1.
        -11    1    3    3    0    0 -0.52351759196E+00  0.10494617084E+03 -0.23229774097E+02  0.10748765161E+03  0.00000000000E+00 0. -1.
         11    1    3    3    0    0 -0.40937843050E+02  0.59914046901E+02 -0.92313583440E+02  0.11741975003E+03  0.00000000000E+00 0.  1.
</event>
<event>
 8    1  0.9181008E-006  0.1355468E+03  0.7561462E-02  0.1219450E+00
          2   -1    0    0  501    0  0.00000000000E+00  0.00000000000E+00  0.12954602523E+04  0.12954602523E+04  0.00000000000E+00 0. -1.
         -2   -1    0    0    0  501 -0.00000000000E+00 -0.00000000000E+00 -0.15587408151E+02  0.15587408151E+02  0.00000000000E+00 0.  1.
         23    2    1    2    0    0 -0.48453816387E+02  0.74267259288E+02  0.47506472660E+03  0.49176316550E+03  0.91000650326E+02 0.  0.
         23    2    1    2    0    0  0.48453816387E+02 -0.74267259288E+02  0.80480811756E+03  0.81928449496E+03  0.12509028526E+03 0.  0.
          5    1    4    4  502    0 -0.38292052449E+02 -0.42366948155E+02  0.39733519856E+03  0.40143987344E+03  0.41800000000E+01 0. -1.
         -5    1    4    4    0  502  0.86745868836E+02 -0.31900311133E+02  0.40747291901E+03  0.41784462152E+03  0.41800000000E+01 0. -1.
        -11    1    3    3    0    0  0.95527466484E+01  0.61085810361E+02  0.16861182075E+03  0.17959030401E+03  0.00000000000E+00 0. -1.
         11    1    3    3    0    0 -0.58006563036E+02  0.13181448927E+02  0.30645290584E+03  0.31217286149E+03  0.00000000000E+00 0.  1.
</event>
<event>
 8    1  0.9181008E-006  0.8771271E+02  0.7561462E-02  0.1308487E+00
          1   -1    0    0  501    0  0.00000000000E+00  0.00000000000E+00  0.37307844689E+03  0.37307844689E+03  0.00000000000E+00 0. -1.
         -1   -1    0    0    0  501 -0.00000000000E+00 -0.00000000000E+00 -0.30845337864E+02  0.30845337864E+02  0.00000000000E+00 0.  1.
         23    2    1    2    0    0 -0.20812211562E+02  0.54028253185E+01  0.13604613717E+03  0.16180182805E+03  0.84905485393E+02 0.  0.
         23    2    1    2    0    0  0.20812211562E+02 -0.54028253185E+01  0.20618697185E+03  0.24212195670E+03  0.12509051076E+03 0.  0.
          5    1    4    4  502    0  0.55828493883E+02  0.12647609237E+02  0.36836634232E+02  0.68199653740E+02  0.41800000000E+01 0.  1.
         -5    1    4    4    0  502 -0.35016282321E+02 -0.18050434555E+02  0.16935033762E+03  0.17392230296E+03  0.41800000000E+01 0.  1.
        -11    1    3    3    0    0 -0.11214406977E+02 -0.35069536814E+02  0.28714153960E+02  0.46691947634E+02  0.00000000000E+00 0. -1.
         11    1    3    3    0    0 -0.95978045849E+01  0.40472362133E+02  0.10733198321E+03  0.11510988042E+03  0.00000000000E+00 0.  1.
</event>
<event>
 8    1  0.9181008E-006  0.8465553E+02  0.7561462E-02  0.1316336E+00
         -2   -1    0    0    0  501 -0.00000000000E+00  0.00000000000E+00  0.90439490541E+01  0.90439490541E+01  0.00000000000E+00 0.  1.
          2   -1    0    0  501    0  0.00000000000E+00 -0.00000000000E+00 -0.15587406645E+04  0.15587406645E+04  0.00000000000E+00 0. -1.
         23    2    1    2    0    0 -0.81152512251E+01 -0.71673346966E+01 -0.34189913767E+03  0.35347790766E+03  0.89075152957E+02 0.  0.
         23    2    1    2    0    0  0.81152512251E+01  0.71673346966E+01 -0.12077975777E+04  0.12143067059E+04  0.12509420095E+03 0.  0.
          5    1    4    4  502    0 -0.14775108800E+02 -0.32327885577E+02 -0.10323301034E+04  0.10329502945E+04  0.41800000000E+01 0. -1.
         -5    1    4    4    0  502  0.22890360025E+02  0.39495220273E+02 -0.17546747433E+03  0.18135641139E+03  0.41800000000E+01 0. -1.
        -11    1    3    3    0    0 -0.14674080378E+02 -0.46007865392E+02 -0.15015100859E+03  0.15772564058E+03  0.00000000000E+00 0.  1.
         11    1    3    3    0    0  0.65588291527E+01  0.38840530695E+02 -0.19174812907E+03  0.19575226708E+03  0.00000000000E+00 0. -1.
</event>
<event>
 8    1  0.9181008E-006  0.1173459E+03  0.7561462E-02  0.1247541E+00
          2   -1    0    0  501    0  0.00000000000E+00  0.00000000000E+00  0.14736054730E+04  0.14736054730E+04  0.00000000000E+00 0. -1.
         -2   -1    0    0    0  501 -0.00000000000E+00 -0.00000000000E+00 -0.13647000759E+02  0.13647000759E+02  0.00000000000E+00 0.  1.
         23    2    1    2    0    0  0.23206814255E+02 -0.73591558586E+02  0.39997787966E+03  0.41713022695E+03  0.89783340862E+02 0.  0.
         23    2    1    2    0    0 -0.23206814255E+02  0.73591558586E+02  0.10599805925E+04  0.10701222468E+04  0.12509393567E+03 0.  0.
          5    1    4    4  502    0 -0.38717129910E+02 -0.21663591498E+01  0.73530134758E+03  0.73633501439E+03  0.41800000000E+01 0. -1.
         -5    1    4    4    0  502  0.15510315655E+02  0.75757917735E+02  0.32467924495E+03  0.33378723237E+03  0.41800000000E+01 0. -1.
        -11    1    3    3    0    0 -0.33504486866E+02 -0.40593513448E+02  0.16804517699E+03  0.17609533067E+03  0.00000000000E+00 0.  1.
         11    1    3    3    0    0  0.56711301120E+02 -0.32998045138E+02  0.23193270267E+03  0.24103489628E+03  0.00000000000E+00 0. -1.
</event>
<event>
 8    1  0.9181008E-006  0.2063033E+03  0.7561462E-02  0.1144527E+00
         -1   -1    0    0    0  501 -0.00000000000E+00  0.00000000000E+00  0.24775241370E+03  0.24775241370E+03  0.00000000000E+00 0.  1.
          1   -1    0    0  501    0  0.00000000000E+00 -0.00000000000E+00 -0.24235267612E+03  0.24235267612E+03  0.00000000000E+00 0. -1.
         23    2    1    2    0    0  0.16428817887E+03 -0.99816997347E+02  0.10645617693E+03  0.23947884978E+03  0.95200647114E+02 0.  0.
         23    2    1    2    0    0 -0.16428817887E+03  0.99816997347E+02 -0.10105643934E+03  0.25062624004E+03  0.12508824722E+03 0.  0.
          5    1    4    4  502    0 -0.15819377654E+03  0.79211525511E+02 -0.12614945937E+03  0.21732670156E+03  0.41800000000E+01 0. -1.
         -5    1    4    4    0  502 -0.60944023223E+01  0.20605471836E+02  0.25093020028E+02  0.33299538486E+02  0.41800000000E+01 0. -1.
        -11    1    3    3    0    0  0.13082258478E+03 -0.26956822686E+02  0.56631396508E+02  0.14508043993E+03  0.00000000000E+00 0. -1.
         11    1    3    3    0    0  0.33465594083E+02 -0.72860174661E+02  0.49824780420E+02  0.94398409853E+02  0.00000000000E+00 0.  1.
</event>
<event>
 8    1  0.9181008E-006  0.1368703E+03  0.7561462E-02  0.1217603E+00
         -2   -1    0    0    0  501 -0.00000000000E+00  0.00000000000E+00  0.13671757333E+02  0.13671757333E+02  0.00000000000E+00 0.  1.
          2   -1    0    0  501    0  0.00000000000E+00 -0.00000000000E+00 -0.17500265498E+04  0.17500265498E+04  0.00000000000E+00 0. -1.
         23    2    1    2    0    0 -0.10014625439E+03  0.31150894453E+02 -0.62882688381E+03  0.64420489200E+03  0.92612324116E+02 0.  0.
         23    2    1    2    0    0  0.10014625439E+03 -0.31150894453E+02 -0.11075279086E+04  0.11194934151E+04  0.12509111712E+03 0.  0.
          5    1    4    4  502    0  0.10387509707E+03 -0.50615450055E+02 -0.10748232518E+04  0.10810247243E+04  0.41800000000E+01 0.  1.
         -5    1    4    4    0  502 -0.37288426777E+01  0.19464555602E+02 -0.32704656804E+02  0.38468690765E+02  0.41800000000E+01 0.  1.
        -11    1    3    3    0    0 -0.80378481118E+02 -0.20163898702E+02 -0.32221397136E+03  0.33269975409E+03  0.00000000000E+00 0.  1.
         11    1    3    3    0    0 -0.19767773275E+02  0.51314793155E+02 -0.30661291246E+03  0.31150513790E+03  0.00000000000E+00 0. -1.
</event>
<event>
 8    1  0.9181008E-006  0.2145579E+03  0.7561462E-02  0.1138007E+00
         -2   -1    0    0    0  501 -0.00000000000E+00  0.00000000000E+00  0.32449882081E+03  0.32449882081E+03  0.00000000000E+00 0. -1.
          2   -1    0    0  501    0  0.00000000000E+00 -0.00000000000E+00 -0.19325791052E+03  0.19325791052E+03  0.00000000000E+00 0.  1.
         23    2    1    2    0    0  0.64211765768E+02  0.18358600183E+03  0.18177626895E+03  0.28105284473E+03  0.90117249463E+02 0.  0.
         23    2    1    2    0    0 -0.64211765768E+02 -0.18358600183E+03 -0.50535358656E+02  0.23670388660E+03  0.12509171246E+03 0.  0.
          5    1    4    4  502    0  0.38026285461E+02 -0.50401897252E+02 -0.15147369011E+02  0.65063544482E+02  0.41800000000E+01 0. -1.
         -5    1    4    4    0  502 -0.10223805123E+03 -0.13318410457E+03 -0.35387989644E+02  0.17164034212E+03  0.41800000000E+01 0. -1.
        -11    1    3    3    0    0  0.26737842242E+02  0.12857210594E+03  0.16772819855E+03  0.21302217543E+03  0.00000000000E+00 0. -1.
         11    1    3    3    0    0  0.37473923526E+02  0.55013895882E+02  0.14048070399E+02  0.68030669308E+02  0.00000000000E+00 0.  1.
</event>
<event>
 8    1  0.9181008E-006  0.7855397E+02  0.7561462E-02  0.1333206E+00
         -2   -1    0    0    0  501 -0.00000000000E+00  0.00000000000E+00  0.17095140109E+03  0.17095140109E+03  0.00000000000E+00 0.  1.
          2   -1    0    0  501    0  0.00000000000E+00 -0.00000000000E+00 -0.91239545318E+02  0.91239545318E+02  0.00000000000E+00 0. -1.
         23    2    1    2    0    0 -0.32197626200E+02 -0.11369363427E+01  0.88399969758E+02  0.13271603958E+03  0.93600281791E+02 0.  0.
         23    2    1    2    0    0  0.32197626200E+02  0.11369363427E+01 -0.86881139839E+01  0.12947490683E+03  0.12510111277E+03 0.  0.
          5    1    4    4  502    0 -0.10996446171E+01  0.35827157290E+02 -0.52889307590E+02  0.64027694595E+02  0.41800000000E+01 0.  1.
         -5    1    4    4    0  502  0.33297270817E+02 -0.34690220948E+02  0.44201193606E+02  0.65447212236E+02  0.41800000000E+01 0.  1.
        -11    1    3    3    0    0 -0.52107541342E+02  0.37884050352E+01  0.11992666226E+02  0.53603842406E+02  0.00000000000E+00 0. -1.
         11    1    3    3    0    0  0.19909915143E+02 -0.49253413779E+01  0.76407303532E+02  0.79112197174E+02  0.00000000000E+00 0.  1.
</event>
<event>
 8    1  0.9181008E-006  0.1002518E+03  0.7561462E-02  0.1279767E+00
          2   -1    0    0  501    0  0.00000000000E+00  0.00000000000E+00  0.16373145520E+03  0.16373145520E+03  0.00000000000E+00 0.  1.
         -2   -1    0    0    0  501 -0.00000000000E+00 -0.00000000000E+00 -0.79452249565E+02  0.79452249565E+02  0.00000000000E+00 0. -1.
         23    2    1    2    0    0  0.15610768437E+02  0.98547485856E+01  0.95440899511E+01  0.96315752447E+02  0.94046915716E+02 0.  0.
         23    2    1    2    0    0 -0.15610768437E+02 -0.98547485856E+01  0.74735115679E+02  0.14686795231E+03  0.12507615976E+03 0.  0.
          5    1    4    4  502    0 -0.57269469656E+02 -0.22704705195E+02  0.17756367750E+01  0.61773142049E+02  0.41800000000E+01 0.  1.
         -5    1    4    4    0  502  0.41658701218E+02  0.12849956609E+02  0.72959478904E+02  0.85094810264E+02  0.41800000000E+01 0.  1.
        -11    1    3    3    0    0  0.54760066011E+02  0.10730415751E+02 -0.82312050753E+00  0.55807563816E+02  0.00000000000E+00 0.  1.
         11    1    3    3    0    0 -0.39149297574E+02 -0.87566716523E+00  0.10367210459E+02  0.40508188631E+02  0.00000000000E+00 0. -1.
</event>
<event>
 8    1  0.9181008E-006  0.1457648E+03  0.7561462E-02  0.1205776E+00
         -2   -1    0    0    0  501 -0.00000000000E+00  0.00000000000E+00  0.16599407443E+02  0.16599407443E+02  0.00000000000E+00 0.  1.
          2   -1    0    0  501    0  0.00000000000E+00 -0.00000000000E+00 -0.19986001061E+04  0.19986001061E+04  0.00000000000E+00 0. -1.
         23    2    1    2    0    0  0.13252101092E+03  0.16445030815E+02 -0.61087289994E+03  0.63191709103E+03  0.91220900470E+02 0.  0.
         23    2    1    2    0    0 -0.13252101092E+03 -0.16445030815E+02 -0.13711277987E+04  0.13832824225E+04  0.12508622083E+03 0.  0.
          5    1    4    4  502    0 -0.11408071223E+03 -0.40756756301E+02 -0.63235309717E+03  0.64386600624E+03  0.41800000000E+01 0. -1.
         -5    1    4    4    0  502 -0.18440298692E+02  0.24311725487E+02 -0.73877470151E+03  0.73941641624E+03  0.41800000000E+01 0. -1.
        -11    1    3    3    0    0  0.43993842215E+02 -0.13569431002E+02 -0.75385840377E+02  0.88332398019E+02  0.00000000000E+00 0.  1.
         11    1    3    3    0    0  0.88527168704E+02  0.30014461816E+02 -0.53548705956E+03  0.54358469301E+03  0.00000000000E+00 0. -1.
</event>
<event>
 8    1  0.9422525E-006  0.1666710E+03  0.7561462E-02  0.1181365E+00
          2   -1    0    0  501    0  0.00000000000E+00  0.00000000000E+00  0.22155456723E+04  0.22155456723E+04  0.00000000000E+00 0. -1.
         -2   -1    0    0    0  501 -0.00000000000E+00 -0.00000000000E+00 -0.13413351733E+02  0.13413351733E+02  0.00000000000E+00 0.  1.
         23    2    1    2    0    0 -0.10627573528E+03  0.79906801363E+02  0.94524996074E+03  0.95888782905E+03  0.91042581263E+02 0.  0.
         23    2    1    2    0    0  0.10627573528E+03 -0.79906801363E+02  0.12568823599E+04  0.12700711950E+04  0.12509174664E+03 0.  0.
          5    1    4    4  502    0  0.72626091072E+02  0.12518065689E+02  0.34011500710E+03  0.34803296040E+03  0.41800000000E+01 0. -1.
         -5    1    4    4    0  502  0.33649644203E+02 -0.92424867051E+02  0.91676735276E+03  0.92203823462E+03  0.41800000000E+01 0. -1.
        -11    1    3    3    0    0 -0.77778954638E+02  0.16524865817E+01  0.47057528418E+03  0.47696267629E+03  0.00000000000E+00 0. -1.
         11    1    3    3    0    0 -0.28496780637E+02  0.78254314781E+02  0.47467467656E+03  0.48192515276E+03  0.00000000000E+00 0.  1.
</event>
<event>
 8    1  0.9181008E-006  0.1051741E+03  0.7561462E-02  0.1269777E+00
          2   -1    0    0  501    0  0.00000000000E+00  0.00000000000E+00  0.48283402063E+03  0.48283402063E+03  0.00000000000E+00 0. -1.
         -2   -1    0    0    0  501 -0.00000000000E+00 -0.00000000000E+00 -0.58589688005E+02  0.58589688005E+02  0.00000000000E+00 0.  1.
         23    2    1    2    0    0 -0.33047254508E+02 -0.83432024862E+02  0.50695978696E+02  0.13739594521E+03  0.90854497420E+02 0.  0.
         23    2    1    2    0    0  0.33047254508E+02  0.83432024862E+02  0.37354835393E+03  0.40402776343E+03  0.12508811731E+03 0.  0.
          5    1    4    4  502    0 -0.56523122613E+01 -0.59233840673E+01  0.23192527813E+03  0.23210739357E+03  0.41800000000E+01 0.  1.
         -5    1    4    4    0  502  0.38699566769E+02  0.89355408930E+02  0.14162307580E+03  0.17192036986E+03  0.41800000000E+01 0.  1.
        -11    1    3    3    0    0  0.14061555934E+02 -0.24437953375E+02  0.54970826964E+02  0.61779711375E+02  0.00000000000E+00 0. -1.
         11    1    3    3    0    0 -0.47108810441E+02 -0.58994071488E+02 -0.42748482685E+01  0.75616233836E+02  0.00000000000E+00 0.  1.
</event>
<event>
 8    1  0.9181008E-006  0.1291404E+03  0.7561462E-02  0.1228737E+00
          2   -1    0    0  501    0  0.00000000000E+00  0.00000000000E+00  0.66076507927E+03  0.66076507927E+03  0.00000000000E+00 0. -1.
         -2   -1    0    0    0  501 -0.00000000000E+00 -0.00000000000E+00 -0.29304926212E+02  0.29304926212E+02  0.00000000000E+00 0.  1.
         23    2    1    2    0    0  0.48942006512E+02  0.69999622598E+02  0.26044075322E+03  0.28932372704E+03  0.92647535980E+02 0.  0.
         23    2    1    2    0    0 -0.48942006512E+02 -0.69999622598E+02  0.37101939983E+03  0.40074627844E+03  0.12508763914E+03 0.  0.
          5    1    4    4  502    0 -0.82454657601E+02 -0.67313022900E+02  0.20201748634E+03  0.22838202818E+03  0.41800000000E+01 0.  1.
         -5    1    4    4    0  502  0.33512651089E+02 -0.26865996975E+01  0.16900191349E+03  0.17236425025E+03  0.41800000000E+01 0.  1.
        -11    1    3    3    0    0  0.62416618645E+02  0.19172052253E+02  0.91639871984E+02  0.11252230005E+03  0.00000000000E+00 0. -1.
         11    1    3    3    0    0 -0.13474612133E+02  0.50827570345E+02  0.16880088124E+03  0.17680142699E+03  0.00000000000E+00 0.  1.
</event>
<event>
 8    1  0.9181008E-006  0.1249316E+03  0.7561462E-02  0.1235176E+00
         -3   -1    0    0    0  501 -0.00000000000E+00  0.00000000000E+00  0.59052504509E+03  0.59052504509E+03  0.00000000000E+00 0.  1.
          3   -1    0    0  501    0  0.00000000000E+00 -0.00000000000E+00 -0.33500488008E+02  0.33500488008E+02  0.00000000000E+00 0. -1.
         23    2    1    2    0    0  0.32189794001E+02  0.60785509214E+02  0.37881648195E+03  0.39569297649E+03  0.91323292070E+02 0.  0.
         23    2    1    2    0    0 -0.32189794001E+02 -0.60785509214E+02  0.17820807514E+03  0.22833255662E+03  0.12508627982E+03 0.  0.
          5    1    4    4  502    0  0.43367920080E+02 -0.37486727019E+02  0.43514485162E+02  0.72090318446E+02  0.41800000000E+01 0.  1.
         -5    1    4    4    0  502 -0.75557714081E+02 -0.23298782195E+02  0.13469358997E+03  0.15624223817E+03  0.41800000000E+01 0.  1.
        -11    1    3    3    0    0 -0.28632958600E+02  0.21324697759E+01  0.73780990940E+02  0.79170880819E+02  0.00000000000E+00 0.  1.
         11    1    3    3    0    0  0.60822752601E+02  0.58653039438E+02  0.30503549101E+03  0.31652209567E+03  0.00000000000E+00 0. -1.
</event>
<event>
 8    1  0.9181008E-006  0.9163608E+02  0.7561462E-02  0.1298937E+00
          1   -1    0    0  501    0  0.00000000000E+00  0.00000000000E+00  0.66445900004E+03  0.66445900004E+03  0.00000000000E+00 0. -1.
         -1   -1    0    0    0  501 -0.00000000000E+00 -0.00000000000E+00 -0.22570010854E+02  0.22570010854E+02  0.00000000000E+00 0.  1.
         23    2    1    2    0    0  0.18665007578E+02 -0.27292629770E+02  0.16323225388E+03  0.19119276207E+03  0.93896929733E+02 0.  0.
         23    2    1    2    0    0 -0.18665007578E+02  0.27292629770E+02  0.47865673531E+03  0.49583624882E+03  0.12509214702E+03 0.  0.
          5    1    4    4  502    0 -0.20349257805E+02  0.55613539146E+02  0.10147059994E+03  0.11756152892E+03  0.41800000000E+01 0.  1.
         -5    1    4    4    0  502  0.16842502268E+01 -0.28320909376E+02  0.37718613537E+03  0.37827471991E+03  0.41800000000E+01 0.  1.
        -11    1    3    3    0    0  0.27657770810E+02 -0.57448645581E+02  0.80590509756E+02  0.10276249037E+03  0.00000000000E+00 0.  1.
         11    1    3    3    0    0 -0.89927632319E+01  0.30156015811E+02  0.82641744120E+02  0.88430271691E+02  0.00000000000E+00 0. -1.
</event>
<event>
 8    1  0.9181008E-006  0.9283061E+02  0.7561462E-02  0.1296138E+00
         -2   -1    0    0    0  501 -0.00000000000E+00  0.00000000000E+00  0.15753422856E+02  0.15753422856E+02  0.00000000000E+00 0.  1.
          2   -1    0    0  501    0  0.00000000000E+00 -0.00000000000E+00 -0.86194078860E+03  0.86194078860E+03  0.00000000000E+00 0. -1.
         23    2    1    2    0    0 -0.28824432830E+01 -0.43071212708E+02 -0.38015757702E+03  0.39324025859E+03  0.90855268246E+02 0.  0.
         23    2    1    2    0    0  0.28824432830E+01  0.43071212708E+02 -0.46602978872E+03  0.48445395286E+03  0.12509368739E+03 0.  0.
          5    1    4    4  502    0  0.31038105865E+02  0.48374902947E+02 -0.87215476422E+02  0.10453471662E+03  0.41800000000E+01 0.  1.
         -5    1    4    4    0  502 -0.28155662582E+02 -0.53036902389E+01 -0.37881431230E+03  0.37991923624E+03  0.41800000000E+01 0.  1.
        -11    1    3    3    0    0  0.10003189419E+02  0.26499806981E+02 -0.80335410363E+02  0.85182637473E+02  0.00000000000E+00 0.  1.
         11    1    3    3    0    0 -0.12885632702E+02 -0.69571019689E+02 -0.29982216666E+03  0.30805762112E+03  0.00000000000E+00 0. -1.
</event>
<event>
 8    1  0.9181008E-006  0.7802391E+02  0.7561462E-02  0.1334755E+00
         -2   -1    0    0    0  501 -0.00000000000E+00  0.00000000000E+00  0.49654232484E+02  0.49654232484E+02  0.00000000000E+00 0.  1.
          2   -1    0    0  501    0  0.00000000000E+00 -0.00000000000E+00 -0.85667774621E+03  0.85667774621E+03  0.00000000000E+00 0. -1.
         23    2    1    2    0    0  0.49932257435E+02  0.17998919275E+02 -0.29400420402E+02  0.11898370140E+03  0.10235011017E+03 0.  0.
         23    2    1    2    0    0 -0.49932257435E+02 -0.17998919275E+02 -0.77762309333E+03  0.78734827729E+03  0.11136625636E+03 0.  0.
          5    1    4    4  502    0 -0.15652189801E+02  0.32073421865E+02 -0.56647605115E+03  0.56761455616E+03  0.41800000000E+01 0. -1.
         -5    1    4    4    0  502 -0.34280067634E+02 -0.50072341140E+02 -0.21114704217E+03  0.21973372113E+03  0.41800000000E+01 0.  1.
        -11    1    3    3    0    0  0.22443539275E+02 -0.55193449410E+01 -0.64538022231E+02  0.68551673483E+02  0.00000000000E+00 0. -1.
         11    1    3    3    0    0  0.27488718160E+02  0.23518264216E+02  0.35137601829E+02  0.50432027920E+02  0.00000000000E+00 0.  1.
</event>
<event>
 8    1  0.9181008E-006  0.2430416E+03  0.7561462E-02  0.1117783E+00
          2   -1    0    0  501    0  0.00000000000E+00  0.00000000000E+00  0.52588633158E+03  0.52588633158E+03  0.00000000000E+00 0. -1.
         -2   -1    0    0    0  501 -0.00000000000E+00 -0.00000000000E+00 -0.14911462843E+03  0.14911462843E+03  0.00000000000E+00 0.  1.
         23    2    1    2    0    0  0.11898551026E+03  0.20126698700E+03  0.51233379327E+02  0.25513398490E+03  0.88331983925E+02 0.  0.
         23    2    1    2    0    0 -0.11898551026E+03 -0.20126698700E+03  0.32553832382E+03  0.41986697511E+03  0.12508846790E+03 0.  0.
          5    1    4    4  502    0 -0.11839652768E+03 -0.11648893611E+03  0.14561817716E+03  0.22092880283E+03  0.41800000000E+01 0. -1.
         -5    1    4    4    0  502 -0.58898257758E+00 -0.84778050896E+02  0.17992014666E+03  0.19893817228E+03  0.41800000000E+01 0. -1.
        -11    1    3    3    0    0  0.51428749100E+02  0.11071757696E+03 -0.16841311591E+02  0.12323525412E+03  0.00000000000E+00 0.  1.
         11    1    3    3    0    0  0.67556761156E+02  0.90549410042E+02  0.68074690918E+02  0.13189873078E+03  0.00000000000E+00 0. -1.
</event>
<event>
 8    1  0.9181008E-006  0.1566833E+03  0.7561462E-02  0.1192493E+00
          1   -1    0    0  501    0  0.00000000000E+00  0.00000000000E+00  0.73308172088E+02  0.73308172088E+02  0.00000000000E+00 0. -1.
         -1   -1    0    0    0  501 -0.00000000000E+00 -0.00000000000E+00 -0.50725036258E+03  0.50725036258E+03  0.00000000000E+00 0.  1.
         23    2    1    2    0    0 -0.35699640333E+02  0.12815032725E+03 -0.33731057584E+03  0.37396167991E+03  0.91498321129E+02 0.  0.
         23    2    1    2    0    0  0.35699640333E+02 -0.12815032725E+03 -0.96631614654E+02  0.20659685477E+03  0.12509045029E+03 0.  0.
          5    1    4    4  502    0  0.23490402656E+02 -0.13951559388E+03 -0.11430899561E+03  0.18193520503E+03  0.41800000000E+01 0. -1.
         -5    1    4    4    0  502  0.12209237677E+02  0.11365266628E+02  0.17677380953E+02  0.24661649733E+02  0.41800000000E+01 0. -1.
        -11    1    3    3    0    0  0.25345839681E+02  0.33672310816E+02 -0.49857830359E+02  0.65284296373E+02  0.00000000000E+00 0. -1.
         11    1    3    3    0    0 -0.61045480014E+02  0.94478016438E+02 -0.28745274548E+03  0.30867738353E+03  0.00000000000E+00 0.  1.
</event>
<event>
 8    1  0.9213307E-006  0.1520893E+03  0.7561462E-02  0.1197929E+00
          2   -1    0    0  501    0  0.00000000000E+00  0.00000000000E+00  0.17434509359E+04  0.17434509359E+04  0.00000000000E+00 0. -1.
         -2   -1    0    0    0  501 -0.00000000000E+00 -0.00000000000E+00 -0.14871561775E+02  0.14871561775E+02  0.00000000000E+00 0.  1.
         23    2    1    2    0    0 -0.92839217267E+02 -0.57295123272E+02  0.54127111368E+03  0.55946879506E+03  0.90161315052E+02 0.  0.
         23    2    1    2    0    0  0.92839217267E+02  0.57295123272E+02  0.11873082605E+04  0.11988537026E+04  0.12508974191E+03 0.  0.
          5    1    4    4  502    0 -0.18627710960E+02 -0.19554069219E+02  0.30318805827E+03  0.30441718794E+03  0.41800000000E+01 0. -1.
         -5    1    4    4    0  502  0.11146692823E+03  0.76849192491E+02  0.88412020219E+03  0.89443651468E+03  0.41800000000E+01 0. -1.
        -11    1    3    3    0    0 -0.23809424782E+02 -0.67535804855E+02  0.28635667528E+03  0.29517472643E+03  0.00000000000E+00 0.  1.
         11    1    3    3    0    0 -0.69029792485E+02  0.10240681583E+02  0.25491443840E+03  0.26429406863E+03  0.00000000000E+00 0. -1.
</event>
<event>
 8    1  0.9181008E-006  0.1196179E+03  0.7561462E-02  0.1243729E+00
          2   -1    0    0  501    0  0.00000000000E+00  0.00000000000E+00  0.54393428931E+03  0.54393428931E+03  0.00000000000E+00 0. -1.
         -2   -1    0    0    0  501 -0.00000000000E+00 -0.00000000000E+00 -0.43755424382E+02  0.43755424382E+02  0.00000000000E+00 0.  1.
         23    2    1    2    0    0  0.49395872251E+02  0.71127904446E+02  0.11992031866E+03  0.17812599906E+03  0.99241411347E+02 0.  0.
         23    2    1    2    0    0 -0.49395872251E+02 -0.71127904446E+02  0.38025854627E+03  0.40956371464E+03  0.12508694316E+03 0.  0.
          5    1    4    4  502    0  0.12870140876E+02 -0.29772001309E+02  0.13731375696E+02  0.35468798494E+02  0.41800000000E+01 0. -1.
         -5    1    4    4    0  502 -0.62266013126E+02 -0.41355903137E+02  0.36652717058E+03  0.37409491614E+03  0.41800000000E+01 0. -1.
        -11    1    3    3    0    0  0.51185589420E+02 -0.86139979050E+01  0.45022280665E+02  0.68710779943E+02  0.00000000000E+00 0.  1.
         11    1    3    3    0    0 -0.17897171694E+01  0.79741902351E+02  0.74898037995E+02  0.10941521911E+03  0.00000000000E+00 0. -1.
</event>
<event>
 8    1  0.9181008E-006  0.1036808E+03  0.7561462E-02  0.1272741E+00
         -2   -1    0    0    0  501 -0.00000000000E+00  0.00000000000E+00  0.27548967295E+02  0.27548967295E+02  0.00000000000E+00 0.  1.
          2   -1    0    0  501    0  0.00000000000E+00 -0.00000000000E+00 -0.45406308426E+03  0.45406308426E+03  0.00000000000E+00 0. -1.
         23    2    1    2    0    0 -0.50974872079E+01 -0.23726064277E+02 -0.14879507079E+03  0.17605605481E+03  0.90922224135E+02 0.  0.
         23    2    1    2    0    0  0.50974872079E+01  0.23726064277E+02 -0.27771904618E+03  0.30555599675E+03  0.12509071923E+03 0.  0.
          5    1    4    4  502    0 -0.37269181295E+02  0.60453477026E+02 -0.15960742464E+03  0.17474443384E+03  0.41800000000E+01 0.  1.
         -5    1    4    4    0  502  0.42366668503E+02 -0.36727412749E+02 -0.11811162154E+03  0.13081156291E+03  0.41800000000E+01 0.  1.
        -11    1    3    3    0    0 -0.51285306052E+01 -0.51733584552E+02 -0.13534573744E+03  0.14498666918E+03  0.00000000000E+00 0.  1.
         11    1    3    3    0    0  0.31043397319E-01  0.28007520275E+02 -0.13449333345E+02  0.31069385625E+02  0.00000000000E+00 0. -1.
</event>
<event>
 8    1  0.9181008E-006  0.1452788E+03  0.7561462E-02  0.1206397E+00
         -1   -1    0    0    0  501 -0.00000000000E+00  0.00000000000E+00  0.65263502588E+03  0.65263502588E+03  0.00000000000E+00 0.  1.
          1   -1    0    0  501    0  0.00000000000E+00 -0.00000000000E+00 -0.51968116282E+02  0.51968116282E+02  0.00000000000E+00 0. -1.
         23    2    1    2    0    0  0.81653414950E+02 -0.10762433095E+03  0.40138307305E+03  0.43328841584E+03  0.91543449723E+02 0.  0.
         23    2    1    2    0    0 -0.81653414950E+02  0.10762433095E+03  0.19928383655E+03  0.27131472632E+03  0.12508939373E+03 0.  0.
          5    1    4    4  502    0 -0.72451578234E+02  0.56618926797E+02  0.19906687379E+03  0.21931718287E+03  0.41800000000E+01 0.  1.
         -5    1    4    4    0  502 -0.92018367160E+01  0.51005404153E+02  0.21696275284E+00  0.51997543447E+02  0.41800000000E+01 0.  1.
        -11    1    3    3    0    0  0.74214623420E+02 -0.52538696173E+02  0.33285150235E+03  0.34504818148E+03  0.00000000000E+00 0.  1.
         11    1    3    3    0    0  0.74387915306E+01 -0.55085634777E+02  0.68531570704E+02  0.88240234369E+02  0.00000000000E+00 0. -1.
</event>
<event>
 8    1  0.9181008E-006  0.1184017E+03  0.7561462E-02  0.1245757E+00
         -1   -1    0    0    0  501 -0.00000000000E+00  0.00000000000E+00  0.38084371166E+02  0.38084371166E+02  0.00000000000E+00 0.  1.
          1   -1    0    0  501    0  0.00000000000E+00 -0.00000000000E+00 -0.50891935259E+03  0.50891935259E+03  0.00000000000E+00 0. -1.
         23    2    1    2    0    0 -0.72571962552E+02  0.25976366517E+02 -0.13838342243E+03  0.18353029164E+03  0.92692691076E+02 0.  0.
         23    2    1    2    0    0  0.72571962552E+02 -0.25976366517E+02 -0.33245155899E+03  0.36347343212E+03  0.12508970946E+03 0.  0.
          5    1    4    4  502    0 -0.75794909993E+01 -0.53678065910E+02 -0.76854338238E+02  0.94142685056E+02  0.41800000000E+01 0. -1.
         -5    1    4    4    0  502  0.80151453551E+02  0.27701699393E+02 -0.25559722076E+03  0.26933074706E+03  0.41800000000E+01 0. -1.
        -11    1    3    3    0    0  0.70184142321E+01 -0.82986906262E+01  0.79480521961E+01  0.13464692278E+02  0.00000000000E+00 0.  1.
         11    1    3    3    0    0 -0.79590376784E+02  0.34275057143E+02 -0.14633147463E+03  0.17006559936E+03  0.00000000000E+00 0. -1.
</event>
<event>
 8    1  0.9181008E-006  0.1358647E+03  0.7561462E-02  0.1219004E+00
         -2   -1    0    0    0  501 -0.00000000000E+00  0.00000000000E+00  0.20136252849E+02  0.20136252849E+02  0.00000000000E+00 0.  1.
          2   -1    0    0  501    0  0.00000000000E+00 -0.00000000000E+00 -0.11006698378E+04  0.11006698378E+04  0.00000000000E+00 0. -1.
         23    2    1    2    0    0  0.82541858158E+02  0.24539383893E+02 -0.26445883746E+03  0.29071626765E+03  0.84629379374E+02 0.  0.
         23    2    1    2    0    0 -0.82541858158E+02 -0.24539383893E+02 -0.81607474746E+03  0.83008982297E+03  0.12512306363E+03 0.  0.
          5    1    4    4  502    0 -0.24846660004E+02 -0.72261415822E+02 -0.44122839041E+03  0.44781584790E+03  0.41800000000E+01 0. -1.
         -5    1    4    4    0  502 -0.57695198154E+02  0.47722031929E+02 -0.37484635705E+03  0.38227397507E+03  0.41800000000E+01 0. -1.
        -11    1    3    3    0    0  0.64948665887E+02  0.54951447102E+02 -0.17434011118E+03  0.19399088923E+03  0.00000000000E+00 0. -1.
         11    1    3    3    0    0  0.17593192272E+02 -0.30412063208E+02 -0.90118726278E+02  0.96725378411E+02  0.00000000000E+00 0.  1.
</event>
<event>
 8    1  0.9181008E-006  0.2628242E+03  0.7561462E-02  0.1105458E+00
         -2   -1    0    0    0  501 -0.00000000000E+00  0.00000000000E+00  0.32399776407E+02  0.32399776407E+02  0.00000000000E+00 0. -1.
          2   -1    0    0  501    0  0.00000000000E+00 -0.00000000000E+00 -0.26179475612E+04  0.26179475612E+04  0.00000000000E+00 0.  1.
         23    2    1    2    0    0  0.30550111155E+02 -0.24967999747E+03 -0.81551144600E+03  0.85815629625E+03  0.89999443411E+02 0.  0.
         23    2    1    2    0    0 -0.30550111155E+02  0.24967999747E+03 -0.17700363388E+04  0.17921910413E+04  0.12508668048E+03 0.  0.
          5    1    4    4  502    0 -0.64196785008E+02  0.19325853804E+03 -0.15219994835E+04  0.15355682954E+04  0.41800000000E+01 0. -1.
         -5    1    4    4    0  502  0.33646673853E+02  0.56421459431E+02 -0.24803685526E+03  0.25662274590E+03  0.41800000000E+01 0. -1.
        -11    1    3    3    0    0 -0.50704871204E+01 -0.15334241725E+03 -0.36222215573E+03  0.39337577057E+03  0.00000000000E+00 0. -1.
         11    1    3    3    0    0  0.35620598275E+02 -0.96337580221E+02 -0.45328929026E+03  0.46478052568E+03  0.00000000000E+00 0.  1.
</event>
<event>
 8    1  0.9181008E-006  0.1085786E+03  0.7561462E-02  0.1263225E+00
          2   -1    0    0  501    0  0.00000000000E+00  0.00000000000E+00  0.10517562126E+04  0.10517562126E+04  0.00000000000E+00 0. -1.
         -2   -1    0    0    0  501 -0.00000000000E+00 -0.00000000000E+00 -0.12541930030E+02  0.12541930030E+02  0.00000000000E+00 0.  1.
         23    2    1    2    0    0  0.90717097003E+01 -0.28190346915E+02  0.39844711563E+03  0.41076378868E+03  0.95340414099E+02 0.  0.
         23    2    1    2    0    0 -0.90717097003E+01  0.28190346915E+02  0.64076716697E+03  0.65353435398E+03  0.12509035930E+03 0.  0.
          5    1    4    4  502    0 -0.56703530004E+02  0.38873316162E+02  0.23699463536E+03  0.24680023220E+03  0.41800000000E+01 0. -1.
         -5    1    4    4    0  502  0.47631820304E+02 -0.10682969247E+02  0.40377253161E+03  0.40673412178E+03  0.41800000000E+01 0. -1.
        -11    1    3    3    0    0 -0.42931427399E+02 -0.90577641326E+01  0.15502041504E+03  0.16111014750E+03  0.00000000000E+00 0.  1.
         11    1    3    3    0    0  0.52003137100E+02 -0.19132582782E+02  0.24342670059E+03  0.24965364118E+03  0.00000000000E+00 0. -1.
</event>
<event>
 8    1  0.9181008E-006  0.8672831E+02  0.7561462E-02  0.1310974E+00
         -1   -1    0    0    0  501 -0.00000000000E+00  0.00000000000E+00  0.82490542750E+02  0.82490542750E+02  0.00000000000E+00 0.  1.
          1   -1    0    0  501    0  0.00000000000E+00 -0.00000000000E+00 -0.19161045073E+03  0.19161045073E+03  0.00000000000E+00 0. -1.
         23    2    1    2    0    0  0.22936040701E+02 -0.37635307243E+02  0.69269310943E+01  0.97868481847E+02  0.87107858718E+02 0.  0.
         23    2    1    2    0    0 -0.22936040701E+02  0.37635307243E+02 -0.11604683908E+03  0.17623251163E+03  0.12509416846E+03 0.  0.
          5    1    4    4  502    0 -0.53653716776E+01  0.60102403940E+02 -0.13061019442E+03  0.14393603253E+03  0.41800000000E+01 0. -1.
         -5    1    4    4    0  502 -0.17570669024E+02 -0.22467096697E+02  0.14563355344E+02  0.32296479109E+02  0.41800000000E+01 0. -1.
        -11    1    3    3    0    0  0.14664205793E+02 -0.59230517312E+02  0.27487979326E+02  0.66924450839E+02  0.00000000000E+00 0.  1.
         11    1    3    3    0    0  0.82718349081E+01  0.21595210069E+02 -0.20561048232E+02  0.30944031009E+02  0.00000000000E+00 0. -1.
</event>
<event>
 8    1  0.9181008E-006  0.9789625E+02  0.7561462E-02  0.1284783E+00
          3   -1    0    0  501    0  0.00000000000E+00  0.00000000000E+00  0.31250900514E+02  0.31250900514E+02  0.00000000000E+00 0. -1.
         -3   -1    0    0    0  501 -0.00000000000E+00 -0.00000000000E+00 -0.45655946909E+03  0.45655946909E+03  0.00000000000E+00 0.  1.
         23    2    1    2    0    0  0.25302560319E+02 -0.37650574546E+02 -0.23328123718E+03  0.25418683869E+03  0.90183302335E+02 0.  0.
         23    2    1    2    0    0 -0.25302560319E+02  0.37650574546E+02 -0.19202733139E+03  0.23362353091E+03  0.12509065861E+03 0.  0.
          5    1    4    4  502    0 -0.55644666820E+02  0.15511581479E+02 -0.26241619334E+02  0.63584849538E+02  0.41800000000E+01 0.  1.
         -5    1    4    4    0  502  0.30342106500E+02  0.22138993067E+02 -0.16578571206E+03  0.17003868137E+03  0.41800000000E+01 0.  1.
        -11    1    3    3    0    0 -0.24029861762E+02 -0.44207885013E+02 -0.13388753576E+03  0.14303021913E+03  0.00000000000E+00 0.  1.
         11    1    3    3    0    0  0.49332422082E+02  0.65573104663E+01 -0.99393701425E+02  0.11115661956E+03  0.00000000000E+00 0. -1.
</event>
<event>
 8    1  0.9181008E-006  0.1172326E+03  0.7561462E-02  0.1247734E+00
          2   -1    0    0  501    0  0.00000000000E+00  0.00000000000E+00  0.22210282711E+02  0.22210282711E+02  0.00000000000E+00 0.  1.
         -2   -1    0    0    0  501 -0.00000000000E+00 -0.00000000000E+00 -0.66756331713E+03  0.66756331713E+03  0.00000000000E+00 0. -1.
         23    2    1    2    0    0 -0.31042098193E+02  0.41592937968E+02 -0.30769395141E+03  0.32596726204E+03  0.94262950497E+02 0.  0.
         23    2    1    2    0    0  0.31042098193E+02 -0.41592937968E+02 -0.33765908301E+03  0.36380633781E+03  0.12509120968E+03 0.  0.
          5    1    4    4  502    0 -0.26139904024E+00 -0.80065986119E+02 -0.25510718749E+03  0.26740938647E+03  0.41800000000E+01 0.  1.
         -5    1    4    4    0  502  0.31303497233E+02  0.38473048151E+02 -0.82551895522E+02  0.96396951338E+02  0.41800000000E+01 0.  1.
        -11    1    3    3    0    0  0.26241913615E+02  0.39209878593E+02 -0.10113473019E+03  0.11159877356E+03  0.00000000000E+00 0.  1.
         11    1    3    3    0    0 -0.57284011808E+02  0.23830593756E+01 -0.20655922122E+03  0.21436848848E+03  0.00000000000E+00 0. -1.
</event>
<event>
 8    1  0.9181008E-006  0.8616301E+02  0.7561462E-02  0.1312419E+00
         -2   -1    0    0    0  501 -0.00000000000E+00  0.00000000000E+00  0.53373788213E+02  0.53373788213E+02  0.00000000000E+00 0.  1.
          2   -1    0    0  501    0  0.00000000000E+00 -0.00000000000E+00 -0.32163576599E+03  0.32163576599E+03  0.00000000000E+00 0. -1.
         23    2    1    2    0    0 -0.39099168519E+02 -0.21674327556E+02 -0.37397591156E+02  0.10865660648E+03  0.91701455022E+02 0.  0.
         23    2    1    2    0    0  0.39099168519E+02  0.21674327556E+02 -0.23086438662E+03  0.26635294772E+03  0.12508799422E+03 0.  0.
          5    1    4    4  502    0 -0.16454100447E+02  0.58451140164E+02 -0.14743052816E+03  0.15950080326E+03  0.41800000000E+01 0.  1.
         -5    1    4    4    0  502  0.55553268966E+02 -0.36776812607E+02 -0.83433858457E+02  0.10685214446E+03  0.41800000000E+01 0.  1.
        -11    1    3    3    0    0 -0.10352232567E+02 -0.57222460711E+01  0.30775439778E+02  0.32970297432E+02  0.00000000000E+00 0.  1.
         11    1    3    3    0    0 -0.28746935953E+02 -0.15952081485E+02 -0.68173030934E+02  0.75686309046E+02  0.00000000000E+00 0. -1.
</event>
<event>
 8    1  0.9181008E-006  0.1244898E+03  0.7561462E-02  0.1235869E+00
          1   -1    0    0  501    0  0.00000000000E+00  0.00000000000E+00  0.53051551439E+03  0.53051551439E+03  0.00000000000E+00 0. -1.
         -1   -1    0    0    0  501 -0.00000000000E+00 -0.00000000000E+00 -0.33823003961E+02  0.33823003961E+02  0.00000000000E+00 0.  1.
         23    2    1    2    0    0 -0.37414613169E+02 -0.62041128290E+02  0.13568982731E+03  0.17546788395E+03  0.84429225875E+02 0.  0.
         23    2    1    2    0    0  0.37414613169E+02  0.62041128290E+02  0.36100268312E+03  0.38887063441E+03  0.12509387758E+03 0.  0.
          5    1    4    4  502    0 -0.35627194202E+02 -0.79246874865E+01  0.51696521171E+02  0.63420031060E+02  0.41800000000E+01 0. -1.
         -5    1    4    4    0  502  0.73041807371E+02  0.69965815777E+02  0.30930616195E+03  0.32545060335E+03  0.41800000000E+01 0. -1.
        -11    1    3    3    0    0 -0.55313475934E+02 -0.10302760361E+02  0.62993325098E+02  0.84462337749E+02  0.00000000000E+00 0.  1.
         11    1    3    3    0    0  0.17898862766E+02 -0.51738367929E+02  0.72696502216E+02  0.91005546198E+02  0.00000000000E+00 0. -1.
</event>
<event>
 7    1  0.9181008E-006  0.1109423E+03  0.7561462E-02  0.1258835E+00
          1   -1    0    0  501    0  0.00000000000E+00  0.00000000000E+00  0.53540947790E+02  0.53540947790E+02  0.00000000000E+00 0. -1.
         -1   -1    0    0    0  501 -0.00000000000E+00 -0.00000000000E+00 -0.34193837220E+03  0.34193837220E+03  0.00000000000E+00 0.  1.
         23    2    1    2    0    0  0.50747238961E+02  0.17903851239E+02 -0.19545363215E+03  0.21944334880E+03  0.84008516591E+02 0.  0.
          5    1    1    2  502    0 -0.88104028565E+02 -0.34887861425E+02 -0.27642814474E+02  0.98798179721E+02  0.41800000000E+01 0. -1.
         -5    1    1    2    0  502  0.37356789604E+02  0.16984010186E+02 -0.65300977785E+02  0.77237791471E+02  0.41800000000E+01 0.  1.
        -11    1    3    3    0    0 -0.16565551965E+02  0.42086910072E+01 -0.63217553894E+01  0.18223478897E+02  0.00000000000E+00 0. -1.
         11    1    3    3    0    0  0.67312790926E+02  0.13695160231E+02 -0.18913187676E+03  0.20121986990E+03  0.00000000000E+00 0.  1.
</event>
<event>
 8    1  0.9181008E-006  0.1750326E+03  0.7561462E-02  0.1172699E+00
         -1   -1    0    0    0  501 -0.00000000000E+00  0.00000000000E+00  0.10294411596E+03  0.10294411596E+03  0.00000000000E+00 0.  1.
          1   -1    0    0  501    0  0.00000000000E+00 -0.00000000000E+00 -0.37986050658E+03  0.37986050658E+03  0.00000000000E+00 0. -1.
         23    2    1    2    0    0  0.61023759426E+02 -0.14443628925E+03 -0.58003415181E+02  0.19054756626E+03  0.91423399463E+02 0.  0.
         23    2    1    2    0    0 -0.61023759426E+02  0.14443628925E+03 -0.21891297544E+03  0.29225705627E+03  0.11360261995E+03 0.  0.
          5    1    4    4  502    0 -0.72492663038E+02  0.14008321962E+03 -0.22739002449E+03  0.27677100688E+03  0.41800000000E+01 0. -1.
         -5    1    4    4    0  502  0.11468903612E+02  0.43530696265E+01  0.84770490467E+01  0.15486049392E+02  0.41800000000E+01 0.  1.
        -11    1    3    3    0    0  0.81227319091E+01 -0.12131690958E+03 -0.52875113533E+02  0.13258789143E+03  0.00000000000E+00 0. -1.
         11    1    3    3    0    0  0.52901027517E+02 -0.23119379672E+02 -0.51283016484E+01  0.57959674832E+02  0.00000000000E+00 0.  1.
</event>
<event>
 8    1  0.9181008E-006  0.1746562E+03  0.7561462E-02  0.1173077E+00
          1   -1    0    0  501    0  0.00000000000E+00  0.00000000000E+00  0.14215798148E+03  0.14215798148E+03  0.00000000000E+00 0. -1.
         -1   -1    0    0    0  501 -0.00000000000E+00 -0.00000000000E+00 -0.29324705665E+03  0.29324705665E+03  0.00000000000E+00 0.  1.
         23    2    1    2    0    0 -0.11730690720E+03  0.10964551004E+03 -0.13804439375E+03  0.23144386017E+03  0.93418185674E+02 0.  0.
         23    2    1    2    0    0  0.11730690720E+03 -0.10964551004E+03 -0.13044681420E+02  0.20396117796E+03  0.12508776940E+03 0.  0.
          5    1    4    4  502    0  0.86933071957E+02 -0.10160523858E+03  0.42188293657E+02  0.14027939275E+03  0.41800000000E+01 0.  1.
         -5    1    4    4    0  502  0.30373835245E+02 -0.80402714613E+01 -0.55232975078E+02  0.63681785218E+02  0.41800000000E+01 0.  1.
        -11    1    3    3    0    0  0.47954565182E+01 -0.11110372231E+02 -0.18859415997E+02  0.22407908114E+02  0.00000000000E+00 0.  1.
         11    1    3    3    0    0 -0.12210236372E+03  0.12075588227E+03 -0.11918497775E+03  0.20903595206E+03  0.00000000000E+00 0. -1.
</event>
<event>
 8    1  0.9181008E-006  0.1126091E+03  0.7561462E-02  0.1255813E+00
          1   -1    0    0  501    0  0.00000000000E+00  0.00000000000E+00  0.40873555012E+03  0.40873555012E+03  0.00000000000E+00 0. -1.
         -1   -1    0    0    0  501 -0.00000000000E+00 -0.00000000000E+00 -0.31389732545E+02  0.31389732545E+02  0.00000000000E+00 0.  1.
         23    2    1    2    0    0 -0.17282356765E+02  0.30423331542E+02  0.17026548726E+03  0.19567776954E+03  0.89862085336E+02 0.  0.
         23    2    1    2    0    0  0.17282356765E+02 -0.30423331542E+02  0.20708033031E+03  0.24444751312E+03  0.12509222404E+03 0.  0.
          5    1    4    4  502    0 -0.53680660152E+02 -0.38354310432E+01  0.84048657546E+02  0.99889804489E+02  0.41800000000E+01 0. -1.
         -5    1    4    4    0  502  0.70963016917E+02 -0.26587900499E+02  0.12303167276E+03  0.14455770864E+03  0.41800000000E+01 0. -1.
        -11    1    3    3    0    0 -0.44990806266E+02 -0.10235555679E+02  0.97125134327E+02  0.10752781485E+03  0.00000000000E+00 0. -1.
         11    1    3    3    0    0  0.27708449500E+02  0.40658887221E+02  0.73140352934E+02  0.88149954685E+02  0.00000000000E+00 0.  1.
</event>
<event>
 8    1  0.9181008E-006  0.1100161E+03  0.7561462E-02  0.1260540E+00
          1   -1    0    0  501    0  0.00000000000E+00  0.00000000000E+00  0.41353162078E+03  0.41353162078E+03  0.00000000000E+00 0. -1.
         -1   -1    0    0    0  501 -0.00000000000E+00 -0.00000000000E+00 -0.39543303541E+02  0.39543303541E+02  0.00000000000E+00 0.  1.
         23    2    1    2    0    0 -0.10614876980E+02 -0.45155557180E+02  0.75550488865E+02  0.12617376781E+03  0.89778858075E+02 0.  0.
         23    2    1    2    0    0  0.10614876980E+02  0.45155557180E+02  0.29843782837E+03  0.32690115651E+03  0.12509008261E+03 0.  0.
          5    1    4    4  502    0 -0.43849272374E+02 -0.81147706202E+01  0.50556311906E+02  0.67542736571E+02  0.41800000000E+01 0. -1.
         -5    1    4    4    0  502  0.54464149354E+02  0.53270327800E+02  0.24788151647E+03  0.25935841994E+03  0.41800000000E+01 0. -1.
        -11    1    3    3    0    0 -0.42917525310E+02  0.61550091312E+00  0.45697872442E+02  0.62694404582E+02  0.00000000000E+00 0. -1.
         11    1    3    3    0    0  0.32302648330E+02 -0.45771058093E+02  0.29852616422E+02  0.63479363224E+02  0.00000000000E+00 0.  1.
</event>
<event>
 8    1  0.9181008E-006  0.1133606E+03  0.7561462E-02  0.1254470E+00
         -2   -1    0    0    0  501 -0.00000000000E+00  0.00000000000E+00  0.26686827183E+03  0.26686827183E+03  0.00000000000E+00 0. -1.
          2   -1    0    0  501    0  0.00000000000E+00 -0.00000000000E+00 -0.50560561974E+02  0.50560561974E+02  0.00000000000E+00 0.  1.
         23    2    1    2    0    0 -0.37255237744E+02  0.17040298487E+02  0.10723748471E+03  0.14648317400E+03  0.90989656699E+02 0.  0.
         23    2    1    2    0    0  0.37255237744E+02 -0.17040298487E+02  0.10907022514E+03  0.17094565980E+03  0.12509108713E+03 0.  0.
          5    1    4    4  502    0  0.55505117944E+02 -0.59330321179E+02  0.88852722779E+02  0.12047067641E+03  0.41800000000E+01 0. -1.
         -5    1    4    4    0  502 -0.18249880200E+02  0.42290022692E+02  0.20217502363E+02  0.50474983392E+02  0.41800000000E+01 0. -1.
        -11    1    3    3    0    0  0.28733916676E+02  0.16485717477E+02  0.28088226743E+02  0.43432307443E+02  0.00000000000E+00 0. -1.
         11    1    3    3    0    0 -0.65989154421E+02  0.55458101012E+00  0.79149257970E+02  0.10305086656E+03  0.00000000000E+00 0.  1.
</event>
<event>
 8    1  0.9181008E-006  0.1771271E+03  0.7561462E-02  0.1170613E+00
         -2   -1    0    0    0  501 -0.00000000000E+00  0.00000000000E+00  0.18706511400E+03  0.18706511400E+03  0.00000000000E+00 0.  1.
          2   -1    0    0  501    0  0.00000000000E+00 -0.00000000000E+00 -0.21235539429E+03  0.21235539429E+03  0.00000000000E+00 0. -1.
         23    2    1    2    0    0  0.32818239885E+02  0.15397917638E+03  0.20769168792E+02  0.19313098791E+03  0.10991631586E+03 0.  0.
         23    2    1    2    0    0 -0.32818239885E+02 -0.15397917638E+03 -0.46059449083E+02  0.20628952038E+03  0.12508904724E+03 0.  0.
          5    1    4    4  502    0 -0.10035914503E+02 -0.12582975876E+03 -0.85550158578E+02  0.15254556631E+03  0.41800000000E+01 0. -1.
         -5    1    4    4    0  502 -0.22782325382E+02 -0.28149417621E+02  0.39490709495E+02  0.53743954066E+02  0.41800000000E+01 0. -1.
        -11    1    3    3    0    0 -0.32656938681E+02  0.11369158067E+02  0.92025231824E+01  0.35782954491E+02  0.00000000000E+00 0.  1.
         11    1    3    3    0    0  0.65475178566E+02  0.14261001831E+03  0.11566645609E+02  0.15734803342E+03  0.00000000000E+00 0. -1.
</event>
<event>
 8    1  0.9181008E-006  0.8772874E+02  0.7561462E-02  0.1308447E+00
         -1   -1    0    0    0  501 -0.00000000000E+00  0.00000000000E+00  0.26776440465E+03  0.26776440465E+03  0.00000000000E+00 0.  1.
          1   -1    0    0  501    0  0.00000000000E+00 -0.00000000000E+00 -0.51603492453E+02  0.51603492453E+02  0.00000000000E+00 0. -1.
         23    2    1    2    0    0  0.37609172366E+02  0.17579536786E+02  0.76220279380E+02  0.12713399262E+03  0.92897960858E+02 0.  0.
         23    2    1    2    0    0 -0.37609172366E+02 -0.17579536786E+02  0.13994063282E+03  0.19223390448E+03  0.12508798247E+03 0.  0.
          5    1    4    4  502    0 -0.77908499516E+02 -0.16113092828E+02  0.51281919169E+02  0.94745309599E+02  0.41800000000E+01 0.  1.
         -5    1    4    4    0  502  0.40299327149E+02 -0.14664439579E+01  0.88658713649E+02  0.97488594884E+02  0.41800000000E+01 0.  1.
        -11    1    3    3    0    0 -0.64086563754E+01  0.79111739796E+01 -0.19129488267E+02  0.21670137786E+02  0.00000000000E+00 0. -1.
         11    1    3    3    0    0  0.44017828742E+02  0.96683628066E+01  0.95349767648E+02  0.10546385484E+03  0.00000000000E+00 0.  1.
</event>
<event>
 8    1  0.9181008E-006  0.1236942E+03  0.7561462E-02  0.1237124E+00
          2   -1    0    0  501    0  0.00000000000E+00  0.00000000000E+00  0.10686403902E+04  0.10686403902E+04  0.00000000000E+00 0. -1.
         -2   -1    0    0    0  501 -0.00000000000E+00 -0.00000000000E+00 -0.34620334017E+02  0.34620334017E+02  0.00000000000E+00 0.  1.
         23    2    1    2    0    0 -0.95035893554E+02  0.65472794248E+01  0.13029801704E+03  0.18596236814E+03  0.92356597963E+02 0.  0.
         23    2    1    2    0    0  0.95035893554E+02 -0.65472794248E+01  0.90372203913E+03  0.91729835606E+03  0.12509221439E+03 0.  0.
          5    1    4    4  502    0  0.32460592437E+02  0.29179153053E+02  0.87306739253E+02  0.97698782762E+02  0.41800000000E+01 0. -1.
         -5    1    4    4    0  502  0.62575301118E+02 -0.35726432477E+02  0.81641529987E+03  0.81959957330E+03  0.41800000000E+01 0. -1.
        -11    1    3    3    0    0 -0.13231292668E+02  0.40639889329E+02  0.30577451862E+02  0.52551386972E+02  0.00000000000E+00 0.  1.
         11    1    3    3    0    0 -0.81804600886E+02 -0.34092609904E+02  0.99720565176E+02  0.13341098116E+03  0.00000000000E+00 0. -1.
</event>
<event>
 7    1  0.9181008E-006  0.1166281E+03  0.7561462E-02  0.1248766E+00
          1   -1    0    0  501    0  0.00000000000E+00  0.00000000000E+00  0.91351428040E+02  0.91351428040E+02  0.00000000000E+00 0. -1.
         -1   -1    0    0    0  501 -0.00000000000E+00 -0.00000000000E+00 -0.16012662978E+03  0.16012662978E+03  0.00000000000E+00 0.  1.
         23    2    1    2    0    0  0.10941530053E+02  0.42599748270E+02 -0.38446280955E+02  0.10879625946E+03  0.91782644986E+02 0.  0.
          5    1    1    2  502    0 -0.59271950143E+01  0.45454017372E+02  0.74781729017E+01  0.46632550927E+02  0.41800000000E+01 0. -1.
         -5    1    1    2    0  502 -0.50143350391E+01 -0.88053765642E+02 -0.37807093689E+02  0.96049247435E+02  0.41800000000E+01 0.  1.
        -11    1    3    3    0    0  0.38557149978E+02 -0.97268105031E+01 -0.28198918497E+02  0.48748781127E+02  0.00000000000E+00 0.  1.
         11    1    3    3    0    0 -0.27615619924E+02  0.52326558773E+02 -0.10247362458E+02  0.60047478333E+02  0.00000000000E+00 0. -1.
</event>
<event>
 8    1  0.9181008E-006  0.8458685E+02  0.7561462E-02  0.1316517E+00
          2   -1    0    0  501    0  0.00000000000E+00  0.00000000000E+00  0.93862191851E+03  0.93862191851E+03  0.00000000000E+00 0.  1.
         -2   -1    0    0    0  501 -0.00000000000E+00 -0.00000000000E+00 -0.13702437348E+02  0.13702437348E+02  0.00000000000E+00 0. -1.
         23    2    1    2    0    0  0.92898186961E+01 -0.13282535588E+02  0.25450365853E+03  0.27014209438E+03  0.89117408331E+02 0.  0.
         23    2    1    2    0    0 -0.92898186961E+01  0.13282535588E+02  0.67041582264E+03  0.68218226148E+03  0.12511009614E+03 0.  0.
          5    1    4    4  502    0 -0.34025867909E+02 -0.28302888144E+02  0.55743944127E+03  0.55920927768E+03  0.41800000000E+01 0.  1.
         -5    1    4    4    0  502  0.24736049213E+02  0.41585423732E+02  0.11297638137E+03  0.12297298380E+03  0.41800000000E+01 0.  1.
        -11    1    3    3    0    0  0.17643898003E+02 -0.42365570966E+02  0.73677239026E+02  0.86801407192E+02  0.00000000000E+00 0. -1.
         11    1    3    3    0    0 -0.83540793070E+01  0.29083035378E+02  0.18082641950E+03  0.18334068718E+03  0.00000000000E+00 0.  1.
</event>
<event>
 8    1  0.9181008E-006  0.1733087E+03  0.7561462E-02  0.1174441E+00
         -3   -1    0    0    0  501 -0.00000000000E+00  0.00000000000E+00  0.46144250435E+03  0.46144250435E+03  0.00000000000E+00 0.  1.
          3   -1    0    0  501    0  0.00000000000E+00 -0.00000000000E+00 -0.81814689829E+02  0.81814689829E+02  0.00000000000E+00 0. -1.
         23    2    1    2    0    0  0.13992203732E+03 -0.75658327128E+02  0.14954898625E+03  0.23684773836E+03  0.91812814375E+02 0.  0.
         23    2    1    2    0    0 -0.13992203732E+03  0.75658327128E+02  0.23007882827E+03  0.30640945582E+03  0.12509247942E+03 0.  0.
          5    1    4    4  502    0 -0.15228903682E+03  0.70224775245E+02  0.23724144644E+03  0.29055885136E+03  0.41800000000E+01 0. -1.
         -5    1    4    4    0  502  0.12366999501E+02  0.54335518835E+01 -0.71626181716E+01  0.15850604462E+02  0.41800000000E+01 0. -1.
        -11    1    3    3    0    0  0.31586552528E+02  0.16569251861E+01 -0.59313165059E+01  0.32181302292E+02  0.00000000000E+00 0. -1.
         11    1    3    3    0    0  0.10833548479E+03 -0.77315252314E+02  0.15548030276E+03  0.20466643606E+03  0.00000000000E+00 0.  1.
</event>
<event>
 8    1  0.9181008E-006  0.1227450E+03  0.7561462E-02  0.1238636E+00
          1   -1    0    0  501    0  0.00000000000E+00  0.00000000000E+00  0.25092485978E+03  0.25092485978E+03  0.00000000000E+00 0. -1.
         -1   -1    0    0    0  501 -0.00000000000E+00 -0.00000000000E+00 -0.93369287837E+02  0.93369287837E+02  0.00000000000E+00 0.  1.
         23    2    1    2    0    0  0.62567403798E+02  0.76258360416E+02  0.28175300251E+02  0.13907193202E+03  0.93899612241E+02 0.  0.
         23    2    1    2    0    0 -0.62567403798E+02 -0.76258360416E+02  0.12938027170E+03  0.20522221561E+03  0.12508751146E+03 0.  0.
          5    1    4    4  502    0  0.27419650806E+02 -0.30581130525E+02  0.25495732196E+00  0.41286561951E+02  0.41800000000E+01 0.  1.
         -5    1    4    4    0  502 -0.89987054604E+02 -0.45677229890E+02  0.12912531437E+03  0.16393565365E+03  0.41800000000E+01 0.  1.
        -11    1    3    3    0    0  0.29070171340E+02  0.13475744638E+02 -0.32439034319E+02  0.45595630304E+02  0.00000000000E+00 0.  1.
         11    1    3    3    0    0  0.33497232458E+02  0.62782615777E+02  0.60614334570E+02  0.93476301711E+02  0.00000000000E+00 0. -1.
</event>
<event>
 8    1  0.9181008E-006  0.1001652E+03  0.7561462E-02  0.1279949E+00
         -2   -1    0    0    0  501 -0.00000000000E+00  0.00000000000E+00  0.12796093508E+02  0.12796093508E+02  0.00000000000E+00 0.  1.
          2   -1    0    0  501    0  0.00000000000E+00 -0.00000000000E+00 -0.94815067624E+03  0.94815067624E+03  0.00000000000E+00 0. -1.
         23    2    1    2    0    0  0.16386649923E+02 -0.26448067410E+00 -0.32111124743E+03  0.33388147223E+03  0.89976730477E+02 0.  0.
         23    2    1    2    0    0 -0.16386649923E+02  0.26448067410E+00 -0.61424333531E+03  0.62706529752E+03  0.12508964842E+03 0.  0.
          5    1    4    4  502    0 -0.13087106727E+02 -0.54791186317E+02 -0.45491908638E+03  0.45841268962E+03  0.41800000000E+01 0.  1.
         -5    1    4    4    0  502 -0.32995431954E+01  0.55055666991E+02 -0.15932424893E+03  0.16865260790E+03  0.41800000000E+01 0.  1.
        -11    1    3    3    0    0 -0.75903466127E+01 -0.40764444910E+02 -0.10922303022E+03  0.11682903604E+03  0.00000000000E+00 0.  1.
         11    1    3    3    0    0  0.23976996535E+02  0.40499964236E+02 -0.21188821721E+03  0.21705243619E+03  0.00000000000E+00 0. -1.
</event>
<event>
 8    1  0.9181008E-006  0.1279606E+03  0.7561462E-02  0.1230514E+00
         -1   -1    0    0    0  501 -0.00000000000E+00  0.00000000000E+00  0.21642083555E+02  0.21642083555E+02  0.00000000000E+00 0.  1.
          1   -1    0    0  501    0  0.00000000000E+00 -0.00000000000E+00 -0.10133823784E+04  0.10133823784E+04  0.00000000000E+00 0. -1.
         23    2    1    2    0    0  0.31875742195E+02 -0.94350620028E+02 -0.41552713744E+03  0.43704066900E+03  0.91780400771E+02 0.  0.
         23    2    1    2    0    0 -0.31875742195E+02  0.94350620028E+02 -0.57621315741E+03  0.59798379296E+03  0.12507962039E+03 0.  0.
          5    1    4    4  502    0 -0.35316615428E+02  0.93135301186E+01 -0.37283933903E+02  0.52359997096E+02  0.41800000000E+01 0. -1.
         -5    1    4    4    0  502  0.34408732337E+01  0.85037089909E+02 -0.53892922350E+03  0.54562379587E+03  0.41800000000E+01 0. -1.
        -11    1    3    3    0    0  0.32965069236E+02 -0.11175272687E+03 -0.33611232996E+03  0.35573426332E+03  0.00000000000E+00 0.  1.
         11    1    3    3    0    0 -0.10893270410E+01  0.17402106839E+02 -0.79414807486E+02  0.81306405675E+02  0.00000000000E+00 0. -1.
</event>
<event>
 8    1  0.9181008E-006  0.1525929E+03  0.7561462E-02  0.1197323E+00
         -2   -1    0    0    0  501 -0.00000000000E+00  0.00000000000E+00  0.18777845579E+03  0.18777845579E+03  0.00000000000E+00 0.  1.
          2   -1    0    0  501    0  0.00000000000E+00 -0.00000000000E+00 -0.37458297046E+03  0.37458297046E+03  0.00000000000E+00 0. -1.
         23    2    1    2    0    0 -0.22553089612E+02  0.12594976097E+03  0.12613397347E+03  0.20187543525E+03  0.92043076630E+02 0.  0.
         23    2    1    2    0    0  0.22553089612E+02 -0.12594976097E+03 -0.31293848814E+03  0.36048599100E+03  0.12509063997E+03 0.  0.
          5    1    4    4  502    0 -0.24111994903E+02 -0.19477466825E+02 -0.18477797561E+03  0.18740633043E+03  0.41800000000E+01 0. -1.
         -5    1    4    4    0  502  0.46665084515E+02 -0.10647229414E+03 -0.12816051252E+03  0.17307966057E+03  0.41800000000E+01 0. -1.
        -11    1    3    3    0    0  0.36013444925E+02  0.51968047105E+02  0.48525621391E+02  0.79701832267E+02  0.00000000000E+00 0. -1.
         11    1    3    3    0    0 -0.58566534537E+02  0.73981713862E+02  0.77608352084E+02  0.12217360299E+03  0.00000000000E+00 0.  1.
</event>
<event>
 8    1  0.9181008E-006  0.1214870E+03  0.7561462E-02  0.1240664E+00
         -2   -1    0    0    0  501 -0.00000000000E+00  0.00000000000E+00  0.89865649623E+02  0.89865649623E+02  0.00000000000E+00 0.  1.
          2   -1    0    0  501    0  0.00000000000E+00 -0.00000000000E+00 -0.29282412299E+03  0.29282412299E+03  0.00000000000E+00 0. -1.
         23    2    1    2    0    0 -0.38909785234E+02  0.89491331922E+02 -0.11009105534E+02  0.13366094246E+03  0.90671810713E+02 0.  0.
         23    2    1    2    0    0  0.38909785234E+02 -0.89491331922E+02 -0.19194936783E+03  0.24902883015E+03  0.12509248003E+03 0.  0.
          5    1    4    4  502    0 -0.35144988823E+01 -0.78316274286E+02 -0.34901869932E+02  0.85915094397E+02  0.41800000000E+01 0.  1.
         -5    1    4    4    0  502  0.42424284116E+02 -0.11175057635E+02 -0.15704749790E+03  0.16311373576E+03  0.41800000000E+01 0.  1.
        -11    1    3    3    0    0  0.86243458730E+01  0.67454382016E+02  0.22310474370E+02  0.71569758009E+02  0.00000000000E+00 0.  1.
         11    1    3    3    0    0 -0.47534131107E+02  0.22036949906E+02 -0.33319579904E+02  0.62091184448E+02  0.00000000000E+00 0. -1.
</event>
<event>
 8    1  0.9181008E-006  0.2067602E+03  0.7561462E-02  0.1144158E+00
          1   -1    0    0  501    0  0.00000000000E+00  0.00000000000E+00  0.16089807650E+04  0.16089807650E+04  0.00000000000E+00 0. -1.
         -1   -1    0    0    0  501 -0.00000000000E+00 -0.00000000000E+00 -0.48017057875E+02  0.48017057875E+02  0.00000000000E+00 0.  1.
         23    2    1    2    0    0  0.16008935781E+03  0.11281653352E+03  0.27929435421E+03  0.35443136285E+03  0.96229319642E+02 0.  0.
         23    2    1    2    0    0 -0.16008935781E+03 -0.11281653352E+03  0.12816693530E+04  0.13025664601E+04  0.12508748882E+03 0.  0.
          5    1    4    4  502    0 -0.91616793964E+00 -0.24622736779E+02  0.47322094278E+03  0.47388041911E+03  0.41800000000E+01 0.  1.
         -5    1    4    4    0  502 -0.15917318987E+03 -0.88193796738E+02  0.80844841017E+03  0.82868604095E+03  0.41800000000E+01 0.  1.
        -11    1    3    3    0    0  0.12106091167E+03  0.46749878591E+02  0.11622889560E+03  0.17421381017E+03  0.00000000000E+00 0.  1.
         11    1    3    3    0    0  0.39028446144E+02  0.66066654927E+02  0.16306545861E+03  0.18021755268E+03  0.00000000000E+00 0. -1.
</event>
<event>
 8    1  0.9181008E-006  0.9164829E+02  0.7561462E-02  0.1298909E+00
          2   -1    0    0  501    0  0.00000000000E+00  0.00000000000E+00  0.57805328187E+03  0.57805328187E+03  0.00000000000E+00 0. -1.
         -2   -1    0    0    0  501 -0.00000000000E+00 -0.00000000000E+00 -0.21745535235E+02  0.21745535235E+02  0.00000000000E+00 0.  1.
         23    2    1    2    0    0  0.18180537633E+02 -0.21171929980E+02  0.21466398622E+03  0.23490654071E+03  0.91223206049E+02 0.  0.
         23    2    1    2    0    0 -0.18180537633E+02  0.21171929980E+02  0.34164376042E+03  0.36489227640E+03  0.12508849577E+03 0.  0.
          5    1    4    4  502    0 -0.46569781733E+02  0.44045411996E+02  0.30954063888E+03  0.31613544946E+03  0.41800000000E+01 0. -1.
         -5    1    4    4    0  502  0.28389244100E+02 -0.22873482016E+02  0.32103121537E+02  0.48756826933E+02  0.41800000000E+01 0. -1.
        -11    1    3    3    0    0 -0.46381199184E+01  0.27880921044E+02  0.25190005105E+02  0.37860193764E+02  0.00000000000E+00 0.  1.
         11    1    3    3    0    0  0.22818657551E+02 -0.49052851024E+02  0.18947398112E+03  0.19704634695E+03  0.00000000000E+00 0. -1.
</event>
<event>
 8    1  0.9181008E-006  0.9789375E+02  0.7561462E-02  0.1284788E+00
          1   -1    0    0  501    0  0.00000000000E+00  0.00000000000E+00  0.12264573678E+03  0.12264573678E+03  0.00000000000E+00 0. -1.
         -1   -1    0    0    0  501 -0.00000000000E+00 -0.00000000000E+00 -0.15546644829E+03  0.15546644829E+03  0.00000000000E+00 0.  1.
         23    2    1    2    0    0  0.19328800162E+02  0.30034957738E+02 -0.97995629791E+02  0.14166996810E+03  0.95872494494E+02 0.  0.
         23    2    1    2    0    0 -0.19328800162E+02 -0.30034957738E+02  0.65174918289E+02  0.13644221697E+03  0.11442468001E+03 0.  0.
          5    1    4    4  502    0 -0.13056684063E+02 -0.63292653057E+02  0.76757997094E+02  0.10042758310E+03  0.41800000000E+01 0. -1.
         -5    1    4    4    0  502 -0.62721160986E+01  0.33257695319E+02 -0.11583078804E+02  0.36014633871E+02  0.41800000000E+01 0.  1.
        -11    1    3    3    0    0 -0.22390425017E+02  0.46865741038E+02 -0.29530025873E+02  0.59747395287E+02  0.00000000000E+00 0.  1.
         11    1    3    3    0    0  0.41719225179E+02 -0.16830783300E+02 -0.68465603919E+02  0.81922572811E+02  0.00000000000E+00 0. -1.
</event>
<event>
 8    1  0.9181008E-006  0.1114180E+03  0.7561462E-02  0.1257966E+00
         -2   -1    0    0    0  501 -0.00000000000E+00  0.00000000000E+00  0.31366758169E+03  0.31366758169E+03  0.00000000000E+00 0. -1.
          2   -1    0    0  501    0  0.00000000000E+00 -0.00000000000E+00 -0.44691785684E+02  0.44691785684E+02  0.00000000000E+00 0.  1.
         23    2    1    2    0    0  0.45976381712E+02 -0.40235813759E+01  0.10100900256E+03  0.14390813970E+03  0.91524407632E+02 0.  0.
         23    2    1    2    0    0 -0.45976381712E+02  0.40235813759E+01  0.16796679345E+03  0.21445122767E+03  0.12508584439E+03 0.  0.
          5    1    4    4  502    0  0.19476758447E+02  0.40788173278E+02  0.22412400113E+02  0.50624176811E+02  0.41800000000E+01 0. -1.
         -5    1    4    4    0  502 -0.65453140159E+02 -0.36764591902E+02  0.14555439333E+03  0.16382705086E+03  0.41800000000E+01 0. -1.
        -11    1    3    3    0    0  0.15301725387E+02 -0.47015079441E+02  0.53836868846E+02  0.73095615065E+02  0.00000000000E+00 0.  1.
         11    1    3    3    0    0  0.30674656325E+02  0.42991498065E+02  0.47172133714E+02  0.70812524638E+02  0.00000000000E+00 0. -1.
</event>
<event>
 8    1  0.9181008E-006  0.7047311E+02  0.7561462E-02  0.1358492E+00
          3   -1    0    0  501    0  0.00000000000E+00  0.00000000000E+00  0.21169478649E+03  0.21169478649E+03  0.00000000000E+00 0. -1.
         -3   -1    0    0    0  501 -0.00000000000E+00 -0.00000000000E+00 -0.66276655953E+02  0.66276655953E+02  0.00000000000E+00 0.  1.
         23    2    1    2    0    0 -0.36874096956E+02  0.31224975191E+02  0.53734050417E+02  0.11552885732E+03  0.90138064082E+02 0.  0.
         23    2    1    2    0    0  0.36874096956E+02 -0.31224975191E+02  0.91684080120E+02  0.16244258513E+03  0.12508766851E+03 0.  0.
          5    1    4    4  502    0  0.32625055180E+02 -0.24538422301E+02  0.12310774083E+03  0.12976716320E+03  0.41800000000E+01 0. -1.
         -5    1    4    4    0  502  0.42490417762E+01 -0.66865528895E+01 -0.31423660708E+02  0.32675421923E+02  0.41800000000E+01 0. -1.
        -11    1    3    3    0    0 -0.54006941273E+02  0.43934113131E+02  0.14862773435E+02  0.71188889839E+02  0.00000000000E+00 0.  1.
         11    1    3    3    0    0  0.17132844317E+02 -0.12709137940E+02  0.38871276983E+02  0.44339967477E+02  0.00000000000E+00 0. -1.
</event>
<event>
 8    1  0.9181008E-006  0.1089435E+03  0.7561462E-02  0.1262539E+00
          1   -1    0    0  501    0  0.00000000000E+00  0.00000000000E+00  0.63587612059E+02  0.63587612059E+02  0.00000000000E+00 0. -1.
         -1   -1    0    0    0  501 -0.00000000000E+00 -0.00000000000E+00 -0.25537308811E+03  0.25537308811E+03  0.00000000000E+00 0.  1.
         23    2    1    2    0    0 -0.35534297606E+01  0.21571820016E+02 -0.16271080842E+03  0.18868776935E+03  0.93006972016E+02 0.  0.
         23    2    1    2    0    0  0.35534297606E+01 -0.21571820016E+02 -0.29074667631E+02  0.13027293082E+03  0.12509088666E+03 0.  0.
          5    1    4    4  502    0 -0.31341854037E+02 -0.64252421202E+02 -0.14005278634E+02  0.72967840001E+02  0.41800000000E+01 0. -1.
         -5    1    4    4    0  502  0.34895283797E+02  0.42680601186E+02 -0.15069388997E+02  0.57305090818E+02  0.41800000000E+01 0. -1.
        -11    1    3    3    0    0 -0.42613185885E+02 -0.61991629949E+01 -0.48667280560E+02  0.64983208832E+02  0.00000000000E+00 0. -1.
         11    1    3    3    0    0  0.39059756124E+02  0.27770983011E+02 -0.11404352786E+03  0.12370456052E+03  0.00000000000E+00 0.  1.
</event>
<event>
 8    1  0.9181008E-006  0.9858855E+02  0.7561462E-02  0.1283292E+00
          1   -1    0    0  501    0  0.00000000000E+00  0.00000000000E+00  0.50870112826E+02  0.50870112826E+02  0.00000000000E+00 0. -1.
         -1   -1    0    0    0  501 -0.00000000000E+00 -0.00000000000E+00 -0.40351736459E+03  0.40351736459E+03  0.00000000000E+00 0.  1.
         23    2    1    2    0    0 -0.86807587126E+02  0.80424513321E+01 -0.21517050262E+03  0.24908890247E+03  0.90259060085E+02 0.  0.
         23    2    1    2    0    0  0.86807587126E+02 -0.80424513321E+01 -0.13747674914E+03  0.20529857495E+03  0.12508960834E+03 0.  0.
          5    1    4    4  502    0  0.89308170942E+02 -0.49089623739E+01 -0.25401708503E+02  0.93073984032E+02  0.41800000000E+01 0.  1.
         -5    1    4    4    0  502 -0.25005838164E+01 -0.31334889582E+01 -0.11207504064E+03  0.11222459092E+03  0.41800000000E+01 0.  1.
        -11    1    3    3    0    0 -0.37913034630E+02  0.29902319251E+02 -0.31219761950E+02  0.57499742849E+02  0.00000000000E+00 0. -1.
         11    1    3    3    0    0 -0.48894552496E+02 -0.21859867919E+02 -0.18395074067E+03  0.19158915962E+03  0.00000000000E+00 0.  1.
</event>
<event>
 8    1  0.9181008E-006  0.1654280E+03  0.7561462E-02  0.1182701E+00
         -1   -1    0    0    0  501 -0.00000000000E+00  0.00000000000E+00  0.11024881127E+03  0.11024881127E+03  0.00000000000E+00 0.  1.
          1   -1    0    0  501    0  0.00000000000E+00 -0.00000000000E+00 -0.33412864849E+03  0.33412864849E+03  0.00000000000E+00 0. -1.
         23    2    1    2    0    0  0.14694189449E+03  0.51485412069E+02 -0.72936806002E+02  0.19402919985E+03  0.89915986979E+02 0.  0.
         23    2    1    2    0    0 -0.14694189449E+03 -0.51485412069E+02 -0.15094303122E+03  0.25034825991E+03  0.12509110501E+03 0.  0.
          5    1    4    4  502    0 -0.54520612136E+02 -0.36636139695E+02  0.75280934195E+01  0.66248384659E+02  0.41800000000E+01 0.  1.
         -5    1    4    4    0  502 -0.92421282351E+02 -0.14849272374E+02 -0.15847112464E+03  0.18409987525E+03  0.41800000000E+01 0.  1.
        -11    1    3    3    0    0  0.14799181155E+03  0.62228359052E+02 -0.81690879185E+02  0.18013146504E+03  0.00000000000E+00 0. -1.
         11    1    3    3    0    0 -0.10499170577E+01 -0.10742946983E+02  0.87540731833E+01  0.13897734815E+02  0.00000000000E+00 0.  1.
</event>
<event>
 8    1  0.9181008E-006  0.2189651E+03  0.7561462E-02  0.1134657E+00
         -1   -1    0    0    0  501 -0.00000000000E+00  0.00000000000E+00  0.25279279827E+03  0.25279279827E+03  0.00000000000E+00 0.  1.
          1   -1    0    0  501    0  0.00000000000E+00 -0.00000000000E+00 -0.20326172004E+03  0.20326172004E+03  0.00000000000E+00 0. -1.
         23    2    1    2    0    0 -0.19349505443E+03  0.45136549847E+02  0.36028327826E+02  0.22087921725E+03  0.89509463124E+02 0.  0.
         23    2    1    2    0    0  0.19349505443E+03 -0.45136549847E+02  0.13502750400E+02  0.23517530106E+03  0.12508978272E+03 0.  0.
          5    1    4    4  502    0 -0.32795561663E+00 -0.32523080548E+02 -0.19443999658E+02  0.38123481556E+02  0.41800000000E+01 0. -1.
         -5    1    4    4    0  502  0.19382301005E+03 -0.12613469299E+02  0.32946750058E+02  0.19705181950E+03  0.41800000000E+01 0. -1.
        -11    1    3    3    0    0 -0.72417471434E+02  0.52674140402E+02 -0.12114087909E+02  0.90363744731E+02  0.00000000000E+00 0.  1.
         11    1    3    3    0    0 -0.12107758299E+03 -0.75375905553E+01  0.48142415735E+02  0.13051547252E+03  0.00000000000E+00 0. -1.
</event>
<event>
 8    1  0.9181008E-006  0.1393264E+03  0.7561462E-02  0.1214238E+00
         -3   -1    0    0    0  501 -0.00000000000E+00  0.00000000000E+00  0.49018053521E+03  0.49018053521E+03  0.00000000000E+00 0.  1.
          3   -1    0    0  501    0  0.00000000000E+00 -0.00000000000E+00 -0.56208189267E+02  0.56208189267E+02  0.00000000000E+00 0. -1.
         23    2    1    2    0    0  0.71620988214E+02 -0.10000986521E+03  0.24946362921E+03  0.29178655755E+03  0.88180234634E+02 0.  0.
         23    2    1    2    0    0 -0.71620988214E+02  0.10000986521E+03  0.18450871674E+03  0.25460216692E+03  0.12508899935E+03 0.  0.
          5    1    4    4  502    0 -0.89118972293E+01  0.91711322023E+02  0.47749999310E+02  0.10386492831E+03  0.41800000000E+01 0. -1.
         -5    1    4    4    0  502 -0.62709090984E+02  0.82985431876E+01  0.13675871743E+03  0.15073723861E+03  0.41800000000E+01 0. -1.
        -11    1    3    3    0    0  0.38036865935E+02 -0.51723405319E+02  0.43407977515E+02  0.77500750577E+02  0.00000000000E+00 0. -1.
         11    1    3    3    0    0  0.33584122279E+02 -0.48286459891E+02  0.20605565169E+03  0.21428580698E+03  0.00000000000E+00 0.  1.
</event>
<event>
 8    1  0.9181008E-006  0.9954248E+02  0.7561462E-02  0.1281261E+00
         -2   -1    0    0    0  501 -0.00000000000E+00  0.00000000000E+00  0.64633660461E+02  0.64633660461E+02  0.00000000000E+00 0.  1.
          2   -1    0    0  501    0  0.00000000000E+00 -0.00000000000E+00 -0.24529177702E+03  0.24529177702E+03  0.00000000000E+00 0. -1.
         23    2    1    2    0    0  0.33882848204E+02  0.47650133657E+02 -0.56734307423E+02  0.12439150893E+03  0.93999378800E+02 0.  0.
         23    2    1    2    0    0 -0.33882848204E+02 -0.47650133657E+02 -0.12392380914E+03  0.18553392855E+03  0.12508855077E+03 0.  0.
          5    1    4    4  502    0 -0.15040325431E+02  0.29553283064E+02  0.52321455183E+01  0.33829804547E+02  0.41800000000E+01 0. -1.
         -5    1    4    4    0  502 -0.18842522773E+02 -0.77203416722E+02 -0.12915595465E+03  0.15170412401E+03  0.41800000000E+01 0. -1.
        -11    1    3    3    0    0  0.52715362376E+02  0.32660210851E+02  0.80762850042E+00  0.62018151110E+02  0.00000000000E+00 0.  1.
         11    1    3    3    0    0 -0.18832514172E+02  0.14989922806E+02 -0.57541935924E+02  0.62373357819E+02  0.00000000000E+00 0. -1.
</event>
<event>
 8    1  0.1811303E-005  0.2512058E+03  0.7561462E-02  0.1112545E+00
          1   -1    0    0  501    0  0.00000000000E+00  0.00000000000E+00  0.43601664313E+03  0.43601664313E+03  0.00000000000E+00 0. -1.
         -1   -1    0    0    0  501 -0.00000000000E+00 -0.00000000000E+00 -0.15988948158E+03  0.15988948158E+03  0.00000000000E+00 0.  1.
         23    2    1    2    0    0 -0.21021143020E+03  0.10485943565E+03  0.75777450526E+02  0.26278121239E+03  0.90152076755E+02 0.  0.
         23    2    1    2    0    0  0.21021143020E+03 -0.10485943565E+03  0.20034971103E+03  0.33312491233E+03  0.12509138210E+03 0.  0.
          5    1    4    4  502    0  0.11749478538E+02 -0.58507879635E+02  0.65527938353E+02  0.88727703284E+02  0.41800000000E+01 0.  1.
         -5    1    4    4    0  502  0.19846195166E+03 -0.46351556015E+02  0.13482177267E+03  0.24439720905E+03  0.41800000000E+01 0.  1.
        -11    1    3    3    0    0 -0.96443369666E+02  0.71907133613E+02 -0.33354604891E+01  0.12034568839E+03  0.00000000000E+00 0.  1.
         11    1    3    3    0    0 -0.11376806053E+03  0.32952302036E+02  0.79112911015E+02  0.14243552400E+03  0.00000000000E+00 0. -1.
</event>
<event>
 8    1  0.9181008E-006  0.1130917E+03  0.7561462E-02  0.1254949E+00
         -2   -1    0    0    0  501 -0.00000000000E+00  0.00000000000E+00  0.14962460530E+02  0.14962460530E+02  0.00000000000E+00 0.  1.
          2   -1    0    0  501    0  0.00000000000E+00 -0.00000000000E+00 -0.96764045757E+03  0.96764045757E+03  0.00000000000E+00 0. -1.
         23    2    1    2    0    0 -0.50916089739E+02  0.14866453442E+01 -0.38228247768E+03  0.39643506618E+03  0.91794393336E+02 0.  0.
         23    2    1    2    0    0  0.50916089739E+02 -0.14866453442E+01 -0.57039551936E+03  0.58616785192E+03  0.12508814416E+03 0.  0.
          5    1    4    4  502    0 -0.28280608962E+02 -0.25923989266E+02 -0.32136981282E+03  0.32367866018E+03  0.41800000000E+01 0. -1.
         -5    1    4    4    0  502  0.79196698701E+02  0.24437343922E+02 -0.24902570654E+03  0.26248919174E+03  0.41800000000E+01 0. -1.
        -11    1    3    3    0    0 -0.56661627373E+02 -0.35704454487E+02 -0.26044976162E+03  0.26892271458E+03  0.00000000000E+00 0.  1.
         11    1    3    3    0    0  0.57455376345E+01  0.37191099831E+02 -0.12183271606E+03  0.12751235161E+03  0.00000000000E+00 0. -1.
</event>
<event>
 8    1  0.9181008E-006  0.9595544E+02  0.7561462E-02  0.1289039E+00
          1   -1    0    0  501    0  0.00000000000E+00  0.00000000000E+00  0.81773245290E+02  0.81773245290E+02  0.00000000000E+00 0. -1.
         -1   -1    0    0    0  501 -0.00000000000E+00 -0.00000000000E+00 -0.15390905885E+03  0.15390905885E+03  0.00000000000E+00 0.  1.
         23    2    1    2    0    0 -0.17155679013E+02  0.91293203662E+01 -0.54455787317E+02  0.10786620901E+03  0.91060553813E+02 0.  0.
         23    2    1    2    0    0  0.17155679013E+02 -0.91293203662E+01 -0.17680026246E+02  0.12781609514E+03  0.12508680600E+03 0.  0.
          5    1    4    4  502    0 -0.50311653897E+02 -0.36618896121E+01  0.14638126939E+02  0.52691736674E+02  0.41800000000E+01 0.  1.
         -5    1    4    4    0  502  0.67467332910E+02 -0.54674307541E+01 -0.32318153186E+02  0.75124358462E+02  0.41800000000E+01 0.  1.
        -11    1    3    3    0    0 -0.33157605113E+02  0.31657086402E+02  0.10579875054E+01  0.45855394818E+02  0.00000000000E+00 0. -1.
         11    1    3    3    0    0  0.16001926100E+02 -0.22527766036E+02 -0.55513774822E+02  0.62010814190E+02  0.00000000000E+00 0.  1.
</event>
<event>
 8    1  0.9181008E-006  0.1259752E+03  0.7561462E-02  0.1233553E+00
         -2   -1    0    0    0  501 -0.00000000000E+00  0.00000000000E+00  0.13091555119E+03  0.13091555119E+03  0.00000000000E+00 0.  1.
          2   -1    0    0  501    0  0.00000000000E+00 -0.00000000000E+00 -0.15658142543E+03  0.15658142543E+03  0.00000000000E+00 0. -1.
         23    2    1    2    0    0 -0.67567614797E+02  0.54633963238E+02  0.34063022974E+02  0.13163646560E+03  0.92831121045E+02 0.  0.
         23    2    1    2    0    0  0.67567614797E+02 -0.54633963238E+02 -0.59728897212E+02  0.15586051102E+03  0.11478111876E+03 0.  0.
          5    1    4    4  502    0  0.89628797847E+02 -0.46777787697E+02 -0.76418026896E+02  0.12680169581E+03  0.41800000000E+01 0. -1.
         -5    1    4    4    0  502 -0.22061183050E+02 -0.78561755413E+01  0.16689129684E+02  0.29058815208E+02  0.41800000000E+01 0.  1.
        -11    1    3    3    0    0 -0.16253920213E+02  0.71216410842E+02  0.16140676324E+02  0.74809682045E+02  0.00000000000E+00 0.  1.
         11    1    3    3    0    0 -0.51313694584E+02 -0.16582447603E+02  0.17922346650E+02  0.56826783560E+02  0.00000000000E+00 0. -1.
</event>
<event>
 8    1  0.9181008E-006  0.1184223E+03  0.7561462E-02  0.1245723E+00
          2   -1    0    0  501    0  0.00000000000E+00  0.00000000000E+00  0.42877400078E+03  0.42877400078E+03  0.00000000000E+00 0. -1.
         -2   -1    0    0    0  501 -0.00000000000E+00 -0.00000000000E+00 -0.57297649748E+02  0.57297649748E+02  0.00000000000E+00 0.  1.
         23    2    1    2    0    0  0.83384982464E+02 -0.34251863857E+02  0.82381632967E+02  0.15842928416E+03  0.10092997152E+03 0.  0.
         23    2    1    2    0    0 -0.83384982464E+02  0.34251863857E+02  0.28909471807E+03  0.32764236637E+03  0.12509004256E+03 0.  0.
          5    1    4    4  502    0 -0.86779350639E+02 -0.14577311315E+02  0.24934529520E+03  0.26444981062E+03  0.41800000000E+01 0. -1.
         -5    1    4    4    0  502  0.33943681742E+01  0.48829175172E+02  0.39749422875E+02  0.63192555750E+02  0.41800000000E+01 0. -1.
        -11    1    3    3    0    0  0.23723472244E+02 -0.32112594603E+02 -0.16275689096E+02  0.43115193645E+02  0.00000000000E+00 0.  1.
         11    1    3    3    0    0  0.59661510220E+02 -0.21392692540E+01  0.98657322063E+02  0.11531409051E+03  0.00000000000E+00 0. -1.
</event>
<event>
 8    1  0.9181008E-006  0.1110704E+03  0.7561462E-02  0.1258600E+00
          1   -1    0    0  501    0  0.00000000000E+00  0.00000000000E+00  0.52928798509E+03  0.52928798509E+03  0.00000000000E+00 0. -1.
         -1   -1    0    0    0  501 -0.00000000000E+00 -0.00000000000E+00 -0.36519044786E+02  0.36519044786E+02  0.00000000000E+00 0.  1.
         23    2    1    2    0    0 -0.42368943392E+02 -0.11760453720E+02  0.69284931767E+02  0.12205140058E+03  0.90347700461E+02 0.  0.
         23    2    1    2    0    0  0.42368943392E+02  0.11760453720E+02  0.42348400854E+03  0.44375562930E+03  0.12508763890E+03 0.  0.
          5    1    4    4  502    0  0.83311008912E+02 -0.12284768865E+02  0.29044871092E+03  0.30243935893E+03  0.41800000000E+01 0. -1.
         -5    1    4    4    0  502 -0.40942065520E+02  0.24045222585E+02  0.13303529762E+03  0.14131627037E+03  0.41800000000E+01 0. -1.
        -11    1    3    3    0    0 -0.10758925594E+01  0.30824350333E+02  0.23890051889E-03  0.30843121086E+02  0.00000000000E+00 0.  1.
         11    1    3    3    0    0 -0.41293050832E+02 -0.42584804054E+02  0.69284692867E+02  0.91208279498E+02  0.00000000000E+00 0. -1.
</event>
<event>
 8    1  0.9181008E-006  0.1763059E+03  0.7561462E-02  0.1171427E+00
         -2   -1    0    0    0  501 -0.00000000000E+00  0.00000000000E+00  0.52062636206E+03  0.52062636206E+03  0.00000000000E+00 0.  1.
          2   -1    0    0  501    0  0.00000000000E+00 -0.00000000000E+00 -0.82352149918E+02  0.82352149918E+02  0.00000000000E+00 0. -1.
         23    2    1    2    0    0  0.27667685776E+02 -0.15604368403E+03  0.31930385854E+03  0.36809194753E+03  0.91769251895E+02 0.  0.
         23    2    1    2    0    0 -0.27667685776E+02  0.15604368403E+03  0.11897035361E+03  0.23488656445E+03  0.12610559449E+03 0.  0.
          5    1    4    4  502    0 -0.56608945692E+02  0.15390182530E+03  0.71168817284E+02  0.17880944471E+03  0.41800000000E+01 0.  1.
         -5    1    4    4    0  502  0.28941259916E+02  0.21418587326E+01  0.47801536321E+02  0.56077119746E+02  0.41800000000E+01 0.  1.
        -11    1    3    3    0    0  0.14381831875E+02 -0.41033588634E+02  0.18832697034E+03  0.19328124648E+03  0.00000000000E+00 0.  1.
         11    1    3    3    0    0  0.13285853901E+02 -0.11501009540E+03  0.13097688820E+03  0.17481070105E+03  0.00000000000E+00 0. -1.
</event>
<event>
 8    1  0.9181008E-006  0.1112487E+03  0.7561462E-02  0.1258275E+00
         -4   -1    0    0    0  501 -0.00000000000E+00  0.00000000000E+00  0.13422085516E+03  0.13422085516E+03  0.00000000000E+00 0.  1.
          4   -1    0    0  501    0  0.00000000000E+00 -0.00000000000E+00 -0.10731597113E+03  0.10731597113E+03  0.00000000000E+00 0. -1.
         23    2    1    2    0    0 -0.32687744629E+02 -0.35021118591E+02  0.26789951838E+02  0.10758816642E+03  0.92534018810E+02 0.  0.
         23    2    1    2    0    0  0.32687744629E+02  0.35021118591E+02  0.11493218941E+00  0.13394865988E+03  0.12508901981E+03 0.  0.
          5    1    4    4  502    0  0.61114901585E+02 -0.14161782075E+02  0.29955496145E+02  0.69644751536E+02  0.41800000000E+01 0. -1.
         -5    1    4    4    0  502 -0.28427156955E+02  0.49182900666E+02 -0.29840563956E+02  0.64303908339E+02  0.41800000000E+01 0. -1.
        -11    1    3    3    0    0  0.73812101969E+01 -0.56650420081E+02  0.24009221522E+02  0.61969307543E+02  0.00000000000E+00 0.  1.
         11    1    3    3    0    0 -0.40068954826E+02  0.21629301490E+02  0.27807303162E+01  0.45618858873E+02  0.00000000000E+00 0. -1.
</event>
<event>
 8    1  0.9181008E-006  0.1334919E+03  0.7561462E-02  0.1222364E+00
         -1   -1    0    0    0  501 -0.00000000000E+00  0.00000000000E+00  0.73451556256E+02  0.73451556256E+02  0.00000000000E+00 0.  1.
          1   -1    0    0  501    0  0.00000000000E+00 -0.00000000000E+00 -0.31251093340E+03  0.31251093340E+03  0.00000000000E+00 0. -1.
         23    2    1    2    0    0 -0.57405810331E+02 -0.69047797508E+02 -0.41246416249E+02  0.13528126324E+03  0.92394415041E+02 0.  0.
         23    2    1    2    0    0  0.57405810331E+02  0.69047797508E+02 -0.19781296089E+03  0.25068122641E+03  0.12509230343E+03 0.  0.
          5    1    4    4  502    0 -0.12728588269E+02 -0.26309706760E+02 -0.15702446263E+02  0.33440347602E+02  0.41800000000E+01 0. -1.
         -5    1    4    4    0  502  0.70134398600E+02  0.95357504268E+02 -0.18211051463E+03  0.21724087881E+03  0.41800000000E+01 0. -1.
        -11    1    3    3    0    0 -0.38052338853E+02  0.85818554826E+01  0.10000863710E+02  0.40269666136E+02  0.00000000000E+00 0.  1.
         11    1    3    3    0    0 -0.19353471478E+02 -0.77629652990E+02 -0.51247279960E+02  0.95011597108E+02  0.00000000000E+00 0. -1.
</event>
<event>
 8    1  0.9181008E-006  0.1787785E+03  0.7561462E-02  0.1168991E+00
         -2   -1    0    0    0  501 -0.00000000000E+00  0.00000000000E+00  0.25424507201E+02  0.25424507201E+02  0.00000000000E+00 0.  1.
          2   -1    0    0  501    0  0.00000000000E+00 -0.00000000000E+00 -0.17721167889E+04  0.17721167889E+04  0.00000000000E+00 0. -1.
         23    2    1    2    0    0 -0.64120622292E+02  0.15595636369E+03 -0.55142682768E+03  0.58397581727E+03  0.92316668558E+02 0.  0.
         23    2    1    2    0    0  0.64120622292E+02 -0.15595636369E+03 -0.11952654540E+04  0.12135654788E+04  0.12509126371E+03 0.  0.
          5    1    4    4  502    0  0.16604978834E+02 -0.21968620852E+02 -0.63227232904E+03  0.63288554738E+03  0.41800000000E+01 0. -1.
         -5    1    4    4    0  502  0.47515643458E+02 -0.13398774284E+03 -0.56299312499E+03  0.58067993145E+03  0.41800000000E+01 0. -1.
        -11    1    3    3    0    0 -0.84072178800E+02  0.12758922170E+03 -0.49187734310E+03  0.51506355083E+03  0.00000000000E+00 0.  1.
         11    1    3    3    0    0  0.19951556508E+02  0.28367141992E+02 -0.59549484580E+02  0.68912266438E+02  0.00000000000E+00 0. -1.
</event>
<event>
 8    1  0.9181008E-006  0.9653751E+02  0.7561462E-02  0.1287750E+00
          2   -1    0    0  501    0  0.00000000000E+00  0.00000000000E+00  0.22212866965E+03  0.22212866965E+03  0.00000000000E+00 0. -1.
         -2   -1    0    0    0  501 -0.00000000000E+00 -0.00000000000E+00 -0.11418664758E+03  0.11418664758E+03  0.00000000000E+00 0.  1.
         23    2    1    2    0    0 -0.69184561246E+02  0.52088791989E+02 -0.31974237390E+02  0.12962089884E+03  0.90991646829E+02 0.  0.
         23    2    1    2    0    0  0.69184561246E+02 -0.52088791989E+02  0.13991625946E+03  0.20669441839E+03  0.12508507972E+03 0.  0.
          5    1    4    4  502    0  0.70520375360E+02 -0.23362411968E+02  0.15646280866E+03  0.17325417319E+03  0.41800000000E+01 0.  1.
         -5    1    4    4    0  502 -0.13358141140E+01 -0.28726380021E+02 -0.16546549206E+02  0.33440245201E+02  0.41800000000E+01 0.  1.
        -11    1    3    3    0    0 -0.31429635728E+02  0.98085086868E+01  0.30769439273E+02  0.45064256766E+02  0.00000000000E+00 0. -1.
         11    1    3    3    0    0 -0.37754925517E+02  0.42280283302E+02 -0.62743676663E+02  0.84556642070E+02  0.00000000000E+00 0.  1.
</event>
<event>
 8    1  0.9181008E-006  0.9769332E+02  0.7561462E-02  0.1285223E+00
          1   -1    0    0  501    0  0.00000000000E+00  0.00000000000E+00  0.72279446581E+03  0.72279446581E+03  0.00000000000E+00 0. -1.
         -1   -1    0    0    0  501 -0.00000000000E+00 -0.00000000000E+00 -0.17522667758E+02  0.17522667758E+02  0.00000000000E+00 0.  1.
         23    2    1    2    0    0 -0.26733996448E+02 -0.47424681974E+01  0.24769264378E+03  0.26517189665E+03  0.90704417855E+02 0.  0.
         23    2    1    2    0    0  0.26733996448E+02  0.47424681974E+01  0.45757915426E+03  0.47514523691E+03  0.12508843341E+03 0.  0.
          5    1    4    4  502    0  0.33694806421E+02  0.49890746243E+02  0.11854568656E+03  0.13302247458E+03  0.41800000000E+01 0.  1.
         -5    1    4    4    0  502 -0.69608099730E+01 -0.45148278045E+02  0.33903346770E+03  0.34212276233E+03  0.41800000000E+01 0.  1.
        -11    1    3    3    0    0  0.19742334433E+02 -0.30271015174E+02  0.14692048248E+03  0.15130010675E+03  0.00000000000E+00 0. -1.
         11    1    3    3    0    0 -0.46476330881E+02  0.25528546976E+02  0.10077216130E+03  0.11387178990E+03  0.00000000000E+00 0.  1.
</event>
<event>
 8    1  0.9181008E-006  0.1013256E+03  0.7561462E-02  0.1277533E+00
          1   -1    0    0  501    0  0.00000000000E+00  0.00000000000E+00  0.22725149141E+03  0.22725149141E+03  0.00000000000E+00 0. -1.
         -1   -1    0    0    0  501 -0.00000000000E+00 -0.00000000000E+00 -0.73468527213E+02  0.73468527213E+02  0.00000000000E+00 0.  1.
         23    2    1    2    0    0 -0.22497177501E+02 -0.54280253738E+02  0.21555695428E+02  0.10945032043E+03  0.89790064574E+02 0.  0.
         23    2    1    2    0    0  0.22497177501E+02  0.54280253738E+02  0.13222726877E+03  0.19126969819E+03  0.12509027899E+03 0.  0.
          5    1    4    4  502    0  0.41650248595E+02 -0.27723862392E+02  0.28987049888E+02  0.57974798104E+02  0.41800000000E+01 0. -1.
         -5    1    4    4    0  502 -0.19153071094E+02  0.82004116130E+02  0.10324021889E+03  0.13329490009E+03  0.41800000000E+01 0. -1.
        -11    1    3    3    0    0 -0.27091604306E+01 -0.46947506748E+02 -0.28597371201E+02  0.55038328278E+02  0.00000000000E+00 0.  1.
         11    1    3    3    0    0 -0.19788017071E+02 -0.73327469903E+01  0.50153066629E+02  0.54411992155E+02  0.00000000000E+00 0. -1.
</event>
<event>
 8    1  0.9181008E-006  0.1119349E+03  0.7561462E-02  0.1257028E+00
         -2   -1    0    0    0  501 -0.00000000000E+00  0.00000000000E+00  0.11210308372E+03  0.11210308372E+03  0.00000000000E+00 0.  1.
          2   -1    0    0  501    0  0.00000000000E+00 -0.00000000000E+00 -0.27028551785E+03  0.27028551785E+03  0.00000000000E+00 0. -1.
         23    2    1    2    0    0 -0.10467523261E+03 -0.15230961056E+02  0.19228624224E+02  0.14091668639E+03  0.91098221805E+02 0.  0.
         23    2    1    2    0    0  0.10467523261E+03  0.15230961056E+02 -0.17741105835E+03  0.24147191518E+03  0.12508043691E+03 0.  0.
          5    1    4    4  502    0  0.10286154670E+03  0.82694204171E+00 -0.52338315968E+02  0.11549005732E+03  0.41800000000E+01 0.  1.
         -5    1    4    4    0  502  0.18136859112E+01  0.14404019014E+02 -0.12507274239E+03  0.12598185785E+03  0.41800000000E+01 0.  1.
        -11    1    3    3    0    0 -0.36632563196E+02 -0.40211292391E+01  0.52664824018E+02  0.64278284479E+02  0.00000000000E+00 0.  1.
         11    1    3    3    0    0 -0.68042669414E+02 -0.11209831817E+02 -0.33436199794E+02  0.76638401908E+02  0.00000000000E+00 0. -1.
</event>
<event>
 8    1  0.9181008E-006  0.9653087E+02  0.7561462E-02  0.1287765E+00
         -1   -1    0    0    0  501 -0.00000000000E+00  0.00000000000E+00  0.95197802515E+02  0.95197802515E+02  0.00000000000E+00 0.  1.
          1   -1    0    0  501    0  0.00000000000E+00 -0.00000000000E+00 -0.19865069955E+03  0.19865069955E+03  0.00000000000E+00 0. -1.
         23    2    1    2    0    0  0.66726274157E+02  0.39029947485E+02 -0.16425776178E+02  0.12297801679E+03  0.94223426109E+02 0.  0.
         23    2    1    2    0    0 -0.66726274157E+02 -0.39029947485E+02 -0.87027120858E+02  0.17087048527E+03  0.12508905032E+03 0.  0.
          5    1    4    4  502    0 -0.38283457346E+02  0.10532200986E+02  0.23533791708E+02  0.46345033349E+02  0.41800000000E+01 0. -1.
         -5    1    4    4    0  502 -0.28442816811E+02 -0.49562148471E+02 -0.11056091257E+03  0.12452545192E+03  0.41800000000E+01 0. -1.
        -11    1    3    3    0    0 -0.10131602852E+02  0.81814892081E+01  0.26625085857E+02  0.29639185868E+02  0.00000000000E+00 0.  1.
         11    1    3    3    0    0  0.76857877009E+02  0.30848458277E+02 -0.43050862036E+02  0.93338830925E+02  0.00000000000E+00 0. -1.
</event>
<event>
 8    1  0.9181008E-006  0.3846765E+03  0.7561462E-02  0.1049219E+00
          2   -1    0    0  501    0  0.00000000000E+00  0.00000000000E+00  0.13326959204E+04  0.13326959204E+04  0.00000000000E+00 0. -1.
         -2   -1    0    0    0  501 -0.00000000000E+00 -0.00000000000E+00 -0.12574009443E+03  0.12574009443E+03  0.00000000000E+00 0.  1.
         23    2    1    2    0    0  0.31560981729E+03  0.21300613208E+03  0.40965999733E+03  0.56607484278E+03  0.87397054600E+02 0.  0.
         23    2    1    2    0    0 -0.31560981729E+03 -0.21300613208E+03  0.79729582865E+03  0.89236117206E+03  0.12508658573E+03 0.  0.
          5    1    4    4  502    0 -0.19996215776E+03 -0.17623238103E+03  0.64263070810E+03  0.69572581960E+03  0.41800000000E+01 0.  1.
         -5    1    4    4    0  502 -0.11564765953E+03 -0.36773751052E+02  0.15466512055E+03  0.19663535246E+03  0.41800000000E+01 0.  1.
        -11    1    3    3    0    0  0.25125889485E+03  0.15895782772E+03  0.36544976740E+03  0.47111798493E+03  0.00000000000E+00 0.  1.
         11    1    3    3    0    0  0.64350922443E+02  0.54048304357E+02  0.44210229923E+02  0.94956857851E+02  0.00000000000E+00 0. -1.
</event>
<event>
 8    1  0.9181008E-006  0.2012717E+03  0.7561462E-02  0.1148670E+00
          2   -1    0    0  501    0  0.00000000000E+00  0.00000000000E+00  0.62083349633E+02  0.62083349633E+02  0.00000000000E+00 0. -1.
         -2   -1    0    0    0  501 -0.00000000000E+00 -0.00000000000E+00 -0.71361215219E+03  0.71361215219E+03  0.00000000000E+00 0.  1.
         23    2    1    2    0    0  0.10798641900E+03 -0.14518457120E+03 -0.28877004411E+03  0.35145367968E+03  0.85976300086E+02 0.  0.
         23    2    1    2    0    0 -0.10798641900E+03  0.14518457120E+03 -0.36275875845E+03  0.42424182215E+03  0.12509028909E+03 0.  0.
          5    1    4    4  502    0 -0.99933999109E+02  0.51712664803E+02 -0.12304507247E+03  0.16678898686E+03  0.41800000000E+01 0. -1.
         -5    1    4    4    0  502 -0.80524198930E+01  0.93471906402E+02 -0.23971368597E+03  0.25745283528E+03  0.41800000000E+01 0. -1.
        -11    1    3    3    0    0  0.32999018063E+02 -0.42177314325E+00 -0.25143616241E+02  0.41488727666E+02  0.00000000000E+00 0.  1.
         11    1    3    3    0    0  0.74987400940E+02 -0.14476279806E+03 -0.26362642787E+03  0.30996495201E+03  0.00000000000E+00 0. -1.
</event>
<event>
 8    1  0.9181008E-006  0.1875067E+03  0.7561462E-02  0.1160730E+00
         -2   -1    0    0    0  501 -0.00000000000E+00  0.00000000000E+00  0.76658090679E+03  0.76658090679E+03  0.00000000000E+00 0.  1.
          2   -1    0    0  501    0  0.00000000000E+00 -0.00000000000E+00 -0.70042122939E+02  0.70042122939E+02  0.00000000000E+00 0. -1.
         23    2    1    2    0    0 -0.13463026705E+03 -0.81591182335E+02  0.57661420837E+03  0.60481763906E+03  0.92401306179E+02 0.  0.
         23    2    1    2    0    0  0.13463026705E+03  0.81591182335E+02  0.11992457548E+03  0.23180539066E+03  0.12070379238E+03 0.  0.
          5    1    4    4  502    0  0.45228307692E+02  0.96693101169E+02  0.75022134976E+02  0.13054098501E+03  0.41800000000E+01 0. -1.
         -5    1    4    4    0  502  0.89401959360E+02 -0.15101918833E+02  0.44902440500E+02  0.10126440565E+03  0.41800000000E+01 0.  1.
        -11    1    3    3    0    0 -0.74178563055E+02 -0.89730179692E+02  0.44115549408E+03  0.45625884574E+03  0.00000000000E+00 0.  1.
         11    1    3    3    0    0 -0.60451703997E+02  0.81389973569E+01  0.13545871429E+03  0.14855879332E+03  0.00000000000E+00 0. -1.
</event>
<event>
 8    1  0.9181008E-006  0.7991257E+02  0.7561462E-02  0.1329300E+00
          1   -1    0    0  501    0  0.00000000000E+00  0.00000000000E+00  0.50343783649E+03  0.50343783649E+03  0.00000000000E+00 0. -1.
         -1   -1    0    0    0  501 -0.00000000000E+00 -0.00000000000E+00 -0.89502570843E+02  0.89502570843E+02  0.00000000000E+00 0.  1.
         23    2    1    2    0    0 -0.63426562135E+02  0.17817005281E+02 -0.39056676706E+02  0.11839823766E+03  0.90290332950E+02 0.  0.
         23    2    1    2    0    0  0.63426562135E+02 -0.17817005281E+02  0.45299194235E+03  0.47454216967E+03  0.12509275159E+03 0.  0.
          5    1    4    4  502    0  0.22233153294E+02  0.18835701937E+02  0.38839718323E+03  0.38951115660E+03  0.41800000000E+01 0. -1.
         -5    1    4    4    0  502  0.41193408841E+02 -0.36652707217E+02  0.64594759114E+02  0.85031013068E+02  0.41800000000E+01 0. -1.
        -11    1    3    3    0    0 -0.13565443523E+02  0.21140477346E+02 -0.59362748017E+02  0.64458334546E+02  0.00000000000E+00 0.  1.
         11    1    3    3    0    0 -0.49861118612E+02 -0.33234720653E+01  0.20306071310E+02  0.53939903114E+02  0.00000000000E+00 0. -1.
</event>
<event>
 8    1  0.9181008E-006  0.1775647E+03  0.7561462E-02  0.1170181E+00
          1   -1    0    0  501    0  0.00000000000E+00  0.00000000000E+00  0.85910779691E+02  0.85910779691E+02  0.00000000000E+00 0. -1.
         -1   -1    0    0    0  501 -0.00000000000E+00 -0.00000000000E+00 -0.45017700009E+03  0.45017700009E+03  0.00000000000E+00 0.  1.
         23    2    1    2    0    0 -0.46322285168E+02  0.14643240374E+03 -0.24167648760E+03  0.30313591138E+03  0.99476897549E+02 0.  0.
         23    2    1    2    0    0  0.46322285168E+02 -0.14643240374E+03 -0.12258973280E+03  0.23295186839E+03  0.12510046935E+03 0.  0.
          5    1    4    4  502    0  0.89137185623E+02 -0.10421421171E+03 -0.93467384614E+02  0.16601103629E+03  0.41800000000E+01 0. -1.
         -5    1    4    4    0  502 -0.42814900455E+02 -0.42218192026E+02 -0.29122348184E+02  0.66940832103E+02  0.41800000000E+01 0. -1.
        -11    1    3    3    0    0 -0.49209435295E+02  0.10324309125E+03 -0.23217974979E+03  0.25882067272E+03  0.00000000000E+00 0.  1.
         11    1    3    3    0    0  0.28871501262E+01  0.43189312491E+02 -0.94967378060E+01  0.44315238668E+02  0.00000000000E+00 0. -1.
</event>
<event>
 8    1  0.9181008E-006  0.1573947E+03  0.7561462E-02  0.1191670E+00
         -2   -1    0    0    0  501 -0.00000000000E+00  0.00000000000E+00  0.25666725904E+02  0.25666725904E+02  0.00000000000E+00 0.  1.
          2   -1    0    0  501    0  0.00000000000E+00 -0.00000000000E+00 -0.13065239818E+04  0.13065239818E+04  0.00000000000E+00 0. -1.
         23    2    1    2    0    0  0.12630496375E+02  0.12894554547E+03 -0.35533151587E+03  0.38930620539E+03  0.92262409732E+02 0.  0.
         23    2    1    2    0    0 -0.12630496375E+02 -0.12894554547E+03 -0.92552574002E+03  0.94288450230E+03  0.12508719404E+03 0.  0.
          5    1    4    4  502    0  0.48846068832E+02 -0.10132527051E+03 -0.58177178198E+03  0.59256107499E+03  0.41800000000E+01 0. -1.
         -5    1    4    4    0  502 -0.61476565208E+02 -0.27620274963E+02 -0.34375395804E+03  0.35032342732E+03  0.41800000000E+01 0. -1.
        -11    1    3    3    0    0  0.25610327200E+02  0.76465310870E+02 -0.10075081307E+03  0.12904866896E+03  0.00000000000E+00 0.  1.
         11    1    3    3    0    0 -0.12979830825E+02  0.52480234603E+02 -0.25458070279E+03  0.26025753643E+03  0.00000000000E+00 0. -1.
</event>
<event>
 8    1  0.9181008E-006  0.1266330E+03  0.7561462E-02  0.1232539E+00
         -3   -1    0    0    0  501 -0.00000000000E+00  0.00000000000E+00  0.10616196354E+02  0.10616196354E+02  0.00000000000E+00 0.  1.
          3   -1    0    0  501    0  0.00000000000E+00 -0.00000000000E+00 -0.15801046614E+04  0.15801046614E+04  0.00000000000E+00 0. -1.
         23    2    1    2    0    0 -0.37565087206E+02  0.54437409932E+02 -0.56480734975E+03  0.57612424142E+03  0.92397141918E+02 0.  0.
         23    2    1    2    0    0  0.37565087206E+02 -0.54437409932E+02 -0.10046811153E+04  0.10145966163E+04  0.12509029970E+03 0.  0.
          5    1    4    4  502    0  0.82643873688E+02 -0.44311569823E+02 -0.73258565079E+03  0.73857479867E+03  0.41800000000E+01 0.  1.
         -5    1    4    4    0  502 -0.45078786482E+02 -0.10125840109E+02 -0.27209546449E+03  0.27602181766E+03  0.41800000000E+01 0.  1.
        -11    1    3    3    0    0  0.27767624580E+02  0.35335329153E+02 -0.25470450394E+03  0.25863876506E+03  0.00000000000E+00 0. -1.
         11    1    3    3    0    0 -0.65332711786E+02  0.19102080779E+02 -0.31010284581E+03  0.31748547636E+03  0.00000000000E+00 0.  1.
</event>
<event>
 8    1  0.9181008E-006  0.1309184E+03  0.7561462E-02  0.1226099E+00
         -2   -1    0    0    0  501 -0.00000000000E+00  0.00000000000E+00  0.90929788868E+02  0.90929788868E+02  0.00000000000E+00 0.  1.
          2   -1    0    0  501    0  0.00000000000E+00 -0.00000000000E+00 -0.28178874988E+03  0.28178874988E+03  0.00000000000E+00 0. -1.
         23    2    1    2    0    0  0.51917015357E+02  0.79437667825E+02 -0.94536852928E+01  0.13278286495E+03  0.92391544563E+02 0.  0.
         23    2    1    2    0    0 -0.51917015357E+02 -0.79437667825E+02 -0.18140527572E+03  0.23993567379E+03  0.12512207618E+03 0.  0.
          5    1    4    4  502    0  0.39307826090E+02 -0.43758140748E+02 -0.70281384551E+02  0.91743258542E+02  0.41800000000E+01 0.  1.
         -5    1    4    4    0  502 -0.91224841446E+02 -0.35679527077E+02 -0.11112389117E+03  0.14819241525E+03  0.41800000000E+01 0.  1.
        -11    1    3    3    0    0  0.25404726219E+02  0.73346312351E+02  0.31374348398E+02  0.83722347000E+02  0.00000000000E+00 0.  1.
         11    1    3    3    0    0  0.26512289137E+02  0.60913554737E+01 -0.40828033691E+02  0.49060517954E+02  0.00000000000E+00 0. -1.
</event>
<event>
 8    1  0.9181008E-006  0.1022857E+03  0.7561462E-02  0.1275562E+00
          2   -1    0    0  501    0  0.00000000000E+00  0.00000000000E+00  0.95114274786E+03  0.95114274786E+03  0.00000000000E+00 0. -1.
         -2   -1    0    0    0  501 -0.00000000000E+00 -0.00000000000E+00 -0.12967374514E+02  0.12967374514E+02  0.00000000000E+00 0.  1.
         23    2    1    2    0    0 -0.11316777009E+02  0.20849960683E+01  0.29071330505E+03  0.30457426692E+03  0.90104615233E+02 0.  0.
         23    2    1    2    0    0  0.11316777009E+02 -0.20849960683E+01  0.64746206829E+03  0.65953585545E+03  0.12509195856E+03 0.  0.
          5    1    4    4  502    0 -0.10273729561E+02  0.58787192627E+02  0.35419013186E+03  0.35920691174E+03  0.41800000000E+01 0.  1.
         -5    1    4    4    0  502  0.21590506570E+02 -0.60872188696E+02  0.29327193643E+03  0.30032894371E+03  0.41800000000E+01 0.  1.
        -11    1    3    3    0    0 -0.11525794794E+02 -0.38117093635E+02  0.72762110238E+02  0.82946256450E+02  0.00000000000E+00 0.  1.
         11    1    3    3    0    0  0.20901778455E+00  0.40202089703E+02  0.21795119481E+03  0.22162801047E+03  0.00000000000E+00 0. -1.
</event>
<event>
 8    1  0.9181008E-006  0.6584262E+02  0.7561462E-02  0.1374830E+00
          1   -1    0    0  501    0  0.00000000000E+00  0.00000000000E+00  0.25442937311E+03  0.25442937311E+03  0.00000000000E+00 0. -1.
         -1   -1    0    0    0  501 -0.00000000000E+00 -0.00000000000E+00 -0.64284395122E+02  0.64284395122E+02  0.00000000000E+00 0.  1.
         23    2    1    2    0    0 -0.20293258653E+02 -0.62303095379E+02  0.57627220202E+02  0.12506259044E+03  0.89589413320E+02 0.  0.
         23    2    1    2    0    0  0.20293258653E+02  0.62303095379E+02  0.13251775778E+03  0.19365117779E+03  0.12508529286E+03 0.  0.
          5    1    4    4  502    0  0.56319192221E+01  0.19287694876E+02 -0.23438929045E+02  0.31154285139E+02  0.41800000000E+01 0.  1.
         -5    1    4    4    0  502  0.14661339431E+02  0.43015400504E+02  0.15595668683E+03  0.16249689265E+03  0.41800000000E+01 0.  1.
        -11    1    3    3    0    0 -0.10154765023E+02 -0.31216441359E+02 -0.21638968188E+02  0.39317049839E+02  0.00000000000E+00 0.  1.
         11    1    3    3    0    0 -0.10138493630E+02 -0.31086654020E+02  0.79266188390E+02  0.85745540602E+02  0.00000000000E+00 0. -1.
</event>
<event>
 7    1  0.9181008E-006  0.1874537E+03  0.7561462E-02  0.1160778E+00
         -1   -1    0    0    0  501 -0.00000000000E+00  0.00000000000E+00  0.52937856332E+02  0.52937856332E+02  0.00000000000E+00 0.  1.
          1   -1    0    0  501    0  0.00000000000E+00 -0.00000000000E+00 -0.91051075878E+03  0.91051075878E+03  0.00000000000E+00 0. -1.
         23    2    1    2    0    0  0.12718417180E+03 -0.42054428258E+02 -0.33699033090E+03  0.37960244392E+03  0.11221026610E+03 0.  0.
          5    1    3    3  502    0 -0.11479345427E+02 -0.27832790889E+02 -0.10113732853E+03  0.10560620835E+03  0.41800000000E+01 0. -1.
         -5    1    3    3    0  502  0.13866351723E+03 -0.14221637369E+02 -0.23585300237E+03  0.27399623557E+03  0.41800000000E+01 0.  1.
        -11    1    1    2    0    0 -0.75150399707E+02 -0.56223894240E+02 -0.63226186827E+02  0.11316474522E+03  0.00000000000E+00 0.  1.
         11    1    1    2    0    0 -0.52033772093E+02  0.98278322499E+02 -0.45735638473E+03  0.47068142598E+03  0.00000000000E+00 0. -1.
</event>
<event>
 8    1  0.9181008E-006  0.9790101E+02  0.7561462E-02  0.1284773E+00
         -2   -1    0    0    0  501 -0.00000000000E+00  0.00000000000E+00  0.32700504754E+02  0.32700504754E+02  0.00000000000E+00 0.  1.
          2   -1    0    0  501    0  0.00000000000E+00 -0.00000000000E+00 -0.46466752034E+03  0.46466752034E+03  0.00000000000E+00 0. -1.
         23    2    1    2    0    0  0.37403175415E+02 -0.25109156866E+02 -0.11028279189E+03  0.14929054008E+03  0.89977240895E+02 0.  0.
         23    2    1    2    0    0 -0.37403175415E+02  0.25109156866E+02 -0.32168422370E+03  0.34807748502E+03  0.12509088102E+03 0.  0.
          5    1    4    4  502    0  0.44628465127E+02  0.30644896247E+01 -0.14834696784E+03  0.15500124601E+03  0.41800000000E+01 0.  1.
         -5    1    4    4    0  502 -0.82031640543E+02  0.22044667241E+02 -0.17333725586E+03  0.19307623901E+03  0.41800000000E+01 0.  1.
        -11    1    3    3    0    0  0.18538102512E+02  0.13449113329E+02 -0.10329014408E+03  0.10579883628E+03  0.00000000000E+00 0. -1.
         11    1    3    3    0    0  0.18865072903E+02 -0.38558270195E+02 -0.69926478174E+01  0.43491703801E+02  0.00000000000E+00 0.  1.
</event>
<event>
 8    1  0.9181008E-006  0.1005311E+03  0.7561462E-02  0.1279183E+00
          1   -1    0    0  501    0  0.00000000000E+00  0.00000000000E+00  0.59598015915E+03  0.59598015915E+03  0.00000000000E+00 0. -1.
         -1   -1    0    0    0  501 -0.00000000000E+00 -0.00000000000E+00 -0.27081941360E+02  0.27081941360E+02  0.00000000000E+00 0.  1.
         23    2    1    2    0    0  0.45726834860E+02 -0.99059925359E+01  0.13565212686E+03  0.16969816990E+03  0.90591926964E+02 0.  0.
         23    2    1    2    0    0 -0.45726834860E+02  0.99059925359E+01  0.43324609094E+03  0.45336393062E+03  0.12509039195E+03 0.  0.
          5    1    4    4  502    0 -0.41600509431E+02  0.46278769141E+02  0.39633144906E+03  0.40120869479E+03  0.41800000000E+01 0.  1.
         -5    1    4    4    0  502 -0.41263254291E+01 -0.36372776606E+02  0.36914641872E+02  0.52155235826E+02  0.41800000000E+01 0.  1.
        -11    1    3    3    0    0  0.26228986898E+02 -0.50450190707E+02  0.79640775998E+02  0.97856193967E+02  0.00000000000E+00 0.  1.
         11    1    3    3    0    0  0.19497847961E+02  0.40544198171E+02  0.56011350859E+02  0.71841975930E+02  0.00000000000E+00 0. -1.
</event>
<event>
 8    1  0.9181008E-006  0.1252030E+03  0.7561462E-02  0.1234752E+00
         -2   -1    0    0    0  501 -0.00000000000E+00  0.00000000000E+00  0.14353577964E+03  0.14353577964E+03  0.00000000000E+00 0.  1.
          2   -1    0    0  501    0  0.00000000000E+00 -0.00000000000E+00 -0.17826224045E+03  0.17826224045E+03  0.00000000000E+00 0. -1.
         23    2    1    2    0    0 -0.43771999421E+02 -0.57129401478E+02  0.73549705282E+02  0.14137709229E+03  0.96944141810E+02 0.  0.
         23    2    1    2    0    0  0.43771999421E+02  0.57129401478E+02 -0.10827616609E+03  0.18042092780E+03  0.12509287190E+03 0.  0.
          5    1    4    4  502    0  0.56520576633E+02  0.87002622323E+02 -0.54014064473E+02  0.11704282735E+03  0.41800000000E+01 0. -1.
         -5    1    4    4    0  502 -0.12748577212E+02 -0.29873220845E+02 -0.54262101616E+02  0.63378100448E+02  0.41800000000E+01 0. -1.
        -11    1    3    3    0    0 -0.65949330314E+02 -0.17209508926E+02  0.66398955706E+02  0.95154099676E+02  0.00000000000E+00 0. -1.
         11    1    3    3    0    0  0.22177330893E+02 -0.39919892551E+02  0.71507495762E+01  0.46222992616E+02  0.00000000000E+00 0.  1.
</event>
<event>
 8    1  0.9181008E-006  0.1059404E+03  0.7561462E-02  0.1268278E+00
         -1   -1    0    0    0  501 -0.00000000000E+00  0.00000000000E+00  0.26534537837E+02  0.26534537837E+02  0.00000000000E+00 0.  1.
          1   -1    0    0  501    0  0.00000000000E+00 -0.00000000000E+00 -0.55512070201E+03  0.55512070201E+03  0.00000000000E+00 0. -1.
         23    2    1    2    0    0  0.14531055688E+01 -0.26242431130E+02 -0.95242090548E+02  0.12985262934E+03  0.84260743100E+02 0.  0.
         23    2    1    2    0    0 -0.14531055688E+01  0.26242431130E+02 -0.43334407363E+03  0.45180261050E+03  0.12509091096E+03 0.  0.
          5    1    4    4  502    0  0.58278363319E+02 -0.20303729041E+01 -0.25353959743E+03  0.26019279373E+03  0.41800000000E+01 0.  1.
         -5    1    4    4    0  502 -0.59731468887E+02  0.28272804034E+02 -0.17980447620E+03  0.19160981677E+03  0.41800000000E+01 0.  1.
        -11    1    3    3    0    0 -0.21153994436E+02 -0.50069849239E+02 -0.68834009223E+02  0.87707480349E+02  0.00000000000E+00 0. -1.
         11    1    3    3    0    0  0.22607100005E+02  0.23827418109E+02 -0.26408081325E+02  0.42145148993E+02  0.00000000000E+00 0.  1.
</event>
<event>
 8    1  0.9181008E-006  0.1025886E+03  0.7561462E-02  0.1274945E+00
         -2   -1    0    0    0  501 -0.00000000000E+00  0.00000000000E+00  0.43212186111E+02  0.43212186111E+02  0.00000000000E+00 0.  1.
          2   -1    0    0  501    0  0.00000000000E+00 -0.00000000000E+00 -0.27510852549E+03  0.27510852549E+03  0.00000000000E+00 0. -1.
         23    2    1    2    0    0  0.10735917364E+02 -0.89900224880E+01 -0.10132022576E+03  0.13695805282E+03  0.91080402165E+02 0.  0.
         23    2    1    2    0    0 -0.10735917364E+02  0.89900224880E+01 -0.13057611362E+03  0.18136265878E+03  0.12508481973E+03 0.  0.
          5    1    4    4  502    0 -0.44489591972E+02  0.48486540206E+02 -0.40761186042E+02  0.77519127075E+02  0.41800000000E+01 0.  1.
         -5    1    4    4    0  502  0.33753674608E+02 -0.39496517718E+02 -0.89814927579E+02  0.10384353171E+03  0.41800000000E+01 0.  1.
        -11    1    3    3    0    0 -0.17900614742E+02 -0.40656541249E+02 -0.73876498467E+02  0.86203963831E+02  0.00000000000E+00 0. -1.
         11    1    3    3    0    0  0.28636532105E+02  0.31666518761E+02 -0.27443727294E+02  0.50754088990E+02  0.00000000000E+00 0.  1.
</event>
<event>
 8    1  0.9181008E-006  0.1369971E+03  0.7561462E-02  0.1217428E+00
         -2   -1    0    0    0  501 -0.00000000000E+00  0.00000000000E+00  0.33884374772E+02  0.33884374772E+02  0.00000000000E+00 0.  1.
          2   -1    0    0  501    0  0.00000000000E+00 -0.00000000000E+00 -0.74811223696E+03  0.74811223696E+03  0.00000000000E+00 0. -1.
         23    2    1    2    0    0  0.95170039488E+02  0.63631061074E+02 -0.39732139059E+03  0.42257728178E+03  0.87183847769E+02 0.  0.
         23    2    1    2    0    0 -0.95170039488E+02 -0.63631061074E+02 -0.31690647161E+03  0.35941932995E+03  0.12508514960E+03 0.  0.
          5    1    4    4  502    0  0.69093054319E+01  0.23717867853E+02 -0.10902513372E+03  0.11186701006E+03  0.41800000000E+01 0.  1.
         -5    1    4    4    0  502 -0.10207934492E+03 -0.87348928928E+02 -0.20788133789E+03  0.24755231990E+03  0.41800000000E+01 0.  1.
        -11    1    3    3    0    0  0.70022911691E+02  0.45167693539E+02 -0.37517852901E+03  0.38432051381E+03  0.00000000000E+00 0. -1.
         11    1    3    3    0    0  0.25147127797E+02  0.18463367536E+02 -0.22142861573E+02  0.38256767974E+02  0.00000000000E+00 0.  1.
</event>
<event>
 8    1  0.9181008E-006  0.1260416E+03  0.7561462E-02  0.1233450E+00
          2   -1    0    0  501    0  0.00000000000E+00  0.00000000000E+00  0.26660226357E+03  0.26660226357E+03  0.00000000000E+00 0. -1.
         -2   -1    0    0    0  501 -0.00000000000E+00 -0.00000000000E+00 -0.82528563353E+02  0.82528563353E+02  0.00000000000E+00 0.  1.
         23    2    1    2    0    0 -0.33246550548E+02  0.74523136460E+02  0.19922519873E+02  0.12719821067E+03  0.95516736800E+02 0.  0.
         23    2    1    2    0    0  0.33246550548E+02 -0.74523136460E+02  0.16415118035E+03  0.22193261626E+03  0.12509774241E+03 0.  0.
          5    1    4    4  502    0  0.15722308504E+02 -0.10694309098E+03  0.97363258107E+02  0.14553725339E+03  0.41800000000E+01 0.  1.
         -5    1    4    4    0  502  0.17524242044E+02  0.32419954525E+02  0.66787922242E+02  0.76395362870E+02  0.41800000000E+01 0.  1.
        -11    1    3    3    0    0 -0.27200177189E+02 -0.44967965255E+01 -0.24032783974E+02  0.36573836600E+02  0.00000000000E+00 0.  1.
         11    1    3    3    0    0 -0.60463733589E+01  0.79019932985E+02  0.43955303846E+02  0.90624374072E+02  0.00000000000E+00 0. -1.
</event>
<event>
 8    1  0.9181008E-006  0.1220351E+03  0.7561462E-02  0.1239777E+00
          2   -1    0    0  501    0  0.00000000000E+00  0.00000000000E+00  0.10263164709E+04  0.10263164709E+04  0.00000000000E+00 0. -1.
         -2   -1    0    0    0  501 -0.00000000000E+00 -0.00000000000E+00 -0.26782378902E+02  0.26782378902E+02  0.00000000000E+00 0.  1.
         23    2    1    2    0    0  0.65588566518E+01 -0.10160639678E+03  0.23872129016E+03  0.27537765815E+03  0.92076716722E+02 0.  0.
         23    2    1    2    0    0 -0.65588566518E+01  0.10160639678E+03  0.76081280181E+03  0.77772119163E+03  0.12508898449E+03 0.  0.
          5    1    4    4  502    0 -0.77605203882E+01  0.34189893250E+01 -0.10793611303E+01  0.95159122080E+01  0.41800000000E+01 0. -1.
         -5    1    4    4    0  502  0.12016637364E+01  0.98187407457E+02  0.76189216294E+03  0.76820527942E+03  0.41800000000E+01 0. -1.
        -11    1    3    3    0    0 -0.40597073389E+02 -0.64995502684E+02  0.14998739739E+03  0.16843027374E+03  0.00000000000E+00 0. -1.
         11    1    3    3    0    0  0.47155930041E+02 -0.36610894098E+02  0.88733892775E+02  0.10694738441E+03  0.00000000000E+00 0.  1.
</event>
<event>
 8    1  0.9181008E-006  0.1469509E+03  0.7561462E-02  0.1204271E+00
         -2   -1    0    0    0  501 -0.00000000000E+00  0.00000000000E+00  0.31885048806E+02  0.31885048806E+02  0.00000000000E+00 0.  1.
          2   -1    0    0  501    0  0.00000000000E+00 -0.00000000000E+00 -0.12108811670E+04  0.12108811670E+04  0.00000000000E+00 0. -1.
         23    2    1    2    0    0  0.13525701968E+03 -0.27582903713E+02 -0.27686184762E+03  0.32159862121E+03  0.87851650808E+02 0.  0.
         23    2    1    2    0    0 -0.13525701968E+03  0.27582903713E+02 -0.90213427059E+03  0.92116759461E+03  0.12509283447E+03 0.  0.
          5    1    4    4  502    0 -0.80838956817E+02 -0.84559100766E+01 -0.19902459108E+03  0.21502255605E+03  0.41800000000E+01 0. -1.
         -5    1    4    4    0  502 -0.54418062858E+02  0.36038813789E+02 -0.70310967951E+03  0.70614503856E+03  0.41800000000E+01 0. -1.
        -11    1    3    3    0    0  0.12042898736E+02 -0.20397876100E+02 -0.67599606353E+01  0.24633347867E+02  0.00000000000E+00 0.  1.
         11    1    3    3    0    0  0.12321412094E+03 -0.71850276126E+01 -0.27010188698E+03  0.29696527334E+03  0.00000000000E+00 0. -1.
</event>
<event>
 8    1  0.9181008E-006  0.1191372E+03  0.7561462E-02  0.1244527E+00
         -2   -1    0    0    0  501 -0.00000000000E+00  0.00000000000E+00  0.30119236469E+02  0.30119236469E+02  0.00000000000E+00 0.  1.
          2   -1    0    0  501    0  0.00000000000E+00 -0.00000000000E+00 -0.49834636249E+03  0.49834636249E+03  0.00000000000E+00 0. -1.
         23    2    1    2    0    0  0.53073999871E+02  0.57477583830E+00 -0.16864796676E+03  0.19950964711E+03  0.92437994185E+02 0.  0.
         23    2    1    2    0    0 -0.53073999871E+02 -0.57477583830E+00 -0.29957915926E+03  0.32895595185E+03  0.12508863163E+03 0.  0.
          5    1    4    4  502    0  0.21770150036E+02 -0.43215721040E+02 -0.88764683834E+02  0.10118388940E+03  0.41800000000E+01 0. -1.
         -5    1    4    4    0  502 -0.74844149907E+02  0.42640945201E+02 -0.21081447543E+03  0.22777206245E+03  0.41800000000E+01 0. -1.
        -11    1    3    3    0    0  0.75738029222E+02 -0.13291012282E+02 -0.10182137350E+03  0.12759503195E+03  0.00000000000E+00 0.  1.
         11    1    3    3    0    0 -0.22664029351E+02  0.13865788120E+02 -0.66826593261E+02  0.71914615159E+02  0.00000000000E+00 0. -1.
</event>
<event>
 8    1  0.9181008E-006  0.1301437E+03  0.7561462E-02  0.1227243E+00
          1   -1    0    0  501    0  0.00000000000E+00  0.00000000000E+00  0.34206769258E+03  0.34206769258E+03  0.00000000000E+00 0. -1.
         -1   -1    0    0    0  501 -0.00000000000E+00 -0.00000000000E+00 -0.86142560073E+02  0.86142560073E+02  0.00000000000E+00 0.  1.
         23    2    1    2    0    0  0.57786929678E+02 -0.75826358398E+02  0.65688526987E+01  0.13221928052E+03  0.91377362870E+02 0.  0.
         23    2    1    2    0    0 -0.57786929678E+02  0.75826358398E+02  0.24935627981E+03  0.29599097213E+03  0.12784027314E+03 0.  0.
          5    1    4    4  502    0 -0.70472489622E+01  0.95724238037E+02  0.10862103937E+03  0.14501308927E+03  0.41800000000E+01 0. -1.
         -5    1    4    4    0  502 -0.50739680716E+02 -0.19897879639E+02  0.14073524044E+03  0.15097788287E+03  0.41800000000E+01 0.  1.
        -11    1    3    3    0    0  0.18133552515E+02 -0.66347259008E+02  0.39937011640E+02  0.79534579922E+02  0.00000000000E+00 0. -1.
         11    1    3    3    0    0  0.39653377163E+02 -0.94790993908E+01 -0.33368158941E+02  0.52684700596E+02  0.00000000000E+00 0.  1.
</event>
<event>
 8    1  0.9181008E-006  0.9507172E+02  0.7561462E-02  0.1291015E+00
         -2   -1    0    0    0  501 -0.00000000000E+00  0.00000000000E+00  0.98479942697E+02  0.98479942697E+02  0.00000000000E+00 0.  1.
          2   -1    0    0  501    0  0.00000000000E+00 -0.00000000000E+00 -0.13869137366E+03  0.13869137366E+03  0.00000000000E+00 0. -1.
         23    2    1    2    0    0 -0.20723088115E+02  0.37685717233E+02 -0.95057854632E+01  0.10137743723E+03  0.91309173460E+02 0.  0.
         23    2    1    2    0    0  0.20723088115E+02 -0.37685717233E+02 -0.30705645496E+02  0.13579387912E+03  0.12508989279E+03 0.  0.
          5    1    4    4  502    0  0.11260559379E+02 -0.62425158937E+02 -0.65889403662E+02  0.91556466624E+02  0.41800000000E+01 0. -1.
         -5    1    4    4    0  502  0.94625287362E+01  0.24739441704E+02  0.35183758165E+02  0.44237412499E+02  0.41800000000E+01 0. -1.
        -11    1    3    3    0    0  0.30760610515E+02  0.37201896367E+02 -0.12303916591E+02  0.49815485705E+02  0.00000000000E+00 0.  1.
         11    1    3    3    0    0 -0.51483698631E+02  0.48382086577E+00  0.27981311277E+01  0.51561951526E+02  0.00000000000E+00 0. -1.
</event>
<event>
 8    1  0.9181008E-006  0.7275303E+02  0.7561462E-02  0.1350974E+00
         -4   -1    0    0    0  501 -0.00000000000E+00  0.00000000000E+00  0.36516089844E+02  0.36516089844E+02  0.00000000000E+00 0. -1.
          4   -1    0    0  501    0  0.00000000000E+00 -0.00000000000E+00 -0.43539428548E+03  0.43539428548E+03  0.00000000000E+00 0.  1.
         23    2    1    2    0    0 -0.22258076844E+02  0.81885984347E+00 -0.50673440102E+02  0.10124713818E+03  0.84776724055E+02 0.  0.
         23    2    1    2    0    0  0.22258076844E+02 -0.81885984347E+00 -0.34820475553E+03  0.37066323714E+03  0.12509432872E+03 0.  0.
          5    1    4    4  502    0  0.26023691820E+02 -0.25150200319E+02 -0.20097696418E+02  0.41607149787E+02  0.41800000000E+01 0.  1.
         -5    1    4    4    0  502 -0.37656149759E+01  0.24331340476E+02 -0.32810705912E+03  0.32905608736E+03  0.41800000000E+01 0.  1.
        -11    1    3    3    0    0 -0.40811091594E+02 -0.28237090856E+02 -0.15488472682E+02  0.51988184073E+02  0.00000000000E+00 0. -1.
         11    1    3    3    0    0  0.18553014750E+02  0.29055950700E+02 -0.35184967420E+02  0.49258954107E+02  0.00000000000E+00 0.  1.
</event>
<event>
 8    1  0.9181008E-006  0.1074909E+03  0.7561462E-02  0.1265288E+00
         -2   -1    0    0    0  501 -0.00000000000E+00  0.00000000000E+00  0.30270000731E+02  0.30270000731E+02  0.00000000000E+00 0.  1.
          2   -1    0    0  501    0  0.00000000000E+00 -0.00000000000E+00 -0.48104899773E+03  0.48104899773E+03  0.00000000000E+00 0. -1.
         23    2    1    2    0    0  0.85735718451E+01 -0.25818475853E+02 -0.10424513331E+03  0.14183069793E+03  0.92243152733E+02 0.  0.
         23    2    1    2    0    0 -0.85735718451E+01  0.25818475853E+02 -0.34653386369E+03  0.36948830054E+03  0.12528282292E+03 0.  0.
          5    1    4    4  502    0  0.39290607675E+01 -0.47595840477E+02 -0.85681255983E+02  0.98181218041E+02  0.41800000000E+01 0. -1.
         -5    1    4    4    0  502 -0.12502632613E+02  0.73414316330E+02 -0.26085260771E+03  0.27130708250E+03  0.41800000000E+01 0. -1.
        -11    1    3    3    0    0 -0.32004239809E+02 -0.38382211853E+02 -0.36559520722E+02  0.61919819992E+02  0.00000000000E+00 0. -1.
         11    1    3    3    0    0  0.40577811654E+02  0.12563736000E+02 -0.67685612587E+02  0.79910877934E+02  0.00000000000E+00 0.  1.
</event>
<event>
 8    1  0.9181008E-006  0.1141722E+03  0.7561462E-02  0.1253033E+00
          3   -1    0    0  501    0  0.00000000000E+00  0.00000000000E+00  0.77050711086E+02  0.77050711086E+02  0.00000000000E+00 0. -1.
         -3   -1    0    0    0  501 -0.00000000000E+00 -0.00000000000E+00 -0.26400425488E+03  0.26400425488E+03  0.00000000000E+00 0.  1.
         23    2    1    2    0    0 -0.69974686618E+02  0.55970148031E+02 -0.11268856072E+03  0.17020543931E+03  0.90785822776E+02 0.  0.
         23    2    1    2    0    0  0.69974686618E+02 -0.55970148031E+02 -0.74264983082E+02  0.17084952666E+03  0.12508060925E+03 0.  0.
          5    1    4    4  502    0  0.55264405084E+02  0.20829280811E+02  0.50115880583E+01  0.59418867569E+02  0.41800000000E+01 0. -1.
         -5    1    4    4    0  502  0.14710281534E+02 -0.76799428842E+02 -0.79276571140E+02  0.11143065909E+03  0.41800000000E+01 0. -1.
        -11    1    3    3    0    0 -0.52337059662E+02  0.33010380991E+02 -0.89733615874E+01  0.62524989287E+02  0.00000000000E+00 0. -1.
         11    1    3    3    0    0 -0.17637626957E+02  0.22959767040E+02 -0.10371519913E+03  0.10768045002E+03  0.00000000000E+00 0.  1.
</event>
<event>
 8    1  0.9181008E-006  0.1068410E+03  0.7561462E-02  0.1266534E+00
         -1   -1    0    0    0  501 -0.00000000000E+00  0.00000000000E+00  0.22636486289E+02  0.22636486289E+02  0.00000000000E+00 0.  1.
          1   -1    0    0  501    0  0.00000000000E+00 -0.00000000000E+00 -0.68536436218E+03  0.68536436218E+03  0.00000000000E+00 0. -1.
         23    2    1    2    0    0  0.25192529400E+02  0.20834939541E+02 -0.14368458082E+03  0.17309780950E+03  0.90823095338E+02 0.  0.
         23    2    1    2    0    0 -0.25192529400E+02 -0.20834939541E+02 -0.51904329507E+03  0.53490303896E+03  0.12508621304E+03 0.  0.
          5    1    4    4  502    0  0.36548220623E+02 -0.38681913833E+02 -0.12948502069E+03  0.14005679517E+03  0.41800000000E+01 0.  1.
         -5    1    4    4    0  502 -0.61740750023E+02  0.17846974291E+02 -0.38955827438E+03  0.39484624380E+03  0.41800000000E+01 0.  1.
        -11    1    3    3    0    0  0.59189018744E+02  0.17580960517E+02 -0.10171182367E+03  0.11898623949E+03  0.00000000000E+00 0.  1.
         11    1    3    3    0    0 -0.33996489344E+02  0.32539790247E+01 -0.41972757146E+02  0.54111570016E+02  0.00000000000E+00 0. -1.
</event>
<event>
 8    1  0.9181008E-006  0.7658204E+02  0.7561462E-02  0.1339041E+00
          2   -1    0    0  501    0  0.00000000000E+00  0.00000000000E+00  0.11002785158E+03  0.11002785158E+03  0.00000000000E+00 0. -1.
         -2   -1    0    0    0  501 -0.00000000000E+00 -0.00000000000E+00 -0.84045092848E+02  0.84045092848E+02  0.00000000000E+00 0.  1.
         23    2    1    2    0    0  0.50180847575E+01 -0.20045698500E+02 -0.77283702332E+01  0.62869001551E+02  0.58870811499E+02 0.  0.
         23    2    1    2    0    0 -0.50180847575E+01  0.20045698500E+02  0.33711128961E+02  0.13120394287E+03  0.12510404952E+03 0.  0.
          5    1    4    4  502    0 -0.20129557697E+02  0.53234463781E+02 -0.24727776878E+02  0.62193589513E+02  0.41800000000E+01 0. -1.
         -5    1    4    4    0  502  0.15111472940E+02 -0.33188765281E+02  0.58438905839E+02  0.69010353361E+02  0.41800000000E+01 0. -1.
        -11    1    3    3    0    0  0.27493998951E+02 -0.24090153130E+02 -0.14068099670E+02  0.39168442456E+02  0.00000000000E+00 0. -1.
         11    1    3    3    0    0 -0.22475914194E+02  0.40444546292E+01  0.63397294367E+01  0.23700559095E+02  0.00000000000E+00 0.  1.
</event>
<event>
 8    1  0.9181008E-006  0.1017616E+03  0.7561462E-02  0.1276635E+00
          2   -1    0    0  501    0  0.00000000000E+00  0.00000000000E+00  0.95079968899E+03  0.95079968899E+03  0.00000000000E+00 0. -1.
         -2   -1    0    0    0  501 -0.00000000000E+00 -0.00000000000E+00 -0.24174048500E+02  0.24174048500E+02  0.00000000000E+00 0.  1.
         23    2    1    2    0    0 -0.36251390020E+02  0.39672314270E+02  0.14962539703E+03  0.18613589530E+03  0.96802666713E+02 0.  0.
         23    2    1    2    0    0  0.36251390020E+02 -0.39672314270E+02  0.77700024346E+03  0.78883784219E+03  0.12509079561E+03 0.  0.
          5    1    4    4  502    0  0.55833926021E+02 -0.47365518769E+02  0.22982840911E+03  0.24124570400E+03  0.41800000000E+01 0.  1.
         -5    1    4    4    0  502 -0.19582536001E+02  0.76932044985E+01  0.54717183434E+03  0.54759213819E+03  0.41800000000E+01 0.  1.
        -11    1    3    3    0    0 -0.53977468478E+02 -0.10969145812E+02  0.58218647219E+02  0.80145493617E+02  0.00000000000E+00 0.  1.
         11    1    3    3    0    0  0.17726078458E+02  0.50641460082E+02  0.91406749812E+02  0.10599040168E+03  0.00000000000E+00 0. -1.
</event>
<event>
 8    1  0.9181008E-006  0.9545901E+02  0.7561462E-02  0.1290146E+00
          1   -1    0    0  501    0  0.00000000000E+00  0.00000000000E+00  0.36852511415E+03  0.36852511415E+03  0.00000000000E+00 0. -1.
         -1   -1    0    0    0  501 -0.00000000000E+00 -0.00000000000E+00 -0.45736075989E+02  0.45736075989E+02  0.00000000000E+00 0.  1.
         23    2    1    2    0    0  0.65869385434E+02 -0.36127623947E+01  0.11477330216E+03  0.16272590772E+03  0.94630767534E+02 0.  0.
         23    2    1    2    0    0 -0.65869385434E+02  0.36127623947E+01  0.20801573600E+03  0.25153528242E+03  0.12509046282E+03 0.  0.
          5    1    4    4  502    0 -0.69426619778E+02  0.57063968627E+01  0.34370824224E+02  0.77791030696E+02  0.41800000000E+01 0.  1.
         -5    1    4    4    0  502  0.35572343437E+01 -0.20936344681E+01  0.17364491178E+03  0.17374425173E+03  0.41800000000E+01 0.  1.
        -11    1    3    3    0    0  0.31019533136E+02 -0.49024979864E+02  0.54422789914E+02  0.79545585350E+02  0.00000000000E+00 0. -1.
         11    1    3    3    0    0  0.34849852298E+02  0.45412217470E+02  0.60350512246E+02  0.83180322367E+02  0.00000000000E+00 0.  1.
</event>
<event>
 8    1  0.9181008E-006  0.9041063E+02  0.7561462E-02  0.1301860E+00
          1   -1    0    0  501    0  0.00000000000E+00  0.00000000000E+00  0.82049274001E+03  0.82049274001E+03  0.00000000000E+00 0. -1.
         -1   -1    0    0    0  501 -0.00000000000E+00 -0.00000000000E+00 -0.28461474735E+02  0.28461474735E+02  0.00000000000E+00 0.  1.
         23    2    1    2    0    0 -0.14873393606E+02 -0.81977305474E+02  0.17896192644E+03  0.21773113285E+03  0.91858470736E+02 0.  0.
         23    2    1    2    0    0  0.14873393606E+02  0.81977305474E+02  0.61306933883E+03  0.63122308189E+03  0.12508824265E+03 0.  0.
          5    1    4    4  502    0  0.19895269678E+02  0.36615569630E+02  0.55803750746E+03  0.55960687435E+03  0.41800000000E+01 0.  1.
         -5    1    4    4    0  502 -0.50218760714E+01  0.45361735844E+02  0.55031831377E+02  0.71616207542E+02  0.41800000000E+01 0.  1.
        -11    1    3    3    0    0  0.13160486687E+02 -0.12334100111E+02 -0.52693810973E+01  0.18790817239E+02  0.00000000000E+00 0.  1.
         11    1    3    3    0    0 -0.28033880293E+02 -0.69643205363E+02  0.18423130754E+03  0.19894031561E+03  0.00000000000E+00 0. -1.
</event>
<event>
 8    1  0.9181008E-006  0.5698525E+02  0.7561462E-02  0.1410937E+00
         -1   -1    0    0    0  501 -0.00000000000E+00  0.00000000000E+00  0.77044633637E+02  0.77044633637E+02  0.00000000000E+00 0.  1.
          1   -1    0    0  501    0  0.00000000000E+00 -0.00000000000E+00 -0.19721759111E+03  0.19721759111E+03  0.00000000000E+00 0. -1.
         23    2    1    2    0    0  0.13575166955E+02 -0.21481273685E+02  0.35523658340E+01  0.96493671516E+02  0.93019777804E+02 0.  0.
         23    2    1    2    0    0 -0.13575166955E+02  0.21481273685E+02 -0.12372532331E+03  0.17776855323E+03  0.12509185670E+03 0.  0.
          5    1    4    4  502    0 -0.13709139263E+02 -0.15894779784E+02  0.19946284030E+02  0.29255959569E+02  0.41800000000E+01 0.  1.
         -5    1    4    4    0  502  0.13397230808E+00  0.37376053469E+02 -0.14367160734E+03  0.14851259366E+03  0.41800000000E+01 0.  1.
        -11    1    3    3    0    0  0.21584829016E+02  0.90420325933E+01 -0.37810972159E+02  0.44467210534E+02  0.00000000000E+00 0. -1.
         11    1    3    3    0    0 -0.80096620608E+01 -0.30523306278E+02  0.41363337993E+02  0.52026460982E+02  0.00000000000E+00 0.  1.
</event>
<event>
 8    1  0.9181008E-006  0.9084293E+02  0.7561462E-02  0.1300823E+00
          1   -1    0    0  501    0  0.00000000000E+00  0.00000000000E+00  0.36200451254E+03  0.36200451254E+03  0.00000000000E+00 0. -1.
         -1   -1    0    0    0  501 -0.00000000000E+00 -0.00000000000E+00 -0.45096121812E+02  0.45096121812E+02  0.00000000000E+00 0.  1.
         23    2    1    2    0    0 -0.12555587586E+02 -0.43755441941E+02  0.50904841085E+02  0.10964915369E+03  0.85787251848E+02 0.  0.
         23    2    1    2    0    0  0.12555587586E+02  0.43755441941E+02  0.26600354964E+03  0.29745148066E+03  0.12508922195E+03 0.  0.
          5    1    4    4  502    0 -0.39112677067E+02  0.58960232206E+02  0.19983243816E+03  0.21202968243E+03  0.41800000000E+01 0.  1.
         -5    1    4    4    0  502  0.51668264653E+02 -0.15204790264E+02  0.66171111482E+02  0.85421798237E+02  0.41800000000E+01 0.  1.
        -11    1    3    3    0    0  0.31081293151E+01 -0.40712639190E+02  0.72255785069E+02  0.82994445198E+02  0.00000000000E+00 0. -1.
         11    1    3    3    0    0 -0.15663716901E+02 -0.30428027511E+01 -0.21350943984E+02  0.26654708491E+02  0.00000000000E+00 0.  1.
</event>
<event>
 8    1  0.9181008E-006  0.1324093E+03  0.7561462E-02  0.1223924E+00
          2   -1    0    0  501    0  0.00000000000E+00  0.00000000000E+00  0.69863468799E+03  0.69863468799E+03  0.00000000000E+00 0. -1.
         -2   -1    0    0    0  501 -0.00000000000E+00 -0.00000000000E+00 -0.29618647307E+02  0.29618647307E+02  0.00000000000E+00 0.  1.
         23    2    1    2    0    0 -0.69892690398E+02  0.50855816972E+02  0.21166151667E+03  0.24628635602E+03  0.91570023644E+02 0.  0.
         23    2    1    2    0    0  0.69892690398E+02 -0.50855816972E+02  0.45735452401E+03  0.48196697927E+03  0.12509079178E+03 0.  0.
          5    1    4    4  502    0  0.97424225658E+02 -0.58797430926E+02  0.41719975404E+03  0.43246008463E+03  0.41800000000E+01 0.  1.
         -5    1    4    4    0  502 -0.27531535260E+02  0.79416139539E+01  0.40154769966E+02  0.49506894641E+02  0.41800000000E+01 0.  1.
        -11    1    3    3    0    0 -0.53504019002E+02  0.75415240625E+02  0.18351586210E+03  0.20549503695E+03  0.00000000000E+00 0. -1.
         11    1    3    3    0    0 -0.16388671396E+02 -0.24559423653E+02  0.28145654574E+02  0.40791319072E+02  0.00000000000E+00 0.  1.
</event>
<event>
 8    1  0.9181008E-006  0.1047527E+03  0.7561462E-02  0.1270608E+00
         -2   -1    0    0    0  501 -0.00000000000E+00  0.00000000000E+00  0.10825364376E+03  0.10825364376E+03  0.00000000000E+00 0.  1.
          2   -1    0    0  501    0  0.00000000000E+00 -0.00000000000E+00 -0.15133638921E+03  0.15133638921E+03  0.00000000000E+00 0. -1.
         23    2    1    2    0    0  0.27542072025E+02 -0.21676174713E+02  0.35406929142E+02  0.10781166677E+03  0.95610054798E+02 0.  0.
         23    2    1    2    0    0 -0.27542072025E+02  0.21676174713E+02 -0.78489674592E+02  0.15177836620E+03  0.12509045186E+03 0.  0.
          5    1    4    4  502    0 -0.76853643161E+02  0.16703687826E+02 -0.58790809635E+02  0.98281877025E+02  0.41800000000E+01 0. -1.
         -5    1    4    4    0  502  0.49311571135E+02  0.49724868871E+01 -0.19698864958E+02  0.53496489177E+02  0.41800000000E+01 0. -1.
        -11    1    3    3    0    0  0.37433219466E+02  0.16982153561E+02 -0.14791322439E+02  0.43685497349E+02  0.00000000000E+00 0. -1.
         11    1    3    3    0    0 -0.98911474408E+01 -0.38658328274E+02  0.50198251581E+02  0.64126169419E+02  0.00000000000E+00 0.  1.
</event>
<event>
 7    1  0.9181008E-006  0.1198454E+03  0.7561462E-02  0.1243352E+00
         -4   -1    0    0    0  501 -0.00000000000E+00  0.00000000000E+00  0.36325294334E+03  0.36325294334E+03  0.00000000000E+00 0.  1.
          4   -1    0    0  501    0  0.00000000000E+00 -0.00000000000E+00 -0.68312807453E+02  0.68312807453E+02  0.00000000000E+00 0. -1.
         23    2    1    2    0    0  0.17473663137E+02  0.10175042619E+03  0.14439835219E+03  0.19913360131E+03  0.90248705924E+02 0.  0.
          5    1    1    2  502    0 -0.64707562164E+01 -0.81357890160E+02  0.16999378855E+01  0.81739459052E+02  0.41800000000E+01 0. -1.
         -5    1    1    2    0  502 -0.11002906920E+02 -0.20392536026E+02  0.14884184581E+03  0.15069269043E+03  0.41800000000E+01 0.  1.
        -11    1    3    3    0    0 -0.18365650381E+02  0.96463651423E+02  0.86640530242E+02  0.13095462817E+03  0.00000000000E+00 0.  1.
         11    1    3    3    0    0  0.35839313518E+02  0.52867747637E+01  0.57757821952E+02  0.68178973133E+02  0.00000000000E+00 0. -1.
</event>
<event>
 8    1  0.9181008E-006  0.1577972E+03  0.7561462E-02  0.1191206E+00
         -2   -1    0    0    0  501 -0.00000000000E+00  0.00000000000E+00  0.17851166021E+03  0.17851166021E+03  0.00000000000E+00 0. -1.
          2   -1    0    0  501    0  0.00000000000E+00 -0.00000000000E+00 -0.29561230920E+03  0.29561230920E+03  0.00000000000E+00 0.  1.
         23    2    1    2    0    0 -0.27296147978E+01  0.14164947011E+03  0.92437946667E+02  0.19194130999E+03  0.90689962602E+02 0.  0.
         23    2    1    2    0    0  0.27296147978E+01 -0.14164947011E+03 -0.20953859566E+03  0.28218265942E+03  0.12509439245E+03 0.  0.
          5    1    4    4  502    0 -0.93250574521E+01 -0.13745029933E+03 -0.96273200524E+02  0.16812359448E+03  0.41800000000E+01 0. -1.
         -5    1    4    4    0  502  0.12054672250E+02 -0.41991707853E+01 -0.11326539514E+03  0.11405906494E+03  0.41800000000E+01 0. -1.
        -11    1    3    3    0    0  0.38871762707E+02  0.89833681534E+02  0.74797706579E+02  0.12319010181E+03  0.00000000000E+00 0. -1.
         11    1    3    3    0    0 -0.41601377505E+02  0.51815788578E+02  0.17640240088E+02  0.68751208182E+02  0.00000000000E+00 0.  1.
</event>
<event>
 7    1  0.9181008E-006  0.1337203E+03  0.7561462E-02  0.1222038E+00
         -1   -1    0    0    0  501 -0.00000000000E+00  0.00000000000E+00  0.73283411355E+02  0.73283411355E+02  0.00000000000E+00 0.  1.
          1   -1    0    0  501    0  0.00000000000E+00 -0.00000000000E+00 -0.37168439119E+03  0.37168439119E+03  0.00000000000E+00 0. -1.
         23    2    1    2    0    0 -0.36519450232E+02  0.41146774440E+02 -0.24827294528E+01  0.10554787084E+03  0.90041444905E+02 0.  0.
          5    1    1    2  502    0  0.36151708332E+02 -0.10025913603E+03 -0.17986726704E+03  0.20911371673E+03  0.41800000000E+01 0. -1.
         -5    1    1    2    0  502  0.36774190049E+00  0.59112361591E+02 -0.11605098333E+03  0.13030621497E+03  0.41800000000E+01 0.  1.
        -11    1    3    3    0    0 -0.64663368552E+02  0.28682410703E+02  0.11625530921E+02  0.71688108396E+02  0.00000000000E+00 0.  1.
         11    1    3    3    0    0  0.28143918320E+02  0.12464363737E+02 -0.14108260374E+02  0.33859762441E+02  0.00000000000E+00 0. -1.
</event>
<event>
 8    1  0.9181008E-006  0.8906530E+02  0.7561462E-02  0.1305131E+00
         -2   -1    0    0    0  501 -0.00000000000E+00  0.00000000000E+00  0.27256271417E+02  0.27256271417E+02  0.00000000000E+00 0.  1.
          2   -1    0    0  501    0  0.00000000000E+00 -0.00000000000E+00 -0.63223116561E+03  0.63223116561E+03  0.00000000000E+00 0. -1.
         23    2    1    2    0    0 -0.27181262843E+02  0.52956345659E+02 -0.16273879025E+03  0.19605854759E+03  0.91716108920E+02 0.  0.
         23    2    1    2    0    0  0.27181262843E+02 -0.52956345659E+02 -0.44223610394E+03  0.46342888944E+03  0.12510143220E+03 0.  0.
          5    1    4    4  502    0  0.40814214380E+01 -0.42862285980E+02 -0.43461628464E+03  0.43676380440E+03  0.41800000000E+01 0.  1.
         -5    1    4    4    0  502  0.23099841405E+02 -0.10094059679E+02 -0.76198193003E+01  0.26665085034E+02  0.41800000000E+01 0.  1.
        -11    1    3    3    0    0  0.14888103917E+02  0.64093731538E+02 -0.99796790082E+02  0.11953686198E+03  0.00000000000E+00 0.  1.
         11    1    3    3    0    0 -0.42069366759E+02 -0.11137385879E+02 -0.62942000170E+02  0.76521685614E+02  0.00000000000E+00 0. -1.
</event>
<event>
 8    1  0.9181008E-006  0.1491364E+03  0.7561462E-02  0.1201538E+00
          2   -1    0    0  501    0  0.00000000000E+00  0.00000000000E+00  0.17531355685E+03  0.17531355685E+03  0.00000000000E+00 0. -1.
         -2   -1    0    0    0  501 -0.00000000000E+00 -0.00000000000E+00 -0.14972944348E+03  0.14972944348E+03  0.00000000000E+00 0.  1.
         23    2    1    2    0    0  0.11876539647E+03  0.12440425252E+02  0.16102506296E+02  0.15184529495E+03  0.92399779822E+02 0.  0.
         23    2    1    2    0    0 -0.11876539647E+03 -0.12440425252E+02  0.94816070818E+01  0.17319770537E+03  0.12509021023E+03 0.  0.
          5    1    4    4  502    0 -0.26078801730E+02  0.34663048175E+02  0.45580315318E+02  0.63060830576E+02  0.41800000000E+01 0. -1.
         -5    1    4    4    0  502 -0.92686594743E+02 -0.47103473426E+02 -0.36098708236E+02  0.11013687480E+03  0.41800000000E+01 0. -1.
        -11    1    3    3    0    0 -0.11109105587E+02  0.17431789953E+02  0.57905001298E+01  0.21466471989E+02  0.00000000000E+00 0.  1.
         11    1    3    3    0    0  0.12987450206E+03 -0.49913647016E+01  0.10312006166E+02  0.13037882297E+03  0.00000000000E+00 0. -1.
</event>
<event>
 8    1  0.9181008E-006  0.1209119E+03  0.7561462E-02  0.1241600E+00
          2   -1    0    0  501    0  0.00000000000E+00  0.00000000000E+00  0.22665854534E+03  0.22665854534E+03  0.00000000000E+00 0. -1.
         -2   -1    0    0    0  501 -0.00000000000E+00 -0.00000000000E+00 -0.13145398245E+03  0.13145398245E+03  0.00000000000E+00 0.  1.
         23    2    1    2    0    0  0.56041490085E+02 -0.73534094690E+02 -0.54159751488E+02  0.14247032352E+03  0.93896766229E+02 0.  0.
         23    2    1    2    0    0 -0.56041490085E+02  0.73534094690E+02  0.14936431438E+03  0.21564220427E+03  0.12507577766E+03 0.  0.
          5    1    4    4  502    0 -0.91201747520E+02  0.63600185943E+02  0.13775540842E+03  0.17707842147E+03  0.41800000000E+01 0. -1.
         -5    1    4    4    0  502  0.35160257435E+02  0.99339087470E+01  0.11608905963E+02  0.38563782796E+02  0.41800000000E+01 0. -1.
        -11    1    3    3    0    0  0.40565614403E+02 -0.40596322278E+02  0.19252025797E+02  0.60533221884E+02  0.00000000000E+00 0. -1.
         11    1    3    3    0    0  0.15475875683E+02 -0.32937772412E+02 -0.73411777285E+02  0.81937101631E+02  0.00000000000E+00 0.  1.
</event>
<event>
 8    1  0.9181008E-006  0.1232067E+03  0.7561462E-02  0.1237899E+00
         -2   -1    0    0    0  501 -0.00000000000E+00  0.00000000000E+00  0.19107250671E+02  0.19107250671E+02  0.00000000000E+00 0.  1.
          2   -1    0    0  501    0  0.00000000000E+00 -0.00000000000E+00 -0.93158784686E+03  0.93158784686E+03  0.00000000000E+00 0. -1.
         23    2    1    2    0    0  0.24178466098E+02 -0.74448108061E+02 -0.40256558901E+03  0.41984915908E+03  0.89928548912E+02 0.  0.
         23    2    1    2    0    0 -0.24178466098E+02  0.74448108061E+02 -0.50991500718E+03  0.53084593845E+03  0.12512784185E+03 0.  0.
          5    1    4    4  502    0 -0.30594240594E+02 -0.23927987293E+02 -0.24610738602E+03  0.24918843068E+03  0.41800000000E+01 0. -1.
         -5    1    4    4    0  502  0.64157744967E+01  0.98376095353E+02 -0.26380762116E+03  0.28165750777E+03  0.41800000000E+01 0. -1.
        -11    1    3    3    0    0  0.51606500478E+02 -0.45554050474E+02 -0.32964438866E+03  0.33675484463E+03  0.00000000000E+00 0. -1.
         11    1    3    3    0    0 -0.27428034381E+02 -0.28894057586E+02 -0.72921200356E+02  0.83094314457E+02  0.00000000000E+00 0.  1.
</event>
<event>
 8    1  0.9181008E-006  0.1413505E+03  0.7561462E-02  0.1211523E+00
         -1   -1    0    0    0  501 -0.00000000000E+00  0.00000000000E+00  0.53147945715E+02  0.53147945715E+02  0.00000000000E+00 0.  1.
          1   -1    0    0  501    0  0.00000000000E+00 -0.00000000000E+00 -0.51854591654E+03  0.51854591654E+03  0.00000000000E+00 0. -1.
         23    2    1    2    0    0  0.10735011134E+03 -0.41141607326E+02 -0.12995312839E+03  0.19567796907E+03  0.90473055333E+02 0.  0.
         23    2    1    2    0    0 -0.10735011134E+03  0.41141607326E+02 -0.33544484243E+03  0.37601589318E+03  0.12509209151E+03 0.  0.
          5    1    4    4  502    0 -0.12290364981E+03  0.16302798129E+02 -0.18536481189E+03  0.22304410831E+03  0.41800000000E+01 0. -1.
         -5    1    4    4    0  502  0.15553538477E+02  0.24838809197E+02 -0.15008003054E+03  0.15297178487E+03  0.41800000000E+01 0. -1.
        -11    1    3    3    0    0  0.31204643703E+02 -0.42698548205E+02 -0.10357238425E+02  0.53890334896E+02  0.00000000000E+00 0. -1.
         11    1    3    3    0    0  0.76145467635E+02  0.15569408789E+01 -0.11959588997E+03  0.14178763417E+03  0.00000000000E+00 0.  1.
</event>
<event>
 8    1  0.9181008E-006  0.1069632E+03  0.7561462E-02  0.1266299E+00
         -2   -1    0    0    0  501 -0.00000000000E+00  0.00000000000E+00  0.13765774534E+02  0.13765774534E+02  0.00000000000E+00 0.  1.
          2   -1    0    0  501    0  0.00000000000E+00 -0.00000000000E+00 -0.10740639044E+04  0.10740639044E+04  0.00000000000E+00 0. -1.
         23    2    1    2    0    0 -0.18132188099E+02  0.14741042593E+02 -0.25638245062E+03  0.27390386452E+03  0.93516262930E+02 0.  0.
         23    2    1    2    0    0  0.18132188099E+02 -0.14741042593E+02 -0.80391567927E+03  0.81392581444E+03  0.12509491376E+03 0.  0.
          5    1    4    4  502    0 -0.41395785852E+02  0.25662887824E+02 -0.45679112919E+03  0.45939939378E+03  0.41800000000E+01 0.  1.
         -5    1    4    4    0  502  0.59527973951E+02 -0.40403930417E+02 -0.34712455009E+03  0.35452642066E+03  0.41800000000E+01 0.  1.
        -11    1    3    3    0    0 -0.13110795977E+02  0.52893673657E+02 -0.18436439517E+03  0.19224948346E+03  0.00000000000E+00 0. -1.
         11    1    3    3    0    0 -0.50213921220E+01 -0.38152631064E+02 -0.72018055448E+02  0.81654381061E+02  0.00000000000E+00 0.  1.
</event>
<event>
 6    1  0.9181008E-006  0.8645989E+02  0.7561462E-02  0.1311658E+00
         -2   -1    0    0    0  501 -0.00000000000E+00  0.00000000000E+00  0.11354991883E+03  0.11354991883E+03  0.00000000000E+00 0. -1.
          2   -1    0    0  501    0  0.00000000000E+00 -0.00000000000E+00 -0.30284104710E+03  0.30284104710E+03  0.00000000000E+00 0.  1.
          5    1    1    2  502    0  0.27364749280E+02 -0.46534026312E+02 -0.24842174723E+03  0.25425397146E+03  0.41800000000E+01 0.  1.
         -5    1    1    2    0  502 -0.21642345581E+02 -0.30989637297E+02  0.68987441572E+02  0.78774921369E+02  0.41800000000E+01 0. -1.
        -11    1    1    2    0    0  0.65427241923E+01  0.52191970884E+02 -0.15117726232E+02  0.54729833830E+02  0.00000000000E+00 0. -1.
         11    1    1    2    0    0 -0.12265127891E+02  0.25331692725E+02  0.52609036262E+01  0.28632239267E+02  0.00000000000E+00 0.  1.
</event>
<event>
 8    1  0.9181008E-006  0.1359709E+03  0.7561462E-02  0.1218856E+00
         -2   -1    0    0    0  501 -0.00000000000E+00  0.00000000000E+00  0.22136932632E+03  0.22136932632E+03  0.00000000000E+00 0.  1.
          2   -1    0    0  501    0  0.00000000000E+00 -0.00000000000E+00 -0.11320333193E+03  0.11320333193E+03  0.00000000000E+00 0. -1.
         23    2    1    2    0    0 -0.99611437674E+02  0.36009722083E+02 -0.60005519497E+00  0.13783689524E+03  0.88201536399E+02 0.  0.
         23    2    1    2    0    0  0.99611437674E+02 -0.36009722083E+02  0.10876604959E+03  0.19673576302E+03  0.12512301270E+03 0.  0.
          5    1    4    4  502    0  0.93271599160E+02  0.29249815644E+02  0.71720168344E+02  0.12131116137E+03  0.41800000000E+01 0.  1.
         -5    1    4    4    0  502  0.63398385137E+01 -0.65259537727E+02  0.37045881244E+02  0.75424601649E+02  0.41800000000E+01 0.  1.
        -11    1    3    3    0    0 -0.22434890451E+02 -0.17123649843E+01  0.37604771579E+02  0.43822087455E+02  0.00000000000E+00 0.  1.
         11    1    3    3    0    0 -0.77176547222E+02  0.37722087067E+02 -0.38204826774E+02  0.94014807784E+02  0.00000000000E+00 0. -1.
</event>
<event>
 8    1  0.9181008E-006  0.1126337E+03  0.7561462E-02  0.1255769E+00
          2   -1    0    0  501    0  0.00000000000E+00  0.00000000000E+00  0.21855472343E+04  0.21855472343E+04  0.00000000000E+00 0.  1.
         -2   -1    0    0    0  501 -0.00000000000E+00 -0.00000000000E+00 -0.71410004605E+01  0.71410004605E+01  0.00000000000E+00 0. -1.
         23    2    1    2    0    0  0.31000027953E+02  0.86394089065E+01  0.49009365594E+03  0.49944203214E+03  0.90636144868E+02 0.  0.
         23    2    1    2    0    0 -0.31000027953E+02 -0.86394089065E+01  0.16883125779E+04  0.16932462026E+04  0.12509077054E+03 0.  0.
          5    1    4    4  502    0 -0.70460614372E+02 -0.37604205512E+02  0.10706001843E+04  0.10735832532E+04  0.41800000000E+01 0. -1.
         -5    1    4    4    0  502  0.39460586419E+02  0.28964796606E+02  0.61771239363E+03  0.61966294949E+03  0.41800000000E+01 0. -1.
        -11    1    3    3    0    0  0.34349261319E+02 -0.36950448726E+02  0.25242190956E+03  0.25741411741E+03  0.00000000000E+00 0.  1.
         11    1    3    3    0    0 -0.33492333661E+01  0.45589857633E+02  0.23767174638E+03  0.24202791473E+03  0.00000000000E+00 0. -1.
</event>
<event>
 8    1  0.9181008E-006  0.1244806E+03  0.7561462E-02  0.1235883E+00
         -2   -1    0    0    0  501 -0.00000000000E+00  0.00000000000E+00  0.30130562507E+02  0.30130562507E+02  0.00000000000E+00 0. -1.
          2   -1    0    0  501    0  0.00000000000E+00 -0.00000000000E+00 -0.62626738792E+03  0.62626738792E+03  0.00000000000E+00 0.  1.
         23    2    1    2    0    0 -0.60434485922E+02 -0.57453970649E+02 -0.24607800391E+03  0.27542333357E+03  0.91380210280E+02 0.  0.
         23    2    1    2    0    0  0.60434485922E+02  0.57453970649E+02 -0.35005882150E+03  0.38097461686E+03  0.12508874590E+03 0.  0.
          5    1    4    4  502    0 -0.16087527105E+02  0.50386499474E+02 -0.24536977247E+03  0.25104064512E+03  0.41800000000E+01 0.  1.
         -5    1    4    4    0  502  0.76522013027E+02  0.70674711748E+01 -0.10468904902E+03  0.12993397174E+03  0.41800000000E+01 0.  1.
        -11    1    3    3    0    0  0.21517671222E+02 -0.17675486700E+02 -0.95086539023E+02  0.99080184236E+02  0.00000000000E+00 0.  1.
         11    1    3    3    0    0 -0.81952157144E+02 -0.39778483949E+02 -0.15099146489E+03  0.17634314933E+03  0.00000000000E+00 0. -1.
</event>
<event>
 8    1  0.9181008E-006  0.1292738E+03  0.7561462E-02  0.1228537E+00
          2   -1    0    0  501    0  0.00000000000E+00  0.00000000000E+00  0.68138911868E+03  0.68138911868E+03  0.00000000000E+00 0. -1.
         -2   -1    0    0    0  501 -0.00000000000E+00 -0.00000000000E+00 -0.48705812895E+02  0.48705812895E+02  0.00000000000E+00 0.  1.
         23    2    1    2    0    0 -0.64602978450E+02  0.87793689141E+02  0.10293606852E+03  0.17497304861E+03  0.90213396238E+02 0.  0.
         23    2    1    2    0    0  0.64602978450E+02 -0.87793689141E+02  0.52974723727E+03  0.55512188297E+03  0.12508754085E+03 0.  0.
          5    1    4    4  502    0  0.65075637392E+02 -0.56527012546E+02  0.51139150991E+03  0.51862210764E+03  0.41800000000E+01 0.  1.
         -5    1    4    4    0  502 -0.47265894211E+00 -0.31266676595E+02  0.18355727362E+02  0.36499775324E+02  0.41800000000E+01 0.  1.
        -11    1    3    3    0    0 -0.36449680151E+02  0.10260576180E+03  0.71598858129E+02  0.13031852525E+03  0.00000000000E+00 0.  1.
         11    1    3    3    0    0 -0.28153298300E+02 -0.14812072660E+02  0.31337210391E+02  0.44654523362E+02  0.00000000000E+00 0. -1.
</event>
<event>
 8    1  0.9181008E-006  0.6567923E+02  0.7561462E-02  0.1375435E+00
         -1   -1    0    0    0  501 -0.00000000000E+00  0.00000000000E+00  0.11016334008E+03  0.11016334008E+03  0.00000000000E+00 0.  1.
          1   -1    0    0  501    0  0.00000000000E+00 -0.00000000000E+00 -0.13044330246E+03  0.13044330246E+03  0.00000000000E+00 0. -1.
         23    2    1    2    0    0 -0.33664715144E+02  0.36833711119E+02  0.48775510711E+01  0.10360045881E+03  0.90659964933E+02 0.  0.
         23    2    1    2    0    0  0.33664715144E+02 -0.36833711119E+02 -0.25157513453E+02  0.13700618372E+03  0.12509100117E+03 0.  0.
          5    1    4    4  502    0  0.50168686551E+02 -0.29527469734E+02 -0.68427715872E+02  0.89936606999E+02  0.41800000000E+01 0. -1.
         -5    1    4    4    0  502 -0.16503971406E+02 -0.73062413852E+01  0.43270202419E+02  0.47069576721E+02  0.41800000000E+01 0. -1.
        -11    1    3    3    0    0 -0.23906901371E+02  0.99964571684E+01  0.46435932174E+02  0.53176732562E+02  0.00000000000E+00 0.  1.
         11    1    3    3    0    0 -0.97578137729E+01  0.26837253950E+02 -0.41558381103E+02  0.50423726252E+02  0.00000000000E+00 0. -1.
</event>
<event>
 8    1  0.9181008E-006  0.1618984E+03  0.7561462E-02  0.1186570E+00
         -2   -1    0    0    0  501 -0.00000000000E+00  0.00000000000E+00  0.44613344956E+02  0.44613344956E+02  0.00000000000E+00 0.  1.
          2   -1    0    0  501    0  0.00000000000E+00 -0.00000000000E+00 -0.79584634246E+03  0.79584634246E+03  0.00000000000E+00 0. -1.
         23    2    1    2    0    0  0.61908247252E+01  0.12424994570E+03 -0.15551214985E+03  0.21911214174E+03  0.91376838373E+02 0.  0.
         23    2    1    2    0    0 -0.61908247252E+01 -0.12424994570E+03 -0.59572084765E+03  0.62134754567E+03  0.12535178049E+03 0.  0.
          5    1    4    4  502    0  0.22331087100E+02 -0.14089458650E+03 -0.46163932546E+03  0.48319592421E+03  0.41800000000E+01 0. -1.
         -5    1    4    4    0  502 -0.28521911825E+02  0.16644640804E+02 -0.13408152219E+03  0.13815162147E+03  0.41800000000E+01 0. -1.
        -11    1    3    3    0    0  0.30799140117E+02  0.12286380913E+02 -0.11615703023E+02  0.35134978933E+02  0.00000000000E+00 0.  1.
         11    1    3    3    0    0 -0.24608315392E+02  0.11196356478E+03 -0.14389644683E+03  0.18397716281E+03  0.00000000000E+00 0. -1.
</event>
<event>
 8    1  0.9181008E-006  0.1197217E+03  0.7561462E-02  0.1243557E+00
          1   -1    0    0  501    0  0.00000000000E+00  0.00000000000E+00  0.19284364044E+03  0.19284364044E+03  0.00000000000E+00 0. -1.
         -1   -1    0    0    0  501 -0.00000000000E+00 -0.00000000000E+00 -0.84435288472E+02  0.84435288472E+02  0.00000000000E+00 0.  1.
         23    2    1    2    0    0 -0.63366587857E+02 -0.24078444189E+02  0.17357510774E+02  0.10836668051E+03  0.82746349369E+02 0.  0.
         23    2    1    2    0    0  0.63366587857E+02  0.24078444189E+02  0.91050841194E+02  0.16891224840E+03  0.12508395599E+03 0.  0.
          5    1    4    4  502    0 -0.19677029043E+02 -0.30399852252E+02  0.48770188569E+02  0.60887931333E+02  0.41800000000E+01 0. -1.
         -5    1    4    4    0  502  0.83043616901E+02  0.54478296440E+02  0.42280652624E+02  0.10802431706E+03  0.41800000000E+01 0. -1.
        -11    1    3    3    0    0  0.16730128212E+02  0.63610568415E+01  0.13810934202E+02  0.22607568150E+02  0.00000000000E+00 0. -1.
         11    1    3    3    0    0 -0.80096716069E+02 -0.30439501030E+02  0.35465765719E+01  0.85759112363E+02  0.00000000000E+00 0.  1.
</event>
<event>
 8    1  0.9181008E-006  0.9716426E+02  0.7561462E-02  0.1286375E+00
          2   -1    0    0  501    0  0.00000000000E+00  0.00000000000E+00  0.45671028105E+03  0.45671028105E+03  0.00000000000E+00 0. -1.
         -2   -1    0    0    0  501 -0.00000000000E+00 -0.00000000000E+00 -0.71852644047E+02  0.71852644047E+02  0.00000000000E+00 0.  1.
         23    2    1    2    0    0  0.24000554303E+01  0.53571185092E+02 -0.16201370499E+02  0.10504106195E+03  0.88856671954E+02 0.  0.
         23    2    1    2    0    0 -0.24000554303E+01 -0.53571185092E+02  0.40105900751E+03  0.42352186315E+03  0.12508720530E+03 0.  0.
          5    1    4    4  502    0 -0.42298324536E+02 -0.40599371692E+02  0.35966569821E+03  0.36443702352E+03  0.41800000000E+01 0.  1.
         -5    1    4    4    0  502  0.39898269105E+02 -0.12971813400E+02  0.41393309293E+02  0.59084839635E+02  0.41800000000E+01 0.  1.
        -11    1    3    3    0    0  0.39308287769E+02  0.31601042556E+02  0.14225592381E+02  0.52403576753E+02  0.00000000000E+00 0. -1.
         11    1    3    3    0    0 -0.36908232339E+02  0.21970142536E+02 -0.30426962880E+02  0.52637485194E+02  0.00000000000E+00 0.  1.
</event>
<event>
 8    1  0.9181008E-006  0.1034574E+03  0.7561462E-02  0.1273189E+00
          2   -1    0    0  501    0  0.00000000000E+00  0.00000000000E+00  0.84361318224E+02  0.84361318224E+02  0.00000000000E+00 0. -1.
         -2   -1    0    0    0  501 -0.00000000000E+00 -0.00000000000E+00 -0.26111761399E+03  0.26111761399E+03  0.00000000000E+00 0.  1.
         23    2    1    2    0    0  0.43993590770E+02 -0.76575945314E+02 -0.14038192412E+03  0.18808410360E+03  0.88708702942E+02 0.  0.
         23    2    1    2    0    0 -0.43993590770E+02  0.76575945314E+02 -0.36374371650E+02  0.15739482862E+03  0.12510286061E+03 0.  0.
          5    1    4    4  502    0 -0.16225128845E+02  0.42253426245E+01  0.43025410103E+02  0.46365576033E+02  0.41800000000E+01 0.  1.
         -5    1    4    4    0  502 -0.27768461925E+02  0.72350602689E+02 -0.79399781753E+02  0.11102925258E+03  0.41800000000E+01 0.  1.
        -11    1    3    3    0    0 -0.17641330248E+02 -0.29882305847E+02 -0.88248849814E+02  0.94826305576E+02  0.00000000000E+00 0.  1.
         11    1    3    3    0    0  0.61634921018E+02 -0.46693639466E+02 -0.52133074304E+02  0.93257798022E+02  0.00000000000E+00 0. -1.
</event>
<event>
 8    1  0.2122206E-005  0.2796191E+03  0.7561462E-02  0.1095897E+00
         -2   -1    0    0    0  501 -0.00000000000E+00  0.00000000000E+00  0.22107941836E+02  0.22107941836E+02  0.00000000000E+00 0.  1.
          2   -1    0    0  501    0  0.00000000000E+00 -0.00000000000E+00 -0.40940255363E+04  0.40940255363E+04  0.00000000000E+00 0. -1.
         23    2    1    2    0    0 -0.21776302198E+03 -0.14481151986E+03 -0.13067284785E+04  0.13357900605E+04  0.91676928805E+02 0.  0.
         23    2    1    2    0    0  0.21776302198E+03  0.14481151986E+03 -0.27651891160E+04  0.27803434177E+04  0.12509021835E+03 0.  0.
          5    1    4    4  502    0 -0.84591466546E+01 -0.63545372688E+01 -0.29357432272E+03  0.29379464370E+03  0.41800000000E+01 0. -1.
         -5    1    4    4    0  502  0.22622216863E+03  0.15116605712E+03 -0.24716147933E+04  0.24865487740E+04  0.41800000000E+01 0. -1.
        -11    1    3    3    0    0 -0.59237807449E+02  0.25758233910E+01 -0.33929910035E+03  0.34444104313E+03  0.00000000000E+00 0. -1.
         11    1    3    3    0    0 -0.15852521453E+03 -0.14738734325E+03 -0.96742937811E+03  0.99134901736E+03  0.00000000000E+00 0.  1.
</event>
<event>
 8    1  0.9181008E-006  0.8293036E+02  0.7561462E-02  0.1320935E+00
         -1   -1    0    0    0  501 -0.00000000000E+00  0.00000000000E+00  0.14048485165E+03  0.14048485165E+03  0.00000000000E+00 0.  1.
          1   -1    0    0  501    0  0.00000000000E+00 -0.00000000000E+00 -0.13626599675E+03  0.13626599675E+03  0.00000000000E+00 0. -1.
         23    2    1    2    0    0 -0.12226765955E+02 -0.25633626153E+02  0.89608162003E+02  0.12266800728E+03  0.78811425044E+02 0.  0.
         23    2    1    2    0    0  0.12226765955E+02  0.25633626153E+02 -0.85389307104E+02  0.15408284111E+03  0.12507442410E+03 0.  0.
          5    1    4    4  502    0 -0.45171174195E+02  0.15768882761E+01  0.34613626503E+01  0.45523345507E+02  0.41800000000E+01 0.  1.
         -5    1    4    4    0  502  0.57397940150E+02  0.24056737877E+02 -0.88850669754E+02  0.10855949561E+03  0.41800000000E+01 0.  1.
        -11    1    3    3    0    0  0.14266403070E+02 -0.28071185097E+02  0.90730485089E+02  0.96039276412E+02  0.00000000000E+00 0.  1.
         11    1    3    3    0    0 -0.26493169026E+02  0.24375589446E+01 -0.11223230855E+01  0.26628730870E+02  0.00000000000E+00 0. -1.
</event>
<event>
 8    1  0.9181008E-006  0.1297839E+03  0.7561462E-02  0.1227777E+00
          2   -1    0    0  501    0  0.00000000000E+00  0.00000000000E+00  0.78107604229E+03  0.78107604229E+03  0.00000000000E+00 0. -1.
         -2   -1    0    0    0  501 -0.00000000000E+00 -0.00000000000E+00 -0.34526852459E+02  0.34526852459E+02  0.00000000000E+00 0.  1.
         23    2    1    2    0    0  0.10064348288E+03 -0.10533780378E+02  0.17501346542E+03  0.22185090234E+03  0.91367601572E+02 0.  0.
         23    2    1    2    0    0 -0.10064348288E+03  0.10533780378E+02  0.57153572442E+03  0.59375199241E+03  0.12509305748E+03 0.  0.
          5    1    4    4  502    0 -0.76261481874E+02 -0.51138242927E+02  0.27845757682E+03  0.29323544805E+03  0.41800000000E+01 0.  1.
         -5    1    4    4    0  502 -0.24382001010E+02  0.61672023305E+02  0.29307814760E+03  0.30051654435E+03  0.41800000000E+01 0.  1.
        -11    1    3    3    0    0  0.49867406864E+02 -0.59697623023E+01  0.16147198439E+03  0.16910233018E+03  0.00000000000E+00 0. -1.
         11    1    3    3    0    0  0.50776076019E+02 -0.45640180762E+01  0.13541481028E+02  0.52748572164E+02  0.00000000000E+00 0.  1.
</event>
<event>
 8    1  0.9181008E-006  0.1120180E+03  0.7561462E-02  0.1256878E+00
          1   -1    0    0  501    0  0.00000000000E+00  0.00000000000E+00  0.16335474855E+04  0.16335474855E+04  0.00000000000E+00 0. -1.
         -1   -1    0    0    0  501 -0.00000000000E+00 -0.00000000000E+00 -0.13224693422E+02  0.13224693422E+02  0.00000000000E+00 0.  1.
         23    2    1    2    0    0  0.32867237239E+02 -0.14725960040E+02  0.23205468262E+03  0.25241489456E+03  0.92556977516E+02 0.  0.
         23    2    1    2    0    0 -0.32867237239E+02  0.14725960040E+02  0.13882681095E+04  0.13943572844E+04  0.12508710380E+03 0.  0.
          5    1    4    4  502    0 -0.74788335513E+02  0.35491045661E+02  0.83881467643E+03  0.84290001972E+03  0.41800000000E+01 0. -1.
         -5    1    4    4    0  502  0.41921098274E+02 -0.20765085621E+02  0.54945343307E+03  0.55145726469E+03  0.41800000000E+01 0. -1.
        -11    1    3    3    0    0  0.39330180734E+02  0.29701068519E+02  0.80864614454E+02  0.94700065779E+02  0.00000000000E+00 0.  1.
         11    1    3    3    0    0 -0.64629434953E+01 -0.44427028559E+02  0.15119006817E+03  0.15771482878E+03  0.00000000000E+00 0. -1.
</event>
<event>
 8    1  0.9181008E-006  0.1009329E+03  0.7561462E-02  0.1278346E+00
          3   -1    0    0  501    0  0.00000000000E+00  0.00000000000E+00  0.52643210338E+03  0.52643210338E+03  0.00000000000E+00 0. -1.
         -3   -1    0    0    0  501 -0.00000000000E+00 -0.00000000000E+00 -0.38826396483E+02  0.38826396483E+02  0.00000000000E+00 0.  1.
         23    2    1    2    0    0 -0.45736652933E+02 -0.62917635480E+01  0.60712128782E+02  0.11802249931E+03  0.90066198172E+02 0.  0.
         23    2    1    2    0    0  0.45736652933E+02  0.62917635480E+01  0.42689357812E+03  0.44723600055E+03  0.12510190023E+03 0.  0.
          5    1    4    4  502    0  0.63187478212E+02 -0.23645294653E+02  0.39234558988E+03  0.39812597461E+03  0.41800000000E+01 0.  1.
         -5    1    4    4    0  502 -0.17450825279E+02  0.29937058201E+02  0.34547988240E+02  0.49110025942E+02  0.41800000000E+01 0.  1.
        -11    1    3    3    0    0 -0.61308894868E+02  0.23573961974E+02  0.50414586268E+02  0.82801828371E+02  0.00000000000E+00 0. -1.
         11    1    3    3    0    0  0.15572241935E+02 -0.29865725522E+02  0.10297542514E+02  0.35220670943E+02  0.00000000000E+00 0.  1.
</event>
<event>
 7    1  0.9181008E-006  0.3253560E+02  0.7561462E-02  0.1571641E+00
         -2   -1    0    0    0  501 -0.00000000000E+00  0.00000000000E+00  0.23392500433E+03  0.23392500433E+03  0.00000000000E+00 0.  1.
          2   -1    0    0  501    0  0.00000000000E+00 -0.00000000000E+00 -0.23625084627E+02  0.23625084627E+02  0.00000000000E+00 0. -1.
         23    2    1    2    0    0  0.24423628413E+02 -0.52428753244E+01  0.16558557106E+03  0.20550565788E+03  0.11912175583E+03 0.  0.
          5    1    3    3  502    0 -0.60827619428E+01 -0.51082951024E+00 -0.17913414951E+02  0.19381015836E+02  0.41800000000E+01 0. -1.
         -5    1    3    3    0  502  0.30506390356E+02 -0.47320458141E+01  0.18349898601E+03  0.18612464205E+03  0.41800000000E+01 0.  1.
        -11    1    1    2    0    0 -0.11420814837E+02  0.70057001062E+01  0.24968701686E+02  0.28336388433E+02  0.00000000000E+00 0.  1.
         11    1    1    2    0    0 -0.13002813576E+02 -0.17628247818E+01  0.19745646958E+02  0.23708042642E+02  0.00000000000E+00 0. -1.
</event>
<event>
 8    1  0.9181008E-006  0.9219607E+02  0.7561462E-02  0.1297619E+00
         -1   -1    0    0    0  501 -0.00000000000E+00  0.00000000000E+00  0.60879998606E+02  0.60879998606E+02  0.00000000000E+00 0.  1.
          1   -1    0    0  501    0  0.00000000000E+00 -0.00000000000E+00 -0.19870733590E+03  0.19870733590E+03  0.00000000000E+00 0. -1.
         23    2    1    2    0    0  0.25870005412E+02  0.12572023323E+02 -0.64988357208E+02  0.11201172365E+03  0.86578442534E+02 0.  0.
         23    2    1    2    0    0 -0.25870005412E+02 -0.12572023323E+02 -0.72838980085E+02  0.14757561086E+03  0.12508289631E+03 0.  0.
          5    1    4    4  502    0 -0.56323877153E+02  0.19192675676E+02  0.30751390624E+01  0.59729949083E+02  0.41800000000E+01 0. -1.
         -5    1    4    4    0  502  0.30453871741E+02 -0.31764698998E+02 -0.75914119147E+02  0.87845661773E+02  0.41800000000E+01 0. -1.
        -11    1    3    3    0    0  0.34000147996E+02  0.39670197860E+02 -0.14640245482E+02  0.54259298279E+02  0.00000000000E+00 0.  1.
         11    1    3    3    0    0 -0.81301425834E+01 -0.27098174537E+02 -0.50348111726E+02  0.57752425369E+02  0.00000000000E+00 0. -1.
</event>
<event>
 8    1  0.9181008E-006  0.1478954E+03  0.7561462E-02  0.1203083E+00
          2   -1    0    0  501    0  0.00000000000E+00  0.00000000000E+00  0.82699421341E+03  0.82699421341E+03  0.00000000000E+00 0. -1.
         -2   -1    0    0    0  501 -0.00000000000E+00 -0.00000000000E+00 -0.44331958673E+02  0.44331958673E+02  0.00000000000E+00 0.  1.
         23    2    1    2    0    0 -0.36057220337E+02 -0.13769074233E+03  0.23349930731E+03  0.29039037187E+03  0.97702496902E+02 0.  0.
         23    2    1    2    0    0  0.36057220337E+02  0.13769074233E+03  0.54916294743E+03  0.58093580021E+03  0.12509035723E+03 0.  0.
          5    1    4    4  502    0  0.12247703022E+02  0.95427161925E+02  0.14635470311E+03  0.17519566486E+03  0.41800000000E+01 0. -1.
         -5    1    4    4    0  502  0.23809517315E+02  0.42263580408E+02  0.40280824432E+03  0.40574013535E+03  0.41800000000E+01 0. -1.
        -11    1    3    3    0    0  0.12648398522E+02 -0.24359900765E+02  0.13229169840E+01  0.27479753635E+02  0.00000000000E+00 0.  1.
         11    1    3    3    0    0 -0.48705618859E+02 -0.11333084157E+03  0.23217639033E+03  0.26291061824E+03  0.00000000000E+00 0. -1.
</event>
<event>
 8    1  0.9181008E-006  0.7939418E+02  0.7561462E-02  0.1330780E+00
         -2   -1    0    0    0  501 -0.00000000000E+00  0.00000000000E+00  0.40907135181E+03  0.40907135181E+03  0.00000000000E+00 0. -1.
          2   -1    0    0  501    0  0.00000000000E+00 -0.00000000000E+00 -0.29578073222E+02  0.29578073222E+02  0.00000000000E+00 0.  1.
         23    2    1    2    0    0  0.17841018463E+02  0.47038692794E+01  0.19177965546E+03  0.21231822438E+03  0.89214145901E+02 0.  0.
         23    2    1    2    0    0 -0.17841018463E+02 -0.47038692794E+01  0.18771362313E+03  0.22633120065E+03  0.12509588225E+03 0.  0.
          5    1    4    4  502    0  0.14309828350E+02 -0.37150601176E+02  0.79552171127E+01  0.40812941997E+02  0.41800000000E+01 0. -1.
         -5    1    4    4    0  502 -0.32150846813E+02  0.32446731897E+02  0.17975840601E+03  0.18551825865E+03  0.41800000000E+01 0. -1.
        -11    1    3    3    0    0 -0.27050729987E+02 -0.34283804701E+01  0.18054926340E+02  0.32702846216E+02  0.00000000000E+00 0.  1.
         11    1    3    3    0    0  0.44891748449E+02  0.81322497495E+01  0.17372472912E+03  0.17961537816E+03  0.00000000000E+00 0. -1.
</event>
<event>
 8    1  0.9181008E-006  0.9462051E+02  0.7561462E-02  0.1292033E+00
         -2   -1    0    0    0  501 -0.00000000000E+00  0.00000000000E+00  0.17960898362E+03  0.17960898362E+03  0.00000000000E+00 0.  1.
          2   -1    0    0  501    0  0.00000000000E+00 -0.00000000000E+00 -0.79262018292E+02  0.79262018292E+02  0.00000000000E+00 0. -1.
         23    2    1    2    0    0  0.36300684485E+02 -0.30978028682E+02  0.12849678636E+02  0.98934631797E+02  0.85706295992E+02 0.  0.
         23    2    1    2    0    0 -0.36300684485E+02  0.30978028682E+02  0.87497286689E+02  0.15993637011E+03  0.12508592787E+03 0.  0.
          5    1    4    4  502    0  0.26552661520E+02  0.18987724346E+02 -0.17222469875E+02  0.37143820189E+02  0.41800000000E+01 0.  1.
         -5    1    4    4    0  502 -0.62853346005E+02  0.11990304336E+02  0.10471975656E+03  0.12279254992E+03  0.41800000000E+01 0.  1.
        -11    1    3    3    0    0  0.43677765936E+02 -0.53177119191E+02 -0.57408347179E+01  0.69054401930E+02  0.00000000000E+00 0. -1.
         11    1    3    3    0    0 -0.73770814512E+01  0.22199090509E+02  0.18590513354E+02  0.29880229867E+02  0.00000000000E+00 0.  1.
</event>
<event>
 8    1  0.9181008E-006  0.1061453E+03  0.7561462E-02  0.1267879E+00
         -2   -1    0    0    0  501 -0.00000000000E+00  0.00000000000E+00  0.31925833463E+02  0.31925833463E+02  0.00000000000E+00 0.  1.
          2   -1    0    0  501    0  0.00000000000E+00 -0.00000000000E+00 -0.58755447592E+03  0.58755447592E+03  0.00000000000E+00 0. -1.
         23    2    1    2    0    0 -0.13171182917E+02  0.36710353766E+02 -0.83333549683E+02  0.12934621875E+03  0.90911130619E+02 0.  0.
         23    2    1    2    0    0  0.13171182917E+02 -0.36710353766E+02 -0.47229509278E+03  0.49013409063E+03  0.12509053523E+03 0.  0.
          5    1    4    4  502    0 -0.24304330025E+02  0.33163574851E+02 -0.81785389500E+02  0.91634303023E+02  0.41800000000E+01 0. -1.
         -5    1    4    4    0  502  0.37475512942E+02 -0.69873928616E+02 -0.39050970328E+03  0.39849978761E+03  0.41800000000E+01 0. -1.
        -11    1    3    3    0    0 -0.35447700970E+02 -0.12466740268E+02 -0.11127773064E+02  0.39189111374E+02  0.00000000000E+00 0.  1.
         11    1    3    3    0    0  0.22276518053E+02  0.49177094034E+02 -0.72205776618E+02  0.90157107380E+02  0.00000000000E+00 0. -1.
</event>
<event>
 7    1  0.9181008E-006  0.1997965E+03  0.7561462E-02  0.1149911E+00
          4   -1    0    0  501    0  0.00000000000E+00  0.00000000000E+00  0.97924047923E+02  0.97924047923E+02  0.00000000000E+00 0. -1.
         -4   -1    0    0    0  501 -0.00000000000E+00 -0.00000000000E+00 -0.89009705848E+03  0.89009705848E+03  0.00000000000E+00 0.  1.
         23    2    1    2    0    0 -0.14050946570E+03  0.41467589179E+01 -0.67729988623E+03  0.69830090196E+03  0.95545320249E+02 0.  0.
          5    1    1    2  502    0  0.80716928163E+02  0.94256225865E+02  0.39219906247E+01  0.12422686109E+03  0.41800000000E+01 0. -1.
         -5    1    1    2    0  502  0.59792537534E+02 -0.98402984783E+02 -0.11879511495E+03  0.16549334336E+03  0.41800000000E+01 0.  1.
        -11    1    3    3    0    0 -0.44595614337E+02  0.37902878397E+02 -0.14481419133E+03  0.15619394040E+03  0.00000000000E+00 0. -1.
         11    1    3    3    0    0 -0.95913851361E+02 -0.33756119480E+02 -0.53248569490E+03  0.54210696155E+03  0.00000000000E+00 0.  1.
</event>
<event>
 8    1  0.9181008E-006  0.9350344E+02  0.7561462E-02  0.1294583E+00
          2   -1    0    0  501    0  0.00000000000E+00  0.00000000000E+00  0.57839190150E+03  0.57839190150E+03  0.00000000000E+00 0. -1.
         -2   -1    0    0    0  501 -0.00000000000E+00 -0.00000000000E+00 -0.32870563098E+02  0.32870563098E+02  0.00000000000E+00 0.  1.
         23    2    1    2    0    0  0.66405766987E+02 -0.33739857594E+02  0.15972970917E+03  0.19891532220E+03  0.92225926589E+02 0.  0.
         23    2    1    2    0    0 -0.66405766987E+02  0.33739857594E+02  0.38579162923E+03  0.41234714239E+03  0.12508749249E+03 0.  0.
          5    1    4    4  502    0 -0.96439432961E+01  0.46389666818E+01 -0.76133063056E+01  0.13782615393E+02  0.41800000000E+01 0. -1.
         -5    1    4    4    0  502 -0.56761823691E+02  0.29100890912E+02  0.39340493553E+03  0.39856452700E+03  0.41800000000E+01 0. -1.
        -11    1    3    3    0    0  0.77436768903E+02 -0.49831239677E+02  0.99351291160E+02  0.13546322261E+03  0.00000000000E+00 0.  1.
         11    1    3    3    0    0 -0.11031001916E+02  0.16091382083E+02  0.60378418010E+02  0.63452099587E+02  0.00000000000E+00 0. -1.
</event>
<event>
 8    1  0.9181008E-006  0.9989108E+02  0.7561462E-02  0.1280525E+00
         -1   -1    0    0    0  501 -0.00000000000E+00  0.00000000000E+00  0.15403037622E+02  0.15403037622E+02  0.00000000000E+00 0.  1.
          1   -1    0    0  501    0  0.00000000000E+00 -0.00000000000E+00 -0.11533053403E+04  0.11533053403E+04  0.00000000000E+00 0. -1.
         23    2    1    2    0    0  0.27697117241E+02  0.61307262478E+02 -0.34318862654E+03  0.36140175252E+03  0.91143198318E+02 0.  0.
         23    2    1    2    0    0 -0.27697117241E+02 -0.61307262478E+02 -0.79471367614E+03  0.80730662541E+03  0.12509376342E+03 0.  0.
          5    1    4    4  502    0 -0.46773691578E+02 -0.78206317435E+02 -0.34513842394E+03  0.35699021049E+03  0.41800000000E+01 0. -1.
         -5    1    4    4    0  502  0.19076574337E+02  0.16899054958E+02 -0.44957525220E+03  0.45031641491E+03  0.41800000000E+01 0. -1.
        -11    1    3    3    0    0  0.41372718922E+02  0.50629957856E+02 -0.33652178812E+03  0.34281483104E+03  0.00000000000E+00 0. -1.
         11    1    3    3    0    0 -0.13675601681E+02  0.10677304621E+02 -0.66668384189E+01  0.18586921472E+02  0.00000000000E+00 0.  1.
</event>
<event>
 8    1  0.9181008E-006  0.9820901E+02  0.7561462E-02  0.1284108E+00
          2   -1    0    0  501    0  0.00000000000E+00  0.00000000000E+00  0.75254861486E+03  0.75254861486E+03  0.00000000000E+00 0.  1.
         -2   -1    0    0    0  501 -0.00000000000E+00 -0.00000000000E+00 -0.40254834672E+02  0.40254834672E+02  0.00000000000E+00 0. -1.
         23    2    1    2    0    0 -0.97508374893E+02  0.54322774108E+01  0.11869713978E+03  0.17835886228E+03  0.90473642298E+02 0.  0.
         23    2    1    2    0    0  0.97508374893E+02 -0.54322774108E+01  0.59359664041E+03  0.61444458725E+03  0.12509111272E+03 0.  0.
          5    1    4    4  502    0  0.36223879052E+02  0.35518866203E+01  0.50463668744E+03  0.50596486442E+03  0.41800000000E+01 0. -1.
         -5    1    4    4    0  502  0.61284495841E+02 -0.89841640311E+01  0.88959952968E+02  0.10847972283E+03  0.41800000000E+01 0. -1.
        -11    1    3    3    0    0 -0.66295341400E+02  0.23667486832E+01  0.12342221380E+02  0.67475952897E+02  0.00000000000E+00 0.  1.
         11    1    3    3    0    0 -0.31213033492E+02  0.30655287276E+01  0.10635491840E+03  0.11088290938E+03  0.00000000000E+00 0. -1.
</event>
<event>
 8    1  0.9181008E-006  0.1352563E+03  0.7561462E-02  0.1219858E+00
          1   -1    0    0  501    0  0.00000000000E+00  0.00000000000E+00  0.40518137773E+03  0.40518137773E+03  0.00000000000E+00 0.  1.
         -1   -1    0    0    0  501 -0.00000000000E+00 -0.00000000000E+00 -0.62041756224E+02  0.62041756224E+02  0.00000000000E+00 0. -1.
         23    2    1    2    0    0  0.39441852628E+02 -0.97076156979E+02  0.89727537924E+02  0.16581879503E+03  0.92007617780E+02 0.  0.
         23    2    1    2    0    0 -0.39441852628E+02  0.97076156979E+02  0.25341208359E+03  0.30140433893E+03  0.12508977347E+03 0.  0.
          5    1    4    4  502    0 -0.37866181722E+02 -0.15633797127E+02  0.29404958158E+02  0.50600269714E+02  0.41800000000E+01 0.  1.
         -5    1    4    4    0  502 -0.15756709062E+01  0.11270995411E+03  0.22400712543E+03  0.25080406922E+03  0.41800000000E+01 0.  1.
        -11    1    3    3    0    0  0.34852038264E+02 -0.21777751945E+02  0.79759854299E+02  0.89724965360E+02  0.00000000000E+00 0.  1.
         11    1    3    3    0    0  0.45898143643E+01 -0.75298405034E+02  0.99676836249E+01  0.76093829667E+02  0.00000000000E+00 0. -1.
</event>
<event>
 8    1  0.9181008E-006  0.1117296E+03  0.7561462E-02  0.1257400E+00
          2   -1    0    0  501    0  0.00000000000E+00  0.00000000000E+00  0.91687528130E+03  0.91687528130E+03  0.00000000000E+00 0. -1.
         -2   -1    0    0    0  501 -0.00000000000E+00 -0.00000000000E+00 -0.15303445752E+02  0.15303445752E+02  0.00000000000E+00 0.  1.
         23    2    1    2    0    0 -0.40996813626E+02 -0.25084886754E+02  0.29651540002E+03  0.31246012962E+03  0.86023019510E+02 0.  0.
         23    2    1    2    0    0  0.40996813626E+02  0.25084886754E+02  0.60505643553E+03  0.61971859743E+03  0.12509140479E+03 0.  0.
          5    1    4    4  502    0 -0.34409072460E+02 -0.20595718659E+02  0.28017410425E+03  0.28306036280E+03  0.41800000000E+01 0. -1.
         -5    1    4    4    0  502  0.75405886086E+02  0.45680605413E+02  0.32488233127E+03  0.33665823462E+03  0.41800000000E+01 0. -1.
        -11    1    3    3    0    0 -0.22344813037E+02 -0.55145556576E+02  0.14229679987E+03  0.15423586591E+03  0.00000000000E+00 0.  1.
         11    1    3    3    0    0 -0.18652000589E+02  0.30060669822E+02  0.15421860015E+03  0.15822426372E+03  0.00000000000E+00 0. -1.
</event>
<event>
 8    1  0.9181008E-006  0.3510227E+03  0.7561462E-02  0.1062196E+00
          1   -1    0    0  501    0  0.00000000000E+00  0.00000000000E+00  0.12747238361E+04  0.12747238361E+04  0.00000000000E+00 0. -1.
         -1   -1    0    0    0  501 -0.00000000000E+00 -0.00000000000E+00 -0.10060670621E+03  0.10060670621E+03  0.00000000000E+00 0.  1.
         23    2    1    2    0    0 -0.18202338051E+03 -0.28761492575E+03  0.53434409186E+03  0.63993118219E+03  0.90185657737E+02 0.  0.
         23    2    1    2    0    0  0.18202338051E+03  0.28761492575E+03  0.63977303799E+03  0.73539936009E+03  0.12509125511E+03 0.  0.
          5    1    4    4  502    0  0.16073432331E+03  0.14420584631E+03  0.41612771788E+03  0.46883963014E+03  0.41800000000E+01 0.  1.
         -5    1    4    4    0  502  0.21289057209E+02  0.14340907944E+03  0.22364532011E+03  0.26655972995E+03  0.41800000000E+01 0.  1.
        -11    1    3    3    0    0 -0.90982800302E+02 -0.12421188121E+03  0.16351728353E+03  0.22459822661E+03  0.00000000000E+00 0.  1.
         11    1    3    3    0    0 -0.91040580212E+02 -0.16340304454E+03  0.37082680833E+03  0.41533295558E+03  0.00000000000E+00 0. -1.
</event>
<event>
 8    1  0.9181008E-006  0.1252010E+03  0.7561462E-02  0.1234755E+00
          1   -1    0    0  501    0  0.00000000000E+00  0.00000000000E+00  0.10031300883E+03  0.10031300883E+03  0.00000000000E+00 0. -1.
         -1   -1    0    0    0  501 -0.00000000000E+00 -0.00000000000E+00 -0.16300764652E+03  0.16300764652E+03  0.00000000000E+00 0.  1.
         23    2    1    2    0    0  0.65968080029E+02  0.12510192894E+02 -0.38082015880E+02  0.11923494521E+03  0.90875957865E+02 0.  0.
         23    2    1    2    0    0 -0.65968080029E+02 -0.12510192894E+02 -0.24612621804E+02  0.14408571013E+03  0.12508644293E+03 0.  0.
          5    1    4    4  502    0  0.35205130066E+02  0.14068434351E+01 -0.22185372218E+02  0.41845472059E+02  0.41800000000E+01 0. -1.
         -5    1    4    4    0  502 -0.10117321009E+03 -0.13917036329E+02 -0.24272495864E+01  0.10224023807E+03  0.41800000000E+01 0. -1.
        -11    1    3    3    0    0  0.52570075267E+02  0.50212964839E+02 -0.28548486779E+02  0.78102309498E+02  0.00000000000E+00 0.  1.
         11    1    3    3    0    0  0.13398004761E+02 -0.37702771945E+02 -0.95335291012E+01  0.41132635717E+02  0.00000000000E+00 0. -1.
</event>
<event>
 8    1  0.9181008E-006  0.1336311E+03  0.7561462E-02  0.1222165E+00
          2   -1    0    0  501    0  0.00000000000E+00  0.00000000000E+00  0.49529632090E+03  0.49529632090E+03  0.00000000000E+00 0. -1.
         -2   -1    0    0    0  501 -0.00000000000E+00 -0.00000000000E+00 -0.53585674931E+02  0.53585674931E+02  0.00000000000E+00 0.  1.
         23    2    1    2    0    0  0.92587587239E+02  0.69461847310E+02  0.15516750611E+03  0.21548759823E+03  0.94660131496E+02 0.  0.
         23    2    1    2    0    0 -0.92587587239E+02 -0.69461847310E+02  0.28654313986E+03  0.33339439760E+03  0.12508974303E+03 0.  0.
          5    1    4    4  502    0 -0.85357298865E+02 -0.81047440432E+02  0.12698008126E+03  0.17319344533E+03  0.41800000000E+01 0. -1.
         -5    1    4    4    0  502 -0.72302883744E+01  0.11585593121E+02  0.15956305861E+03  0.16020095227E+03  0.41800000000E+01 0. -1.
        -11    1    3    3    0    0  0.23813727711E+02  0.61521807728E+02  0.12206229091E+03  0.13874879933E+03  0.00000000000E+00 0. -1.
         11    1    3    3    0    0  0.68773859528E+02  0.79400395822E+01  0.33105215205E+02  0.76738798900E+02  0.00000000000E+00 0.  1.
</event>
<event>
 8    1  0.9181008E-006  0.1352481E+03  0.7561462E-02  0.1219870E+00
         -3   -1    0    0    0  501 -0.00000000000E+00  0.00000000000E+00  0.87300680662E+02  0.87300680662E+02  0.00000000000E+00 0.  1.
          3   -1    0    0  501    0  0.00000000000E+00 -0.00000000000E+00 -0.27877430614E+03  0.27877430614E+03  0.00000000000E+00 0. -1.
         23    2    1    2    0    0  0.64538454075E+02 -0.88190546391E+02 -0.77060197000E+02  0.16438136938E+03  0.95604268264E+02 0.  0.
         23    2    1    2    0    0 -0.64538454075E+02  0.88190546391E+02 -0.11441342848E+03  0.20169361743E+03  0.12508836144E+03 0.  0.
          5    1    4    4  502    0  0.26554988359E+02  0.60030615761E+02 -0.23394162496E+02  0.69811184449E+02  0.41800000000E+01 0.  1.
         -5    1    4    4    0  502 -0.91093442433E+02  0.28159930630E+02 -0.91019265984E+02  0.13188243298E+03  0.41800000000E+01 0.  1.
        -11    1    3    3    0    0  0.34570388672E+02 -0.47142361639E+02 -0.94097263417E+02  0.11077819739E+03  0.00000000000E+00 0. -1.
         11    1    3    3    0    0  0.29968065403E+02 -0.41048184752E+02  0.17037066418E+02  0.53603171991E+02  0.00000000000E+00 0.  1.
</event>
<event>
 8    1  0.9181008E-006  0.8185381E+02  0.7561462E-02  0.1323871E+00
         -1   -1    0    0    0  501 -0.00000000000E+00  0.00000000000E+00  0.85052251220E+02  0.85052251220E+02  0.00000000000E+00 0.  1.
          1   -1    0    0  501    0  0.00000000000E+00 -0.00000000000E+00 -0.19152020801E+03  0.19152020801E+03  0.00000000000E+00 0. -1.
         23    2    1    2    0    0  0.39013148372E+02 -0.16367499564E+02  0.14340473612E+02  0.97593724652E+02  0.86769609427E+02 0.  0.
         23    2    1    2    0    0 -0.39013148372E+02  0.16367499564E+02 -0.12080843040E+03  0.17897873457E+03  0.12509512295E+03 0.  0.
          5    1    4    4  502    0 -0.60244123678E+02  0.24211071975E+02 -0.10024646271E+02  0.65829297252E+02  0.41800000000E+01 0. -1.
         -5    1    4    4    0  502  0.21230975306E+02 -0.78435724109E+01 -0.11078378413E+03  0.11314943732E+03  0.41800000000E+01 0. -1.
        -11    1    3    3    0    0 -0.16788706907E+02  0.19425982524E+01  0.32066622426E+02  0.36247794987E+02  0.00000000000E+00 0.  1.
         11    1    3    3    0    0  0.55801855279E+02 -0.18310097816E+02 -0.17726148814E+02  0.61345929665E+02  0.00000000000E+00 0. -1.
</event>
<event>
 8    1  0.9181008E-006  0.1257161E+03  0.7561462E-02  0.1233954E+00
         -1   -1    0    0    0  501 -0.00000000000E+00  0.00000000000E+00  0.26015027988E+03  0.26015027988E+03  0.00000000000E+00 0.  1.
          1   -1    0    0  501    0  0.00000000000E+00 -0.00000000000E+00 -0.63383236326E+02  0.63383236326E+02  0.00000000000E+00 0. -1.
         23    2    1    2    0    0 -0.30447340411E+02  0.57968720774E+02  0.11361855693E+03  0.15967578659E+03  0.91103058228E+02 0.  0.
         23    2    1    2    0    0  0.30447340411E+02 -0.57968720774E+02  0.83148486624E+02  0.16385772961E+03  0.12509305177E+03 0.  0.
          5    1    4    4  502    0 -0.34712235633E+02 -0.66172906823E+02  0.51402724817E+02  0.90793752090E+02  0.41800000000E+01 0.  1.
         -5    1    4    4    0  502  0.65159576044E+02  0.82041860484E+01  0.31745761808E+02  0.73063977525E+02  0.41800000000E+01 0.  1.
        -11    1    3    3    0    0 -0.62360053463E+02  0.35526012951E+02  0.85250524766E+02  0.11143843967E+03  0.00000000000E+00 0.  1.
         11    1    3    3    0    0  0.31912713052E+02  0.22442707824E+02  0.28368032163E+02  0.48237346917E+02  0.00000000000E+00 0. -1.
</event>
<event>
 8    1  0.9181008E-006  0.1028631E+03  0.7561462E-02  0.1274388E+00
          2   -1    0    0  501    0  0.00000000000E+00  0.00000000000E+00  0.24483319880E+03  0.24483319880E+03  0.00000000000E+00 0. -1.
         -2   -1    0    0    0  501 -0.00000000000E+00 -0.00000000000E+00 -0.62247954890E+02  0.62247954890E+02  0.00000000000E+00 0.  1.
         23    2    1    2    0    0  0.33014573410E+02  0.42428676144E+02  0.33187863232E+02  0.10494491685E+03  0.83796459886E+02 0.  0.
         23    2    1    2    0    0 -0.33014573410E+02 -0.42428676144E+02  0.14939738068E+03  0.20213623684E+03  0.12509726726E+03 0.  0.
          5    1    4    4  502    0  0.35275072469E+02 -0.71571508118E+00  0.35243044306E+01  0.35703446718E+02  0.41800000000E+01 0. -1.
         -5    1    4    4    0  502 -0.68289645879E+02 -0.41712961063E+02  0.14587307625E+03  0.16643279012E+03  0.41800000000E+01 0. -1.
        -11    1    3    3    0    0  0.54778129262E+02  0.18732302578E+02 -0.11300748124E+01  0.57903537667E+02  0.00000000000E+00 0.  1.
         11    1    3    3    0    0 -0.21763555852E+02  0.23696373566E+02  0.34317938045E+02  0.47041379180E+02  0.00000000000E+00 0. -1.
</event>
<event>
 8    1  0.9181008E-006  0.1234505E+03  0.7561462E-02  0.1237511E+00
          1   -1    0    0  501    0  0.00000000000E+00  0.00000000000E+00  0.25673996265E+02  0.25673996265E+02  0.00000000000E+00 0. -1.
         -1   -1    0    0    0  501 -0.00000000000E+00 -0.00000000000E+00 -0.61499243733E+03  0.61499243733E+03  0.00000000000E+00 0.  1.
         23    2    1    2    0    0  0.63430768958E+02 -0.76779880421E+01 -0.27883004525E+03  0.29988303651E+03  0.90006819198E+02 0.  0.
         23    2    1    2    0    0 -0.63430768958E+02  0.76779880421E+01 -0.31048839582E+03  0.34078339709E+03  0.12509142993E+03 0.  0.
          5    1    4    4  502    0  0.78942991124E+01  0.52224004357E+02 -0.85831711965E+02  0.10086734738E+03  0.41800000000E+01 0.  1.
         -5    1    4    4    0  502 -0.71325068070E+02 -0.44546016315E+02 -0.22465668386E+03  0.23991604971E+03  0.41800000000E+01 0.  1.
        -11    1    3    3    0    0 -0.14264177811E+02 -0.26216551738E+02 -0.62032702850E+02  0.68839164554E+02  0.00000000000E+00 0. -1.
         11    1    3    3    0    0  0.77694946769E+02  0.18538563695E+02 -0.21679734240E+03  0.23104387195E+03  0.00000000000E+00 0.  1.
</event>
<event>
 8    1  0.9181008E-006  0.1349720E+03  0.7561462E-02  0.1220259E+00
         -1   -1    0    0    0  501 -0.00000000000E+00  0.00000000000E+00  0.15712969350E+03  0.15712969350E+03  0.00000000000E+00 0.  1.
          1   -1    0    0  501    0  0.00000000000E+00 -0.00000000000E+00 -0.14411008261E+03  0.14411008261E+03  0.00000000000E+00 0. -1.
         23    2    1    2    0    0  0.82034862466E+02  0.51531355939E+02 -0.26646340273E+02  0.13812876526E+03  0.94785700595E+02 0.  0.
         23    2    1    2    0    0 -0.82034862466E+02 -0.51531355939E+02  0.39665951166E+02  0.16311101085E+03  0.12508642962E+03 0.  0.
          5    1    4    4  502    0 -0.84260515443E+02 -0.17231949410E+01  0.65483375646E+02  0.10680987197E+03  0.41800000000E+01 0. -1.
         -5    1    4    4    0  502  0.22256529771E+01 -0.49808160998E+02 -0.25817424481E+02  0.56301138887E+02  0.41800000000E+01 0. -1.
        -11    1    3    3    0    0  0.78065366827E+02 -0.55947842246E+01 -0.15958964907E+02  0.79876101991E+02  0.00000000000E+00 0.  1.
         11    1    3    3    0    0  0.39694956396E+01  0.57126140164E+02 -0.10687375366E+02  0.58252663268E+02  0.00000000000E+00 0. -1.
</event>
<event>
 8    1  0.9181008E-006  0.1465926E+03  0.7561462E-02  0.1204724E+00
          1   -1    0    0  501    0  0.00000000000E+00  0.00000000000E+00  0.99111734332E+03  0.99111734332E+03  0.00000000000E+00 0. -1.
         -1   -1    0    0    0  501 -0.00000000000E+00 -0.00000000000E+00 -0.32105482843E+02  0.32105482843E+02  0.00000000000E+00 0.  1.
         23    2    1    2    0    0 -0.77753838578E+02  0.92645032914E+02  0.24311882825E+03  0.28645357036E+03  0.91214701579E+02 0.  0.
         23    2    1    2    0    0  0.77753838578E+02 -0.92645032914E+02  0.71589303223E+03  0.73676925581E+03  0.12528903053E+03 0.  0.
          5    1    4    4  502    0  0.33489577777E+02  0.25869828616E+02  0.26722787437E+03  0.27059011270E+03  0.41800000000E+01 0.  1.
         -5    1    4    4    0  502  0.44264260801E+02 -0.11851486153E+03  0.44866515786E+03  0.46617914310E+03  0.41800000000E+01 0.  1.
        -11    1    3    3    0    0 -0.64485590451E+02  0.57071072842E+02  0.23110989132E+03  0.24663187263E+03  0.00000000000E+00 0. -1.
         11    1    3    3    0    0 -0.13268248127E+02  0.35573960072E+02  0.12008936926E+02  0.39821697724E+02  0.00000000000E+00 0.  1.
</event>
<event>
 8    1  0.9181008E-006  0.1372206E+03  0.7561462E-02  0.1217119E+00
         -1   -1    0    0    0  501 -0.00000000000E+00  0.00000000000E+00  0.11208266460E+03  0.11208266460E+03  0.00000000000E+00 0.  1.
          1   -1    0    0  501    0  0.00000000000E+00 -0.00000000000E+00 -0.18690104274E+03  0.18690104274E+03  0.00000000000E+00 0. -1.
         23    2    1    2    0    0 -0.60550086574E+02  0.66256172089E+02 -0.48705195933E+02  0.14282474100E+03  0.99852477224E+02 0.  0.
         23    2    1    2    0    0  0.60550086574E+02 -0.66256172089E+02 -0.26113182207E+02  0.15615896634E+03  0.12509009217E+03 0.  0.
          5    1    4    4  502    0  0.36896740338E+02  0.29901813245E+02  0.13302101795E+02  0.49496527102E+02  0.41800000000E+01 0.  1.
         -5    1    4    4    0  502  0.23653346236E+02 -0.96157985335E+02 -0.39415284002E+02  0.10666243924E+03  0.41800000000E+01 0.  1.
        -11    1    3    3    0    0 -0.84697126239E+02  0.47749952889E+02 -0.16675774732E+02  0.98649595321E+02  0.00000000000E+00 0.  1.
         11    1    3    3    0    0  0.24147039665E+02  0.18506219200E+02 -0.32029421201E+02  0.44175145683E+02  0.00000000000E+00 0. -1.
</event>
<event>
 8    1  0.9181008E-006  0.9888880E+02  0.7561462E-02  0.1282650E+00
         -1   -1    0    0    0  501 -0.00000000000E+00  0.00000000000E+00  0.88240538999E+03  0.88240538999E+03  0.00000000000E+00 0.  1.
          1   -1    0    0  501    0  0.00000000000E+00 -0.00000000000E+00 -0.14891976086E+02  0.14891976086E+02  0.00000000000E+00 0. -1.
         23    2    1    2    0    0 -0.23426482624E+02  0.23341875133E+02  0.42668170281E+03  0.43786921460E+03  0.92620356072E+02 0.  0.
         23    2    1    2    0    0  0.23426482624E+02 -0.23341875133E+02  0.44083171109E+03  0.45942815147E+03  0.12509190877E+03 0.  0.
          5    1    4    4  502    0  0.41899999344E+02 -0.55636039554E+02  0.39057919501E+03  0.39676259755E+03  0.41800000000E+01 0.  1.
         -5    1    4    4    0  502 -0.18473516720E+02  0.32294164421E+02  0.50252516080E+02  0.62665553919E+02  0.41800000000E+01 0.  1.
        -11    1    3    3    0    0  0.31964999474E+02  0.11091588418E+02  0.84592467087E+02  0.91108012890E+02  0.00000000000E+00 0.  1.
         11    1    3    3    0    0 -0.55391482098E+02  0.12250286715E+02  0.34208923573E+03  0.34676120171E+03  0.00000000000E+00 0. -1.
</event>
<event>
 8    1  0.9181008E-006  0.9843519E+02  0.7561462E-02  0.1283621E+00
          2   -1    0    0  501    0  0.00000000000E+00  0.00000000000E+00  0.13492195938E+04  0.13492195938E+04  0.00000000000E+00 0. -1.
         -2   -1    0    0    0  501 -0.00000000000E+00 -0.00000000000E+00 -0.13495849825E+02  0.13495849825E+02  0.00000000000E+00 0.  1.
         23    2    1    2    0    0 -0.74574013970E+02  0.29403706681E+01  0.45247271243E+03  0.46753297853E+03  0.91025277696E+02 0.  0.
         23    2    1    2    0    0  0.74574013970E+02 -0.29403706681E+01  0.88325103151E+03  0.89518246506E+03  0.12509728913E+03 0.  0.
          5    1    4    4  502    0  0.61943570645E+02 -0.20154553687E+02  0.86298370415E+03  0.86544876105E+03  0.41800000000E+01 0.  1.
         -5    1    4    4    0  502  0.12630443325E+02  0.17214183019E+02  0.20267327358E+02  0.29733704005E+02  0.41800000000E+01 0.  1.
        -11    1    3    3    0    0 -0.65012231456E+02  0.36766700867E+02  0.37630076707E+03  0.38364130100E+03  0.00000000000E+00 0. -1.
         11    1    3    3    0    0 -0.95617825147E+01 -0.33826330199E+02  0.76171945353E+02  0.83891677528E+02  0.00000000000E+00 0.  1.
</event>
<event>
 8    1  0.9181008E-006  0.1311454E+03  0.7561462E-02  0.1225766E+00
          4   -1    0    0  501    0  0.00000000000E+00  0.00000000000E+00  0.31687039521E+03  0.31687039521E+03  0.00000000000E+00 0. -1.
         -4   -1    0    0    0  501 -0.00000000000E+00 -0.00000000000E+00 -0.63935503497E+02  0.63935503497E+02  0.00000000000E+00 0.  1.
         23    2    1    2    0    0  0.47820722157E+02 -0.89272162416E+02  0.93587584469E+02  0.15431865024E+03  0.69276759426E+02 0.  0.
         23    2    1    2    0    0 -0.47820722157E+02  0.89272162416E+02  0.15934730724E+03  0.22648724846E+03  0.12509424024E+03 0.  0.
          5    1    4    4  502    0 -0.82528937925E+02  0.35641045786E+02  0.12443605252E+03  0.15356794362E+03  0.41800000000E+01 0. -1.
         -5    1    4    4    0  502  0.34708215768E+02  0.53631116630E+02  0.34911254720E+02  0.72919304843E+02  0.41800000000E+01 0. -1.
        -11    1    3    3    0    0 -0.35676808470E+01 -0.28366975450E+02  0.62595749991E+02  0.68815997847E+02  0.00000000000E+00 0. -1.
         11    1    3    3    0    0  0.51388403004E+02 -0.60905186966E+02  0.30991834478E+02  0.85502652397E+02  0.00000000000E+00 0.  1.
</event>
<event>
 8    1  0.9181008E-006  0.1524890E+03  0.7561462E-02  0.1197447E+00
          1   -1    0    0  501    0  0.00000000000E+00  0.00000000000E+00  0.10892288265E+04  0.10892288265E+04  0.00000000000E+00 0. -1.
         -1   -1    0    0    0  501 -0.00000000000E+00 -0.00000000000E+00 -0.23385465833E+02  0.23385465833E+02  0.00000000000E+00 0.  1.
         23    2    1    2    0    0  0.99941776225E+02 -0.42532545975E+02  0.34571729836E+03  0.37367788642E+03  0.91199431538E+02 0.  0.
         23    2    1    2    0    0 -0.99941776225E+02  0.42532545975E+02  0.72012606228E+03  0.73893640588E+03  0.12509232696E+03 0.  0.
          5    1    4    4  502    0  0.10761067635E+02 -0.30743744664E+02  0.14474206429E+03  0.14842073975E+03  0.41800000000E+01 0.  1.
         -5    1    4    4    0  502 -0.11070284386E+03  0.73276290639E+02  0.57538399799E+03  0.59051566613E+03  0.41800000000E+01 0.  1.
        -11    1    3    3    0    0  0.46374624281E+02  0.25343408731E+02  0.98602282139E+02  0.11187182034E+03  0.00000000000E+00 0.  1.
         11    1    3    3    0    0  0.53567151943E+02 -0.67875954706E+02  0.24711501622E+03  0.26180606608E+03  0.00000000000E+00 0. -1.
</event>
<event>
 8    1  0.9181008E-006  0.1665444E+03  0.7561462E-02  0.1181500E+00
          1   -1    0    0  501    0  0.00000000000E+00  0.00000000000E+00  0.14420781541E+03  0.14420781541E+03  0.00000000000E+00 0. -1.
         -1   -1    0    0    0  501 -0.00000000000E+00 -0.00000000000E+00 -0.26480905695E+03  0.26480905695E+03  0.00000000000E+00 0.  1.
         23    2    1    2    0    0  0.15398145628E+03  0.14590312584E+02 -0.11183393208E+03  0.20989521873E+03  0.87327019769E+02 0.  0.
         23    2    1    2    0    0 -0.15398145628E+03 -0.14590312584E+02 -0.87673094688E+01  0.19912165363E+03  0.12509756645E+03 0.  0.
          5    1    4    4  502    0 -0.76068796768E+01  0.14423023206E+02  0.38923858429E+02  0.42407869221E+02  0.41800000000E+01 0.  1.
         -5    1    4    4    0  502 -0.14637457660E+03 -0.29013335791E+02 -0.47691167898E+02  0.15671378441E+03  0.41800000000E+01 0.  1.
        -11    1    3    3    0    0  0.34496390508E+02  0.30986429997E+02 -0.66459838403E+02  0.81037459995E+02  0.00000000000E+00 0.  1.
         11    1    3    3    0    0  0.11948506577E+03 -0.16396117413E+02 -0.45374093673E+02  0.12885775873E+03  0.00000000000E+00 0. -1.
</event>
<event>
 8    1  0.9181008E-006  0.1400772E+03  0.7561462E-02  0.1213225E+00
          2   -1    0    0  501    0  0.00000000000E+00  0.00000000000E+00  0.15504966700E+03  0.15504966700E+03  0.00000000000E+00 0. -1.
         -2   -1    0    0    0  501 -0.00000000000E+00 -0.00000000000E+00 -0.13550814721E+03  0.13550814721E+03  0.00000000000E+00 0.  1.
         23    2    1    2    0    0  0.26164982926E+02  0.79381184686E+02 -0.12763052473E+02  0.13668729813E+03  0.10739899045E+03 0.  0.
         23    2    1    2    0    0 -0.26164982926E+02 -0.79381184686E+02  0.32304572261E+02  0.15387051608E+03  0.12508625630E+03 0.  0.
          5    1    4    4  502    0 -0.56687580591E+02  0.39064580973E+01  0.31416858083E+02  0.65063304404E+02  0.41800000000E+01 0. -1.
         -5    1    4    4    0  502  0.30522597665E+02 -0.83287642783E+02  0.88771417835E+00  0.88807211672E+02  0.41800000000E+01 0. -1.
        -11    1    3    3    0    0  0.63213308934E+02  0.73365961743E+02 -0.18859650429E+02  0.98661913539E+02  0.00000000000E+00 0.  1.
         11    1    3    3    0    0 -0.37048326008E+02  0.60152229432E+01  0.60965979560E+01  0.38025384596E+02  0.00000000000E+00 0. -1.
</event>
<event>
 8    1  0.9181008E-006  0.1047989E+03  0.7561462E-02  0.1270516E+00
          1   -1    0    0  501    0  0.00000000000E+00  0.00000000000E+00  0.31659458552E+03  0.31659458552E+03  0.00000000000E+00 0. -1.
         -1   -1    0    0    0  501 -0.00000000000E+00 -0.00000000000E+00 -0.76961398887E+02  0.76961398887E+02  0.00000000000E+00 0.  1.
         23    2    1    2    0    0 -0.65609031273E+02 -0.54532686931E+02  0.22363046728E+02  0.12873161228E+03  0.93772934327E+02 0.  0.
         23    2    1    2    0    0  0.65609031273E+02  0.54532686931E+02  0.21727013990E+03  0.26482437213E+03  0.12508907007E+03 0.  0.
          5    1    4    4  502    0 -0.11405774154E+02  0.11387642781E+01  0.14728051122E+03  0.14778501227E+03  0.41800000000E+01 0.  1.
         -5    1    4    4    0  502  0.77014805427E+02  0.53393922653E+02  0.69989628683E+02  0.11703935985E+03  0.41800000000E+01 0.  1.
        -11    1    3    3    0    0 -0.25851051038E+02  0.10062445676E+02 -0.26614555109E+02  0.38442999316E+02  0.00000000000E+00 0.  1.
         11    1    3    3    0    0 -0.39757980235E+02 -0.64595132607E+02  0.48977601837E+02  0.90288612962E+02  0.00000000000E+00 0. -1.
</event>
<event>
 7    1  0.9181008E-006  0.1236667E+03  0.7561462E-02  0.1237168E+00
          2   -1    0    0  501    0  0.00000000000E+00  0.00000000000E+00  0.76272194093E+03  0.76272194093E+03  0.00000000000E+00 0. -1.
         -2   -1    0    0    0  501 -0.00000000000E+00 -0.00000000000E+00 -0.45061232420E+02  0.45061232420E+02  0.00000000000E+00 0.  1.
         23    2    1    2    0    0  0.47906061237E+02  0.19580186202E+01  0.15279446693E+03  0.18419452876E+03  0.91009069662E+02 0.  0.
          5    1    1    2  502    0 -0.86640972886E+02  0.32818736717E+02  0.56377654996E+03  0.57135382938E+03  0.41800000000E+01 0. -1.
         -5    1    1    2    0  502  0.38734911649E+02 -0.34776755338E+02  0.10896916203E+01  0.52234815211E+02  0.41800000000E+01 0.  1.
        -11    1    3    3    0    0  0.93957798383E+01 -0.42513277004E+02  0.56136923802E+02  0.71042336774E+02  0.00000000000E+00 0.  1.
         11    1    3    3    0    0  0.38510281399E+02  0.44471295624E+02  0.96657543128E+02  0.11315219199E+03  0.00000000000E+00 0. -1.
</event>
<event>
 8    1  0.9181008E-006  0.9514670E+02  0.7561462E-02  0.1290846E+00
         -2   -1    0    0    0  501 -0.00000000000E+00  0.00000000000E+00  0.19977226846E+02  0.19977226846E+02  0.00000000000E+00 0. -1.
          2   -1    0    0  501    0  0.00000000000E+00 -0.00000000000E+00 -0.59722370653E+03  0.59722370653E+03  0.00000000000E+00 0.  1.
         23    2    1    2    0    0  0.75401337142E+01 -0.19027089332E+02 -0.23137853197E+03  0.24883878450E+03  0.89251509048E+02 0.  0.
         23    2    1    2    0    0 -0.75401337142E+01  0.19027089332E+02 -0.34586794771E+03  0.36836214888E+03  0.12508857553E+03 0.  0.
          5    1    4    4  502    0  0.23343272787E+02 -0.36165592064E+02 -0.51512027297E+02  0.67259347231E+02  0.41800000000E+01 0. -1.
         -5    1    4    4    0  502 -0.30883406501E+02  0.55192681396E+02 -0.29435592041E+03  0.30110280165E+03  0.41800000000E+01 0. -1.
        -11    1    3    3    0    0 -0.36953292420E+02 -0.76364934298E+01 -0.55860260454E+02  0.67410908246E+02  0.00000000000E+00 0. -1.
         11    1    3    3    0    0  0.44493426134E+02 -0.11390595903E+02 -0.17551827152E+03  0.18142787625E+03  0.00000000000E+00 0.  1.
</event>
<event>
 8    1  0.9181008E-006  0.1090940E+03  0.7561462E-02  0.1262257E+00
         -1   -1    0    0    0  501 -0.00000000000E+00  0.00000000000E+00  0.77345910745E+02  0.77345910745E+02  0.00000000000E+00 0.  1.
          1   -1    0    0  501    0  0.00000000000E+00 -0.00000000000E+00 -0.18153817144E+03  0.18153817144E+03  0.00000000000E+00 0. -1.
         23    2    1    2    0    0  0.11842912536E+02 -0.45629412586E+02 -0.46230852542E+02  0.11318772383E+03  0.91934059128E+02 0.  0.
         23    2    1    2    0    0 -0.11842912536E+02  0.45629412586E+02 -0.57961408156E+02  0.14569635836E+03  0.12508239738E+03 0.  0.
          5    1    4    4  502    0  0.47772093189E+02 -0.13224914943E+02 -0.19663429002E+02  0.53490130894E+02  0.41800000000E+01 0.  1.
         -5    1    4    4    0  502 -0.59615005725E+02  0.58854327529E+02 -0.38297979155E+02  0.92206227468E+02  0.41800000000E+01 0.  1.
        -11    1    3    3    0    0  0.38708083064E+02 -0.10063911780E+02  0.10202256642E+02  0.41275707812E+02  0.00000000000E+00 0.  1.
         11    1    3    3    0    0 -0.26865170528E+02 -0.35565500807E+02 -0.56433109184E+02  0.71912016014E+02  0.00000000000E+00 0. -1.
</event>
<event>
 7    1  0.9181008E-006  0.1052355E+03  0.7561462E-02  0.1269656E+00
          2   -1    0    0  501    0  0.00000000000E+00  0.00000000000E+00  0.19606420400E+04  0.19606420400E+04  0.00000000000E+00 0. -1.
         -2   -1    0    0    0  501 -0.00000000000E+00 -0.00000000000E+00 -0.29773074469E+02  0.29773074469E+02  0.00000000000E+00 0.  1.
         23    2    1    2    0    0 -0.45196975425E+02 -0.78386387764E+02  0.13094698297E+03  0.18282822445E+03  0.89954738247E+02 0.  0.
          5    1    1    2  502    0  0.72580852984E+01  0.43273145023E+02  0.16130359046E+04  0.16136379851E+04  0.41800000000E+01 0. -1.
         -5    1    1    2    0  502  0.37938890127E+02  0.35113242741E+02  0.18688607791E+03  0.19394890491E+03  0.41800000000E+01 0.  1.
        -11    1    3    3    0    0 -0.63474874951E+02 -0.50148236204E+02  0.49821882929E+02  0.95005922778E+02  0.00000000000E+00 0.  1.
         11    1    3    3    0    0  0.18277899526E+02 -0.28238151560E+02  0.81125100040E+02  0.87822301673E+02  0.00000000000E+00 0. -1.
</event>
<event>
 8    1  0.9181008E-006  0.1538125E+03  0.7561462E-02  0.1195865E+00
         -1   -1    0    0    0  501 -0.00000000000E+00  0.00000000000E+00  0.23917653373E+02  0.23917653373E+02  0.00000000000E+00 0.  1.
          1   -1    0    0  501    0  0.00000000000E+00 -0.00000000000E+00 -0.12602968687E+04  0.12602968687E+04  0.00000000000E+00 0. -1.
         23    2    1    2    0    0  0.96076676201E+02  0.95269593404E+02 -0.58033169627E+03  0.60277907843E+03  0.90833455074E+02 0.  0.
         23    2    1    2    0    0 -0.96076676201E+02 -0.95269593404E+02 -0.65604751903E+03  0.68143544361E+03  0.12509553730E+03 0.  0.
          5    1    4    4  502    0  0.19373036561E+02 -0.39162904390E+02 -0.80048485964E+02  0.91292278594E+02  0.41800000000E+01 0.  1.
         -5    1    4    4    0  502 -0.11544971276E+03 -0.56106689015E+02 -0.57599903306E+03  0.59014316502E+03  0.41800000000E+01 0.  1.
        -11    1    3    3    0    0  0.25336025561E+02  0.25028547244E+02 -0.40984167177E+02  0.54295896047E+02  0.00000000000E+00 0.  1.
         11    1    3    3    0    0  0.70740650640E+02  0.70241046160E+02 -0.53934752909E+03  0.54848318238E+03  0.00000000000E+00 0. -1.
</event>
<event>
 8    1  0.9181008E-006  0.1385406E+03  0.7561462E-02  0.1215306E+00
         -2   -1    0    0    0  501 -0.00000000000E+00  0.00000000000E+00  0.44479305713E+02  0.44479305713E+02  0.00000000000E+00 0.  1.
          2   -1    0    0  501    0  0.00000000000E+00 -0.00000000000E+00 -0.60861811395E+03  0.60861811395E+03  0.00000000000E+00 0. -1.
         23    2    1    2    0    0 -0.77290793334E+02  0.76581017322E+02 -0.14898795753E+03  0.20606757743E+03  0.91803682012E+02 0.  0.
         23    2    1    2    0    0  0.77290793334E+02 -0.76581017322E+02 -0.41515085070E+03  0.44702984223E+03  0.12508769746E+03 0.  0.
          5    1    4    4  502    0  0.11632326825E+00 -0.85248411927E+02 -0.17704280260E+03  0.19654244229E+03  0.41800000000E+01 0.  1.
         -5    1    4    4    0  502  0.77174470065E+02  0.86673946048E+01 -0.23810804810E+03  0.25048739994E+03  0.41800000000E+01 0.  1.
        -11    1    3    3    0    0 -0.30298599566E+02  0.53777560019E+02 -0.16855087807E+02  0.63985350528E+02  0.00000000000E+00 0.  1.
         11    1    3    3    0    0 -0.46992193767E+02  0.22803457303E+02 -0.13213286973E+03  0.14208222690E+03  0.00000000000E+00 0. -1.
</event>
<event>
 8    1  0.9181008E-006  0.7826351E+02  0.7561462E-02  0.1334053E+00
          2   -1    0    0  501    0  0.00000000000E+00  0.00000000000E+00  0.60479658996E+03  0.60479658996E+03  0.00000000000E+00 0. -1.
         -2   -1    0    0    0  501 -0.00000000000E+00 -0.00000000000E+00 -0.20951620467E+02  0.20951620467E+02  0.00000000000E+00 0.  1.
         23    2    1    2    0    0  0.29202892241E+02  0.50998670693E+00  0.21807461169E+03  0.23807865743E+03  0.90949666604E+02 0.  0.
         23    2    1    2    0    0 -0.29202892241E+02 -0.50998670693E+00  0.36577035780E+03  0.38766955300E+03  0.12508660470E+03 0.  0.
          5    1    4    4  502    0  0.27107404433E+02 -0.10042094539E+02  0.29586813887E+03  0.29730637907E+03  0.41800000000E+01 0.  1.
         -5    1    4    4    0  502 -0.56310296674E+02  0.95321078321E+01  0.69902218932E+02  0.90363173931E+02  0.41800000000E+01 0.  1.
        -11    1    3    3    0    0 -0.10821722417E+02 -0.21723098684E+02  0.12179008512E+02  0.27153838418E+02  0.00000000000E+00 0.  1.
         11    1    3    3    0    0  0.40024614658E+02  0.22233085391E+02  0.20589560318E+03  0.21092481901E+03  0.00000000000E+00 0. -1.
</event>
<event>
 8    1  0.9181008E-006  0.1039913E+03  0.7561462E-02  0.1272120E+00
         -2   -1    0    0    0  501 -0.00000000000E+00  0.00000000000E+00  0.10025749912E+03  0.10025749912E+03  0.00000000000E+00 0.  1.
          2   -1    0    0  501    0  0.00000000000E+00 -0.00000000000E+00 -0.21630102258E+03  0.21630102258E+03  0.00000000000E+00 0. -1.
         23    2    1    2    0    0  0.55752669021E+02  0.33196793435E+02  0.26273807038E+02  0.11627797758E+03  0.92843243889E+02 0.  0.
         23    2    1    2    0    0 -0.55752669021E+02 -0.33196793435E+02 -0.14231733050E+03  0.20028054412E+03  0.12509071347E+03 0.  0.
          5    1    4    4  502    0  0.20015419571E+02 -0.23734775022E+02  0.73771200127E+01  0.32184637106E+02  0.41800000000E+01 0.  1.
         -5    1    4    4    0  502 -0.75768088592E+02 -0.94620184128E+01 -0.14969445051E+03  0.16809590701E+03  0.41800000000E+01 0.  1.
        -11    1    3    3    0    0  0.37607488328E+02  0.58198196937E+02 -0.84458517966E+01  0.69804625331E+02  0.00000000000E+00 0.  1.
         11    1    3    3    0    0  0.18145180693E+02 -0.25001403502E+02  0.34719658835E+02  0.46473352247E+02  0.00000000000E+00 0. -1.
</event>
<event>
 8    1  0.9181008E-006  0.3307278E+03  0.7561462E-02  0.1070815E+00
         -2   -1    0    0    0  501 -0.00000000000E+00  0.00000000000E+00  0.11307138839E+03  0.11307138839E+03  0.00000000000E+00 0.  1.
          2   -1    0    0  501    0  0.00000000000E+00 -0.00000000000E+00 -0.11368080220E+04  0.11368080220E+04  0.00000000000E+00 0. -1.
         23    2    1    2    0    0  0.99494344814E+02 -0.31430195613E+03 -0.34879372238E+03  0.48838027339E+03  0.90406782867E+02 0.  0.
         23    2    1    2    0    0 -0.99494344814E+02  0.31430195613E+03 -0.67494291124E+03  0.76149913700E+03  0.12509259752E+03 0.  0.
          5    1    4    4  502    0 -0.54357933913E+02  0.20882678953E+03 -0.55490850989E+03  0.59540267026E+03  0.41800000000E+01 0.  1.
         -5    1    4    4    0  502 -0.45136410901E+02  0.10547516660E+03 -0.12003440134E+03  0.16609646674E+03  0.41800000000E+01 0.  1.
        -11    1    3    3    0    0  0.12879026395E+02 -0.79943132583E+02 -0.14448887062E+03  0.16563154139E+03  0.00000000000E+00 0.  1.
         11    1    3    3    0    0  0.86615318419E+02 -0.23435882354E+03 -0.20430485176E+03  0.32274873200E+03  0.00000000000E+00 0. -1.
</event>
<event>
 8    1  0.9181008E-006  0.1554258E+03  0.7561462E-02  0.1193960E+00
         -2   -1    0    0    0  501 -0.00000000000E+00  0.00000000000E+00  0.22907594721E+02  0.22907594721E+02  0.00000000000E+00 0.  1.
          2   -1    0    0  501    0  0.00000000000E+00 -0.00000000000E+00 -0.10767808188E+04  0.10767808188E+04  0.00000000000E+00 0. -1.
         23    2    1    2    0    0 -0.79742765499E+02  0.79027409114E+02 -0.41055579463E+03  0.43477597342E+03  0.88712155407E+02 0.  0.
         23    2    1    2    0    0  0.79742765499E+02 -0.79027409114E+02 -0.64331742947E+03  0.66491244012E+03  0.12508796077E+03 0.  0.
          5    1    4    4  502    0 -0.83090164707E+01  0.27772119571E+02 -0.12849620944E+03  0.13179180028E+03  0.41800000000E+01 0. -1.
         -5    1    4    4    0  502  0.88051781970E+02 -0.10679952868E+03 -0.51482122003E+03  0.53312063984E+03  0.41800000000E+01 0. -1.
        -11    1    3    3    0    0  0.40736296094E+01  0.56018068770E+02 -0.15949879859E+03  0.16909903973E+03  0.00000000000E+00 0.  1.
         11    1    3    3    0    0 -0.83816395109E+02  0.23009340345E+02 -0.25105699604E+03  0.26567693368E+03  0.00000000000E+00 0. -1.
</event>
<event>
 8    1  0.9181008E-006  0.1190852E+03  0.7561462E-02  0.1244614E+00
         -1   -1    0    0    0  501 -0.00000000000E+00  0.00000000000E+00  0.21219042320E+02  0.21219042320E+02  0.00000000000E+00 0.  1.
          1   -1    0    0  501    0  0.00000000000E+00 -0.00000000000E+00 -0.97823467912E+03  0.97823467912E+03  0.00000000000E+00 0. -1.
         23    2    1    2    0    0 -0.45798313298E+02  0.37616016129E+02 -0.18191994305E+03  0.21209707236E+03  0.91530608297E+02 0.  0.
         23    2    1    2    0    0  0.45798313298E+02 -0.37616016129E+02 -0.77509569375E+03  0.78735664908E+03  0.12507880798E+03 0.  0.
          5    1    4    4  502    0  0.29467332819E+02  0.40114844925E+02 -0.44588103590E+03  0.44867014060E+03  0.41800000000E+01 0.  1.
         -5    1    4    4    0  502  0.16330980479E+02 -0.77730861054E+02 -0.32921465785E+03  0.33868650848E+03  0.41800000000E+01 0.  1.
        -11    1    3    3    0    0 -0.67399975255E+02  0.24900626430E+01 -0.10439271884E+03  0.12428514321E+03  0.00000000000E+00 0.  1.
         11    1    3    3    0    0  0.21601661957E+02  0.35125953486E+02 -0.77527224209E+02  0.87811929151E+02  0.00000000000E+00 0. -1.
</event>
<event>
 8    1  0.9181008E-006  0.1795327E+03  0.7561462E-02  0.1168256E+00
         -1   -1    0    0    0  501 -0.00000000000E+00  0.00000000000E+00  0.27659368426E+03  0.27659368426E+03  0.00000000000E+00 0.  1.
          1   -1    0    0  501    0  0.00000000000E+00 -0.00000000000E+00 -0.18827536291E+03  0.18827536291E+03  0.00000000000E+00 0. -1.
         23    2    1    2    0    0  0.11606518280E+03  0.11069068699E+03  0.16487846191E+03  0.24753899170E+03  0.91471800928E+02 0.  0.
         23    2    1    2    0    0 -0.11606518280E+03 -0.11069068699E+03 -0.76560140561E+02  0.21733005547E+03  0.12508934024E+03 0.  0.
          5    1    4    4  502    0 -0.10632304308E+03 -0.13252129403E+03 -0.86982110054E+02  0.19091841905E+03  0.41800000000E+01 0. -1.
         -5    1    4    4    0  502 -0.97421397193E+01  0.21830607045E+02  0.10421969493E+02  0.26411636420E+02  0.41800000000E+01 0. -1.
        -11    1    3    3    0    0  0.79093901717E+01  0.26870001572E+02  0.84097004010E+02  0.88638939078E+02  0.00000000000E+00 0.  1.
         11    1    3    3    0    0  0.10815579263E+03  0.83820685415E+02  0.80781457904E+02  0.15890005262E+03  0.00000000000E+00 0. -1.
</event>
<event>
 8    1  0.9181008E-006  0.1277512E+03  0.7561462E-02  0.1230831E+00
          2   -1    0    0  501    0  0.00000000000E+00  0.00000000000E+00  0.13519726226E+03  0.13519726226E+03  0.00000000000E+00 0.  1.
         -2   -1    0    0    0  501 -0.00000000000E+00 -0.00000000000E+00 -0.16584263875E+03  0.16584263875E+03  0.00000000000E+00 0. -1.
         23    2    1    2    0    0 -0.99198953896E+02 -0.18071461468E+02 -0.35112269400E+02  0.14031038131E+03  0.91033628224E+02 0.  0.
         23    2    1    2    0    0  0.99198953896E+02  0.18071461468E+02  0.44668929043E+01  0.16072951970E+03  0.12508802979E+03 0.  0.
          5    1    4    4  502    0 -0.97671805908E+01  0.13630742095E+01  0.42661688179E+02  0.43985768451E+02  0.41800000000E+01 0.  1.
         -5    1    4    4    0  502  0.10896613449E+03  0.16708387258E+02 -0.38194795275E+02  0.11674375125E+03  0.41800000000E+01 0.  1.
        -11    1    3    3    0    0 -0.51635882734E+02  0.35630413140E+02 -0.26333867124E+02  0.68038689611E+02  0.00000000000E+00 0.  1.
         11    1    3    3    0    0 -0.47563071161E+02 -0.53701874608E+02 -0.87784022767E+01  0.72271691700E+02  0.00000000000E+00 0. -1.
</event>
<event>
 8    1  0.9181008E-006  0.1644277E+03  0.7561462E-02  0.1183787E+00
         -2   -1    0    0    0  501 -0.00000000000E+00  0.00000000000E+00  0.50425233853E+02  0.50425233853E+02  0.00000000000E+00 0. -1.
          2   -1    0    0  501    0  0.00000000000E+00 -0.00000000000E+00 -0.69971704951E+03  0.69971704951E+03  0.00000000000E+00 0.  1.
         23    2    1    2    0    0  0.11213026793E+03  0.76112794937E+02 -0.16378273596E+03  0.23078434514E+03  0.89834708359E+02 0.  0.
         23    2    1    2    0    0 -0.11213026793E+03 -0.76112794937E+02 -0.48550907970E+03  0.51935793822E+03  0.12508895627E+03 0.  0.
          5    1    4    4  502    0 -0.74237701362E+02  0.80882105956E+01 -0.33072519233E+03  0.33907710140E+03  0.41800000000E+01 0.  1.
         -5    1    4    4    0  502 -0.37892566568E+02 -0.84201005533E+02 -0.15478388738E+03  0.18028083682E+03  0.41800000000E+01 0.  1.
        -11    1    3    3    0    0  0.95731274712E+02  0.13223429108E+02 -0.85449739928E+02  0.12899997709E+03  0.00000000000E+00 0.  1.
         11    1    3    3    0    0  0.16398993218E+02  0.62889365830E+02 -0.78332996028E+02  0.10178436805E+03  0.00000000000E+00 0. -1.
</event>
<event>
 8    1  0.9181008E-006  0.1320990E+03  0.7561462E-02  0.1224374E+00
          1   -1    0    0  501    0  0.00000000000E+00  0.00000000000E+00  0.37023964072E+03  0.37023964072E+03  0.00000000000E+00 0. -1.
         -1   -1    0    0    0  501 -0.00000000000E+00 -0.00000000000E+00 -0.60252601242E+02  0.60252601242E+02  0.00000000000E+00 0.  1.
         23    2    1    2    0    0 -0.95866028328E+02 -0.36907203967E+02  0.12877783141E+03  0.18751855543E+03  0.89593759131E+02 0.  0.
         23    2    1    2    0    0  0.95866028328E+02  0.36907203967E+02  0.18120920806E+03  0.24297368653E+03  0.12508796172E+03 0.  0.
          5    1    4    4  502    0  0.57897363713E+02 -0.43068191971E+02  0.68412274824E+02  0.99522287108E+02  0.41800000000E+01 0.  1.
         -5    1    4    4    0  502  0.37968664615E+02  0.79975395938E+02  0.11279693324E+03  0.14345139942E+03  0.41800000000E+01 0.  1.
        -11    1    3    3    0    0 -0.79898793883E+02 -0.34925025560E+02  0.14203822128E+03  0.16666862626E+03  0.00000000000E+00 0. -1.
         11    1    3    3    0    0 -0.15967234445E+02 -0.19821784078E+01 -0.13260389867E+02  0.20849929172E+02  0.00000000000E+00 0.  1.
</event>
<event>
 8    1  0.9181008E-006  0.1645845E+03  0.7561462E-02  0.1183616E+00
         -2   -1    0    0    0  501 -0.00000000000E+00  0.00000000000E+00  0.27649835644E+02  0.27649835644E+02  0.00000000000E+00 0.  1.
          2   -1    0    0  501    0  0.00000000000E+00 -0.00000000000E+00 -0.17271908735E+04  0.17271908735E+04  0.00000000000E+00 0. -1.
         23    2    1    2    0    0  0.15216131647E+03  0.58941972028E+02 -0.43517846979E+03  0.47386907167E+03  0.92435784288E+02 0.  0.
         23    2    1    2    0    0 -0.15216131647E+03 -0.58941972028E+02 -0.12643625681E+04  0.12809716375E+04  0.12509360575E+03 0.  0.
          5    1    4    4  502    0 -0.13435118589E+03 -0.54068352217E+02 -0.12466655213E+04  0.12550561829E+04  0.41800000000E+01 0.  1.
         -5    1    4    4    0  502 -0.17810130577E+02 -0.48736198108E+01 -0.17697046767E+02  0.25915454569E+02  0.41800000000E+01 0.  1.
        -11    1    3    3    0    0  0.10552650389E+03  0.27309721620E+02 -0.37874506601E+03  0.39411862294E+03  0.00000000000E+00 0. -1.
         11    1    3    3    0    0  0.46634812583E+02  0.31632250408E+02 -0.56433403777E+02  0.79750448729E+02  0.00000000000E+00 0.  1.
</event>
<event>
 8    1  0.9181008E-006  0.8963151E+02  0.7561462E-02  0.1303747E+00
         -2   -1    0    0    0  501 -0.00000000000E+00  0.00000000000E+00  0.24455620014E+02  0.24455620014E+02  0.00000000000E+00 0.  1.
          2   -1    0    0  501    0  0.00000000000E+00 -0.00000000000E+00 -0.82896554294E+03  0.82896554294E+03  0.00000000000E+00 0. -1.
         23    2    1    2    0    0  0.39939245346E+02  0.55351638086E+02 -0.16901936324E+03  0.20214399234E+03  0.87382500147E+02 0.  0.
         23    2    1    2    0    0 -0.39939245346E+02 -0.55351638086E+02 -0.63549055968E+03  0.65127717061E+03  0.12511896081E+03 0.  0.
          5    1    4    4  502    0 -0.25222617205E+02  0.14062394997E+02 -0.47325498612E+03  0.47415365195E+03  0.41800000000E+01 0. -1.
         -5    1    4    4    0  502 -0.14716628141E+02 -0.69414033083E+02 -0.16223557357E+03  0.17712351866E+03  0.41800000000E+01 0. -1.
        -11    1    3    3    0    0 -0.25651832509E+00  0.33021209671E+02 -0.70397613860E+01  0.33764246329E+02  0.00000000000E+00 0.  1.
         11    1    3    3    0    0  0.40195763671E+02  0.22330428415E+02 -0.16197960185E+03  0.16837974601E+03  0.00000000000E+00 0. -1.
</event>
<event>
 8    1  0.9181008E-006  0.1567756E+03  0.7561462E-02  0.1192386E+00
         -1   -1    0    0    0  501 -0.00000000000E+00  0.00000000000E+00  0.65702381193E+02  0.65702381193E+02  0.00000000000E+00 0.  1.
          1   -1    0    0  501    0  0.00000000000E+00 -0.00000000000E+00 -0.50274964346E+03  0.50274964346E+03  0.00000000000E+00 0. -1.
         23    2    1    2    0    0 -0.14140200095E+03 -0.24639707825E+02 -0.24856330174E+03  0.30054333999E+03  0.89111969831E+02 0.  0.
         23    2    1    2    0    0  0.14140200095E+03  0.24639707825E+02 -0.18848396053E+03  0.26790868466E+03  0.12508884389E+03 0.  0.
          5    1    4    4  502    0  0.42235833436E+02 -0.34023683729E+02 -0.98226138585E+01  0.55275969675E+02  0.41800000000E+01 0. -1.
         -5    1    4    4    0  502  0.99166167515E+02  0.58663391554E+02 -0.17866134667E+03  0.21263271498E+03  0.41800000000E+01 0. -1.
        -11    1    3    3    0    0 -0.79830734507E+02 -0.90175503795E+01 -0.21321465636E+03  0.22784808991E+03  0.00000000000E+00 0. -1.
         11    1    3    3    0    0 -0.61571266444E+02 -0.15622157446E+02 -0.35348645377E+02  0.72695250084E+02  0.00000000000E+00 0.  1.
</event>
<event>
 8    1  0.9181008E-006  0.7038270E+02  0.7561462E-02  0.1358796E+00
         -1   -1    0    0    0  501 -0.00000000000E+00  0.00000000000E+00  0.24667147136E+03  0.24667147136E+03  0.00000000000E+00 0.  1.
          1   -1    0    0  501    0  0.00000000000E+00 -0.00000000000E+00 -0.62018361324E+02  0.62018361324E+02  0.00000000000E+00 0. -1.
         23    2    1    2    0    0  0.21015908634E+01  0.15267566163E+02  0.15375479219E+03  0.17893107410E+03  0.90212404339E+02 0.  0.
         23    2    1    2    0    0 -0.21015908634E+01 -0.15267566163E+02  0.30898317848E+02  0.12975875859E+03  0.12508043062E+03 0.  0.
          5    1    4    4  502    0  0.11943058702E+02  0.28149815873E+02 -0.36788250718E+02  0.48019751934E+02  0.41800000000E+01 0. -1.
         -5    1    4    4    0  502 -0.14044649566E+02 -0.43417382036E+02  0.67686568566E+02  0.81739006653E+02  0.41800000000E+01 0. -1.
        -11    1    3    3    0    0  0.30617321335E+02 -0.21023688436E+01  0.11440717883E+02  0.32752562437E+02  0.00000000000E+00 0. -1.
         11    1    3    3    0    0 -0.28515730472E+02  0.17369935006E+02  0.14231407431E+03  0.14617851166E+03  0.00000000000E+00 0.  1.
</event>
<event>
 8    1  0.9181008E-006  0.8903046E+02  0.7561462E-02  0.1305217E+00
          2   -1    0    0  501    0  0.00000000000E+00  0.00000000000E+00  0.63954781021E+03  0.63954781021E+03  0.00000000000E+00 0. -1.
         -2   -1    0    0    0  501 -0.00000000000E+00 -0.00000000000E+00 -0.21491515203E+02  0.21491515203E+02  0.00000000000E+00 0.  1.
         23    2    1    2    0    0  0.16067240213E+01  0.44247239712E+02  0.23149369539E+03  0.25233560832E+03  0.90130618747E+02 0.  0.
         23    2    1    2    0    0 -0.16067240213E+01 -0.44247239712E+02  0.38656259962E+03  0.40870371710E+03  0.12509070773E+03 0.  0.
          5    1    4    4  502    0  0.26886804126E+02 -0.42409845137E+02  0.50272887718E+02  0.71178162663E+02  0.41800000000E+01 0. -1.
         -5    1    4    4    0  502 -0.28493528148E+02 -0.18373945757E+01  0.33628971190E+03  0.33752555443E+03  0.41800000000E+01 0. -1.
        -11    1    3    3    0    0 -0.18652326804E+02 -0.22404791084E+02  0.49252792838E+02  0.57233919672E+02  0.00000000000E+00 0.  1.
         11    1    3    3    0    0  0.20259050825E+02  0.66652030796E+02  0.18224090255E+03  0.19510168865E+03  0.00000000000E+00 0. -1.
</event>
<event>
 8    1  0.9181008E-006  0.1004516E+03  0.7561462E-02  0.1279349E+00
         -2   -1    0    0    0  501 -0.00000000000E+00  0.00000000000E+00  0.11823745871E+02  0.11823745871E+02  0.00000000000E+00 0.  1.
          2   -1    0    0  501    0  0.00000000000E+00 -0.00000000000E+00 -0.11957245207E+04  0.11957245207E+04  0.00000000000E+00 0. -1.
         23    2    1    2    0    0  0.18493489577E+02  0.27127305079E+02 -0.32039049211E+03  0.33584161217E+03  0.95192547976E+02 0.  0.
         23    2    1    2    0    0 -0.18493489577E+02 -0.27127305079E+02 -0.86351028269E+03  0.87170665438E+03  0.11464982833E+03 0.  0.
          5    1    4    4  502    0 -0.42198030216E+02  0.20387277038E+02 -0.64822251137E+03  0.64992785097E+03  0.41800000000E+01 0. -1.
         -5    1    4    4    0  502  0.23704540640E+02 -0.47514582117E+02 -0.21528777133E+03  0.22177880341E+03  0.41800000000E+01 0.  1.
        -11    1    3    3    0    0  0.44548132083E+02  0.49250253880E+02 -0.21872756390E+03  0.22858668113E+03  0.00000000000E+00 0.  1.
         11    1    3    3    0    0 -0.26054642507E+02 -0.22122948800E+02 -0.10166292821E+03  0.10725493104E+03  0.00000000000E+00 0. -1.
</event>
<event>
 8    1  0.9181008E-006  0.2200917E+03  0.7561462E-02  0.1133815E+00
          2   -1    0    0  501    0  0.00000000000E+00  0.00000000000E+00  0.88140564644E+02  0.88140564644E+02  0.00000000000E+00 0.  1.
         -2   -1    0    0    0  501 -0.00000000000E+00 -0.00000000000E+00 -0.68551698471E+03  0.68551698471E+03  0.00000000000E+00 0. -1.
         23    2    1    2    0    0 -0.64362898158E+02 -0.19996025435E+03 -0.39337645150E+03  0.45524016268E+03  0.91498017131E+02 0.  0.
         23    2    1    2    0    0  0.64362898158E+02  0.19996025435E+03 -0.20399996856E+03  0.31841738667E+03  0.12508780509E+03 0.  0.
          5    1    4    4  502    0  0.24785188045E+02  0.14737061022E+03 -0.61991986666E+02  0.16184214875E+03  0.41800000000E+01 0. -1.
         -5    1    4    4    0  502  0.39577710112E+02  0.52589644139E+02 -0.14200798189E+03  0.15657523792E+03  0.41800000000E+01 0. -1.
        -11    1    3    3    0    0 -0.76145598833E+02 -0.10870794685E+03 -0.18731973807E+03  0.22957407127E+03  0.00000000000E+00 0. -1.
         11    1    3    3    0    0  0.11782700675E+02 -0.91252307503E+02 -0.20605671344E+03  0.22566609141E+03  0.00000000000E+00 0.  1.
</event>
<event>
 8    1  0.9181008E-006  0.1698915E+03  0.7561462E-02  0.1177961E+00
          3   -1    0    0  501    0  0.00000000000E+00  0.00000000000E+00  0.26769892334E+03  0.26769892334E+03  0.00000000000E+00 0. -1.
         -3   -1    0    0    0  501 -0.00000000000E+00 -0.00000000000E+00 -0.18566623744E+03  0.18566623744E+03  0.00000000000E+00 0.  1.
         23    2    1    2    0    0 -0.15656766882E+03 -0.96950899083E+01 -0.79477260617E+02  0.19580157803E+03  0.86105710119E+02 0.  0.
         23    2    1    2    0    0  0.15656766882E+03  0.96950899083E+01  0.16150994652E+03  0.25756358275E+03  0.12508439808E+03 0.  0.
          5    1    4    4  502    0  0.66182326709E+02 -0.23763205208E+02  0.14289387442E+03  0.15931391037E+03  0.41800000000E+01 0. -1.
         -5    1    4    4    0  502  0.90385342114E+02  0.33458295117E+02  0.18616072100E+02  0.98249672374E+02  0.41800000000E+01 0. -1.
        -11    1    3    3    0    0 -0.10688818673E+03 -0.40625817074E+02 -0.75747656706E+02  0.13716139753E+03  0.00000000000E+00 0.  1.
         11    1    3    3    0    0 -0.49679482096E+02  0.30930727166E+02 -0.37296039107E+01  0.58640180505E+02  0.00000000000E+00 0. -1.
</event>
<event>
 8    1  0.9181008E-006  0.8546981E+02  0.7561462E-02  0.1314208E+00
          2   -1    0    0  501    0  0.00000000000E+00  0.00000000000E+00  0.33040802496E+03  0.33040802496E+03  0.00000000000E+00 0. -1.
         -2   -1    0    0    0  501 -0.00000000000E+00 -0.00000000000E+00 -0.39413450605E+02  0.39413450605E+02  0.00000000000E+00 0.  1.
         23    2    1    2    0    0 -0.31712600539E+01  0.36913996693E+02  0.11835059485E+03  0.15342994269E+03  0.90339271472E+02 0.  0.
         23    2    1    2    0    0  0.31712600539E+01 -0.36913996693E+02  0.17264397950E+03  0.21639153287E+03  0.12508657721E+03 0.  0.
          5    1    4    4  502    0 -0.22029524348E+02 -0.51133414644E+02  0.17492754356E+02  0.58509784576E+02  0.41800000000E+01 0.  1.
         -5    1    4    4    0  502  0.25200784402E+02  0.14219417950E+02  0.15515122515E+03  0.15788174830E+03  0.41800000000E+01 0.  1.
        -11    1    3    3    0    0  0.20791463882E+02 -0.17008914063E+02  0.75611342617E+01  0.27906251617E+02  0.00000000000E+00 0.  1.
         11    1    3    3    0    0 -0.23962723936E+02  0.53922910757E+02  0.11078946059E+03  0.12552369107E+03  0.00000000000E+00 0. -1.
</event>
<event>
 8    1  0.9181008E-006  0.8626114E+02  0.7561462E-02  0.1312167E+00
         -1   -1    0    0    0  501 -0.00000000000E+00  0.00000000000E+00  0.68557802870E+02  0.68557802870E+02  0.00000000000E+00 0.  1.
          1   -1    0    0  501    0  0.00000000000E+00 -0.00000000000E+00 -0.19094153169E+03  0.19094153169E+03  0.00000000000E+00 0. -1.
         23    2    1    2    0    0 -0.35088473691E+02  0.27932082288E+01 -0.50325515832E+02  0.11091105268E+03  0.92355839360E+02 0.  0.
         23    2    1    2    0    0  0.35088473691E+02 -0.27932082288E+01 -0.72058212984E+02  0.14858828188E+03  0.12508832262E+03 0.  0.
          5    1    4    4  502    0  0.34511782311E+02  0.51900346253E+02 -0.69821189133E+02  0.93686604760E+02  0.41800000000E+01 0.  1.
         -5    1    4    4    0  502  0.57669138059E+00 -0.54693554482E+02 -0.22370238508E+01  0.54901677120E+02  0.41800000000E+01 0.  1.
        -11    1    3    3    0    0 -0.31063684906E+02 -0.16718056232E+02 -0.72788550732E+02  0.80886457716E+02  0.00000000000E+00 0. -1.
         11    1    3    3    0    0 -0.40247887849E+01  0.19511264461E+02  0.22463034900E+02  0.30024594961E+02  0.00000000000E+00 0.  1.
</event>
<event>
 7    1  0.9181008E-006  0.1712726E+03  0.7561462E-02  0.1176527E+00
          1   -1    0    0  501    0  0.00000000000E+00  0.00000000000E+00  0.69756012348E+02  0.69756012348E+02  0.00000000000E+00 0. -1.
         -1   -1    0    0    0  501 -0.00000000000E+00 -0.00000000000E+00 -0.82658938441E+03  0.82658938441E+03  0.00000000000E+00 0.  1.
         23    2    1    2    0    0  0.10582777987E+03  0.47099866235E+02 -0.52496404347E+03  0.54520459565E+03  0.90790350719E+02 0.  0.
          5    1    1    2  502    0 -0.14643839837E+03 -0.63190794920E+02 -0.54768017450E+02  0.16868399217E+03  0.41800000000E+01 0. -1.
         -5    1    1    2    0  502  0.40610618498E+02  0.16090928685E+02 -0.17710131114E+03  0.18245680894E+03  0.41800000000E+01 0.  1.
        -11    1    3    3    0    0  0.10947786719E+03  0.60601400636E+02 -0.50816903488E+03  0.52334854655E+03  0.00000000000E+00 0.  1.
         11    1    3    3    0    0 -0.36500873149E+01 -0.13501534401E+02 -0.16795008591E+02  0.21856049097E+02  0.00000000000E+00 0. -1.
</event>
<event>
 8    1  0.9181008E-006  0.1167194E+03  0.7561462E-02  0.1248609E+00
         -1   -1    0    0    0  501 -0.00000000000E+00  0.00000000000E+00  0.18020815299E+03  0.18020815299E+03  0.00000000000E+00 0.  1.
          1   -1    0    0  501    0  0.00000000000E+00 -0.00000000000E+00 -0.88000659337E+02  0.88000659337E+02  0.00000000000E+00 0. -1.
         23    2    1    2    0    0 -0.10084222991E+02  0.48854211365E+02  0.73394735428E+02  0.13232507345E+03  0.98156570603E+02 0.  0.
         23    2    1    2    0    0  0.10084222991E+02 -0.48854211365E+02  0.18812758228E+02  0.13588373888E+03  0.12498817984E+03 0.  0.
          5    1    4    4  502    0  0.45539685083E+02 -0.71979289281E+02  0.32406844716E+02  0.91228049345E+02  0.41800000000E+01 0.  1.
         -5    1    4    4    0  502 -0.35455462092E+02  0.23125077916E+02 -0.13594086488E+02  0.44655689539E+02  0.41800000000E+01 0.  1.
        -11    1    3    3    0    0  0.23525905566E+02  0.64422588642E+02  0.28883540967E+02  0.74417720329E+02  0.00000000000E+00 0. -1.
         11    1    3    3    0    0 -0.33610128557E+02 -0.15568377278E+02  0.44511194461E+02  0.57907353117E+02  0.00000000000E+00 0.  1.
</event>
<event>
 8    1  0.9181008E-006  0.9981370E+02  0.7561462E-02  0.1280688E+00
         -2   -1    0    0    0  501 -0.00000000000E+00  0.00000000000E+00  0.13707483239E+02  0.13707483239E+02  0.00000000000E+00 0.  1.
          2   -1    0    0  501    0  0.00000000000E+00 -0.00000000000E+00 -0.10614974338E+04  0.10614974338E+04  0.00000000000E+00 0. -1.
         23    2    1    2    0    0  0.32577019187E+02  0.16338862672E+02 -0.24554741415E+03  0.26245331184E+03  0.85205561375E+02 0.  0.
         23    2    1    2    0    0 -0.32577019187E+02 -0.16338862672E+02 -0.80224253641E+03  0.81275160520E+03  0.12507543287E+03 0.  0.
          5    1    4    4  502    0 -0.36056922276E+02  0.38662223316E+02 -0.16956083671E+03  0.17766040330E+03  0.41800000000E+01 0.  1.
         -5    1    4    4    0  502  0.34799030891E+01 -0.55001085987E+02 -0.63268169970E+03  0.63509120189E+03  0.41800000000E+01 0.  1.
        -11    1    3    3    0    0  0.36265940840E+02 -0.28631049231E+02 -0.14647302887E+03  0.15358809730E+03  0.00000000000E+00 0. -1.
         11    1    3    3    0    0 -0.36889216535E+01  0.44969911903E+02 -0.99074385281E+02  0.10886521455E+03  0.00000000000E+00 0.  1.
</event>
<event>
 8    1  0.9181008E-006  0.1117281E+03  0.7561462E-02  0.1257403E+00
          1   -1    0    0  501    0  0.00000000000E+00  0.00000000000E+00  0.10141025163E+03  0.10141025163E+03  0.00000000000E+00 0. -1.
         -1   -1    0    0    0  501 -0.00000000000E+00 -0.00000000000E+00 -0.14628927945E+03  0.14628927945E+03  0.00000000000E+00 0.  1.
         23    2    1    2    0    0  0.23345420764E+02 -0.34503585997E+02 -0.44255156004E+02  0.11585370418E+03  0.98630907037E+02 0.  0.
         23    2    1    2    0    0 -0.23345420764E+02  0.34503585997E+02 -0.62387181437E+00  0.13184582689E+03  0.12508967477E+03 0.  0.
          5    1    4    4  502    0 -0.10986317691E+02 -0.47436663217E+02 -0.43561421314E-01  0.48871366782E+02  0.41800000000E+01 0. -1.
         -5    1    4    4    0  502 -0.12359103074E+02  0.81940249214E+02 -0.58031039306E+00  0.82974460108E+02  0.41800000000E+01 0. -1.
        -11    1    3    3    0    0  0.24812770582E+01  0.26769669711E+02  0.12609882377E+02  0.29694798970E+02  0.00000000000E+00 0. -1.
         11    1    3    3    0    0  0.20864143706E+02 -0.61273255708E+02 -0.56865038381E+02  0.86158905215E+02  0.00000000000E+00 0.  1.
</event>
<event>
 8    1  0.9181008E-006  0.7462016E+02  0.7561462E-02  0.1345051E+00
         -3   -1    0    0    0  501 -0.00000000000E+00  0.00000000000E+00  0.18360503015E+02  0.18360503015E+02  0.00000000000E+00 0.  1.
          3   -1    0    0  501    0  0.00000000000E+00 -0.00000000000E+00 -0.78308667481E+03  0.78308667481E+03  0.00000000000E+00 0. -1.
         23    2    1    2    0    0  0.28244247799E+02 -0.24190762164E+01 -0.19177650557E+03  0.21431873997E+03  0.91382190552E+02 0.  0.
         23    2    1    2    0    0 -0.28244247799E+02  0.24190762164E+01 -0.57294966623E+03  0.58712843786E+03  0.12507954688E+03 0.  0.
          5    1    4    4  502    0 -0.23147253461E+02  0.29421216987E+02 -0.54942427110E+03  0.55071399604E+03  0.41800000000E+01 0. -1.
         -5    1    4    4    0  502 -0.50969943378E+01 -0.27002140770E+02 -0.23525395124E+02  0.36414441822E+02  0.41800000000E+01 0. -1.
        -11    1    3    3    0    0 -0.27447380157E+02  0.39205087507E+01 -0.21593037935E+02  0.35142401079E+02  0.00000000000E+00 0.  1.
         11    1    3    3    0    0  0.55691627956E+02 -0.63395849672E+01 -0.17018346764E+03  0.17917633889E+03  0.00000000000E+00 0. -1.
</event>
<event>
 8    1  0.9181008E-006  0.9886544E+02  0.7561462E-02  0.1282700E+00
         -2   -1    0    0    0  501 -0.00000000000E+00  0.00000000000E+00  0.13066473705E+02  0.13066473705E+02  0.00000000000E+00 0.  1.
          2   -1    0    0  501    0  0.00000000000E+00 -0.00000000000E+00 -0.10533368342E+04  0.10533368342E+04  0.00000000000E+00 0. -1.
         23    2    1    2    0    0 -0.23550417592E+02  0.20637677183E+02 -0.30432316372E+03  0.31924469953E+03  0.91236255462E+02 0.  0.
         23    2    1    2    0    0  0.23550417592E+02 -0.20637677183E+02 -0.73594719681E+03  0.74715860841E+03  0.12508866354E+03 0.  0.
          5    1    4    4  502    0  0.56151325713E+02  0.13541171252E+02 -0.60722434671E+03  0.60997968355E+03  0.41800000000E+01 0. -1.
         -5    1    4    4    0  502 -0.32600908121E+02 -0.34178848435E+02 -0.12872285010E+03  0.13717892487E+03  0.41800000000E+01 0. -1.
        -11    1    3    3    0    0  0.21775326611E+02 -0.21436846271E+02 -0.61540744670E+02  0.68709289631E+02  0.00000000000E+00 0.  1.
         11    1    3    3    0    0 -0.45325744203E+02  0.42074523455E+02 -0.24278241905E+03  0.25053540989E+03  0.00000000000E+00 0. -1.
</event>
<event>
 8    1  0.9181008E-006  0.1514011E+03  0.7561462E-02  0.1198762E+00
          2   -1    0    0  501    0  0.00000000000E+00  0.00000000000E+00  0.46016082013E+03  0.46016082013E+03  0.00000000000E+00 0. -1.
         -2   -1    0    0    0  501 -0.00000000000E+00 -0.00000000000E+00 -0.58764870413E+02  0.58764870413E+02  0.00000000000E+00 0.  1.
         23    2    1    2    0    0  0.11533335289E+03 -0.26302077644E+02  0.13249449728E+03  0.19963163180E+03  0.91128563173E+02 0.  0.
         23    2    1    2    0    0 -0.11533335289E+03  0.26302077644E+02  0.26890145244E+03  0.31929405875E+03  0.12508846170E+03 0.  0.
          5    1    4    4  502    0 -0.11589259466E+03 -0.26624439282E+02  0.19052993987E+03  0.22463099664E+03  0.41800000000E+01 0. -1.
         -5    1    4    4    0  502  0.55924176779E+00  0.52926516926E+02  0.78371512573E+02  0.94663062111E+02  0.41800000000E+01 0. -1.
        -11    1    3    3    0    0  0.38288925967E+02 -0.36630903265E+02  0.90577617120E+01  0.53757864289E+02  0.00000000000E+00 0.  1.
         11    1    3    3    0    0  0.77044426928E+02  0.10328825621E+02  0.12343673557E+03  0.14587376751E+03  0.00000000000E+00 0. -1.
</event>
<event>
 8    1  0.9181008E-006  0.1480691E+03  0.7561462E-02  0.1202866E+00
          1   -1    0    0  501    0  0.00000000000E+00  0.00000000000E+00  0.47062620190E+03  0.47062620190E+03  0.00000000000E+00 0. -1.
         -1   -1    0    0    0  501 -0.00000000000E+00 -0.00000000000E+00 -0.55627798222E+02  0.55627798222E+02  0.00000000000E+00 0.  1.
         23    2    1    2    0    0 -0.44955957906E+02 -0.11064508766E+03  0.18486625495E+03  0.23837980977E+03  0.91575258189E+02 0.  0.
         23    2    1    2    0    0  0.44955957906E+02  0.11064508766E+03  0.23013214873E+03  0.28787419035E+03  0.12508944806E+03 0.  0.
          5    1    4    4  502    0  0.64854862329E+02  0.12673614891E+03  0.16617298914E+03  0.21885872002E+03  0.41800000000E+01 0. -1.
         -5    1    4    4    0  502 -0.19898904422E+02 -0.16091061253E+02  0.63959159592E+02  0.69015470333E+02  0.41800000000E+01 0. -1.
        -11    1    3    3    0    0 -0.50240659527E+02 -0.66626776241E+02  0.17363380310E+03  0.19264461778E+03  0.00000000000E+00 0. -1.
         11    1    3    3    0    0  0.52847016203E+01 -0.44018311421E+02  0.11232451849E+02  0.45735191987E+02  0.00000000000E+00 0.  1.
</event>
<event>
 8    1  0.9181008E-006  0.4569066E+03  0.7561462E-02  0.1025682E+00
         -2   -1    0    0    0  501 -0.00000000000E+00  0.00000000000E+00  0.68610537458E+02  0.68610537458E+02  0.00000000000E+00 0.  1.
          2   -1    0    0  501    0  0.00000000000E+00 -0.00000000000E+00 -0.33459358428E+04  0.33459358428E+04  0.00000000000E+00 0. -1.
         23    2    1    2    0    0  0.94590542165E+02 -0.44561696945E+03 -0.12570429892E+04  0.13397674726E+04  0.85428038758E+02 0.  0.
         23    2    1    2    0    0 -0.94590542165E+02  0.44561696945E+03 -0.20202823161E+04  0.20747789076E+04  0.12508007283E+03 0.  0.
          5    1    4    4  502    0  0.45766608309E+00  0.89890449493E+02 -0.63696351904E+03  0.64328881488E+03  0.41800000000E+01 0.  1.
         -5    1    4    4    0  502 -0.95048208248E+02  0.35572651996E+03 -0.13833187971E+04  0.14314900928E+04  0.41800000000E+01 0.  1.
        -11    1    3    3    0    0  0.29939050777E+02 -0.12647568205E+03 -0.25613387688E+03  0.28722292352E+03  0.00000000000E+00 0.  1.
         11    1    3    3    0    0  0.64651491388E+02 -0.31914128740E+03 -0.10009091123E+04  0.10525445491E+04  0.00000000000E+00 0. -1.
</event>
<event>
 8    1  0.9181008E-006  0.1101798E+03  0.7561462E-02  0.1260237E+00
         -1   -1    0    0    0  501 -0.00000000000E+00  0.00000000000E+00  0.90713712240E+02  0.90713712240E+02  0.00000000000E+00 0.  1.
          1   -1    0    0  501    0  0.00000000000E+00 -0.00000000000E+00 -0.19236735529E+03  0.19236735529E+03  0.00000000000E+00 0. -1.
         23    2    1    2    0    0 -0.73956815336E+02  0.17058081360E+02 -0.21647673865E+02  0.11632141994E+03  0.85448594370E+02 0.  0.
         23    2    1    2    0    0  0.73956815336E+02 -0.17058081360E+02 -0.80005969185E+02  0.16675964759E+03  0.12508891351E+03 0.  0.
          5    1    4    4  502    0  0.12903804962E+02 -0.58081095548E+02 -0.23119512541E+01  0.59688687045E+02  0.41800000000E+01 0. -1.
         -5    1    4    4    0  502  0.61053010374E+02  0.41023014188E+02 -0.77694017931E+02  0.10707096054E+03  0.41800000000E+01 0. -1.
        -11    1    3    3    0    0 -0.71850596096E+02  0.20427901629E+01 -0.47637358052E+02  0.86232238943E+02  0.00000000000E+00 0. -1.
         11    1    3    3    0    0 -0.21062192405E+01  0.15015291198E+02  0.25989684187E+02  0.30089181002E+02  0.00000000000E+00 0.  1.
</event>
<event>
 8    1  0.9181008E-006  0.1149712E+03  0.7561462E-02  0.1251631E+00
          2   -1    0    0  501    0  0.00000000000E+00  0.00000000000E+00  0.23077361729E+03  0.23077361729E+03  0.00000000000E+00 0. -1.
         -2   -1    0    0    0  501 -0.00000000000E+00 -0.00000000000E+00 -0.72918150295E+02  0.72918150295E+02  0.00000000000E+00 0.  1.
         23    2    1    2    0    0 -0.29039616440E+02  0.40415949487E+02  0.11478610581E+02  0.10481794636E+03  0.91533027280E+02 0.  0.
         23    2    1    2    0    0  0.29039616440E+02 -0.40415949487E+02  0.14637685642E+03  0.19887382122E+03  0.12509142408E+03 0.  0.
          5    1    4    4  502    0  0.75807467767E+02 -0.11640371762E+02  0.10449014911E+03  0.12968397775E+03  0.41800000000E+01 0. -1.
         -5    1    4    4    0  502 -0.46767851327E+02 -0.28775577725E+02  0.41886707306E+02  0.69189843475E+02  0.41800000000E+01 0. -1.
        -11    1    3    3    0    0  0.29845328387E+02  0.82496175086E+01 -0.12740312357E+02  0.33483061009E+02  0.00000000000E+00 0.  1.
         11    1    3    3    0    0 -0.58884944827E+02  0.32166331978E+02  0.24218922938E+02  0.71334885354E+02  0.00000000000E+00 0. -1.
</event>
<event>
 8    1  0.9181008E-006  0.9918597E+02  0.7561462E-02  0.1282017E+00
         -1   -1    0    0    0  501 -0.00000000000E+00  0.00000000000E+00  0.57779663941E+02  0.57779663941E+02  0.00000000000E+00 0.  1.
          1   -1    0    0  501    0  0.00000000000E+00 -0.00000000000E+00 -0.25491691144E+03  0.25491691144E+03  0.00000000000E+00 0. -1.
         23    2    1    2    0    0  0.12489618184E+02 -0.23477451316E+02 -0.24374220317E+02  0.97750114511E+02  0.90850431964E+02 0.  0.
         23    2    1    2    0    0 -0.12489618184E+02  0.23477451316E+02 -0.17276302718E+03  0.21494646087E+03  0.12509091173E+03 0.  0.
          5    1    4    4  502    0 -0.62678104571E+02 -0.26512670325E+01 -0.52267454016E+02  0.81761440538E+02  0.41800000000E+01 0.  1.
         -5    1    4    4    0  502  0.50188486387E+02  0.26128718349E+02 -0.12049557316E+03  0.13318502033E+03  0.41800000000E+01 0.  1.
        -11    1    3    3    0    0 -0.31343153548E+02 -0.93208557953E+01  0.16085369001E+02  0.36441881441E+02  0.00000000000E+00 0.  1.
         11    1    3    3    0    0  0.43832771731E+02 -0.14156595521E+02 -0.40459589318E+02  0.61308233070E+02  0.00000000000E+00 0. -1.
</event>
<event>
 8    1  0.9181008E-006  0.1264207E+03  0.7561462E-02  0.1232866E+00
         -2   -1    0    0    0  501 -0.00000000000E+00  0.00000000000E+00  0.29121049086E+02  0.29121049086E+02  0.00000000000E+00 0.  1.
          2   -1    0    0  501    0  0.00000000000E+00 -0.00000000000E+00 -0.92119868771E+03  0.92119868771E+03  0.00000000000E+00 0. -1.
         23    2    1    2    0    0 -0.62904772022E+02  0.96199544760E+02 -0.29214443361E+03  0.32679910564E+03  0.90763002403E+02 0.  0.
         23    2    1    2    0    0  0.62904772022E+02 -0.96199544760E+02 -0.59993320502E+03  0.62352063115E+03  0.12508702666E+03 0.  0.
          5    1    4    4  502    0  0.24069386213E+02 -0.95587739893E+02 -0.21437252011E+03  0.23598601897E+03  0.41800000000E+01 0. -1.
         -5    1    4    4    0  502  0.38835385809E+02 -0.61180486706E+00 -0.38556068491E+03  0.38753461219E+03  0.41800000000E+01 0. -1.
        -11    1    3    3    0    0 -0.18294993242E+02  0.33450911743E+02 -0.18212414533E+02  0.42253547985E+02  0.00000000000E+00 0.  1.
         11    1    3    3    0    0 -0.44609778780E+02  0.62748633017E+02 -0.27393201907E+03  0.28454555766E+03  0.00000000000E+00 0. -1.
</event>
<event>
 7    1  0.9181008E-006  0.1583707E+03  0.7561462E-02  0.1190549E+00
          1   -1    0    0  501    0  0.00000000000E+00  0.00000000000E+00  0.10690487432E+04  0.10690487432E+04  0.00000000000E+00 0. -1.
         -1   -1    0    0    0  501 -0.00000000000E+00 -0.00000000000E+00 -0.47013054080E+02  0.47013054080E+02  0.00000000000E+00 0.  1.
         23    2    1    2    0    0  0.68031679964E+01  0.10862249740E+03  0.17904367116E+03  0.24464669765E+03  0.12629426136E+03 0.  0.
          5    1    1    2  502    0 -0.51051870349E+02  0.35508270906E+01  0.57765727439E+03  0.57993473848E+03  0.41800000000E+01 0. -1.
         -5    1    1    2    0  502  0.44248702353E+02 -0.11217332449E+03  0.26533474353E+03  0.29148036111E+03  0.41800000000E+01 0.  1.
        -11    1    3    3    0    0  0.39963301862E+02  0.10380241840E+03  0.72044365576E+02  0.13252319862E+03  0.00000000000E+00 0.  1.
         11    1    3    3    0    0 -0.33160133865E+02  0.48200790038E+01  0.10699930559E+03  0.11212349903E+03  0.00000000000E+00 0. -1.
</event>
<event>
 8    1  0.9181008E-006  0.8603823E+02  0.7561462E-02  0.1312740E+00
          2   -1    0    0  501    0  0.00000000000E+00  0.00000000000E+00  0.39260946249E+03  0.39260946249E+03  0.00000000000E+00 0.  1.
         -2   -1    0    0    0  501 -0.00000000000E+00 -0.00000000000E+00 -0.30097139752E+02  0.30097139752E+02  0.00000000000E+00 0. -1.
         23    2    1    2    0    0 -0.35015168889E+01 -0.15648004326E+02  0.14059542548E+03  0.16745789599E+03  0.89543020962E+02 0.  0.
         23    2    1    2    0    0  0.35015168889E+01  0.15648004326E+02  0.22191689725E+03  0.25524870625E+03  0.12509065551E+03 0.  0.
          5    1    4    4  502    0  0.44922734331E+01 -0.33191867730E+02  0.19770874937E+03  0.20056944579E+03  0.41800000000E+01 0. -1.
         -5    1    4    4    0  502 -0.99075654420E+00  0.48839872056E+02  0.24208147880E+02  0.54679260463E+02  0.41800000000E+01 0. -1.
        -11    1    3    3    0    0 -0.39636531913E+02 -0.30713875820E+02  0.94507466808E+02  0.10698625198E+03  0.00000000000E+00 0.  1.
         11    1    3    3    0    0  0.36135015024E+02  0.15065871494E+02  0.46087958672E+02  0.60471644009E+02  0.00000000000E+00 0. -1.
</event>
<event>
 8    1  0.9181008E-006  0.1043760E+03  0.7561462E-02  0.1271354E+00
         -1   -1    0    0    0  501 -0.00000000000E+00  0.00000000000E+00  0.41746898560E+03  0.41746898560E+03  0.00000000000E+00 0.  1.
          1   -1    0    0  501    0  0.00000000000E+00 -0.00000000000E+00 -0.46944092934E+02  0.46944092934E+02  0.00000000000E+00 0. -1.
         23    2    1    2    0    0  0.20333224539E+02  0.42367336489E+01  0.31165632007E+03  0.32460750242E+03  0.88368426791E+02 0.  0.
         23    2    1    2    0    0 -0.20333224539E+02 -0.42367336489E+01  0.58868572599E+02  0.13980557612E+03  0.12509476545E+03 0.  0.
          5    1    4    4  502    0 -0.66019971960E+02 -0.29415081493E+02  0.46458057232E+02  0.86021550780E+02  0.41800000000E+01 0.  1.
         -5    1    4    4    0  502  0.45686747422E+02  0.25178347844E+02  0.12410515367E+02  0.53784025340E+02  0.41800000000E+01 0.  1.
        -11    1    3    3    0    0  0.54479805556E+01  0.42561218292E+02  0.22010261747E+03  0.22424607023E+03  0.00000000000E+00 0.  1.
         11    1    3    3    0    0  0.14885243983E+02 -0.38324484643E+02  0.91553702601E+02  0.10036143219E+03  0.00000000000E+00 0. -1.
</event>
<event>
 7    1  0.9181008E-006  0.1334992E+03  0.7561462E-02  0.1222354E+00
         -2   -1    0    0    0  501 -0.00000000000E+00  0.00000000000E+00  0.19571313114E+03  0.19571313114E+03  0.00000000000E+00 0.  1.
          2   -1    0    0  501    0  0.00000000000E+00 -0.00000000000E+00 -0.15155111090E+03  0.15155111090E+03  0.00000000000E+00 0. -1.
         23    2    1    2    0    0  0.13348241895E+02 -0.61088299750E+02 -0.80784459901E+02  0.15021971011E+03  0.11013571817E+03 0.  0.
          5    1    3    3  502    0 -0.41733562264E+02 -0.22675706238E+02 -0.35841601743E+01  0.47814186982E+02  0.41800000000E+01 0. -1.
         -5    1    3    3    0  502  0.55081804158E+02 -0.38412593512E+02 -0.77200299726E+02  0.10240552313E+03  0.41800000000E+01 0.  1.
        -11    1    1    2    0    0 -0.69415208439E+02  0.65962045777E+02  0.84873160907E+02  0.12795669614E+03  0.00000000000E+00 0.  1.
         11    1    1    2    0    0  0.56066966544E+02 -0.48737460269E+01  0.40073319237E+02  0.69087835778E+02  0.00000000000E+00 0. -1.
</event>
<event>
 8    1  0.9181008E-006  0.1082801E+03  0.7561462E-02  0.1263788E+00
         -2   -1    0    0    0  501 -0.00000000000E+00  0.00000000000E+00  0.18302417855E+03  0.18302417855E+03  0.00000000000E+00 0.  1.
          2   -1    0    0  501    0  0.00000000000E+00 -0.00000000000E+00 -0.69245650011E+02  0.69245650011E+02  0.00000000000E+00 0. -1.
         23    2    1    2    0    0  0.23100173985E+02  0.99826096177E+01  0.70671255893E+02  0.11759675242E+03  0.90561024941E+02 0.  0.
         23    2    1    2    0    0 -0.23100173985E+02 -0.99826096177E+01  0.43107272644E+02  0.13467307614E+03  0.12508129336E+03 0.  0.
          5    1    4    4  502    0  0.23303418564E+02  0.44940680754E+02  0.11791219814E+00  0.50795673110E+02  0.41800000000E+01 0.  1.
         -5    1    4    4    0  502 -0.46403592549E+02 -0.54923290372E+02  0.42989360446E+02  0.83877403025E+02  0.41800000000E+01 0.  1.
        -11    1    3    3    0    0 -0.32300809980E+02  0.19203924746E+02  0.24159216986E+02  0.44674386581E+02  0.00000000000E+00 0. -1.
         11    1    3    3    0    0  0.55400983965E+02 -0.92213151281E+01  0.46512038908E+02  0.72922365844E+02  0.00000000000E+00 0.  1.
</event>
<event>
 8    1  0.9181008E-006  0.9907867E+02  0.7561462E-02  0.1282245E+00
         -1   -1    0    0    0  501 -0.00000000000E+00  0.00000000000E+00  0.23956438080E+02  0.23956438080E+02  0.00000000000E+00 0.  1.
          1   -1    0    0  501    0  0.00000000000E+00 -0.00000000000E+00 -0.83115268232E+03  0.83115268232E+03  0.00000000000E+00 0. -1.
         23    2    1    2    0    0 -0.67663291335E+02 -0.38805049029E+02 -0.22992728489E+03  0.25931540133E+03  0.91070127955E+02 0.  0.
         23    2    1    2    0    0  0.67663291335E+02  0.38805049029E+02 -0.57726895936E+03  0.59579371908E+03  0.12508617602E+03 0.  0.
          5    1    4    4  502    0  0.36855194825E+02  0.58819128039E+02 -0.53555754044E+03  0.54005309621E+03  0.41800000000E+01 0.  1.
         -5    1    4    4    0  502  0.30808096509E+02 -0.20014079010E+02 -0.41711418920E+02  0.55740622865E+02  0.41800000000E+01 0.  1.
        -11    1    3    3    0    0 -0.60411670755E+02 -0.49923355134E+02 -0.23288306136E+03  0.24571616068E+03  0.00000000000E+00 0. -1.
         11    1    3    3    0    0 -0.72516205799E+01  0.11118306104E+02  0.29557764712E+01  0.13599240648E+02  0.00000000000E+00 0.  1.
</event>
<event>
 8    1  0.9181008E-006  0.9931531E+02  0.7561462E-02  0.1281742E+00
          4   -1    0    0  501    0  0.00000000000E+00  0.00000000000E+00  0.17665452007E+02  0.17665452007E+02  0.00000000000E+00 0. -1.
         -4   -1    0    0    0  501 -0.00000000000E+00 -0.00000000000E+00 -0.76392204125E+03  0.76392204125E+03  0.00000000000E+00 0.  1.
         23    2    1    2    0    0 -0.29191263205E+02  0.45767196987E+01 -0.34470566392E+03  0.35996691820E+03  0.99403778824E+02 0.  0.
         23    2    1    2    0    0  0.29191263205E+02 -0.45767196987E+01 -0.40155092532E+03  0.42162057506E+03  0.12509071699E+03 0.  0.
          5    1    4    4  502    0  0.10354684124E+02  0.46713784073E+02 -0.31861930722E+03  0.32221907523E+03  0.41800000000E+01 0. -1.
         -5    1    4    4    0  502  0.18836579081E+02 -0.51290503772E+02 -0.82931618097E+02  0.99401499832E+02  0.41800000000E+01 0. -1.
        -11    1    3    3    0    0 -0.48035634032E+02 -0.29849632019E+02 -0.26686857114E+03  0.27279526559E+03  0.00000000000E+00 0.  1.
         11    1    3    3    0    0  0.18844370827E+02  0.34426351718E+02 -0.77837092789E+02  0.87171652607E+02  0.00000000000E+00 0. -1.
</event>
<event>
 8    1  0.9181008E-006  0.1140476E+03  0.7561462E-02  0.1253253E+00
         -2   -1    0    0    0  501 -0.00000000000E+00  0.00000000000E+00  0.26062285723E+02  0.26062285723E+02  0.00000000000E+00 0.  1.
          2   -1    0    0  501    0  0.00000000000E+00 -0.00000000000E+00 -0.61781027977E+03  0.61781027977E+03  0.00000000000E+00 0. -1.
         23    2    1    2    0    0 -0.56956835327E+02 -0.33641725807E+02 -0.25233787304E+03  0.27614602165E+03  0.90589051763E+02 0.  0.
         23    2    1    2    0    0  0.56956835327E+02  0.33641725807E+02 -0.33941012101E+03  0.36772654384E+03  0.12509090293E+03 0.  0.
          5    1    4    4  502    0  0.53720955382E+01 -0.44271789943E+02 -0.14892882909E+03  0.15551887130E+03  0.41800000000E+01 0. -1.
         -5    1    4    4    0  502  0.51584739788E+02  0.77913515750E+02 -0.19048129192E+03  0.21220767254E+03  0.41800000000E+01 0. -1.
        -11    1    3    3    0    0 -0.69861864976E+02 -0.24840726778E+02 -0.24948134931E+03  0.26026656631E+03  0.00000000000E+00 0. -1.
         11    1    3    3    0    0  0.12905029650E+02 -0.88009990295E+01 -0.28565237275E+01  0.15879455343E+02  0.00000000000E+00 0.  1.
</event>
<event>
 8    1  0.9181008E-006  0.1138395E+03  0.7561462E-02  0.1253620E+00
          4   -1    0    0  501    0  0.00000000000E+00  0.00000000000E+00  0.49304394276E+03  0.49304394276E+03  0.00000000000E+00 0. -1.
         -4   -1    0    0    0  501 -0.00000000000E+00 -0.00000000000E+00 -0.33973811435E+02  0.33973811435E+02  0.00000000000E+00 0.  1.
         23    2    1    2    0    0 -0.52752526670E+02  0.21550665798E+02  0.12342177391E+03  0.16431321145E+03  0.92296462084E+02 0.  0.
         23    2    1    2    0    0  0.52752526670E+02 -0.21550665798E+02  0.33564835741E+03  0.36270454274E+03  0.12508998853E+03 0.  0.
          5    1    4    4  502    0  0.11761035088E+02  0.51368431354E+02  0.11083520477E+03  0.12279638717E+03  0.41800000000E+01 0.  1.
         -5    1    4    4    0  502  0.40991491581E+02 -0.72919097152E+02  0.22481315264E+03  0.23990815558E+03  0.41800000000E+01 0.  1.
        -11    1    3    3    0    0 -0.51412603471E+02  0.44545794408E+02  0.42579243083E+02  0.80253196427E+02  0.00000000000E+00 0.  1.
         11    1    3    3    0    0 -0.13399231988E+01 -0.22995128610E+02  0.80842530831E+02  0.84060015020E+02  0.00000000000E+00 0. -1.
</event>
<event>
 8    1  0.9181008E-006  0.1023626E+03  0.7561462E-02  0.1275405E+00
         -1   -1    0    0    0  501 -0.00000000000E+00  0.00000000000E+00  0.26636427273E+02  0.26636427273E+02  0.00000000000E+00 0.  1.
          1   -1    0    0  501    0  0.00000000000E+00 -0.00000000000E+00 -0.48131123444E+03  0.48131123444E+03  0.00000000000E+00 0. -1.
         23    2    1    2    0    0  0.14236080193E+02  0.29344071339E+02 -0.21637886411E+03  0.23684577071E+03  0.90622104191E+02 0.  0.
         23    2    1    2    0    0 -0.14236080193E+02 -0.29344071339E+02 -0.23829594305E+03  0.27110189100E+03  0.12509012082E+03 0.  0.
          5    1    4    4  502    0 -0.58492699208E+02  0.20692481046E+02 -0.10813960743E+03  0.12474462604E+03  0.41800000000E+01 0.  1.
         -5    1    4    4    0  502  0.44256619016E+02 -0.50036552385E+02 -0.13015633563E+03  0.14635726496E+03  0.41800000000E+01 0.  1.
        -11    1    3    3    0    0 -0.27648754900E+01  0.49308548010E+02 -0.19982056811E+03  0.20583303156E+03  0.00000000000E+00 0. -1.
         11    1    3    3    0    0  0.17000955683E+02 -0.19964476671E+02 -0.16558295999E+02  0.31012739145E+02  0.00000000000E+00 0.  1.
</event>
<event>
 8    1  0.9181008E-006  0.9683075E+02  0.7561462E-02  0.1287105E+00
          2   -1    0    0  501    0  0.00000000000E+00  0.00000000000E+00  0.56810628369E+03  0.56810628369E+03  0.00000000000E+00 0. -1.
         -2   -1    0    0    0  501 -0.00000000000E+00 -0.00000000000E+00 -0.21739669825E+02  0.21739669825E+02  0.00000000000E+00 0.  1.
         23    2    1    2    0    0 -0.11612028198E+02 -0.18296437933E+02  0.20673327595E+03  0.22726115319E+03  0.91866128272E+02 0.  0.
         23    2    1    2    0    0  0.11612028198E+02  0.18296437933E+02  0.33963333792E+03  0.36258480033E+03  0.12508930556E+03 0.  0.
          5    1    4    4  502    0  0.34279619468E+02 -0.44845195681E+02  0.19586236228E+03  0.20387673051E+03  0.41800000000E+01 0.  1.
         -5    1    4    4    0  502 -0.22667591270E+02  0.63141633614E+02  0.14377097564E+03  0.15870806982E+03  0.41800000000E+01 0.  1.
        -11    1    3    3    0    0 -0.20224525305E+02  0.21270054567E+02  0.18438548795E+02  0.34661603061E+02  0.00000000000E+00 0.  1.
         11    1    3    3    0    0  0.86124971065E+01 -0.39566492500E+02  0.18829472715E+03  0.19259955012E+03  0.00000000000E+00 0. -1.
</event>
<event>
 8    1  0.9181008E-006  0.9684309E+02  0.7561462E-02  0.1287078E+00
          1   -1    0    0  501    0  0.00000000000E+00  0.00000000000E+00  0.49760448000E+03  0.49760448000E+03  0.00000000000E+00 0. -1.
         -1   -1    0    0    0  501 -0.00000000000E+00 -0.00000000000E+00 -0.25106814337E+02  0.25106814337E+02  0.00000000000E+00 0.  1.
         23    2    1    2    0    0  0.76995499725E+01 -0.21002628096E+02  0.11516279351E+03  0.14345354630E+03  0.82559417889E+02 0.  0.
         23    2    1    2    0    0 -0.76995499725E+01  0.21002628096E+02  0.35733487215E+03  0.37925774803E+03  0.12509130716E+03 0.  0.
          5    1    4    4  502    0  0.54447892393E+02  0.22245979158E+01  0.10148047318E+03  0.11526179184E+03  0.41800000000E+01 0. -1.
         -5    1    4    4    0  502 -0.62147442365E+02  0.18778030181E+02  0.25585439897E+03  0.26399595619E+03  0.41800000000E+01 0. -1.
        -11    1    3    3    0    0  0.29358565506E+02  0.14224499746E+02  0.16677739472E+02  0.36638896756E+02  0.00000000000E+00 0.  1.
         11    1    3    3    0    0 -0.21659015533E+02 -0.35227127842E+02  0.98485054035E+02  0.10681464955E+03  0.00000000000E+00 0. -1.
</event>
<event>
 8    1  0.9181008E-006  0.1112573E+03  0.7561462E-02  0.1258259E+00
          2   -1    0    0  501    0  0.00000000000E+00  0.00000000000E+00  0.98321437169E+03  0.98321437169E+03  0.00000000000E+00 0. -1.
         -2   -1    0    0    0  501 -0.00000000000E+00 -0.00000000000E+00 -0.17713792550E+02  0.17713792550E+02  0.00000000000E+00 0.  1.
         23    2    1    2    0    0 -0.52106185837E+02 -0.41955622981E+02  0.30893342378E+03  0.32922589136E+03  0.92057038365E+02 0.  0.
         23    2    1    2    0    0  0.52106185837E+02  0.41955622981E+02  0.65656715536E+03  0.67170227287E+03  0.12501273931E+03 0.  0.
          5    1    4    4  502    0  0.63150573047E+02 -0.26854367761E+01  0.14726578025E+03  0.16031184884E+03  0.41800000000E+01 0. -1.
         -5    1    4    4    0  502 -0.11044387210E+02  0.44641059757E+02  0.50930137511E+03  0.51139042404E+03  0.41800000000E+01 0. -1.
        -11    1    3    3    0    0 -0.32771757291E+02 -0.70944065794E+02  0.23090502982E+03  0.24377075572E+03  0.00000000000E+00 0. -1.
         11    1    3    3    0    0 -0.19334428545E+02  0.28988442813E+02  0.78028393966E+02  0.85455135650E+02  0.00000000000E+00 0.  1.
</event>
<event>
 8    1  0.9181008E-006  0.1507008E+03  0.7561462E-02  0.1199615E+00
         -2   -1    0    0    0  501 -0.00000000000E+00  0.00000000000E+00  0.36402800468E+02  0.36402800468E+02  0.00000000000E+00 0. -1.
          2   -1    0    0  501    0  0.00000000000E+00 -0.00000000000E+00 -0.64548069796E+03  0.64548069796E+03  0.00000000000E+00 0.  1.
         23    2    1    2    0    0  0.10691892016E+03 -0.11552920545E+02 -0.28062517595E+03  0.31433265292E+03  0.92137950104E+02 0.  0.
         23    2    1    2    0    0 -0.10691892016E+03  0.11552920545E+02 -0.32845272154E+03  0.36755084551E+03  0.12508920132E+03 0.  0.
          5    1    4    4  502    0 -0.45051089034E+02 -0.56074373914E+02 -0.16633046910E+03  0.18126564315E+03  0.41800000000E+01 0. -1.
         -5    1    4    4    0  502 -0.61867831130E+02  0.67627294459E+02 -0.16212225243E+03  0.18628520236E+03  0.41800000000E+01 0. -1.
        -11    1    3    3    0    0  0.66217744383E+02  0.35703268354E+02 -0.18970738923E+03  0.20407941241E+03  0.00000000000E+00 0.  1.
         11    1    3    3    0    0  0.40701175782E+02 -0.47256188899E+02 -0.90917786727E+02  0.11025324051E+03  0.00000000000E+00 0. -1.
</event>
<event>
 8    1  0.9181008E-006  0.1182661E+03  0.7561462E-02  0.1245985E+00
          1   -1    0    0  501    0  0.00000000000E+00  0.00000000000E+00  0.38937697765E+03  0.38937697765E+03  0.00000000000E+00 0. -1.
         -1   -1    0    0    0  501 -0.00000000000E+00 -0.00000000000E+00 -0.51288252166E+02  0.51288252166E+02  0.00000000000E+00 0.  1.
         23    2    1    2    0    0 -0.23158468062E+02 -0.43672130856E+02  0.37095526109E+02  0.11098572428E+03  0.92185591498E+02 0.  0.
         23    2    1    2    0    0  0.23158468062E+02  0.43672130856E+02  0.30099319937E+03  0.32967950553E+03  0.12509236845E+03 0.  0.
          5    1    4    4  502    0  0.39923818765E+02  0.82051773577E+02  0.18585314804E+03  0.20708758989E+03  0.41800000000E+01 0. -1.
         -5    1    4    4    0  502 -0.16765350703E+02 -0.38379642721E+02  0.11514005133E+03  0.12259191564E+03  0.41800000000E+01 0. -1.
        -11    1    3    3    0    0 -0.54478711696E+02 -0.70878350174E+01  0.29092638295E+02  0.62165497152E+02  0.00000000000E+00 0.  1.
         11    1    3    3    0    0  0.31320243634E+02 -0.36584295839E+02  0.80028878140E+01  0.48820227126E+02  0.00000000000E+00 0. -1.
</event>
<event>
 8    1  0.9181008E-006  0.2279287E+03  0.7561462E-02  0.1128106E+00
          1   -1    0    0  501    0  0.00000000000E+00  0.00000000000E+00  0.19228123480E+03  0.19228123480E+03  0.00000000000E+00 0. -1.
         -1   -1    0    0    0  501 -0.00000000000E+00 -0.00000000000E+00 -0.29361119483E+03  0.29361119483E+03  0.00000000000E+00 0.  1.
         23    2    1    2    0    0 -0.20066976942E+03  0.60906845706E+02 -0.28567308138E+02  0.23108260198E+03  0.92763557655E+02 0.  0.
         23    2    1    2    0    0  0.20066976942E+03 -0.60906845706E+02 -0.72762651890E+02  0.25480982765E+03  0.12512251813E+03 0.  0.
          5    1    4    4  502    0  0.18560188000E+03 -0.24834431684E+02 -0.94599762488E+02  0.20983658956E+03  0.41800000000E+01 0. -1.
         -5    1    4    4    0  502  0.15067889425E+02 -0.36072414022E+02  0.21837110598E+02  0.44973238091E+02  0.41800000000E+01 0. -1.
        -11    1    3    3    0    0 -0.12642600820E+03  0.83644625334E+02 -0.21610129698E+02  0.15312399095E+03  0.00000000000E+00 0.  1.
         11    1    3    3    0    0 -0.74243761217E+02 -0.22737779627E+02 -0.69571784404E+01  0.77958611031E+02  0.00000000000E+00 0. -1.
</event>
<event>
 8    1  0.9181008E-006  0.8468103E+02  0.7561462E-02  0.1316269E+00
          2   -1    0    0  501    0  0.00000000000E+00  0.00000000000E+00  0.26441515689E+03  0.26441515689E+03  0.00000000000E+00 0. -1.
         -2   -1    0    0    0  501 -0.00000000000E+00 -0.00000000000E+00 -0.60474951409E+02  0.60474951409E+02  0.00000000000E+00 0.  1.
         23    2    1    2    0    0 -0.61780136127E+02  0.10978003346E+02  0.59490669028E+02  0.12376751282E+03  0.88554817769E+02 0.  0.
         23    2    1    2    0    0  0.61780136127E+02 -0.10978003346E+02  0.14444953645E+03  0.20112259548E+03  0.12508928033E+03 0.  0.
          5    1    4    4  502    0  0.48938378983E+02  0.17484089114E+02  0.15833282840E+03  0.16669557660E+03  0.41800000000E+01 0. -1.
         -5    1    4    4    0  502  0.12841757144E+02 -0.28462092460E+02 -0.13883291946E+02  0.34427018881E+02  0.41800000000E+01 0. -1.
        -11    1    3    3    0    0 -0.23013751324E+02  0.33684834536E+02 -0.90757749692E+01  0.41793187472E+02  0.00000000000E+00 0.  1.
         11    1    3    3    0    0 -0.38766384802E+02 -0.22706831191E+02  0.68566443997E+02  0.81974325345E+02  0.00000000000E+00 0. -1.
</event>
<event>
 8    1  0.9181008E-006  0.1180656E+03  0.7561462E-02  0.1246323E+00
         -4   -1    0    0    0  501 -0.00000000000E+00  0.00000000000E+00  0.12491801779E+03  0.12491801779E+03  0.00000000000E+00 0.  1.
          4   -1    0    0  501    0  0.00000000000E+00 -0.00000000000E+00 -0.16007210538E+03  0.16007210538E+03  0.00000000000E+00 0. -1.
         23    2    1    2    0    0  0.37130002791E+02  0.46132805744E+02  0.54227598744E+02  0.12023822901E+03  0.89497074680E+02 0.  0.
         23    2    1    2    0    0 -0.37130002791E+02 -0.46132805744E+02 -0.89381686327E+02  0.16475189416E+03  0.12508888003E+03 0.  0.
          5    1    4    4  502    0  0.24185842673E+02 -0.61789737026E+02 -0.74022524756E+02  0.99497402774E+02  0.41800000000E+01 0. -1.
         -5    1    4    4    0  502 -0.61315845464E+02  0.15656931282E+02 -0.15359161571E+02  0.65254491388E+02  0.41800000000E+01 0. -1.
        -11    1    3    3    0    0  0.38950007112E+02  0.71164409223E+02  0.33831479378E+02  0.87897924839E+02  0.00000000000E+00 0. -1.
         11    1    3    3    0    0 -0.18200043214E+01 -0.25031603479E+02  0.20396119366E+02  0.32340304168E+02  0.00000000000E+00 0.  1.
</event>
<event>
 8    1  0.9181008E-006  0.1247985E+03  0.7561462E-02  0.1235384E+00
          2   -1    0    0  501    0  0.00000000000E+00  0.00000000000E+00  0.28805380243E+03  0.28805380243E+03  0.00000000000E+00 0. -1.
         -2   -1    0    0    0  501 -0.00000000000E+00 -0.00000000000E+00 -0.11296456501E+03  0.11296456501E+03  0.00000000000E+00 0.  1.
         23    2    1    2    0    0 -0.10046458741E+03  0.53876940889E+00 -0.31262731840E+02  0.13963741044E+03  0.91803182939E+02 0.  0.
         23    2    1    2    0    0  0.10046458741E+03 -0.53876940889E+00  0.20635196927E+03  0.26138095700E+03  0.12508175672E+03 0.  0.
          5    1    4    4  502    0  0.37871548171E+02 -0.28835684394E+02  0.18233384778E+03  0.18849099528E+03  0.41800000000E+01 0. -1.
         -5    1    4    4    0  502  0.62593039238E+02  0.28296914986E+02  0.24018121485E+02  0.72889961712E+02  0.41800000000E+01 0. -1.
        -11    1    3    3    0    0  0.19740646676E+01 -0.26878244699E+02 -0.18807546991E+02  0.32864278377E+02  0.00000000000E+00 0.  1.
         11    1    3    3    0    0 -0.10243865208E+03  0.27417014108E+02 -0.12455184849E+02  0.10677313207E+03  0.00000000000E+00 0. -1.
</event>
<event>
 8    1  0.9181008E-006  0.1636079E+03  0.7561462E-02  0.1184683E+00
          1   -1    0    0  501    0  0.00000000000E+00  0.00000000000E+00  0.13455683891E+03  0.13455683891E+03  0.00000000000E+00 0. -1.
         -1   -1    0    0    0  501 -0.00000000000E+00 -0.00000000000E+00 -0.31272941751E+03  0.31272941751E+03  0.00000000000E+00 0.  1.
         23    2    1    2    0    0  0.82828332847E+02  0.11663145237E+03 -0.19366043164E+03  0.25662768940E+03  0.88825558144E+02 0.  0.
         23    2    1    2    0    0 -0.82828332847E+02 -0.11663145237E+03  0.15487853039E+02  0.19065856702E+03  0.12508951667E+03 0.  0.
          5    1    4    4  502    0 -0.94322142498E+02 -0.53801330646E+02  0.48079900009E+02  0.11882928481E+03  0.41800000000E+01 0.  1.
         -5    1    4    4    0  502  0.11493809651E+02 -0.62830121729E+02 -0.32592046969E+02  0.71829282207E+02  0.41800000000E+01 0.  1.
        -11    1    3    3    0    0  0.17338694255E+02  0.74904703752E+02 -0.45470478691E+02  0.89324741225E+02  0.00000000000E+00 0. -1.
         11    1    3    3    0    0  0.65489638592E+02  0.41726748623E+02 -0.14818995295E+03  0.16730294818E+03  0.00000000000E+00 0.  1.
</event>
<event>
 8    1  0.9181008E-006  0.1268429E+03  0.7561462E-02  0.1232217E+00
         -2   -1    0    0    0  501 -0.00000000000E+00  0.00000000000E+00  0.29354997693E+03  0.29354997693E+03  0.00000000000E+00 0.  1.
          2   -1    0    0  501    0  0.00000000000E+00 -0.00000000000E+00 -0.74558701959E+02  0.74558701959E+02  0.00000000000E+00 0. -1.
         23    2    1    2    0    0  0.93435390530E+02 -0.20149250103E+02  0.13688360965E+03  0.19055435333E+03  0.91856815208E+02 0.  0.
         23    2    1    2    0    0 -0.93435390530E+02  0.20149250103E+02  0.82107665328E+02  0.17755432556E+03  0.12509078838E+03 0.  0.
          5    1    4    4  502    0 -0.41764126158E+02  0.72483808345E+02  0.42897367572E+02  0.94105266859E+02  0.41800000000E+01 0. -1.
         -5    1    4    4    0  502 -0.51671264371E+02 -0.52334558242E+02  0.39210297756E+02  0.83449058702E+02  0.41800000000E+01 0. -1.
        -11    1    3    3    0    0  0.33573689327E+02 -0.12888775584E+02  0.12371071924E+03  0.12883188738E+03  0.00000000000E+00 0.  1.
         11    1    3    3    0    0  0.59861701203E+02 -0.72604745190E+01  0.13172890404E+02  0.61722465948E+02  0.00000000000E+00 0. -1.
</event>
<event>
 8    1  0.9181008E-006  0.7409138E+02  0.7561462E-02  0.1346708E+00
         -1   -1    0    0    0  501 -0.00000000000E+00  0.00000000000E+00  0.77292986101E+03  0.77292986101E+03  0.00000000000E+00 0.  1.
          1   -1    0    0  501    0  0.00000000000E+00 -0.00000000000E+00 -0.19487945902E+02  0.19487945902E+02  0.00000000000E+00 0. -1.
         23    2    1    2    0    0 -0.36055006098E+02  0.18359755141E+02  0.45946904321E+03  0.47038468345E+03  0.92265403491E+02 0.  0.
         23    2    1    2    0    0  0.36055006098E+02 -0.18359755141E+02  0.29397287190E+03  0.32203312347E+03  0.12509292195E+03 0.  0.
          5    1    4    4  502    0  0.34119982547E+02  0.10617419613E+01  0.29938363984E+03  0.30135251236E+03  0.41800000000E+01 0. -1.
         -5    1    4    4    0  502  0.19350235515E+01 -0.19421497102E+02 -0.54107679385E+01  0.20680611101E+02  0.41800000000E+01 0. -1.
        -11    1    3    3    0    0  0.27580359606E+02  0.11299252800E+02  0.76511776226E+02  0.82112126090E+02  0.00000000000E+00 0. -1.
         11    1    3    3    0    0 -0.63635365704E+02  0.70605023412E+01  0.38295726699E+03  0.38827255736E+03  0.00000000000E+00 0.  1.
</event>
<event>
 8    1  0.9181008E-006  0.1019360E+03  0.7561462E-02  0.1276277E+00
         -1   -1    0    0    0  501 -0.00000000000E+00  0.00000000000E+00  0.43745154839E+02  0.43745154839E+02  0.00000000000E+00 0.  1.
          1   -1    0    0  501    0  0.00000000000E+00 -0.00000000000E+00 -0.31836583444E+03  0.31836583444E+03  0.00000000000E+00 0. -1.
         23    2    1    2    0    0  0.23469383010E+02 -0.36763690469E+02 -0.12629575512E+03  0.16323893551E+03  0.93776070667E+02 0.  0.
         23    2    1    2    0    0 -0.23469383010E+02  0.36763690469E+02 -0.14832492448E+03  0.19887205376E+03  0.12508968651E+03 0.  0.
          5    1    4    4  502    0 -0.48078557940E+02 -0.10537998035E+02 -0.97717311457E+01  0.50354307321E+02  0.41800000000E+01 0.  1.
         -5    1    4    4    0  502  0.24609174929E+02  0.47301688504E+02 -0.13855319333E+03  0.14851774644E+03  0.41800000000E+01 0.  1.
        -11    1    3    3    0    0 -0.34370949255E+02 -0.23536895760E+02 -0.35271465435E+02  0.54584099229E+02  0.00000000000E+00 0.  1.
         11    1    3    3    0    0  0.57840332265E+02 -0.13226794709E+02 -0.91024289686E+02  0.10865483628E+03  0.00000000000E+00 0. -1.
</event>
<event>
 8    1  0.9181008E-006  0.1019436E+03  0.7561462E-02  0.1276261E+00
          2   -1    0    0  501    0  0.00000000000E+00  0.00000000000E+00  0.18345757141E+03  0.18345757141E+03  0.00000000000E+00 0. -1.
         -2   -1    0    0    0  501 -0.00000000000E+00 -0.00000000000E+00 -0.13229870150E+03  0.13229870150E+03  0.00000000000E+00 0.  1.
         23    2    1    2    0    0  0.26940577619E+02 -0.56395808775E+02 -0.70025632788E+02  0.13071622777E+03  0.90977255316E+02 0.  0.
         23    2    1    2    0    0 -0.26940577619E+02  0.56395808775E+02  0.12118450269E+03  0.18504004514E+03  0.12509137718E+03 0.  0.
          5    1    4    4  502    0  0.12622227961E+02 -0.35662452267E+02  0.45974912415E+02  0.59684973922E+02  0.41800000000E+01 0. -1.
         -5    1    4    4    0  502 -0.39562805580E+02  0.92058261043E+02  0.75209590278E+02  0.12535507122E+03  0.41800000000E+01 0. -1.
        -11    1    3    3    0    0  0.86730125277E+00 -0.23723403804E+02  0.20269147119E+02  0.31215227445E+02  0.00000000000E+00 0. -1.
         11    1    3    3    0    0  0.26073276366E+02 -0.32672404971E+02 -0.90294779906E+02  0.99501000324E+02  0.00000000000E+00 0.  1.
</event>
<event>
 8    1  0.9181008E-006  0.1349471E+03  0.7561462E-02  0.1220294E+00
         -2   -1    0    0    0  501 -0.00000000000E+00  0.00000000000E+00  0.26376677293E+02  0.26376677293E+02  0.00000000000E+00 0.  1.
          2   -1    0    0  501    0  0.00000000000E+00 -0.00000000000E+00 -0.75352243812E+03  0.75352243812E+03  0.00000000000E+00 0. -1.
         23    2    1    2    0    0 -0.85559231543E+02 -0.23598768766E+02 -0.35791821677E+03  0.38008211095E+03  0.92085162659E+02 0.  0.
         23    2    1    2    0    0  0.85559231543E+02  0.23598768766E+02 -0.36922754407E+03  0.39981700447E+03  0.12508946308E+03 0.  0.
          5    1    4    4  502    0 -0.24450396262E+02  0.23034880345E+02 -0.15839622748E+03  0.16197303748E+03  0.41800000000E+01 0. -1.
         -5    1    4    4    0  502  0.11000962780E+03  0.56388842028E+00 -0.21083131658E+03  0.23784396699E+03  0.41800000000E+01 0. -1.
        -11    1    3    3    0    0  0.17688554322E+02  0.57756981334E+01 -0.80432634515E+02  0.82556964200E+02  0.00000000000E+00 0. -1.
         11    1    3    3    0    0 -0.10324778586E+03 -0.29374466899E+02 -0.27748558225E+03  0.29752514675E+03  0.00000000000E+00 0.  1.
</event>
<event>
 8    1  0.9181008E-006  0.1044316E+03  0.7561462E-02  0.1271244E+00
          1   -1    0    0  501    0  0.00000000000E+00  0.00000000000E+00  0.30386038699E+03  0.30386038699E+03  0.00000000000E+00 0. -1.
         -1   -1    0    0    0  501 -0.00000000000E+00 -0.00000000000E+00 -0.48980583253E+02  0.48980583253E+02  0.00000000000E+00 0.  1.
         23    2    1    2    0    0  0.30361278417E+02  0.21804383159E+02  0.54280953935E+02  0.11349959815E+03  0.92403995958E+02 0.  0.
         23    2    1    2    0    0 -0.30361278417E+02 -0.21804383159E+02  0.20059884980E+03  0.23934137209E+03  0.12508859061E+03 0.  0.
          5    1    4    4  502    0  0.15813412870E+02 -0.63967324839E+02  0.12296750683E+03  0.13957207031E+03  0.41800000000E+01 0. -1.
         -5    1    4    4    0  502 -0.46174691287E+02  0.42162941680E+02  0.77631342971E+02  0.99769301782E+02  0.41800000000E+01 0. -1.
        -11    1    3    3    0    0 -0.23269454012E+02  0.36770429587E+01 -0.11913080941E+02  0.26399046051E+02  0.00000000000E+00 0.  1.
         11    1    3    3    0    0  0.53630732428E+02  0.18127340200E+02  0.66194034876E+02  0.87100552103E+02  0.00000000000E+00 0. -1.
</event>
<event>
 8    1  0.9181008E-006  0.1220753E+03  0.7561462E-02  0.1239712E+00
          2   -1    0    0  501    0  0.00000000000E+00  0.00000000000E+00  0.11367687997E+04  0.11367687997E+04  0.00000000000E+00 0. -1.
         -2   -1    0    0    0  501 -0.00000000000E+00 -0.00000000000E+00 -0.18062046919E+02  0.18062046919E+02  0.00000000000E+00 0.  1.
         23    2    1    2    0    0 -0.38512608926E+02 -0.78169652707E+02  0.37173610430E+03  0.39246228923E+03  0.90803092348E+02 0.  0.
         23    2    1    2    0    0  0.38512608926E+02  0.78169652707E+02  0.74697064852E+03  0.76236855742E+03  0.12508777697E+03 0.  0.
          5    1    4    4  502    0 -0.28001609297E+02  0.31265575901E+02  0.51067761810E+03  0.51241655749E+03  0.41800000000E+01 0.  1.
         -5    1    4    4    0  502  0.66514218223E+02  0.46904076805E+02  0.23629303042E+03  0.24995199993E+03  0.41800000000E+01 0.  1.
        -11    1    3    3    0    0 -0.43644245523E+02 -0.15373644159E+01  0.84279849811E+02  0.94922477532E+02  0.00000000000E+00 0.  1.
         11    1    3    3    0    0  0.51316365968E+01 -0.76632288291E+02  0.28745625449E+03  0.29753981170E+03  0.00000000000E+00 0. -1.
</event>
<event>
 8    1  0.9181008E-006  0.7902170E+02  0.7561462E-02  0.1331851E+00
          1   -1    0    0  501    0  0.00000000000E+00  0.00000000000E+00  0.17063210046E+03  0.17063210046E+03  0.00000000000E+00 0. -1.
         -1   -1    0    0    0  501 -0.00000000000E+00 -0.00000000000E+00 -0.76849528386E+02  0.76849528386E+02  0.00000000000E+00 0.  1.
         23    2    1    2    0    0 -0.82572606547E+01 -0.21279382822E+02  0.92536538180E+01  0.94857451718E+02  0.91604102259E+02 0.  0.
         23    2    1    2    0    0  0.82572606547E+01  0.21279382822E+02  0.84528918257E+02  0.15262417713E+03  0.12501202717E+03 0.  0.
          5    1    4    4  502    0  0.12198129245E+02 -0.24737100700E+02 -0.22591557491E+02  0.35896648562E+02  0.41800000000E+01 0. -1.
         -5    1    4    4    0  502 -0.39408685902E+01  0.46016483522E+02  0.10712047575E+03  0.11672752857E+03  0.41800000000E+01 0. -1.
        -11    1    3    3    0    0 -0.10386800263E+02 -0.51975776762E+02 -0.15657157897E+02  0.55267654040E+02  0.00000000000E+00 0.  1.
         11    1    3    3    0    0  0.21295396084E+01  0.30696393940E+02  0.24910811715E+02  0.39589797678E+02  0.00000000000E+00 0. -1.
</event>
<event>
 8    1  0.9181008E-006  0.9299147E+02  0.7561462E-02  0.1295765E+00
          2   -1    0    0  501    0  0.00000000000E+00  0.00000000000E+00  0.32727353300E+03  0.32727353300E+03  0.00000000000E+00 0. -1.
         -2   -1    0    0    0  501 -0.00000000000E+00 -0.00000000000E+00 -0.38590881262E+02  0.38590881262E+02  0.00000000000E+00 0.  1.
         23    2    1    2    0    0 -0.28814384556E+02  0.69492062301E+01  0.87021377855E+02  0.12667167342E+03  0.87146040753E+02 0.  0.
         23    2    1    2    0    0  0.28814384556E+02 -0.69492062301E+01  0.20166127388E+03  0.23919274084E+03  0.12516923609E+03 0.  0.
          5    1    4    4  502    0 -0.35867608936E+02  0.46171355763E+00  0.11111196845E+02  0.37783986629E+02  0.41800000000E+01 0.  1.
         -5    1    4    4    0  502  0.64681993493E+02 -0.74109197877E+01  0.19055007704E+03  0.20140875421E+03  0.41800000000E+01 0.  1.
        -11    1    3    3    0    0  0.25121087884E+02  0.16222133340E+02  0.56710123020E+02  0.64111346263E+02  0.00000000000E+00 0.  1.
         11    1    3    3    0    0 -0.53935472441E+02 -0.92729271103E+01  0.30311254835E+02  0.62560327159E+02  0.00000000000E+00 0. -1.
</event>
<event>
 8    1  0.9181008E-006  0.9911214E+02  0.7561462E-02  0.1282174E+00
         -1   -1    0    0    0  501 -0.00000000000E+00  0.00000000000E+00  0.33463661201E+02  0.33463661201E+02  0.00000000000E+00 0.  1.
          1   -1    0    0  501    0  0.00000000000E+00 -0.00000000000E+00 -0.50293587891E+03  0.50293587891E+03  0.00000000000E+00 0. -1.
         23    2    1    2    0    0 -0.58265063429E+02  0.36131924939E+01 -0.12525463005E+03  0.16553407148E+03  0.91131408944E+02 0.  0.
         23    2    1    2    0    0  0.58265063429E+02 -0.36131924939E+01 -0.34421758765E+03  0.37086546862E+03  0.12509026897E+03 0.  0.
          5    1    4    4  502    0  0.76958622852E+02 -0.14926676011E+02 -0.10754532985E+03  0.13314993677E+03  0.41800000000E+01 0. -1.
         -5    1    4    4    0  502 -0.18693559422E+02  0.11313483517E+02 -0.23667225780E+03  0.23771553186E+03  0.41800000000E+01 0. -1.
        -11    1    3    3    0    0 -0.53018103295E+02  0.36373326073E+02 -0.44398019096E+02  0.78135281572E+02  0.00000000000E+00 0.  1.
         11    1    3    3    0    0 -0.52469601342E+01 -0.32760133579E+02 -0.80856610957E+02  0.87398789913E+02  0.00000000000E+00 0. -1.
</event>
<event>
 8    1  0.9181008E-006  0.1038959E+03  0.7561462E-02  0.1272310E+00
         -2   -1    0    0    0  501 -0.00000000000E+00  0.00000000000E+00  0.53069958938E+02  0.53069958938E+02  0.00000000000E+00 0.  1.
          2   -1    0    0  501    0  0.00000000000E+00 -0.00000000000E+00 -0.22571785338E+03  0.22571785338E+03  0.00000000000E+00 0. -1.
         23    2    1    2    0    0  0.23732125862E+01  0.12324671758E+02 -0.54412791238E+02  0.10620776998E+03  0.90342730099E+02 0.  0.
         23    2    1    2    0    0 -0.23732125862E+01 -0.12324671758E+02 -0.11823510320E+03  0.17258004234E+03  0.12508717645E+03 0.  0.
          5    1    4    4  502    0 -0.57814183567E+02  0.68044965679E+01 -0.27639676444E+02  0.64577125276E+02  0.41800000000E+01 0. -1.
         -5    1    4    4    0  502  0.55440970980E+02 -0.19129168326E+02 -0.90595426759E+02  0.10800291706E+03  0.41800000000E+01 0. -1.
        -11    1    3    3    0    0 -0.35328283153E+02 -0.20324935466E+02 -0.30447913314E+02  0.50875003857E+02  0.00000000000E+00 0.  1.
         11    1    3    3    0    0  0.37701495740E+02  0.32649607224E+02 -0.23964877924E+02  0.55332766123E+02  0.00000000000E+00 0. -1.
</event>
<event>
 8    1  0.1075377E-005  0.1531088E+03  0.7561462E-02  0.1196704E+00
          2   -1    0    0  501    0  0.00000000000E+00  0.00000000000E+00  0.13921296520E+04  0.13921296520E+04  0.00000000000E+00 0. -1.
         -2   -1    0    0    0  501 -0.00000000000E+00 -0.00000000000E+00 -0.18471153734E+02  0.18471153734E+02  0.00000000000E+00 0.  1.
         23    2    1    2    0    0 -0.77773555950E+02  0.81462649012E+02  0.56787583950E+03  0.58742535421E+03  0.99502203451E+02 0.  0.
         23    2    1    2    0    0  0.77773555950E+02 -0.81462649012E+02  0.80578265881E+03  0.82317545156E+03  0.12508893490E+03 0.  0.
          5    1    4    4  502    0  0.83562280516E+02 -0.10335272100E+03  0.52974511351E+03  0.54617927218E+03  0.41800000000E+01 0.  1.
         -5    1    4    4    0  502 -0.57887245659E+01  0.21890071990E+02  0.27603754529E+03  0.27699617939E+03  0.41800000000E+01 0.  1.
        -11    1    3    3    0    0 -0.47803643535E+02 -0.14283612782E+02  0.19687927409E+03  0.20310258121E+03  0.00000000000E+00 0.  1.
         11    1    3    3    0    0 -0.29969912415E+02  0.95746261795E+02  0.37099656542E+03  0.38432277300E+03  0.00000000000E+00 0. -1.
</event>
<event>
 8    1  0.9181008E-006  0.1570809E+03  0.7561462E-02  0.1192032E+00
         -2   -1    0    0    0  501 -0.00000000000E+00  0.00000000000E+00  0.51006829178E+02  0.51006829178E+02  0.00000000000E+00 0.  1.
          2   -1    0    0  501    0  0.00000000000E+00 -0.00000000000E+00 -0.66585026236E+03  0.66585026236E+03  0.00000000000E+00 0. -1.
         23    2    1    2    0    0 -0.35099104030E+02  0.14424162957E+03 -0.31772213612E+03  0.36194030448E+03  0.89531186851E+02 0.  0.
         23    2    1    2    0    0  0.35099104030E+02 -0.14424162957E+03 -0.29712129706E+03  0.35491678706E+03  0.12508903135E+03 0.  0.
          5    1    4    4  502    0  0.21809613253E+02 -0.89378674141E+02 -0.28152105972E+03  0.29620227225E+03  0.41800000000E+01 0.  1.
         -5    1    4    4    0  502  0.13289490777E+02 -0.54862955434E+02 -0.15600237342E+02  0.58714514808E+02  0.41800000000E+01 0.  1.
        -11    1    3    3    0    0 -0.58079596713E+02  0.10234398235E+03 -0.26940498665E+03  0.29398397424E+03  0.00000000000E+00 0.  1.
         11    1    3    3    0    0  0.22980492682E+02  0.41897647220E+02 -0.48317149473E+02  0.67956330240E+02  0.00000000000E+00 0. -1.
</event>
<event>
 8    1  0.9181008E-006  0.1358124E+03  0.7561462E-02  0.1219077E+00
         -2   -1    0    0    0  501 -0.00000000000E+00  0.00000000000E+00  0.11285562777E+03  0.11285562777E+03  0.00000000000E+00 0.  1.
          2   -1    0    0  501    0  0.00000000000E+00 -0.00000000000E+00 -0.40824872967E+03  0.40824872967E+03  0.00000000000E+00 0. -1.
         23    2    1    2    0    0  0.14571021126E+02 -0.10590061259E+03  0.19081661094E+02  0.16618006685E+03  0.12579527187E+03 0.  0.
         23    2    1    2    0    0 -0.14571021126E+02  0.10590061259E+03 -0.31447476299E+03  0.35492429058E+03  0.12509844556E+03 0.  0.
          5    1    4    4  502    0 -0.44155591731E+02  0.29179428051E+02 -0.35038038847E+02  0.63610469804E+02  0.41800000000E+01 0. -1.
         -5    1    4    4    0  502  0.29584570605E+02  0.76721184543E+02 -0.27943672415E+03  0.29131382078E+03  0.41800000000E+01 0. -1.
        -11    1    3    3    0    0 -0.28677406208E+02 -0.89515819532E+01 -0.35750716636E+02  0.46697303844E+02  0.00000000000E+00 0. -1.
         11    1    3    3    0    0  0.43248427334E+02 -0.96949030641E+02  0.54832377730E+02  0.11948276301E+03  0.00000000000E+00 0.  1.
</event>
<event>
 8    1  0.9181008E-006  0.2456064E+03  0.7561462E-02  0.1116113E+00
          4   -1    0    0  501    0  0.00000000000E+00  0.00000000000E+00  0.13740566782E+03  0.13740566782E+03  0.00000000000E+00 0. -1.
         -4   -1    0    0    0  501 -0.00000000000E+00 -0.00000000000E+00 -0.61622270957E+03  0.61622270957E+03  0.00000000000E+00 0.  1.
         23    2    1    2    0    0  0.21992933721E+03  0.72459146412E+02 -0.41309974173E+03  0.48236387147E+03  0.91674787262E+02 0.  0.
         23    2    1    2    0    0 -0.21992933721E+03 -0.72459146412E+02 -0.65717300023E+02  0.27126450592E+03  0.12508568017E+03 0.  0.
          5    1    4    4  502    0 -0.10028356448E+03 -0.94224280750E+02 -0.57851360484E+02  0.14932936984E+03  0.41800000000E+01 0. -1.
         -5    1    4    4    0  502 -0.11964577273E+03  0.21765134338E+02 -0.78659395392E+01  0.12193513608E+03  0.41800000000E+01 0. -1.
        -11    1    3    3    0    0  0.15397681518E+03  0.44947986967E+02 -0.35745127399E+03  0.39179151908E+03  0.00000000000E+00 0.  1.
         11    1    3    3    0    0  0.65952522030E+02  0.27511159445E+02 -0.55648467740E+02  0.90572352392E+02  0.00000000000E+00 0. -1.
</event>
<event>
 8    1  0.9181008E-006  0.1450307E+03  0.7561462E-02  0.1206716E+00
          2   -1    0    0  501    0  0.00000000000E+00  0.00000000000E+00  0.32274021804E+04  0.32274021804E+04  0.00000000000E+00 0. -1.
         -2   -1    0    0    0  501 -0.00000000000E+00 -0.00000000000E+00 -0.13026006929E+02  0.13026006929E+02  0.00000000000E+00 0.  1.
         23    2    1    2    0    0 -0.93158898347E+02  0.27107798310E+02  0.40920417164E+03  0.43079258087E+03  0.93385119694E+02 0.  0.
         23    2    1    2    0    0  0.93158898347E+02 -0.27107798310E+02  0.28051720018E+04  0.28096356065E+04  0.12509543605E+03 0.  0.
          5    1    4    4  502    0  0.12180188026E+03 -0.52724158636E+01  0.21955620776E+04  0.21989483408E+04  0.41800000000E+01 0.  1.
         -5    1    4    4    0  502 -0.28642981914E+02 -0.21835382446E+02  0.60960992424E+03  0.61068726568E+03  0.41800000000E+01 0.  1.
        -11    1    3    3    0    0 -0.41493727247E+02 -0.32665078381E+02  0.12241720100E+03  0.13332182060E+03  0.00000000000E+00 0. -1.
         11    1    3    3    0    0 -0.51665171100E+02  0.59772876691E+02  0.28678697063E+03  0.29747076028E+03  0.00000000000E+00 0.  1.
</event>
<event>
 7    1  0.9181008E-006  0.1515081E+03  0.7561462E-02  0.1198632E+00
         -1   -1    0    0    0  501 -0.00000000000E+00  0.00000000000E+00  0.80334535457E+02  0.80334535457E+02  0.00000000000E+00 0.  1.
          1   -1    0    0  501    0  0.00000000000E+00 -0.00000000000E+00 -0.41146397613E+03  0.41146397613E+03  0.00000000000E+00 0. -1.
         23    2    1    2    0    0  0.92898872012E+02 -0.36572773309E+01 -0.19015052701E+02  0.13599483431E+03  0.97413790767E+02 0.  0.
          5    1    1    2  502    0 -0.45680491966E+02  0.72562460664E+02 -0.18031722831E+03  0.19970927187E+03  0.41800000000E+01 0. -1.
         -5    1    1    2    0  502 -0.47218380046E+02 -0.68905183333E+02 -0.13179715966E+03  0.15609440540E+03  0.41800000000E+01 0.  1.
        -11    1    3    3    0    0 -0.13795563802E+02  0.19954071390E+02  0.32453314553E+01  0.24474777259E+02  0.00000000000E+00 0.  1.
         11    1    3    3    0    0  0.10669443581E+03 -0.23611348721E+02 -0.22260384156E+02  0.11152005705E+03  0.00000000000E+00 0. -1.
</event>
<event>
 8    1  0.9181008E-006  0.1867259E+03  0.7561462E-02  0.1161448E+00
         -2   -1    0    0    0  501 -0.00000000000E+00  0.00000000000E+00  0.28429698891E+02  0.28429698891E+02  0.00000000000E+00 0.  1.
          2   -1    0    0  501    0  0.00000000000E+00 -0.00000000000E+00 -0.15449074191E+04  0.15449074191E+04  0.00000000000E+00 0. -1.
         23    2    1    2    0    0 -0.14625612359E+03 -0.43486739514E+02 -0.38495903572E+03  0.42474474720E+03  0.94512913884E+02 0.  0.
         23    2    1    2    0    0  0.14625612359E+03  0.43486739514E+02 -0.11315186845E+04  0.11485923708E+04  0.12509176909E+03 0.  0.
          5    1    4    4  502    0  0.17572182816E+02 -0.39415641672E+02 -0.20893163638E+03  0.21338293160E+03  0.41800000000E+01 0. -1.
         -5    1    4    4    0  502  0.12868394077E+03  0.82902381186E+02 -0.92258704810E+03  0.93520943919E+03  0.41800000000E+01 0. -1.
        -11    1    3    3    0    0 -0.13198988445E+02  0.24284039469E+02 -0.37736621884E+02  0.46775853815E+02  0.00000000000E+00 0.  1.
         11    1    3    3    0    0 -0.13305713514E+03 -0.67770778983E+02 -0.34722241384E+03  0.37796889339E+03  0.00000000000E+00 0. -1.
</event>
<event>
 8    1  0.9181008E-006  0.1118249E+03  0.7561462E-02  0.1257227E+00
         -2   -1    0    0    0  501 -0.00000000000E+00  0.00000000000E+00  0.55560325346E+02  0.55560325346E+02  0.00000000000E+00 0.  1.
          2   -1    0    0  501    0  0.00000000000E+00 -0.00000000000E+00 -0.31947287145E+03  0.31947287145E+03  0.00000000000E+00 0. -1.
         23    2    1    2    0    0  0.71608990965E+02  0.26364934935E+02 -0.10003817979E+03  0.15519997004E+03  0.90864932197E+02 0.  0.
         23    2    1    2    0    0 -0.71608990965E+02 -0.26364934935E+02 -0.16387436631E+03  0.21983322675E+03  0.12509549261E+03 0.  0.
          5    1    4    4  502    0 -0.10698113850E+03 -0.27680668014E+02 -0.11764416763E+03  0.16145837220E+03  0.41800000000E+01 0. -1.
         -5    1    4    4    0  502  0.35372147531E+02  0.13157330782E+01 -0.46230198676E+02  0.58374854553E+02  0.41800000000E+01 0. -1.
        -11    1    3    3    0    0  0.52384902757E+02  0.12889845241E+02 -0.11523255431E+03  0.12723548137E+03  0.00000000000E+00 0. -1.
         11    1    3    3    0    0  0.19224088208E+02  0.13475089694E+02  0.15194374515E+02  0.27964488671E+02  0.00000000000E+00 0.  1.
</event>
<event>
 8    1  0.9181008E-006  0.7990121E+02  0.7561462E-02  0.1329332E+00
          2   -1    0    0  501    0  0.00000000000E+00  0.00000000000E+00  0.90308928858E+02  0.90308928858E+02  0.00000000000E+00 0.  1.
         -2   -1    0    0    0  501 -0.00000000000E+00 -0.00000000000E+00 -0.18785233296E+03  0.18785233296E+03  0.00000000000E+00 0. -1.
         23    2    1    2    0    0 -0.50225112481E+02 -0.25096182308E+02 -0.93296138371E+02  0.14098101277E+03  0.89549406681E+02 0.  0.
         23    2    1    2    0    0  0.50225112481E+02  0.25096182308E+02 -0.42472657333E+01  0.13718024905E+03  0.12509197086E+03 0.  0.
          5    1    4    4  502    0 -0.59379331161E+01  0.17545081361E+02 -0.56733361546E+02  0.59826713448E+02  0.41800000000E+01 0.  1.
         -5    1    4    4    0  502  0.56163045597E+02  0.75511009464E+01  0.52486095813E+02  0.77353535601E+02  0.41800000000E+01 0.  1.
        -11    1    3    3    0    0 -0.60756839095E+02 -0.45788371228E+01 -0.99879841279E+02  0.11699718774E+03  0.00000000000E+00 0. -1.
         11    1    3    3    0    0  0.10531726614E+02 -0.20517345185E+02  0.65837029083E+01  0.23983825026E+02  0.00000000000E+00 0.  1.
</event>
<event>
 8    1  0.9181008E-006  0.9013349E+02  0.7561462E-02  0.1302529E+00
          1   -1    0    0  501    0  0.00000000000E+00  0.00000000000E+00  0.11134659129E+04  0.11134659129E+04  0.00000000000E+00 0. -1.
         -1   -1    0    0    0  501 -0.00000000000E+00 -0.00000000000E+00 -0.20470323157E+03  0.20470323157E+03  0.00000000000E+00 0.  1.
         23    2    1    2    0    0 -0.82268428033E+02  0.74847526249E+00 -0.18069510696E+03  0.21835225987E+03  0.90875372053E+02 0.  0.
         23    2    1    2    0    0  0.82268428033E+02 -0.74847526249E+00  0.10894577883E+04  0.10998168846E+04  0.12613585031E+03 0.  0.
          5    1    4    4  502    0  0.33493490781E+02 -0.60931331151E+00  0.97173508473E+03  0.97232131134E+03  0.41800000000E+01 0. -1.
         -5    1    4    4    0  502  0.48774937252E+02 -0.13916195098E+00  0.11772270358E+03  0.12749557329E+03  0.41800000000E+01 0.  1.
        -11    1    3    3    0    0 -0.78277030446E+02 -0.16375230384E+02 -0.18384877866E+03  0.20048894005E+03  0.00000000000E+00 0.  1.
         11    1    3    3    0    0 -0.39913975875E+01  0.17123705647E+02  0.31536717074E+01  0.17863319821E+02  0.00000000000E+00 0. -1.
</event>
<event>
 8    1  0.9181008E-006  0.9568250E+02  0.7561462E-02  0.1289646E+00
         -1   -1    0    0    0  501 -0.00000000000E+00  0.00000000000E+00  0.44277144108E+02  0.44277144108E+02  0.00000000000E+00 0.  1.
          1   -1    0    0  501    0  0.00000000000E+00 -0.00000000000E+00 -0.27092819265E+03  0.27092819265E+03  0.00000000000E+00 0. -1.
         23    2    1    2    0    0 -0.87201913006E+01  0.41906520328E+02 -0.10742874017E+03  0.14719369362E+03  0.91065092357E+02 0.  0.
         23    2    1    2    0    0  0.87201913006E+01 -0.41906520328E+02 -0.11922230838E+03  0.16801164314E+03  0.11037098909E+03 0.  0.
          5    1    4    4  502    0 -0.33951714788E+02 -0.42328516222E+02 -0.16769911997E+02  0.56948437828E+02  0.41800000000E+01 0.  1.
         -5    1    4    4    0  502  0.42671906089E+02  0.42199589444E+00 -0.10245239638E+03  0.11106320531E+03  0.41800000000E+01 0. -1.
        -11    1    3    3    0    0  0.10199310239E+02  0.64096465447E+02 -0.47116721729E+02  0.80202046599E+02  0.00000000000E+00 0. -1.
         11    1    3    3    0    0 -0.18919501540E+02 -0.22189945119E+02 -0.60312018440E+02  0.66991647025E+02  0.00000000000E+00 0.  1.
</event>
<event>
 8    1  0.9181008E-006  0.9461708E+02  0.7561462E-02  0.1292041E+00
          3   -1    0    0  501    0  0.00000000000E+00  0.00000000000E+00  0.45885642173E+02  0.45885642173E+02  0.00000000000E+00 0. -1.
         -3   -1    0    0    0  501 -0.00000000000E+00 -0.00000000000E+00 -0.27362513206E+03  0.27362513206E+03  0.00000000000E+00 0.  1.
         23    2    1    2    0    0 -0.22710579980E+02  0.14109096821E+02 -0.12178140886E+03  0.15341840513E+03  0.89396076163E+02 0.  0.
         23    2    1    2    0    0  0.22710579980E+02 -0.14109096821E+02 -0.10595808102E+03  0.16609236910E+03  0.12507886745E+03 0.  0.
          5    1    4    4  502    0  0.59051208207E+02 -0.16790859355E+02 -0.86976886824E+01  0.62145799030E+02  0.41800000000E+01 0. -1.
         -5    1    4    4    0  502 -0.36340628227E+02  0.26817625342E+01 -0.97260392342E+02  0.10394657007E+03  0.41800000000E+01 0. -1.
        -11    1    3    3    0    0  0.27727236570E+02 -0.16263389742E+02 -0.27701984928E+02  0.42434625751E+02  0.00000000000E+00 0. -1.
         11    1    3    3    0    0 -0.50437816550E+02  0.30372486563E+02 -0.94079423932E+02  0.11098377938E+03  0.00000000000E+00 0.  1.
</event>
<event>
 8    1  0.9181008E-006  0.8655099E+02  0.7561462E-02  0.1311426E+00
         -2   -1    0    0    0  501 -0.00000000000E+00  0.00000000000E+00  0.15303521906E+02  0.15303521906E+02  0.00000000000E+00 0.  1.
          2   -1    0    0  501    0  0.00000000000E+00 -0.00000000000E+00 -0.30608152835E+04  0.30608152835E+04  0.00000000000E+00 0. -1.
         23    2    1    2    0    0  0.31274929801E+02 -0.97240501289E+01 -0.16363761995E+03  0.19134520169E+03  0.93611095289E+02 0.  0.
         23    2    1    2    0    0 -0.31274929801E+02  0.97240501289E+01 -0.28818741417E+04  0.28847736038E+04  0.12508995981E+03 0.  0.
          5    1    4    4  502    0  0.76339861231E+01 -0.37707304685E+02 -0.34657274323E+03  0.34872662262E+03  0.41800000000E+01 0. -1.
         -5    1    4    4    0  502 -0.38908915924E+02  0.47431354814E+02 -0.25353013985E+04  0.25360469811E+04  0.41800000000E+01 0. -1.
        -11    1    3    3    0    0  0.12552087156E+02  0.28062505765E+02 -0.10466143408E+02  0.32474594373E+02  0.00000000000E+00 0.  1.
         11    1    3    3    0    0  0.18722842645E+02 -0.37786555894E+02 -0.15317147654E+03  0.15887060731E+03  0.00000000000E+00 0. -1.
</event>
<event>
 8    1  0.9181008E-006  0.9181070E+02  0.7561462E-02  0.1298525E+00
         -2   -1    0    0    0  501 -0.00000000000E+00  0.00000000000E+00  0.15937773086E+03  0.15937773086E+03  0.00000000000E+00 0. -1.
          2   -1    0    0  501    0  0.00000000000E+00 -0.00000000000E+00 -0.99629245137E+02  0.99629245137E+02  0.00000000000E+00 0.  1.
         23    2    1    2    0    0 -0.27070748564E+02  0.53700276539E+02  0.73512412446E+02  0.11954247917E+03  0.72593280778E+02 0.  0.
         23    2    1    2    0    0  0.27070748564E+02 -0.53700276539E+02 -0.13763926719E+02  0.13946449683E+03  0.12507739632E+03 0.  0.
          5    1    4    4  502    0  0.18467356400E+02  0.29628734847E+02 -0.38378839609E+02  0.52051060611E+02  0.41800000000E+01 0. -1.
         -5    1    4    4    0  502  0.86033921642E+01 -0.83329011386E+02  0.24614912890E+02  0.87413436220E+02  0.41800000000E+01 0. -1.
        -11    1    3    3    0    0 -0.11980510241E+02  0.39816587433E+01 -0.13319746672E+02  0.18352162907E+02  0.00000000000E+00 0.  1.
         11    1    3    3    0    0 -0.15090238323E+02  0.49718617796E+02  0.86832159118E+02  0.10119031626E+03  0.00000000000E+00 0. -1.
</event>
<event>
 8    1  0.9181008E-006  0.1682625E+03  0.7561462E-02  0.1179672E+00
          3   -1    0    0  501    0  0.00000000000E+00  0.00000000000E+00  0.36178463354E+02  0.36178463354E+02  0.00000000000E+00 0. -1.
         -3   -1    0    0    0  501 -0.00000000000E+00 -0.00000000000E+00 -0.11020117309E+04  0.11020117309E+04  0.00000000000E+00 0.  1.
         23    2    1    2    0    0  0.35954059486E+02  0.16396969428E+03 -0.47581077211E+03  0.51212871502E+03  0.87756338016E+02 0.  0.
         23    2    1    2    0    0 -0.35954059486E+02 -0.16396969428E+03 -0.59002249544E+03  0.62606147923E+03  0.12509066958E+03 0.  0.
          5    1    4    4  502    0 -0.24347499039E+02 -0.99546136611E+02 -0.15333970133E+03  0.18447972904E+03  0.41800000000E+01 0. -1.
         -5    1    4    4    0  502 -0.11606560447E+02 -0.64423557670E+02 -0.43668279411E+03  0.44158175019E+03  0.41800000000E+01 0. -1.
        -11    1    3    3    0    0  0.49135893619E+01  0.50110239819E+02 -0.27195614907E+03  0.27657788507E+03  0.00000000000E+00 0.  1.
         11    1    3    3    0    0  0.31040470124E+02  0.11385945446E+03 -0.20385462303E+03  0.23555082995E+03  0.00000000000E+00 0. -1.
</event>
<event>
 8    1  0.9181008E-006  0.7789463E+02  0.7561462E-02  0.1335135E+00
         -1   -1    0    0    0  501 -0.00000000000E+00  0.00000000000E+00  0.39508596457E+03  0.39508596457E+03  0.00000000000E+00 0.  1.
          1   -1    0    0  501    0  0.00000000000E+00 -0.00000000000E+00 -0.37653682010E+02  0.37653682010E+02  0.00000000000E+00 0. -1.
         23    2    1    2    0    0 -0.17980513543E+02  0.28529109309E+02  0.23440259873E+03  0.25407009321E+03  0.92031652317E+02 0.  0.
         23    2    1    2    0    0  0.17980513543E+02 -0.28529109309E+02  0.12302968383E+03  0.17866955337E+03  0.12509715126E+03 0.  0.
          5    1    4    4  502    0  0.12811895306E+02 -0.43307460151E+02  0.14468218300E+03  0.15162482397E+03  0.41800000000E+01 0.  1.
         -5    1    4    4    0  502  0.51686182364E+01  0.14778350843E+02 -0.21652499169E+02  0.27044729400E+02  0.41800000000E+01 0.  1.
        -11    1    3    3    0    0  0.34461437284E+02  0.23142457277E+02  0.69579051682E+02  0.81021036907E+02  0.00000000000E+00 0.  1.
         11    1    3    3    0    0 -0.52441950827E+02  0.53866520312E+01  0.16482354705E+03  0.17304905631E+03  0.00000000000E+00 0. -1.
</event>
<event>
 8    1  0.9181008E-006  0.1458538E+03  0.7561462E-02  0.1205662E+00
         -1   -1    0    0    0  501 -0.00000000000E+00  0.00000000000E+00  0.25466563963E+02  0.25466563963E+02  0.00000000000E+00 0.  1.
          1   -1    0    0  501    0  0.00000000000E+00 -0.00000000000E+00 -0.13597359401E+04  0.13597359401E+04  0.00000000000E+00 0. -1.
         23    2    1    2    0    0 -0.10879013508E+03  0.72483117077E+02 -0.35728712276E+03  0.39160682813E+03  0.92804762765E+02 0.  0.
         23    2    1    2    0    0  0.10879013508E+03 -0.72483117077E+02 -0.97698225340E+03  0.99359567596E+03  0.12509575565E+03 0.  0.
          5    1    4    4  502    0  0.82735859488E+02 -0.65375217092E+02 -0.94764221162E+03  0.95350006560E+03  0.41800000000E+01 0.  1.
         -5    1    4    4    0  502  0.26054275590E+02 -0.71078999849E+01 -0.29340041779E+02  0.40095610362E+02  0.41800000000E+01 0.  1.
        -11    1    3    3    0    0 -0.33330147755E+02  0.76331787994E+02 -0.16077120065E+03  0.18106578795E+03  0.00000000000E+00 0.  1.
         11    1    3    3    0    0 -0.75459987322E+02 -0.38486709173E+01 -0.19651592211E+03  0.21054104018E+03  0.00000000000E+00 0. -1.
</event>
<event>
 8    1  0.9181008E-006  0.1310852E+03  0.7561462E-02  0.1225854E+00
         -1   -1    0    0    0  501 -0.00000000000E+00  0.00000000000E+00  0.63839093051E+02  0.63839093051E+02  0.00000000000E+00 0.  1.
          1   -1    0    0  501    0  0.00000000000E+00 -0.00000000000E+00 -0.29770643534E+03  0.29770643534E+03  0.00000000000E+00 0. -1.
         23    2    1    2    0    0  0.48895383825E+02 -0.69516713798E+02 -0.95624808153E+02  0.15665552765E+03  0.90407512704E+02 0.  0.
         23    2    1    2    0    0 -0.48895383825E+02  0.69516713798E+02 -0.13824253413E+03  0.20489000074E+03  0.12508230131E+03 0.  0.
          5    1    4    4  502    0 -0.40938630985E+02  0.10274191140E+03 -0.77634586836E+02  0.13519050757E+03  0.41800000000E+01 0. -1.
         -5    1    4    4    0  502 -0.79567528408E+01 -0.33225197601E+02 -0.60607947298E+02  0.69699493162E+02  0.41800000000E+01 0. -1.
        -11    1    3    3    0    0  0.50713565735E+02 -0.32874455206E+01 -0.16448781041E+02  0.53415685386E+02  0.00000000000E+00 0.  1.
         11    1    3    3    0    0 -0.18181819092E+01 -0.66229268278E+02 -0.79176027112E+02  0.10323984227E+03  0.00000000000E+00 0. -1.
</event>
<event>
 8    1  0.9181008E-006  0.1881650E+03  0.7561462E-02  0.1160127E+00
         -2   -1    0    0    0  501 -0.00000000000E+00  0.00000000000E+00  0.34119745536E+02  0.34119745536E+02  0.00000000000E+00 0.  1.
          2   -1    0    0  501    0  0.00000000000E+00 -0.00000000000E+00 -0.16523292639E+04  0.16523292639E+04  0.00000000000E+00 0. -1.
         23    2    1    2    0    0 -0.14436669698E+02  0.16163841408E+03 -0.30015543531E+03  0.35256388432E+03  0.88727745616E+02 0.  0.
         23    2    1    2    0    0  0.14436669698E+02 -0.16163841408E+03 -0.13180540830E+04  0.13338851251E+04  0.12509023470E+03 0.  0.
          5    1    4    4  502    0  0.36430018645E+02 -0.17182167680E+03 -0.10390300803E+04  0.10537793009E+04  0.41800000000E+01 0.  1.
         -5    1    4    4    0  502 -0.21993348948E+02  0.10183262721E+02 -0.27902400273E+03  0.28010582417E+03  0.41800000000E+01 0.  1.
        -11    1    3    3    0    0 -0.41243298609E+02  0.78252291496E+02 -0.20479915675E+03  0.22308546661E+03  0.00000000000E+00 0. -1.
         11    1    3    3    0    0  0.26806628911E+02  0.83386122582E+02 -0.95356278557E+02  0.12947841771E+03  0.00000000000E+00 0.  1.
</event>
<event>
 8    1  0.9181008E-006  0.1215643E+03  0.7561462E-02  0.1240539E+00
         -2   -1    0    0    0  501 -0.00000000000E+00  0.00000000000E+00  0.96245907990E+02  0.96245907990E+02  0.00000000000E+00 0.  1.
          2   -1    0    0  501    0  0.00000000000E+00 -0.00000000000E+00 -0.25389009953E+03  0.25389009953E+03  0.00000000000E+00 0. -1.
         23    2    1    2    0    0  0.43586248215E+02  0.62262633684E+02  0.18677954385E+02  0.12098573657E+03  0.92262050094E+02 0.  0.
         23    2    1    2    0    0 -0.43586248215E+02 -0.62262633684E+02 -0.17632214593E+03  0.22915027095E+03  0.12507578081E+03 0.  0.
          5    1    4    4  502    0 -0.82752125750E+02 -0.31854542916E+02 -0.74773982671E+02  0.11606570167E+03  0.41800000000E+01 0. -1.
         -5    1    4    4    0  502  0.39165877535E+02 -0.30408090768E+02 -0.10154816326E+03  0.11308456928E+03  0.41800000000E+01 0. -1.
        -11    1    3    3    0    0  0.46137944615E+02  0.40340993788E+01 -0.20613578372E+02  0.50694215690E+02  0.00000000000E+00 0. -1.
         11    1    3    3    0    0 -0.25516963995E+01  0.58228534305E+02  0.39291532757E+02  0.70291520884E+02  0.00000000000E+00 0.  1.
</event>
<event>
 8    1  0.9181008E-006  0.1018639E+03  0.7561462E-02  0.1276425E+00
          2   -1    0    0  501    0  0.00000000000E+00  0.00000000000E+00  0.16694166883E+02  0.16694166883E+02  0.00000000000E+00 0. -1.
         -2   -1    0    0    0  501 -0.00000000000E+00 -0.00000000000E+00 -0.10843169631E+04  0.10843169631E+04  0.00000000000E+00 0.  1.
         23    2    1    2    0    0 -0.51840807194E+02  0.59655708339E+02 -0.49418128334E+03  0.50878748557E+03  0.91669470647E+02 0.  0.
         23    2    1    2    0    0  0.51840807194E+02 -0.59655708339E+02 -0.57344151285E+03  0.59222364438E+03  0.12508958179E+03 0.  0.
          5    1    4    4  502    0  0.39482818790E+02 -0.57024408236E+02 -0.12058907700E+03  0.13917569474E+03  0.41800000000E+01 0. -1.
         -5    1    4    4    0  502  0.12357988404E+02 -0.26313001035E+01 -0.45285243585E+03  0.45304794964E+03  0.41800000000E+01 0. -1.
        -11    1    3    3    0    0  0.10746216696E+02  0.57304365943E+02 -0.24864327790E+03  0.25538745305E+03  0.00000000000E+00 0.  1.
         11    1    3    3    0    0 -0.62587023890E+02  0.23513423965E+01 -0.24553800543E+03  0.25340003252E+03  0.00000000000E+00 0. -1.
</event>
<event>
 8    1  0.9181008E-006  0.1346810E+03  0.7561462E-02  0.1220671E+00
          1   -1    0    0  501    0  0.00000000000E+00  0.00000000000E+00  0.20710552721E+03  0.20710552721E+03  0.00000000000E+00 0. -1.
         -1   -1    0    0    0  501 -0.00000000000E+00 -0.00000000000E+00 -0.11077719017E+03  0.11077719017E+03  0.00000000000E+00 0.  1.
         23    2    1    2    0    0  0.83390779253E+02 -0.65057010103E+02  0.39226212910E+02  0.14440461571E+03  0.90152984602E+02 0.  0.
         23    2    1    2    0    0 -0.83390779253E+02  0.65057010103E+02  0.57102124129E+02  0.17347810166E+03  0.12509021764E+03 0.  0.
          5    1    4    4  502    0  0.17869961748E+02 -0.19957202030E+02 -0.46219641158E+01  0.27503825153E+02  0.41800000000E+01 0. -1.
         -5    1    4    4    0  502 -0.10126074100E+03  0.85014212133E+02  0.61724088245E+02  0.14597427651E+03  0.41800000000E+01 0. -1.
        -11    1    3    3    0    0  0.54626508344E+02 -0.59311728561E+02 -0.15688814331E+02  0.82146670376E+02  0.00000000000E+00 0.  1.
         11    1    3    3    0    0  0.28764270908E+02 -0.57452815419E+01  0.54915027241E+02  0.62257945339E+02  0.00000000000E+00 0. -1.
</event>
<event>
 8    1  0.9181008E-006  0.1219518E+03  0.7561462E-02  0.1239912E+00
          2   -1    0    0  501    0  0.00000000000E+00  0.00000000000E+00  0.42691293614E+03  0.42691293614E+03  0.00000000000E+00 0.  1.
         -2   -1    0    0    0  501 -0.00000000000E+00 -0.00000000000E+00 -0.52388558184E+02  0.52388558184E+02  0.00000000000E+00 0. -1.
         23    2    1    2    0    0  0.83987697037E+02  0.54525185772E+02  0.20645443563E+03  0.24709588187E+03  0.91684304596E+02 0.  0.
         23    2    1    2    0    0 -0.83987697037E+02 -0.54525185772E+02  0.16806994233E+03  0.23220561246E+03  0.12508002161E+03 0.  0.
          5    1    4    4  502    0 -0.32517997184E+02 -0.74681361484E+02  0.36346273672E+02  0.89293056302E+02  0.41800000000E+01 0.  1.
         -5    1    4    4    0  502 -0.51469699854E+02  0.20156175711E+02  0.13172366866E+03  0.14291255616E+03  0.41800000000E+01 0.  1.
        -11    1    3    3    0    0  0.48569546744E+02  0.92774287320E+01  0.17445063770E+03  0.18132318260E+03  0.00000000000E+00 0.  1.
         11    1    3    3    0    0  0.35418150293E+02  0.45247757040E+02  0.32003797932E+02  0.65772699271E+02  0.00000000000E+00 0. -1.
</event>
<event>
 8    1  0.9181008E-006  0.9197428E+02  0.7561462E-02  0.1298140E+00
          1   -1    0    0  501    0  0.00000000000E+00  0.00000000000E+00  0.78521078996E+03  0.78521078996E+03  0.00000000000E+00 0. -1.
         -1   -1    0    0    0  501 -0.00000000000E+00 -0.00000000000E+00 -0.21947747645E+02  0.21947747645E+02  0.00000000000E+00 0.  1.
         23    2    1    2    0    0  0.67391356089E+01 -0.30527235456E+02  0.13575656676E+03  0.16654232251E+03  0.91264295957E+02 0.  0.
         23    2    1    2    0    0 -0.67391356089E+01  0.30527235456E+02  0.62750647556E+03  0.64061621509E+03  0.12508968830E+03 0.  0.
          5    1    4    4  502    0  0.38807336126E+02  0.88068044333E+01  0.52260179193E+03  0.52413135231E+03  0.41800000000E+01 0. -1.
         -5    1    4    4    0  502 -0.45546471735E+02  0.21720431023E+02  0.10490468362E+03  0.11648486278E+03  0.41800000000E+01 0. -1.
        -11    1    3    3    0    0 -0.40694962453E+02 -0.15459490861E+02  0.84753912388E+02  0.95280121178E+02  0.00000000000E+00 0. -1.
         11    1    3    3    0    0  0.47434098062E+02 -0.15067744596E+02  0.51002654368E+02  0.71262201332E+02  0.00000000000E+00 0.  1.
</event>
<event>
 8    1  0.9181008E-006  0.1599210E+03  0.7561462E-02  0.1188786E+00
          2   -1    0    0  501    0  0.00000000000E+00  0.00000000000E+00  0.17190710773E+03  0.17190710773E+03  0.00000000000E+00 0. -1.
         -2   -1    0    0    0  501 -0.00000000000E+00 -0.00000000000E+00 -0.19091498128E+03  0.19091498128E+03  0.00000000000E+00 0.  1.
         23    2    1    2    0    0 -0.41503225993E+02 -0.13625999019E+03 -0.33892031402E+02  0.17266764043E+03  0.91521262912E+02 0.  0.
         23    2    1    2    0    0  0.41503225993E+02  0.13625999019E+03  0.14884157847E+02  0.19015444858E+03  0.12509146040E+03 0.  0.
          5    1    4    4  502    0 -0.56121323975E+01  0.67836353580E+02 -0.50081169631E+02  0.84610063519E+02  0.41800000000E+01 0. -1.
         -5    1    4    4    0  502  0.47115358391E+02  0.68423636611E+02  0.64965327478E+02  0.10554438506E+03  0.41800000000E+01 0. -1.
        -11    1    3    3    0    0 -0.36117381286E+02 -0.42748783259E+01 -0.31006604954E+00  0.36370811877E+02  0.00000000000E+00 0. -1.
         11    1    3    3    0    0 -0.53858447076E+01 -0.13198511186E+03 -0.33581965352E+02  0.13629682855E+03  0.00000000000E+00 0.  1.
</event>
<event>
 8    1  0.9181008E-006  0.1482277E+03  0.7561462E-02  0.1202668E+00
         -1   -1    0    0    0  501 -0.00000000000E+00  0.00000000000E+00  0.10640125757E+03  0.10640125757E+03  0.00000000000E+00 0.  1.
          1   -1    0    0  501    0  0.00000000000E+00 -0.00000000000E+00 -0.23340440680E+03  0.23340440680E+03  0.00000000000E+00 0. -1.
         23    2    1    2    0    0  0.10041292888E+03  0.40070701472E+02 -0.39756093987E+02  0.15286192771E+03  0.10048783275E+03 0.  0.
         23    2    1    2    0    0 -0.10041292888E+03 -0.40070701472E+02 -0.87247055242E+02  0.18694373667E+03  0.12508994615E+03 0.  0.
          5    1    4    4  502    0 -0.12864758670E+03 -0.38628727769E+02 -0.83258263604E+02  0.15808792184E+03  0.41800000000E+01 0. -1.
         -5    1    4    4    0  502  0.28234657823E+02 -0.14419737025E+01 -0.39887916386E+01  0.28855814826E+02  0.41800000000E+01 0. -1.
        -11    1    3    3    0    0 -0.64914930510E+01  0.24635784121E+02  0.17212609685E+02  0.30746305037E+02  0.00000000000E+00 0.  1.
         11    1    3    3    0    0  0.10690442193E+03  0.15434917351E+02 -0.56968703672E+02  0.12211562267E+03  0.00000000000E+00 0. -1.
</event>
<event>
 8    1  0.9181008E-006  0.1571621E+03  0.7561462E-02  0.1191938E+00
         -1   -1    0    0    0  501 -0.00000000000E+00  0.00000000000E+00  0.98416929295E+02  0.98416929295E+02  0.00000000000E+00 0.  1.
          1   -1    0    0  501    0  0.00000000000E+00 -0.00000000000E+00 -0.28550547676E+03  0.28550547676E+03  0.00000000000E+00 0. -1.
         23    2    1    2    0    0  0.41955249521E+02  0.10695786102E+03 -0.20420280388E+02  0.14596493681E+03  0.87684365378E+02 0.  0.
         23    2    1    2    0    0 -0.41955249521E+02 -0.10695786102E+03 -0.16666826708E+03  0.23795746925E+03  0.12508084955E+03 0.  0.
          5    1    4    4  502    0 -0.80416066755E+02 -0.34371918842E+02 -0.83569721422E+02  0.12103529789E+03  0.41800000000E+01 0.  1.
         -5    1    4    4    0  502  0.38460817234E+02 -0.72585942175E+02 -0.83098545659E+02  0.11692217136E+03  0.41800000000E+01 0.  1.
        -11    1    3    3    0    0  0.36616677562E+02 -0.80292326253E+00 -0.43899711319E+01  0.36887634893E+02  0.00000000000E+00 0.  1.
         11    1    3    3    0    0  0.53385719584E+01  0.10776078428E+03 -0.16030309256E+02  0.10907730192E+03  0.00000000000E+00 0. -1.
</event>
<event>
 8    1  0.9181008E-006  0.1341771E+03  0.7561462E-02  0.1221386E+00
          2   -1    0    0  501    0  0.00000000000E+00  0.00000000000E+00  0.39084522145E+03  0.39084522145E+03  0.00000000000E+00 0. -1.
         -2   -1    0    0    0  501 -0.00000000000E+00 -0.00000000000E+00 -0.65436568527E+02  0.65436568527E+02  0.00000000000E+00 0.  1.
         23    2    1    2    0    0  0.51227245513E+02  0.70222292622E+02  0.43722269338E+02  0.13604660907E+03  0.95087548814E+02 0.  0.
         23    2    1    2    0    0 -0.51227245513E+02 -0.70222292622E+02  0.28168638359E+03  0.32023518091E+03  0.12509177163E+03 0.  0.
          5    1    4    4  502    0 -0.36190005300E+02 -0.99914647981E+02  0.14701159743E+03  0.18144568207E+03  0.41800000000E+01 0.  1.
         -5    1    4    4    0  502 -0.15037240213E+02  0.29692355359E+02  0.13467478616E+03  0.13878949884E+03  0.41800000000E+01 0.  1.
        -11    1    3    3    0    0  0.32127385990E+02 -0.18927184171E+02  0.17415504381E+02  0.41154671959E+02  0.00000000000E+00 0. -1.
         11    1    3    3    0    0  0.19099859523E+02  0.89149476793E+02  0.26306764957E+02  0.94891937112E+02  0.00000000000E+00 0.  1.
</event>
<event>
 8    1  0.9181008E-006  0.1259581E+03  0.7561462E-02  0.1233580E+00
          2   -1    0    0  501    0  0.00000000000E+00  0.00000000000E+00  0.67594578900E+03  0.67594578900E+03  0.00000000000E+00 0. -1.
         -2   -1    0    0    0  501 -0.00000000000E+00 -0.00000000000E+00 -0.29582964176E+02  0.29582964176E+02  0.00000000000E+00 0.  1.
         23    2    1    2    0    0 -0.35507517159E+01  0.90195677368E+02  0.22470226285E+03  0.25653817810E+03  0.84692749633E+02 0.  0.
         23    2    1    2    0    0  0.35507517159E+01 -0.90195677368E+02  0.42166056198E+03  0.44899057508E+03  0.12508812464E+03 0.  0.
          5    1    4    4  502    0  0.46418455540E+02 -0.79099414348E+02  0.36806983696E+03  0.37934715980E+03  0.41800000000E+01 0.  1.
         -5    1    4    4    0  502 -0.42867703824E+02 -0.11096263020E+02  0.53590725017E+02  0.69643415281E+02  0.41800000000E+01 0.  1.
        -11    1    3    3    0    0  0.34358041607E+02  0.40062967973E+02  0.14942386521E+03  0.15847084249E+03  0.00000000000E+00 0.  1.
         11    1    3    3    0    0 -0.37908793323E+02  0.50132709395E+02  0.75278397640E+02  0.98067335610E+02  0.00000000000E+00 0. -1.
</event>
<event>
 8    1  0.9181008E-006  0.9843945E+02  0.7561462E-02  0.1283612E+00
         -2   -1    0    0    0  501 -0.00000000000E+00  0.00000000000E+00  0.13948326645E+03  0.13948326645E+03  0.00000000000E+00 0.  1.
          2   -1    0    0  501    0  0.00000000000E+00 -0.00000000000E+00 -0.10553163907E+03  0.10553163907E+03  0.00000000000E+00 0. -1.
         23    2    1    2    0    0  0.29072763790E+02 -0.44250998634E+02  0.52210140633E+02  0.11918244404E+03  0.93140644765E+02 0.  0.
         23    2    1    2    0    0 -0.29072763790E+02  0.44250998634E+02 -0.18258513253E+02  0.12583246147E+03  0.11268122550E+03 0.  0.
          5    1    4    4  502    0 -0.21085387112E+02 -0.27959134438E+02 -0.36557839816E+02  0.50796208521E+02  0.41800000000E+01 0. -1.
         -5    1    4    4    0  502 -0.79873766785E+01  0.72210133072E+02  0.18299326563E+02  0.75036252952E+02  0.41800000000E+01 0.  1.
        -11    1    3    3    0    0 -0.17957131509E+02 -0.37170836338E+02  0.58086120284E+02  0.71260978212E+02  0.00000000000E+00 0. -1.
         11    1    3    3    0    0  0.47029895299E+02 -0.70801622966E+01 -0.58759796514E+01  0.47921465825E+02  0.00000000000E+00 0.  1.
</event>
<event>
 7    1  0.9181008E-006  0.1316011E+03  0.7561462E-02  0.1225099E+00
         -2   -1    0    0    0  501 -0.00000000000E+00  0.00000000000E+00  0.30133959978E+03  0.30133959978E+03  0.00000000000E+00 0.  1.
          2   -1    0    0  501    0  0.00000000000E+00 -0.00000000000E+00 -0.10982542817E+03  0.10982542817E+03  0.00000000000E+00 0. -1.
         23    2    1    2    0    0  0.35003091130E+02  0.64987253361E+02  0.19517596074E+03  0.22812302145E+03  0.92184042950E+02 0.  0.
          5    1    1    2  502    0 -0.57772529752E+02 -0.94401061062E+02 -0.51629662384E+02  0.12219787216E+03  0.41800000000E+01 0. -1.
         -5    1    1    2    0  502  0.22769438622E+02  0.29413807700E+02  0.47967873259E+02  0.60844134340E+02  0.41800000000E+01 0.  1.
        -11    1    3    3    0    0  0.29155747045E+02 -0.16377882307E+02  0.82479350755E+02  0.89000763567E+02  0.00000000000E+00 0.  1.
         11    1    3    3    0    0  0.58473440850E+01  0.81365135668E+02  0.11269660999E+03  0.13912225788E+03  0.00000000000E+00 0. -1.
</event>
<event>
 8    1  0.9181008E-006  0.1100284E+03  0.7561462E-02  0.1260517E+00
         -2   -1    0    0    0  501 -0.00000000000E+00  0.00000000000E+00  0.25456162142E+02  0.25456162142E+02  0.00000000000E+00 0.  1.
          2   -1    0    0  501    0  0.00000000000E+00 -0.00000000000E+00 -0.51003288015E+03  0.51003288015E+03  0.00000000000E+00 0. -1.
         23    2    1    2    0    0 -0.28078941014E+02 -0.20766527302E+02 -0.21207211215E+03  0.23361905268E+03  0.91562030556E+02 0.  0.
         23    2    1    2    0    0  0.28078941014E+02  0.20766527302E+02 -0.27250460586E+03  0.30186998961E+03  0.12508818821E+03 0.  0.
          5    1    4    4  502    0  0.58349955285E+02  0.56577783968E+02 -0.15044759652E+03  0.17104886617E+03  0.41800000000E+01 0.  1.
         -5    1    4    4    0  502 -0.30271014271E+02 -0.35811256666E+02 -0.12205700934E+03  0.13082112344E+03  0.41800000000E+01 0.  1.
        -11    1    3    3    0    0 -0.31072877761E+02 -0.51807478348E+02 -0.95963621743E+02  0.11339556977E+03  0.00000000000E+00 0.  1.
         11    1    3    3    0    0  0.29939367478E+01  0.31040951046E+02 -0.11610849040E+03  0.12022348291E+03  0.00000000000E+00 0. -1.
</event>
<event>
 8    1  0.9181008E-006  0.1310909E+03  0.7561462E-02  0.1225846E+00
         -2   -1    0    0    0  501 -0.00000000000E+00  0.00000000000E+00  0.26382157837E+03  0.26382157837E+03  0.00000000000E+00 0.  1.
          2   -1    0    0  501    0  0.00000000000E+00 -0.00000000000E+00 -0.37533650700E+03  0.37533650700E+03  0.00000000000E+00 0. -1.
         23    2    1    2    0    0  0.12290909467E+02 -0.10351035003E+03  0.22720059003E+03  0.26776358108E+03  0.95977956956E+02 0.  0.
         23    2    1    2    0    0 -0.12290909467E+02  0.10351035003E+03 -0.33871551866E+03  0.37139450429E+03  0.11108652581E+03 0.  0.
          5    1    4    4  502    0 -0.40474464129E+02  0.56227091264E+01 -0.16440754371E+03  0.16946123431E+03  0.41800000000E+01 0. -1.
         -5    1    4    4    0  502  0.28183554661E+02  0.97887640900E+02 -0.17430797495E+03  0.20193326998E+03  0.41800000000E+01 0.  1.
        -11    1    3    3    0    0 -0.11872839566E+02 -0.91324271072E+02  0.22181147961E+03  0.24016956363E+03  0.00000000000E+00 0.  1.
         11    1    3    3    0    0  0.24163749033E+02 -0.12186078955E+02  0.53891104168E+01  0.27594017444E+02  0.00000000000E+00 0. -1.
</event>
<event>
 8    1  0.9181008E-006  0.1907175E+03  0.7561462E-02  0.1157816E+00
          2   -1    0    0  501    0  0.00000000000E+00  0.00000000000E+00  0.97343046321E+03  0.97343046321E+03  0.00000000000E+00 0. -1.
         -2   -1    0    0    0  501 -0.00000000000E+00 -0.00000000000E+00 -0.14281376249E+03  0.14281376249E+03  0.00000000000E+00 0.  1.
         23    2    1    2    0    0 -0.98024176040E+02 -0.14850326257E+03 -0.51194159397E+02  0.20800387375E+03  0.94777694921E+02 0.  0.
         23    2    1    2    0    0  0.98024176040E+02  0.14850326257E+03  0.88181086011E+03  0.90824035195E+03  0.12509270888E+03 0.  0.
          5    1    4    4  502    0  0.10956099747E+03  0.10877092411E+03  0.47885334099E+03  0.50314284321E+03  0.41800000000E+01 0.  1.
         -5    1    4    4    0  502 -0.11536821428E+02  0.39732338456E+02  0.40295751913E+03  0.40509750874E+03  0.41800000000E+01 0.  1.
        -11    1    3    3    0    0 -0.92653385415E+02 -0.98916730514E+02  0.13735348328E+01  0.13553986868E+03  0.00000000000E+00 0. -1.
         11    1    3    3    0    0 -0.53707906259E+01 -0.49586532056E+02 -0.52567694230E+02  0.72464005064E+02  0.00000000000E+00 0.  1.
</event>
<event>
 8    1  0.9181008E-006  0.7338761E+02  0.7561462E-02  0.1348938E+00
         -2   -1    0    0    0  501 -0.00000000000E+00  0.00000000000E+00  0.49651583143E+02  0.49651583143E+02  0.00000000000E+00 0.  1.
          2   -1    0    0  501    0  0.00000000000E+00 -0.00000000000E+00 -0.24981040383E+03  0.24981040383E+03  0.00000000000E+00 0. -1.
         23    2    1    2    0    0  0.20970853102E+02 -0.13555847303E+02 -0.71759688021E+02  0.11848348893E+03  0.90913951891E+02 0.  0.
         23    2    1    2    0    0 -0.20970853102E+02  0.13555847303E+02 -0.12839913266E+03  0.18097849804E+03  0.12507334571E+03 0.  0.
          5    1    4    4  502    0 -0.17557124623E+02  0.33253551322E+02 -0.14794654164E+03  0.15270790053E+03  0.41800000000E+01 0.  1.
         -5    1    4    4    0  502 -0.34137284790E+01 -0.19697704019E+02  0.19547408979E+02  0.28270597510E+02  0.41800000000E+01 0.  1.
        -11    1    3    3    0    0  0.13970386189E+02 -0.49738088726E+02 -0.21026757429E+02  0.55777896055E+02  0.00000000000E+00 0.  1.
         11    1    3    3    0    0  0.70004669129E+01  0.36182241423E+02 -0.50732930592E+02  0.62705592875E+02  0.00000000000E+00 0. -1.
</event>
<event>
 8    1  0.9181008E-006  0.1576838E+03  0.7561462E-02  0.1191337E+00
         -2   -1    0    0    0  501 -0.00000000000E+00  0.00000000000E+00  0.33137472410E+02  0.33137472410E+02  0.00000000000E+00 0.  1.
          2   -1    0    0  501    0  0.00000000000E+00 -0.00000000000E+00 -0.10104206095E+04  0.10104206095E+04  0.00000000000E+00 0. -1.
         23    2    1    2    0    0  0.13170665321E+03  0.60121988582E+01 -0.26773410779E+03  0.31110361726E+03  0.87869899064E+02 0.  0.
         23    2    1    2    0    0 -0.13170665321E+03 -0.60121988582E+01 -0.70954902932E+03  0.73245446467E+03  0.12508768435E+03 0.  0.
          5    1    4    4  502    0 -0.14215368850E+03  0.28752108040E+02 -0.55641198710E+03  0.57501837071E+03  0.41800000000E+01 0.  1.
         -5    1    4    4    0  502  0.10447035295E+02 -0.34764306898E+02 -0.15313704222E+03  0.15743609396E+03  0.41800000000E+01 0.  1.
        -11    1    3    3    0    0  0.10001462559E+03 -0.51178339804E+01 -0.10563348126E+03  0.14555943775E+03  0.00000000000E+00 0.  1.
         11    1    3    3    0    0  0.31692027621E+02  0.11130032839E+02 -0.16210062653E+03  0.16554417950E+03  0.00000000000E+00 0. -1.
</event>
<event>
 8    1  0.9181008E-006  0.1325950E+03  0.7561462E-02  0.1223655E+00
         -1   -1    0    0    0  501 -0.00000000000E+00  0.00000000000E+00  0.32088204169E+02  0.32088204169E+02  0.00000000000E+00 0.  1.
          1   -1    0    0  501    0  0.00000000000E+00 -0.00000000000E+00 -0.10047726667E+04  0.10047726667E+04  0.00000000000E+00 0. -1.
         23    2    1    2    0    0 -0.50077393558E+02  0.10136898157E+03 -0.21050483611E+03  0.25625493702E+03  0.92579106448E+02 0.  0.
         23    2    1    2    0    0  0.50077393558E+02 -0.10136898157E+03 -0.76217962639E+03  0.78060593382E+03  0.12507767690E+03 0.  0.
          5    1    4    4  502    0 -0.20621490769E+02  0.67817210767E+01 -0.29626976059E+03  0.29709338778E+03  0.41800000000E+01 0. -1.
         -5    1    4    4    0  502  0.70698884326E+02 -0.10815070265E+03 -0.46590986580E+03  0.48351254604E+03  0.41800000000E+01 0. -1.
        -11    1    3    3    0    0 -0.14222269151E+02  0.17195245320E+02  0.43466053522E+01  0.22734167667E+02  0.00000000000E+00 0.  1.
         11    1    3    3    0    0 -0.35855124407E+02  0.84173736250E+02 -0.21485144146E+03  0.23352076935E+03  0.00000000000E+00 0. -1.
</event>
<event>
 8    1  0.9181008E-006  0.3083087E+03  0.7561462E-02  0.1081159E+00
         -1   -1    0    0    0  501 -0.00000000000E+00  0.00000000000E+00  0.15541295214E+03  0.15541295214E+03  0.00000000000E+00 0.  1.
          1   -1    0    0  501    0  0.00000000000E+00 -0.00000000000E+00 -0.73306683161E+03  0.73306683161E+03  0.00000000000E+00 0. -1.
         23    2    1    2    0    0  0.23711267726E+03 -0.16775347090E+03 -0.11062066563E+03  0.32444964006E+03  0.93096662449E+02 0.  0.
         23    2    1    2    0    0 -0.23711267726E+03  0.16775347090E+03 -0.46703321384E+03  0.56403014369E+03  0.12508529668E+03 0.  0.
          5    1    4    4  502    0 -0.14432697475E+03  0.32072602565E+02 -0.26562258573E+03  0.30402591654E+03  0.41800000000E+01 0.  1.
         -5    1    4    4    0  502 -0.92785702503E+02  0.13568086833E+03 -0.20141062811E+03  0.26000422715E+03  0.41800000000E+01 0.  1.
        -11    1    3    3    0    0  0.21944399866E+03 -0.17912805053E+03 -0.10846145373E+03  0.30332559071E+03  0.00000000000E+00 0. -1.
         11    1    3    3    0    0  0.17668678598E+02  0.11374579629E+02 -0.21592118971E+01  0.21124049355E+02  0.00000000000E+00 0.  1.
</event>
<event>
 8    1  0.9181008E-006  0.1046339E+03  0.7561462E-02  0.1270843E+00
          2   -1    0    0  501    0  0.00000000000E+00  0.00000000000E+00  0.45209869148E+03  0.45209869148E+03  0.00000000000E+00 0. -1.
         -2   -1    0    0    0  501 -0.00000000000E+00 -0.00000000000E+00 -0.45767359179E+02  0.45767359179E+02  0.00000000000E+00 0.  1.
         23    2    1    2    0    0  0.48791346191E+00 -0.33537166784E+02  0.31777300872E+02  0.10155548284E+03  0.90436384426E+02 0.  0.
         23    2    1    2    0    0 -0.48791346191E+00  0.33537166784E+02  0.37455403143E+03  0.39631056782E+03  0.12508542718E+03 0.  0.
          5    1    4    4  502    0  0.51434248803E+02  0.46948957727E+02  0.26823906555E+03  0.27716304816E+03  0.41800000000E+01 0.  1.
         -5    1    4    4    0  502 -0.51922162265E+02 -0.13411790943E+02  0.10631496588E+03  0.11914751966E+03  0.41800000000E+01 0.  1.
        -11    1    3    3    0    0  0.24532841625E+02  0.16932540277E+02  0.34487952691E+02  0.45584976903E+02  0.00000000000E+00 0. -1.
         11    1    3    3    0    0 -0.24044928163E+02 -0.50469707061E+02 -0.27106518187E+01  0.55970505934E+02  0.00000000000E+00 0.  1.
</event>
<event>
 8    1  0.9181008E-006  0.2109545E+03  0.7561462E-02  0.1140812E+00
          1   -1    0    0  501    0  0.00000000000E+00  0.00000000000E+00  0.18332289451E+03  0.18332289451E+03  0.00000000000E+00 0. -1.
         -1   -1    0    0    0  501 -0.00000000000E+00 -0.00000000000E+00 -0.34529706944E+03  0.34529706944E+03  0.00000000000E+00 0.  1.
         23    2    1    2    0    0 -0.88808244881E+02 -0.18178732707E+03 -0.18723388822E+03  0.28941372365E+03  0.88148952883E+02 0.  0.
         23    2    1    2    0    0  0.88808244881E+02  0.18178732707E+03  0.25259713289E+02  0.23920624030E+03  0.12509210862E+03 0.  0.
          5    1    4    4  502    0  0.24674514102E+02  0.12154051042E+02  0.48911643029E+02  0.56270541376E+02  0.41800000000E+01 0. -1.
         -5    1    4    4    0  502  0.64133730779E+02  0.16963327603E+03 -0.23651929740E+02  0.18293569892E+03  0.41800000000E+01 0. -1.
        -11    1    3    3    0    0 -0.39315752932E+02 -0.14706536981E+03 -0.16625156485E+03  0.22541857563E+03  0.00000000000E+00 0.  1.
         11    1    3    3    0    0 -0.49492491949E+02 -0.34721957264E+02 -0.20982323375E+02  0.63995148018E+02  0.00000000000E+00 0. -1.
</event>
<event>
 8    1  0.9181008E-006  0.2244680E+03  0.7561462E-02  0.1130595E+00
          1   -1    0    0  501    0  0.00000000000E+00  0.00000000000E+00  0.24043581905E+04  0.24043581905E+04  0.00000000000E+00 0. -1.
         -1   -1    0    0    0  501 -0.00000000000E+00 -0.00000000000E+00 -0.26859447161E+02  0.26859447161E+02  0.00000000000E+00 0.  1.
         23    2    1    2    0    0 -0.19839727137E+03 -0.62216589715E+02  0.68947388912E+03  0.72584145735E+03  0.90770017666E+02 0.  0.
         23    2    1    2    0    0  0.19839727137E+03  0.62216589715E+02  0.16880248543E+04  0.17053761804E+04  0.12509047362E+03 0.  0.
          5    1    4    4  502    0  0.15832391488E+03  0.86262610817E+02  0.10291282091E+04  0.10448110083E+04  0.41800000000E+01 0. -1.
         -5    1    4    4    0  502  0.40073356495E+02 -0.24046021102E+02  0.65889664519E+03  0.66056517201E+03  0.41800000000E+01 0. -1.
        -11    1    3    3    0    0 -0.15201582295E+03 -0.10764677599E+02  0.54006979333E+03  0.56115957657E+03  0.00000000000E+00 0.  1.
         11    1    3    3    0    0 -0.46381448419E+02 -0.51451912116E+02  0.14940409580E+03  0.16468188078E+03  0.00000000000E+00 0. -1.
</event>
<event>
 8    1  0.9181008E-006  0.9585674E+02  0.7561462E-02  0.1289258E+00
          1   -1    0    0  501    0  0.00000000000E+00  0.00000000000E+00  0.20713648080E+03  0.20713648080E+03  0.00000000000E+00 0. -1.
         -1   -1    0    0    0  501 -0.00000000000E+00 -0.00000000000E+00 -0.90013309403E+02  0.90013309403E+02  0.00000000000E+00 0.  1.
         23    2    1    2    0    0  0.59181689598E+02 -0.35523394360E+02  0.89235734001E+01  0.11793411425E+03  0.95207359016E+02 0.  0.
         23    2    1    2    0    0 -0.59181689598E+02  0.35523394360E+02  0.10819959800E+03  0.17921567595E+03  0.12508685611E+03 0.  0.
          5    1    4    4  502    0 -0.23183117275E+02 -0.15525511876E+02  0.11296019761E+03  0.11643013824E+03  0.41800000000E+01 0.  1.
         -5    1    4    4    0  502 -0.35998572324E+02  0.51048906236E+02 -0.47605996185E+01  0.62785537713E+02  0.41800000000E+01 0.  1.
        -11    1    3    3    0    0  0.31548125820E+02  0.21055543522E+02  0.33242043792E+02  0.50434647131E+02  0.00000000000E+00 0. -1.
         11    1    3    3    0    0  0.27633563778E+02 -0.56578937882E+02 -0.24318470392E+02  0.67499467117E+02  0.00000000000E+00 0.  1.
</event>
<event>
 8    1  0.9181008E-006  0.1032264E+03  0.7561462E-02  0.1273654E+00
         -1   -1    0    0    0  501 -0.00000000000E+00  0.00000000000E+00  0.89191807631E+02  0.89191807631E+02  0.00000000000E+00 0.  1.
          1   -1    0    0  501    0  0.00000000000E+00 -0.00000000000E+00 -0.20436246542E+04  0.20436246542E+04  0.00000000000E+00 0. -1.
         23    2    1    2    0    0 -0.22047595646E+02  0.19929370432E+02  0.61915793795E+02  0.11230750197E+03  0.88860189050E+02 0.  0.
         23    2    1    2    0    0  0.22047595646E+02 -0.19929370432E+02 -0.20163486404E+04  0.20205089599E+04  0.12614016451E+03 0.  0.
          5    1    4    4  502    0  0.69022655539E+02 -0.31949191780E+02 -0.14792059360E+04  0.14811659432E+04  0.41800000000E+01 0. -1.
         -5    1    4    4    0  502 -0.46975059893E+02  0.12019821348E+02 -0.53714270443E+03  0.53934301671E+03  0.41800000000E+01 0.  1.
        -11    1    3    3    0    0  0.24590019259E+02 -0.96153361907E+01  0.48919792370E+02  0.55590195384E+02  0.00000000000E+00 0.  1.
         11    1    3    3    0    0 -0.46637614905E+02  0.29544706622E+02  0.12996001425E+02  0.56717306587E+02  0.00000000000E+00 0. -1.
</event>
<event>
 8    1  0.9181008E-006  0.1694727E+03  0.7561462E-02  0.1178399E+00
         -2   -1    0    0    0  501 -0.00000000000E+00  0.00000000000E+00  0.20585783308E+02  0.20585783308E+02  0.00000000000E+00 0.  1.
          2   -1    0    0  501    0  0.00000000000E+00 -0.00000000000E+00 -0.19568411169E+04  0.19568411169E+04  0.00000000000E+00 0. -1.
         23    2    1    2    0    0 -0.11734077302E+03 -0.90510927462E+02 -0.52462731235E+03  0.55254011655E+03  0.90031541867E+02 0.  0.
         23    2    1    2    0    0  0.11734077302E+03  0.90510927462E+02 -0.14116280212E+04  0.14248867836E+04  0.12509033092E+03 0.  0.
          5    1    4    4  502    0  0.85676234406E+02  0.10681297257E+03 -0.75826987519E+03  0.77054532915E+03  0.41800000000E+01 0.  1.
         -5    1    4    4    0  502  0.31664538611E+02 -0.16302045105E+02 -0.65335814603E+03  0.65434145449E+03  0.41800000000E+01 0.  1.
        -11    1    3    3    0    0 -0.47331419404E+02 -0.83177710537E+02 -0.22050069413E+03  0.24037335731E+03  0.00000000000E+00 0.  1.
         11    1    3    3    0    0 -0.70009353612E+02 -0.73332169243E+01 -0.30412661822E+03  0.31216675924E+03  0.00000000000E+00 0. -1.
</event>
<event>
 8    1  0.9181008E-006  0.8314215E+02  0.7561462E-02  0.1320364E+00
          1   -1    0    0  501    0  0.00000000000E+00  0.00000000000E+00  0.10373171673E+04  0.10373171673E+04  0.00000000000E+00 0. -1.
         -1   -1    0    0    0  501 -0.00000000000E+00 -0.00000000000E+00 -0.18495122041E+02  0.18495122041E+02  0.00000000000E+00 0.  1.
         23    2    1    2    0    0  0.28342923201E+02  0.39840008544E+02  0.17859266201E+03  0.20491647746E+03  0.87777424395E+02 0.  0.
         23    2    1    2    0    0 -0.28342923201E+02 -0.39840008544E+02  0.84022938328E+03  0.85089581192E+03  0.12509084152E+03 0.  0.
          5    1    4    4  502    0  0.12585711499E+02  0.21355908928E+02  0.39782213781E+02  0.47059238343E+02  0.41800000000E+01 0.  1.
         -5    1    4    4    0  502 -0.40928634700E+02 -0.61195917472E+02  0.80044716950E+03  0.80383657358E+03  0.41800000000E+01 0.  1.
        -11    1    3    3    0    0  0.94438274636E+01  0.46437707919E+02  0.17872263889E+03  0.18489842683E+03  0.00000000000E+00 0. -1.
         11    1    3    3    0    0  0.18899095737E+02 -0.65976993749E+01 -0.12997688095E+00  0.20018050622E+02  0.00000000000E+00 0.  1.
</event>
<event>
 8    1  0.9181008E-006  0.1160181E+03  0.7561462E-02  0.1249814E+00
         -1   -1    0    0    0  501 -0.00000000000E+00  0.00000000000E+00  0.23817033484E+03  0.23817033484E+03  0.00000000000E+00 0.  1.
          1   -1    0    0  501    0  0.00000000000E+00 -0.00000000000E+00 -0.96197622225E+02  0.96197622225E+02  0.00000000000E+00 0. -1.
         23    2    1    2    0    0  0.59257274792E+02 -0.32554657529E+02  0.15516002518E+03  0.19156033221E+03  0.89718989725E+02 0.  0.
         23    2    1    2    0    0 -0.59257274792E+02  0.32554657529E+02 -0.13187312566E+02  0.14280762486E+03  0.12509549218E+03 0.  0.
          5    1    4    4  502    0 -0.81682791343E+02  0.62267606478E+02 -0.20029321385E+02  0.10472812102E+03  0.41800000000E+01 0. -1.
         -5    1    4    4    0  502  0.22425516552E+02 -0.29712948949E+02  0.68420088186E+01  0.38079503838E+02  0.41800000000E+01 0. -1.
        -11    1    3    3    0    0 -0.11900374663E+02 -0.13742787109E+02  0.94354621345E+02  0.96089945800E+02  0.00000000000E+00 0.  1.
         11    1    3    3    0    0  0.71157649454E+02 -0.18811870420E+02  0.60805403839E+02  0.95470386407E+02  0.00000000000E+00 0. -1.
</event>
<event>
 8    1  0.9181008E-006  0.1131883E+03  0.7561462E-02  0.1254777E+00
          2   -1    0    0  501    0  0.00000000000E+00  0.00000000000E+00  0.13256123726E+04  0.13256123726E+04  0.00000000000E+00 0. -1.
         -2   -1    0    0    0  501 -0.00000000000E+00 -0.00000000000E+00 -0.10066699387E+02  0.10066699387E+02  0.00000000000E+00 0.  1.
         23    2    1    2    0    0 -0.13716304734E+02  0.37198523377E+02  0.48973714482E+03  0.49950735184E+03  0.89962527591E+02 0.  0.
         23    2    1    2    0    0  0.13716304734E+02 -0.37198523377E+02  0.82580852835E+03  0.83617172011E+03  0.12510616629E+03 0.  0.
          5    1    4    4  502    0  0.65936664944E+02 -0.39049353107E+02  0.56094469426E+03  0.56617039677E+03  0.41800000000E+01 0. -1.
         -5    1    4    4    0  502 -0.52220360210E+02  0.18508297303E+01  0.26486383410E+03  0.27000132334E+03  0.41800000000E+01 0. -1.
        -11    1    3    3    0    0  0.36783089914E+02  0.27157820500E+02  0.19345988115E+03  0.19878950811E+03  0.00000000000E+00 0.  1.
         11    1    3    3    0    0 -0.50499394648E+02  0.10040702877E+02  0.29627726367E+03  0.30071784374E+03  0.00000000000E+00 0. -1.
</event>
<event>
 7    1  0.9181008E-006  0.1188855E+03  0.7561462E-02  0.1244947E+00
         -2   -1    0    0    0  501 -0.00000000000E+00  0.00000000000E+00  0.71402103310E+02  0.71402103310E+02  0.00000000000E+00 0.  1.
          2   -1    0    0  501    0  0.00000000000E+00 -0.00000000000E+00 -0.67584737358E+03  0.67584737358E+03  0.00000000000E+00 0. -1.
         23    2    1    2    0    0  0.14846626939E+01  0.45231697075E+02 -0.12114446593E+03  0.15619239994E+03  0.87589802657E+02 0.  0.
          5    1    1    2  502    0  0.72057789012E+02 -0.19843719030E+02 -0.50472960397E+03  0.51025047150E+03  0.41800000000E+01 0. -1.
         -5    1    1    2    0  502 -0.73542451705E+02 -0.25387978045E+02  0.21428799624E+02  0.80806605456E+02  0.41800000000E+01 0.  1.
        -11    1    3    3    0    0 -0.28610771284E+02  0.46812855815E+02 -0.35367840693E+02  0.65275599256E+02  0.00000000000E+00 0. -1.
         11    1    3    3    0    0  0.30095433978E+02 -0.15811587395E+01 -0.85776625234E+02  0.90916800680E+02  0.00000000000E+00 0.  1.
</event>
<event>
 7    1  0.9181008E-006  0.7396774E+02  0.7561462E-02  0.1347098E+00
         -1   -1    0    0    0  501 -0.00000000000E+00  0.00000000000E+00  0.21836804962E+02  0.21836804962E+02  0.00000000000E+00 0. -1.
          1   -1    0    0  501    0  0.00000000000E+00 -0.00000000000E+00 -0.49623163167E+03  0.49623163167E+03  0.00000000000E+00 0.  1.
         23    2    1    2    0    0  0.82187855241E+00  0.10566887489E+02 -0.46833468228E+03  0.48216454753E+03  0.11416190991E+03 0.  0.
          5    1    3    3  502    0 -0.21436309999E+02  0.57361955236E+02 -0.21723990209E+03  0.22574445011E+03  0.41800000000E+01 0. -1.
         -5    1    3    3    0  502  0.22258188551E+02 -0.46795067747E+02 -0.25109478020E+03  0.25642009743E+03  0.41800000000E+01 0.  1.
        -11    1    1    2    0    0  0.12312337913E+02  0.57782881223E+01  0.13430962588E+01  0.13666974283E+02  0.00000000000E+00 0.  1.
         11    1    1    2    0    0 -0.13134216465E+02 -0.16345175612E+02 -0.74032406851E+01  0.22236914817E+02  0.00000000000E+00 0. -1.
</event>
<event>
 8    1  0.9808399E-006  0.3327935E+03  0.7561462E-02  0.1069907E+00
         -3   -1    0    0    0  501 -0.00000000000E+00  0.00000000000E+00  0.50515060912E+03  0.50515060912E+03  0.00000000000E+00 0.  1.
          3   -1    0    0  501    0  0.00000000000E+00 -0.00000000000E+00 -0.25569897055E+03  0.25569897055E+03  0.00000000000E+00 0. -1.
         23    2    1    2    0    0  0.32188144748E+03  0.19771920866E+02  0.24470886890E+03  0.41491860947E+03  0.90974869512E+02 0.  0.
         23    2    1    2    0    0 -0.32188144748E+03 -0.19771920866E+02  0.47427696740E+01  0.34593097019E+03  0.12508855737E+03 0.  0.
          5    1    4    4  502    0 -0.12162817997E+03 -0.45165401277E+02 -0.46055274838E+02  0.13773847819E+03  0.41800000000E+01 0.  1.
         -5    1    4    4    0  502 -0.20025326751E+03  0.25393480411E+02  0.50798044512E+02  0.20819249200E+03  0.41800000000E+01 0.  1.
        -11    1    3    3    0    0  0.60969534800E+02 -0.30488325285E+02  0.64638636384E+02  0.93941340558E+02  0.00000000000E+00 0.  1.
         11    1    3    3    0    0  0.26091191268E+03  0.50260246152E+02  0.18007023252E+03  0.32097726892E+03  0.00000000000E+00 0. -1.
</event>
<event>
 8    1  0.9181008E-006  0.1244480E+03  0.7561462E-02  0.1235935E+00
         -1   -1    0    0    0  501 -0.00000000000E+00  0.00000000000E+00  0.94612405808E+02  0.94612405808E+02  0.00000000000E+00 0.  1.
          1   -1    0    0  501    0  0.00000000000E+00 -0.00000000000E+00 -0.22639576544E+03  0.22639576544E+03  0.00000000000E+00 0. -1.
         23    2    1    2    0    0 -0.75565057251E+02  0.53061988182E+02 -0.22899669639E+02  0.13120055091E+03  0.90352295062E+02 0.  0.
         23    2    1    2    0    0  0.75565057251E+02 -0.53061988182E+02 -0.10888368999E+03  0.18980762033E+03  0.12508246209E+03 0.  0.
          5    1    4    4  502    0  0.66651887381E+02  0.57292034067E+01 -0.11154914214E+03  0.13013831633E+03  0.41800000000E+01 0.  1.
         -5    1    4    4    0  502  0.89131698693E+01 -0.58791191589E+02  0.26654521529E+01  0.59669304008E+02  0.41800000000E+01 0.  1.
        -11    1    3    3    0    0 -0.82607328745E+02  0.15509161750E+02  0.45205434943E+01  0.84172086668E+02  0.00000000000E+00 0.  1.
         11    1    3    3    0    0  0.70422714946E+01  0.37552826432E+02 -0.27420213133E+02  0.47028464244E+02  0.00000000000E+00 0. -1.
</event>
<event>
 8    1  0.9181008E-006  0.9226231E+02  0.7561462E-02  0.1297464E+00
         -1   -1    0    0    0  501 -0.00000000000E+00  0.00000000000E+00  0.79531081146E+02  0.79531081146E+02  0.00000000000E+00 0.  1.
          1   -1    0    0  501    0  0.00000000000E+00 -0.00000000000E+00 -0.26574489005E+03  0.26574489005E+03  0.00000000000E+00 0. -1.
         23    2    1    2    0    0  0.57659999355E+02 -0.18216522927E+01  0.18848915454E+02  0.98240727475E+02  0.77252604994E+02 0.  0.
         23    2    1    2    0    0 -0.57659999355E+02  0.18216522927E+01 -0.20506272436E+03  0.24703524372E+03  0.12509075416E+03 0.  0.
          5    1    4    4  502    0 -0.66104564323E+01 -0.29140663514E+02  0.32016230100E+01  0.30341377592E+02  0.41800000000E+01 0. -1.
         -5    1    4    4    0  502 -0.51049542922E+02  0.30962315807E+02 -0.20826434737E+03  0.21669386613E+03  0.41800000000E+01 0. -1.
        -11    1    3    3    0    0  0.24944025197E+02  0.36439869842E+02  0.18551865491E+02  0.47898227737E+02  0.00000000000E+00 0.  1.
         11    1    3    3    0    0  0.32715974158E+02 -0.38261522135E+02  0.29704996279E+00  0.50342499738E+02  0.00000000000E+00 0. -1.
</event>
<event>
 8    1  0.9181008E-006  0.9222800E+02  0.7561462E-02  0.1297544E+00
          2   -1    0    0  501    0  0.00000000000E+00  0.00000000000E+00  0.45809992323E+03  0.45809992323E+03  0.00000000000E+00 0. -1.
         -2   -1    0    0    0  501 -0.00000000000E+00 -0.00000000000E+00 -0.26972015919E+02  0.26972015919E+02  0.00000000000E+00 0.  1.
         23    2    1    2    0    0  0.13616548844E+02  0.13082787363E+02  0.14475721927E+03  0.17200265244E+03  0.90959827335E+02 0.  0.
         23    2    1    2    0    0 -0.13616548844E+02 -0.13082787363E+02  0.28637068805E+03  0.31306928671E+03  0.12509051756E+03 0.  0.
          5    1    4    4  502    0  0.53175408251E+02  0.96672895063E+01  0.14949975858E+03  0.15902430866E+03  0.41800000000E+01 0. -1.
         -5    1    4    4    0  502 -0.66791957095E+02 -0.22750076870E+02  0.13687092947E+03  0.15404497805E+03  0.41800000000E+01 0. -1.
        -11    1    3    3    0    0 -0.20641810365E+02 -0.43951040394E+01 -0.11265170928E+01  0.21134576301E+02  0.00000000000E+00 0.  1.
         11    1    3    3    0    0  0.34258359209E+02  0.17477891403E+02  0.14588373636E+03  0.15086807614E+03  0.00000000000E+00 0. -1.
</event>
<event>
 8    1  0.9181008E-006  0.1174935E+03  0.7561462E-02  0.1247290E+00
          1   -1    0    0  501    0  0.00000000000E+00  0.00000000000E+00  0.72698378642E+03  0.72698378642E+03  0.00000000000E+00 0. -1.
         -1   -1    0    0    0  501 -0.00000000000E+00 -0.00000000000E+00 -0.30499697086E+02  0.30499697086E+02  0.00000000000E+00 0.  1.
         23    2    1    2    0    0  0.47930527570E+02 -0.47619645272E+02  0.12976426639E+03  0.17320342067E+03  0.92712965710E+02 0.  0.
         23    2    1    2    0    0 -0.47930527570E+02  0.47619645272E+02  0.56671982295E+03  0.58428006284E+03  0.12508744150E+03 0.  0.
          5    1    4    4  502    0  0.33050041493E+02 -0.17988878759E+02  0.15231710098E+03  0.15695182909E+03  0.41800000000E+01 0. -1.
         -5    1    4    4    0  502 -0.80980569063E+02  0.65608524031E+02  0.41440272196E+03  0.42732823375E+03  0.41800000000E+01 0. -1.
        -11    1    3    3    0    0  0.61226765936E+02 -0.50321810033E+02  0.53215398608E+02  0.95461406238E+02  0.00000000000E+00 0.  1.
         11    1    3    3    0    0 -0.13296238366E+02  0.27021647608E+01  0.76548867781E+02  0.77742014430E+02  0.00000000000E+00 0. -1.
</event>
<event>
 8    1  0.9181008E-006  0.9557121E+02  0.7561462E-02  0.1289895E+00
          1   -1    0    0  501    0  0.00000000000E+00  0.00000000000E+00  0.94274405300E+03  0.94274405300E+03  0.00000000000E+00 0. -1.
         -1   -1    0    0    0  501 -0.00000000000E+00 -0.00000000000E+00 -0.13429816916E+02  0.13429816916E+02  0.00000000000E+00 0.  1.
         23    2    1    2    0    0  0.86621408635E+01  0.35288639962E+02  0.34361351919E+03  0.35616221809E+03  0.86376815365E+02 0.  0.
         23    2    1    2    0    0 -0.86621408635E+01 -0.35288639962E+02  0.58570071689E+03  0.60001165182E+03  0.12509329222E+03 0.  0.
          5    1    4    4  502    0  0.15707688858E+02 -0.60211862378E+02  0.14409808596E+03  0.15701570189E+03  0.41800000000E+01 0.  1.
         -5    1    4    4    0  502 -0.24369829721E+02  0.24923222416E+02  0.44160263092E+03  0.44299594993E+03  0.41800000000E+01 0.  1.
        -11    1    3    3    0    0 -0.20255755409E+02  0.55039624520E+02  0.22018592712E+03  0.22786289385E+03  0.00000000000E+00 0. -1.
         11    1    3    3    0    0  0.28917896273E+02 -0.19750984558E+02  0.12342759207E+03  0.12829932424E+03  0.00000000000E+00 0.  1.
</event>
<event>
 8    1  0.9181008E-006  0.1024887E+03  0.7561462E-02  0.1275148E+00
          2   -1    0    0  501    0  0.00000000000E+00  0.00000000000E+00  0.36775137963E+03  0.36775137963E+03  0.00000000000E+00 0. -1.
         -2   -1    0    0    0  501 -0.00000000000E+00 -0.00000000000E+00 -0.66808960534E+02  0.66808960534E+02  0.00000000000E+00 0.  1.
         23    2    1    2    0    0 -0.57143256148E+00 -0.72606591029E+02  0.19653934165E+02  0.11826437627E+03  0.91258654217E+02 0.  0.
         23    2    1    2    0    0  0.57143256148E+00  0.72606591029E+02  0.28128848493E+03  0.31629596389E+03  0.12509149223E+03 0.  0.
          5    1    4    4  502    0  0.44969692598E+02  0.42323432499E+02  0.24147692345E+03  0.24928321875E+03  0.41800000000E+01 0. -1.
         -5    1    4    4    0  502 -0.44398260036E+02  0.30283158529E+02  0.39811561478E+02  0.67012745146E+02  0.41800000000E+01 0. -1.
        -11    1    3    3    0    0 -0.25338831442E+02 -0.25456748248E+02 -0.28972034915E+02  0.46146302315E+02  0.00000000000E+00 0.  1.
         11    1    3    3    0    0  0.24767398881E+02 -0.47149842781E+02  0.48625969079E+02  0.72118073951E+02  0.00000000000E+00 0. -1.
</event>
<event>
 7    1  0.9181008E-006  0.1411833E+03  0.7561462E-02  0.1211746E+00
          2   -1    0    0  501    0  0.00000000000E+00  0.00000000000E+00  0.13478445640E+03  0.13478445640E+03  0.00000000000E+00 0. -1.
         -2   -1    0    0    0  501 -0.00000000000E+00 -0.00000000000E+00 -0.18144360452E+03  0.18144360452E+03  0.00000000000E+00 0.  1.
         23    2    1    2    0    0 -0.39445520472E+02 -0.26843719517E+02 -0.40223931630E+02  0.11425766098E+03  0.95709529589E+02 0.  0.
          5    1    1    2  502    0  0.63988254243E+02  0.96024508205E+02  0.30871488541E+02  0.11952290183E+03  0.41800000000E+01 0. -1.
         -5    1    1    2    0  502 -0.24542733771E+02 -0.69180788688E+02 -0.37306705036E+02  0.82447498113E+02  0.41800000000E+01 0.  1.
        -11    1    3    3    0    0 -0.21440781260E+02 -0.55519509267E+02 -0.51361051784E+02  0.78613488986E+02  0.00000000000E+00 0.  1.
         11    1    3    3    0    0 -0.18004739212E+02  0.28675789750E+02  0.11137120153E+02  0.35644171994E+02  0.00000000000E+00 0. -1.
</event>
<event>
 8    1  0.9181008E-006  0.1110158E+03  0.7561462E-02  0.1258700E+00
          1   -1    0    0  501    0  0.00000000000E+00  0.00000000000E+00  0.23697187127E+03  0.23697187127E+03  0.00000000000E+00 0. -1.
         -1   -1    0    0    0  501 -0.00000000000E+00 -0.00000000000E+00 -0.66926924543E+02  0.66926924543E+02  0.00000000000E+00 0.  1.
         23    2    1    2    0    0  0.50799014313E+02  0.77683844078E+01  0.30597567382E+02  0.10964299060E+03  0.91893887756E+02 0.  0.
         23    2    1    2    0    0 -0.50799014313E+02 -0.77683844078E+01  0.13944737935E+03  0.19425580521E+03  0.12509539800E+03 0.  0.
          5    1    4    4  502    0  0.37855046040E+02 -0.71108530875E+00  0.75734928183E+02  0.84774771600E+02  0.41800000000E+01 0.  1.
         -5    1    4    4    0  502 -0.88654060353E+02 -0.70572990990E+01  0.63712451165E+02  0.10948103361E+03  0.41800000000E+01 0.  1.
        -11    1    3    3    0    0 -0.39925190786E+01  0.33948326310E+02 -0.11146752970E+02  0.35953847772E+02  0.00000000000E+00 0.  1.
         11    1    3    3    0    0  0.54791533392E+02 -0.26179941902E+02  0.41744320352E+02  0.73689142830E+02  0.00000000000E+00 0. -1.
</event>
<event>
 8    1  0.9181008E-006  0.9204808E+02  0.7561462E-02  0.1297966E+00
          3   -1    0    0  501    0  0.00000000000E+00  0.00000000000E+00  0.44790612632E+02  0.44790612632E+02  0.00000000000E+00 0. -1.
         -3   -1    0    0    0  501 -0.00000000000E+00 -0.00000000000E+00 -0.28257638419E+03  0.28257638419E+03  0.00000000000E+00 0.  1.
         23    2    1    2    0    0 -0.24281718479E+02 -0.63595479964E+01 -0.12734784531E+03  0.15861929010E+03  0.91173240496E+02 0.  0.
         23    2    1    2    0    0  0.24281718479E+02  0.63595479964E+01 -0.11043792625E+03  0.16874770672E+03  0.12509679160E+03 0.  0.
          5    1    4    4  502    0 -0.32047979408E+02  0.12457873942E+02 -0.10628123415E+03  0.11178302527E+03  0.41800000000E+01 0.  1.
         -5    1    4    4    0  502  0.56329697886E+02 -0.60983259458E+01 -0.41566920970E+01  0.56964681448E+02  0.41800000000E+01 0.  1.
        -11    1    3    3    0    0 -0.20132791636E+02 -0.47346716740E+02 -0.54633336645E+02  0.75045601857E+02  0.00000000000E+00 0. -1.
         11    1    3    3    0    0 -0.41489268432E+01  0.40987168744E+02 -0.72714508664E+02  0.83573688238E+02  0.00000000000E+00 0.  1.
</event>
<event>
 8    1  0.9181008E-006  0.1031973E+03  0.7561462E-02  0.1273713E+00
         -2   -1    0    0    0  501 -0.00000000000E+00  0.00000000000E+00  0.58329213543E+02  0.58329213543E+02  0.00000000000E+00 0. -1.
          2   -1    0    0  501    0  0.00000000000E+00 -0.00000000000E+00 -0.31157992675E+03  0.31157992675E+03  0.00000000000E+00 0.  1.
         23    2    1    2    0    0 -0.65547494966E+02 -0.49727667720E+01 -0.28051803854E+02  0.10404540059E+03  0.75613088674E+02 0.  0.
         23    2    1    2    0    0  0.65547494966E+02  0.49727667720E+01 -0.22519890936E+03  0.26586373971E+03  0.12509107406E+03 0.  0.
          5    1    4    4  502    0  0.89431131267E+02 -0.15658492128E+02 -0.93592045264E+02  0.13046094800E+03  0.41800000000E+01 0.  1.
         -5    1    4    4    0  502 -0.23883636301E+02  0.20631258900E+02 -0.13160686409E+03  0.13540279171E+03  0.41800000000E+01 0.  1.
        -11    1    3    3    0    0 -0.62877871246E+02 -0.21863115816E+02 -0.44695361814E+02  0.80182902749E+02  0.00000000000E+00 0. -1.
         11    1    3    3    0    0 -0.26696237196E+01  0.16890349044E+02  0.16643557960E+02  0.23862497841E+02  0.00000000000E+00 0.  1.
</event>
<event>
 8    1  0.9181008E-006  0.1734148E+03  0.7561462E-02  0.1174333E+00
          2   -1    0    0  501    0  0.00000000000E+00  0.00000000000E+00  0.58870360150E+03  0.58870360150E+03  0.00000000000E+00 0.  1.
         -2   -1    0    0    0  501 -0.00000000000E+00 -0.00000000000E+00 -0.57337031798E+02  0.57337031798E+02  0.00000000000E+00 0. -1.
         23    2    1    2    0    0  0.14639703957E+03  0.78158809831E+01  0.22349605955E+03  0.28281731759E+03  0.92422753176E+02 0.  0.
         23    2    1    2    0    0 -0.14639703957E+03 -0.78158809831E+01  0.30787051016E+03  0.36322331571E+03  0.12511492661E+03 0.  0.
          5    1    4    4  502    0 -0.16333360829E+03  0.14858053149E+02  0.26546218001E+03  0.31206773425E+03  0.41800000000E+01 0. -1.
         -5    1    4    4    0  502  0.16936568723E+02 -0.22673934133E+02  0.42408330146E+02  0.51155581464E+02  0.41800000000E+01 0. -1.
        -11    1    3    3    0    0  0.91629584027E+02 -0.18372680940E+02  0.19397465399E+03  0.21531303366E+03  0.00000000000E+00 0.  1.
         11    1    3    3    0    0  0.54767455545E+02  0.26188561924E+02  0.29521405555E+02  0.67504283926E+02  0.00000000000E+00 0. -1.
</event>
<event>
 8    1  0.9181008E-006  0.1309371E+03  0.7561462E-02  0.1226072E+00
         -2   -1    0    0    0  501 -0.00000000000E+00  0.00000000000E+00  0.29204218679E+02  0.29204218679E+02  0.00000000000E+00 0. -1.
          2   -1    0    0  501    0  0.00000000000E+00 -0.00000000000E+00 -0.83443023802E+03  0.83443023802E+03  0.00000000000E+00 0.  1.
         23    2    1    2    0    0  0.10751202246E+03  0.38433452855E+02 -0.36198848003E+03  0.38914201301E+03  0.85789750800E+02 0.  0.
         23    2    1    2    0    0 -0.10751202246E+03 -0.38433452855E+02 -0.44323753931E+03  0.47449244369E+03  0.12509035771E+03 0.  0.
          5    1    4    4  502    0 -0.73257070628E+02 -0.44775651837E+02 -0.11092523243E+03  0.14033295046E+03  0.41800000000E+01 0. -1.
         -5    1    4    4    0  502 -0.34254951834E+02  0.63421989818E+01 -0.33231230688E+03  0.33415949323E+03  0.41800000000E+01 0. -1.
        -11    1    3    3    0    0 -0.10331599778E+02  0.18671179449E+02 -0.34846189325E+02  0.40860883574E+02  0.00000000000E+00 0.  1.
         11    1    3    3    0    0  0.11784362224E+03  0.19762273405E+02 -0.32714229071E+03  0.34828112944E+03  0.00000000000E+00 0. -1.
</event>
<event>
 8    1  0.9181008E-006  0.8007053E+02  0.7561462E-02  0.1328851E+00
         -2   -1    0    0    0  501 -0.00000000000E+00  0.00000000000E+00  0.81085981611E+02  0.81085981611E+02  0.00000000000E+00 0.  1.
          2   -1    0    0  501    0  0.00000000000E+00 -0.00000000000E+00 -0.19560210035E+03  0.19560210035E+03  0.00000000000E+00 0. -1.
         23    2    1    2    0    0 -0.16549627229E+02  0.43309347216E+02 -0.58970656973E+01  0.10465566923E+03  0.93639970096E+02 0.  0.
         23    2    1    2    0    0  0.16549627229E+02 -0.43309347216E+02 -0.10861905304E+03  0.17203241274E+03  0.12508981825E+03 0.  0.
          5    1    4    4  502    0  0.56394346329E+02 -0.16994562542E+02 -0.67276203321E+01  0.59429544245E+02  0.41800000000E+01 0.  1.
         -5    1    4    4    0  502 -0.39844719100E+02 -0.26314784674E+02 -0.10189143271E+03  0.11260286849E+03  0.41800000000E+01 0.  1.
        -11    1    3    3    0    0  0.78676174341E+00  0.32961817498E+02  0.41578884528E+02  0.53065092531E+02  0.00000000000E+00 0.  1.
         11    1    3    3    0    0 -0.17336388972E+02  0.10347529718E+02 -0.47475950225E+02  0.51590576694E+02  0.00000000000E+00 0. -1.
</event>
<event>
 8    1  0.9181008E-006  0.1089705E+03  0.7561462E-02  0.1262488E+00
          2   -1    0    0  501    0  0.00000000000E+00  0.00000000000E+00  0.17869900149E+04  0.17869900149E+04  0.00000000000E+00 0. -1.
         -2   -1    0    0    0  501 -0.00000000000E+00 -0.00000000000E+00 -0.93457947209E+01  0.93457947209E+01  0.00000000000E+00 0.  1.
         23    2    1    2    0    0 -0.24281822518E+02  0.39756880445E+02  0.45262317664E+03  0.46460850112E+03  0.93931373004E+02 0.  0.
         23    2    1    2    0    0  0.24281822518E+02 -0.39756880445E+02  0.13250210436E+04  0.13317273085E+04  0.12508653779E+03 0.  0.
          5    1    4    4  502    0  0.63113716746E+02 -0.53968448949E+02  0.62977047959E+03  0.63523559730E+03  0.41800000000E+01 0. -1.
         -5    1    4    4    0  502 -0.38831894229E+02  0.14211568504E+02  0.69525056398E+03  0.69649171122E+03  0.41800000000E+01 0. -1.
        -11    1    3    3    0    0  0.13432907885E+02 -0.19086849958E+02  0.41732421507E+02  0.47815749083E+02  0.00000000000E+00 0.  1.
         11    1    3    3    0    0 -0.37714730402E+02  0.58843730403E+02  0.41089075513E+03  0.41679275204E+03  0.00000000000E+00 0. -1.
</event>
<event>
 8    1  0.9181008E-006  0.1114126E+03  0.7561462E-02  0.1257976E+00
         -3   -1    0    0    0  501 -0.00000000000E+00  0.00000000000E+00  0.39708915988E+02  0.39708915988E+02  0.00000000000E+00 0.  1.
          3   -1    0    0  501    0  0.00000000000E+00 -0.00000000000E+00 -0.46859718431E+03  0.46859718431E+03  0.00000000000E+00 0. -1.
         23    2    1    2    0    0 -0.34501159646E+02 -0.91005323841E+01 -0.74390234546E+02  0.13069676216E+03  0.10136363715E+03 0.  0.
         23    2    1    2    0    0  0.34501159646E+02  0.91005323841E+01 -0.35449803378E+03  0.37760933814E+03  0.12508719595E+03 0.  0.
          5    1    4    4  502    0  0.23101829776E+02 -0.57629343714E+02 -0.17320029437E+03  0.18403980593E+03  0.41800000000E+01 0. -1.
         -5    1    4    4    0  502  0.11399329871E+02  0.66729876098E+02 -0.18129773941E+03  0.19356953221E+03  0.41800000000E+01 0. -1.
        -11    1    3    3    0    0 -0.59372364564E+02 -0.23704977650E+02 -0.78851800211E+02  0.10151162513E+03  0.00000000000E+00 0. -1.
         11    1    3    3    0    0  0.24871204918E+02  0.14604445266E+02  0.44615656649E+01  0.29185137035E+02  0.00000000000E+00 0.  1.
</event>
<event>
 8    1  0.9181008E-006  0.1021276E+03  0.7561462E-02  0.1275884E+00
         -2   -1    0    0    0  501 -0.00000000000E+00  0.00000000000E+00  0.19051367599E+02  0.19051367599E+02  0.00000000000E+00 0.  1.
          2   -1    0    0  501    0  0.00000000000E+00 -0.00000000000E+00 -0.69421970088E+03  0.69421970088E+03  0.00000000000E+00 0. -1.
         23    2    1    2    0    0  0.29828225708E+02 -0.16782226851E+02 -0.35328044274E+03  0.36623942102E+03  0.90293278272E+02 0.  0.
         23    2    1    2    0    0 -0.29828225708E+02  0.16782226851E+02 -0.32188789054E+03  0.34703164746E+03  0.12509110309E+03 0.  0.
          5    1    4    4  502    0  0.26526711881E+02  0.46122066649E+02 -0.74906498952E+02  0.91974819708E+02  0.41800000000E+01 0. -1.
         -5    1    4    4    0  502 -0.56354937589E+02 -0.29339839798E+02 -0.24698139159E+03  0.25505682775E+03  0.41800000000E+01 0. -1.
        -11    1    3    3    0    0  0.32043851660E+01  0.31721168883E+02 -0.61645945451E+02  0.69402616882E+02  0.00000000000E+00 0.  1.
         11    1    3    3    0    0  0.26623840542E+02 -0.48503395734E+02 -0.29163449729E+03  0.29683680414E+03  0.00000000000E+00 0. -1.
</event>
<event>
 8    1  0.9181008E-006  0.1376913E+03  0.7561462E-02  0.1216470E+00
          1   -1    0    0  501    0  0.00000000000E+00  0.00000000000E+00  0.31194058664E+03  0.31194058664E+03  0.00000000000E+00 0. -1.
         -1   -1    0    0    0  501 -0.00000000000E+00 -0.00000000000E+00 -0.63778763148E+02  0.63778763148E+02  0.00000000000E+00 0.  1.
         23    2    1    2    0    0 -0.44502936660E+02  0.66592747861E+02  0.11728774506E+03  0.17775288068E+03  0.10688576149E+03 0.  0.
         23    2    1    2    0    0  0.44502936660E+02 -0.66592747861E+02  0.13087407844E+03  0.19796646911E+03  0.12509033954E+03 0.  0.
          5    1    4    4  502    0 -0.44694042692E+01  0.35072035168E+02  0.30358140424E+02  0.46787950536E+02  0.41800000000E+01 0.  1.
         -5    1    4    4    0  502  0.48972340929E+02 -0.10166478303E+03  0.10051593802E+03  0.15117851858E+03  0.41800000000E+01 0.  1.
        -11    1    3    3    0    0 -0.47895076931E+02 -0.11040325691E+02  0.73902272196E+02  0.88754566200E+02  0.00000000000E+00 0.  1.
         11    1    3    3    0    0  0.33921402713E+01  0.77633073551E+02  0.43385472860E+02  0.88998314478E+02  0.00000000000E+00 0. -1.
</event>
<event>
 8    1  0.9181008E-006  0.1074827E+03  0.7561462E-02  0.1265304E+00
         -2   -1    0    0    0  501 -0.00000000000E+00  0.00000000000E+00  0.13643571749E+03  0.13643571749E+03  0.00000000000E+00 0. -1.
          2   -1    0    0  501    0  0.00000000000E+00 -0.00000000000E+00 -0.12183377000E+03  0.12183377000E+03  0.00000000000E+00 0.  1.
         23    2    1    2    0    0  0.87248163454E+01 -0.49010948055E+02  0.43254777031E+02  0.12061199051E+03  0.10098554881E+03 0.  0.
         23    2    1    2    0    0 -0.87248163454E+01  0.49010948055E+02 -0.28652829545E+02  0.13765749698E+03  0.12510158426E+03 0.  0.
          5    1    4    4  502    0  0.16056102565E+01  0.86577948214E+02  0.38025765893E+01  0.86777019365E+02  0.41800000000E+01 0.  1.
         -5    1    4    4    0  502 -0.10330426602E+02 -0.37567000159E+02 -0.32455406134E+02  0.50880477612E+02  0.41800000000E+01 0.  1.
        -11    1    3    3    0    0  0.33339295204E+02  0.99148718528E+00  0.54366532827E+02  0.63782533214E+02  0.00000000000E+00 0. -1.
         11    1    3    3    0    0 -0.24614478859E+02 -0.50002435240E+02 -0.11111755796E+02  0.56829457294E+02  0.00000000000E+00 0.  1.
</event>
<event>
 6    1  0.9181008E-006  0.1205982E+03  0.7561462E-02  0.1242113E+00
         -1   -1    0    0    0  501 -0.00000000000E+00  0.00000000000E+00  0.67935510547E+03  0.67935510547E+03  0.00000000000E+00 0.  1.
          1   -1    0    0  501    0  0.00000000000E+00 -0.00000000000E+00 -0.51293167321E+02  0.51293167321E+02  0.00000000000E+00 0. -1.
          5    1    1    2  502    0  0.14647441527E+02  0.26776770968E+02 -0.27483172499E+02  0.41283655087E+02  0.41800000000E+01 0. -1.
         -5    1    1    2    0  502 -0.31328034304E+02 -0.34286528646E+02  0.11437557620E+03  0.12351622004E+03  0.41800000000E+01 0.  1.
        -11    1    1    2    0    0 -0.72389204353E+02 -0.97173416622E+01  0.20373884906E+03  0.21643507630E+03  0.00000000000E+00 0.  1.
         11    1    1    2    0    0  0.89069797130E+02  0.17227099340E+02  0.33743068539E+03  0.34941332138E+03  0.00000000000E+00 0. -1.
</event>
<event>
 8    1  0.1192935E-005  0.1172568E+03  0.7561462E-02  0.1247692E+00
         -1   -1    0    0    0  501 -0.00000000000E+00  0.00000000000E+00  0.20135782217E+02  0.20135782217E+02  0.00000000000E+00 0.  1.
          1   -1    0    0  501    0  0.00000000000E+00 -0.00000000000E+00 -0.10870175727E+04  0.10870175727E+04  0.00000000000E+00 0. -1.
         23    2    1    2    0    0 -0.94809492192E+02  0.54968427927E+01 -0.40181408408E+03  0.42379284384E+03  0.95534084119E+02 0.  0.
         23    2    1    2    0    0  0.94809492192E+02 -0.54968427927E+01 -0.66506770639E+03  0.68336051107E+03  0.12508988335E+03 0.  0.
          5    1    4    4  502    0  0.45577033317E+02 -0.34815966684E+02 -0.99812742240E+02  0.11519320039E+03  0.41800000000E+01 0. -1.
         -5    1    4    4    0  502  0.49232458875E+02  0.29319123891E+02 -0.56525496415E+03  0.56816731068E+03  0.41800000000E+01 0. -1.
        -11    1    3    3    0    0 -0.57809408703E+02 -0.32665567920E+02 -0.12127713665E+03  0.13826464094E+03  0.00000000000E+00 0.  1.
         11    1    3    3    0    0 -0.37000083489E+02  0.38162410713E+02 -0.28053694744E+03  0.28552820289E+03  0.00000000000E+00 0. -1.
</event>
<event>
 8    1  0.1067757E-005  0.1594214E+03  0.7561462E-02  0.1189352E+00
          2   -1    0    0  501    0  0.00000000000E+00  0.00000000000E+00  0.56100202176E+03  0.56100202176E+03  0.00000000000E+00 0. -1.
         -2   -1    0    0    0  501 -0.00000000000E+00 -0.00000000000E+00 -0.46990832861E+02  0.46990832861E+02  0.00000000000E+00 0.  1.
         23    2    1    2    0    0 -0.11990644543E+03 -0.35209056513E+02  0.23879945379E+03  0.28087567096E+03  0.79048909498E+02 0.  0.
         23    2    1    2    0    0  0.11990644543E+03  0.35209056513E+02  0.27521173511E+03  0.32711718366E+03  0.12508764681E+03 0.  0.
          5    1    4    4  502    0  0.14301340520E+03  0.20333014675E+02  0.25368643550E+03  0.29195983544E+03  0.41800000000E+01 0. -1.
         -5    1    4    4    0  502 -0.23106959767E+02  0.14876041838E+02  0.21525299609E+02  0.35157348218E+02  0.41800000000E+01 0. -1.
        -11    1    3    3    0    0 -0.40464150663E+02  0.24366259244E+02  0.60095647643E+02  0.76436568108E+02  0.00000000000E+00 0.  1.
         11    1    3    3    0    0 -0.79442294769E+02 -0.59575315757E+02  0.17870380614E+03  0.20443910285E+03  0.00000000000E+00 0. -1.
</event>
<event>
 8    1  0.9181008E-006  0.8266416E+02  0.7561462E-02  0.1321657E+00
         -4   -1    0    0    0  501 -0.00000000000E+00  0.00000000000E+00  0.20882915479E+03  0.20882915479E+03  0.00000000000E+00 0. -1.
          4   -1    0    0  501    0  0.00000000000E+00 -0.00000000000E+00 -0.12632019021E+03  0.12632019021E+03  0.00000000000E+00 0.  1.
         23    2    1    2    0    0 -0.77606510840E+01  0.37154607550E+02  0.15337458904E+03  0.18645726451E+03  0.99004314838E+02 0.  0.
         23    2    1    2    0    0  0.77606510840E+01 -0.37154607550E+02 -0.70865624467E+02  0.14869208050E+03  0.12508679188E+03 0.  0.
          5    1    4    4  502    0 -0.21089507684E+02 -0.16641294216E+02 -0.99388195688E+02  0.10303972947E+03  0.41800000000E+01 0.  1.
         -5    1    4    4    0  502  0.28850158768E+02 -0.20513313334E+02  0.28522571221E+02  0.45652351023E+02  0.41800000000E+01 0.  1.
        -11    1    3    3    0    0  0.42359154583E+02  0.43227970859E+01  0.88119919341E+02  0.97867792130E+02  0.00000000000E+00 0. -1.
         11    1    3    3    0    0 -0.50119805667E+02  0.32831810464E+02  0.65254669701E+02  0.88589472378E+02  0.00000000000E+00 0.  1.
</event>
<event>
 8    1  0.9181008E-006  0.2155700E+03  0.7561462E-02  0.1137230E+00
         -2   -1    0    0    0  501 -0.00000000000E+00  0.00000000000E+00  0.74068617565E+02  0.74068617565E+02  0.00000000000E+00 0.  1.
          2   -1    0    0  501    0  0.00000000000E+00 -0.00000000000E+00 -0.67110197778E+03  0.67110197778E+03  0.00000000000E+00 0. -1.
         23    2    1    2    0    0 -0.18421206348E+03 -0.56379234845E+02 -0.23568671118E+03  0.31699612460E+03  0.88462504635E+02 0.  0.
         23    2    1    2    0    0  0.18421206348E+03  0.56379234845E+02 -0.36134664903E+03  0.42817447075E+03  0.12509705904E+03 0.  0.
          5    1    4    4  502    0  0.19846309715E+03  0.37178415825E+02 -0.34180718516E+03  0.39701317328E+03  0.41800000000E+01 0.  1.
         -5    1    4    4    0  502 -0.14251033661E+02  0.19200819020E+02 -0.19539463870E+02  0.31161297466E+02  0.41800000000E+01 0.  1.
        -11    1    3    3    0    0 -0.52761801107E+02 -0.50947451042E+02 -0.12561793650E+03  0.14546242262E+03  0.00000000000E+00 0.  1.
         11    1    3    3    0    0 -0.13145026238E+03 -0.54317838035E+01 -0.11006877469E+03  0.17153370198E+03  0.00000000000E+00 0. -1.
</event>
<event>
 7    1  0.9181008E-006  0.2093776E+03  0.7561462E-02  0.1142060E+00
         -2   -1    0    0    0  501 -0.00000000000E+00  0.00000000000E+00  0.64719464954E+02  0.64719464954E+02  0.00000000000E+00 0.  1.
          2   -1    0    0  501    0  0.00000000000E+00 -0.00000000000E+00 -0.15263816349E+04  0.15263816349E+04  0.00000000000E+00 0. -1.
         23    2    1    2    0    0  0.80658142321E+02 -0.37576166212E+02 -0.48914941686E+02  0.13673472395E+03  0.91575155056E+02 0.  0.
          5    1    1    2  502    0 -0.14922227985E+03 -0.72158258212E+02 -0.11452267128E+04  0.11571671440E+04  0.41800000000E+01 0. -1.
         -5    1    1    2    0  502  0.68564137527E+02  0.10973442442E+03 -0.26752051552E+03  0.29719923197E+03  0.41800000000E+01 0.  1.
        -11    1    3    3    0    0  0.18144915821E+02  0.27695221930E+02  0.16905558655E+01  0.33152997859E+02  0.00000000000E+00 0. -1.
         11    1    3    3    0    0  0.62513226500E+02 -0.65271388142E+02 -0.50605497551E+02  0.10358172609E+03  0.00000000000E+00 0.  1.
</event>
<event>
 8    1  0.9181008E-006  0.1425479E+03  0.7561462E-02  0.1209941E+00
         -2   -1    0    0    0  501 -0.00000000000E+00  0.00000000000E+00  0.53556780645E+02  0.53556780645E+02  0.00000000000E+00 0.  1.
          2   -1    0    0  501    0  0.00000000000E+00 -0.00000000000E+00 -0.41409532662E+03  0.41409532662E+03  0.00000000000E+00 0. -1.
         23    2    1    2    0    0  0.47643216034E+02 -0.81108752935E+02 -0.10695120666E+03  0.16965520412E+03  0.92172782546E+02 0.  0.
         23    2    1    2    0    0 -0.47643216034E+02  0.81108752935E+02 -0.25358733932E+03  0.29799690315E+03  0.12508840788E+03 0.  0.
          5    1    4    4  502    0  0.34740523285E+02  0.58834554237E+02 -0.14021232655E+03  0.15603005367E+03  0.41800000000E+01 0. -1.
         -5    1    4    4    0  502 -0.82383739319E+02  0.22274198698E+02 -0.11337501277E+03  0.14196684948E+03  0.41800000000E+01 0. -1.
        -11    1    3    3    0    0 -0.24415502277E+02 -0.43578239969E+02 -0.33646555857E+02  0.60226825180E+02  0.00000000000E+00 0. -1.
         11    1    3    3    0    0  0.72058718310E+02 -0.37530512965E+02 -0.73304650801E+02  0.10942837894E+03  0.00000000000E+00 0.  1.
</event>
<event>
 8    1  0.9181008E-006  0.1011105E+03  0.7561462E-02  0.1277978E+00
          1   -1    0    0  501    0  0.00000000000E+00  0.00000000000E+00  0.11547103706E+03  0.11547103706E+03  0.00000000000E+00 0. -1.
         -1   -1    0    0    0  501 -0.00000000000E+00 -0.00000000000E+00 -0.13211389499E+03  0.13211389499E+03  0.00000000000E+00 0.  1.
         23    2    1    2    0    0 -0.59709765509E+02 -0.13296811865E+02 -0.10416003389E+02  0.10820526700E+03  0.88644375897E+02 0.  0.
         23    2    1    2    0    0  0.59709765509E+02  0.13296811865E+02 -0.62268545345E+01  0.13937966504E+03  0.12508339621E+03 0.  0.
          5    1    4    4  502    0  0.56640186827E+02 -0.27173226903E+02 -0.49362994860E+02  0.80004204175E+02  0.41800000000E+01 0.  1.
         -5    1    4    4    0  502  0.30695786814E+01  0.40470038768E+02  0.43136140325E+02  0.59375460868E+02  0.41800000000E+01 0.  1.
        -11    1    3    3    0    0  0.17497680686E+02  0.66478135109E+01 -0.20579007608E+02  0.27818299877E+02  0.00000000000E+00 0.  1.
         11    1    3    3    0    0 -0.77207446195E+02 -0.19944625375E+02  0.10163004219E+02  0.80386967128E+02  0.00000000000E+00 0. -1.
</event>
<event>
 8    1  0.9181008E-006  0.1261677E+03  0.7561462E-02  0.1233256E+00
          1   -1    0    0  501    0  0.00000000000E+00  0.00000000000E+00  0.81624588022E+03  0.81624588022E+03  0.00000000000E+00 0. -1.
         -1   -1    0    0    0  501 -0.00000000000E+00 -0.00000000000E+00 -0.29844141876E+02  0.29844141876E+02  0.00000000000E+00 0.  1.
         23    2    1    2    0    0  0.10629920895E+03 -0.28694078294E+02  0.39982689991E+03  0.42512543153E+03  0.93526523977E+02 0.  0.
         23    2    1    2    0    0 -0.10629920895E+03  0.28694078294E+02  0.38657483843E+03  0.42096459057E+03  0.12509280095E+03 0.  0.
          5    1    4    4  502    0 -0.63830640940E+02  0.18731958141E+01  0.35665437482E+03  0.36235021052E+03  0.41800000000E+01 0.  1.
         -5    1    4    4    0  502 -0.42468568009E+02  0.26820882480E+02  0.29920463616E+02  0.58614380051E+02  0.41800000000E+01 0.  1.
        -11    1    3    3    0    0 -0.82669256624E+01 -0.21628256147E+02  0.30006314467E+02  0.37901219397E+02  0.00000000000E+00 0.  1.
         11    1    3    3    0    0  0.11456613461E+03 -0.70658221462E+01  0.36982058545E+03  0.38722421213E+03  0.00000000000E+00 0. -1.
</event>
<event>
 7    1  0.9181008E-006  0.1808368E+03  0.7561462E-02  0.1166996E+00
         -2   -1    0    0    0  501 -0.00000000000E+00  0.00000000000E+00  0.79536375164E+02  0.79536375164E+02  0.00000000000E+00 0.  1.
          2   -1    0    0  501    0  0.00000000000E+00 -0.00000000000E+00 -0.42388672877E+03  0.42388672877E+03  0.00000000000E+00 0. -1.
         23    2    1    2    0    0  0.50870957016E+02  0.32679108457E+02 -0.67179981289E+02  0.12863864122E+03  0.91536723402E+02 0.  0.
          5    1    1    2  502    0  0.93177845160E+02 -0.52083634238E+02 -0.11447334539E+03  0.15657724927E+03  0.41800000000E+01 0. -1.
         -5    1    1    2    0  502 -0.14404880218E+03  0.19404525781E+02 -0.16269702693E+03  0.21820721345E+03  0.41800000000E+01 0.  1.
        -11    1    3    3    0    0 -0.18904625005E+02 -0.15662386149E+02 -0.11410116444E+02  0.27071866277E+02  0.00000000000E+00 0. -1.
         11    1    3    3    0    0  0.69775582021E+02  0.48341494606E+02 -0.55769864845E+02  0.10156677494E+03  0.00000000000E+00 0.  1.
</event>
<event>
 8    1  0.9181008E-006  0.1241479E+03  0.7561462E-02  0.1236407E+00
         -1   -1    0    0    0  501 -0.00000000000E+00  0.00000000000E+00  0.46785094560E+02  0.46785094560E+02  0.00000000000E+00 0.  1.
          1   -1    0    0  501    0  0.00000000000E+00 -0.00000000000E+00 -0.80757573095E+03  0.80757573095E+03  0.00000000000E+00 0. -1.
         23    2    1    2    0    0 -0.10757779632E+02  0.60946093158E+02 -0.35628846125E+02  0.11589236084E+03  0.91276878409E+02 0.  0.
         23    2    1    2    0    0  0.10757779632E+02 -0.60946093158E+02 -0.72516179026E+03  0.73846846466E+03  0.12508355268E+03 0.  0.
          5    1    4    4  502    0 -0.51770285146E+02 -0.54142850804E+02 -0.44707841810E+03  0.45333011708E+03  0.41800000000E+01 0. -1.
         -5    1    4    4    0  502  0.62528064778E+02 -0.68032423535E+01 -0.27808337216E+03  0.28513834758E+03  0.41800000000E+01 0. -1.
        -11    1    3    3    0    0 -0.51609200563E+01 -0.24280308860E+02 -0.66174574796E+01  0.25689671809E+02  0.00000000000E+00 0. -1.
         11    1    3    3    0    0 -0.55968595754E+01  0.85226402018E+02 -0.29011388645E+02  0.90202689035E+02  0.00000000000E+00 0.  1.
</event>
<event>
 8    1  0.9181008E-006  0.2646647E+03  0.7561462E-02  0.1104373E+00
          3   -1    0    0  501    0  0.00000000000E+00  0.00000000000E+00  0.74198659325E+03  0.74198659325E+03  0.00000000000E+00 0. -1.
         -3   -1    0    0    0  501 -0.00000000000E+00 -0.00000000000E+00 -0.10542117803E+03  0.10542117803E+03  0.00000000000E+00 0.  1.
         23    2    1    2    0    0 -0.16736883737E+03  0.19546516389E+03  0.30992789790E+03  0.41317526908E+03  0.91866985724E+02 0.  0.
         23    2    1    2    0    0  0.16736883737E+03 -0.19546516389E+03  0.32663751732E+03  0.43423250219E+03  0.12508733038E+03 0.  0.
          5    1    4    4  502    0  0.24511131842E+02 -0.39542005495E+01  0.10613635248E+03  0.10908175377E+03  0.41800000000E+01 0.  1.
         -5    1    4    4    0  502  0.14285770553E+03 -0.19151096334E+03  0.22050116484E+03  0.32515074842E+03  0.41800000000E+01 0.  1.
        -11    1    3    3    0    0 -0.95745568277E+02  0.15700183626E+03  0.25755968373E+03  0.31647082191E+03  0.00000000000E+00 0. -1.
         11    1    3    3    0    0 -0.71623269096E+02  0.38463327621E+02  0.52368214169E+02  0.96704447172E+02  0.00000000000E+00 0.  1.
</event>
<event>
 8    1  0.9181008E-006  0.1129046E+03  0.7561462E-02  0.1255284E+00
         -2   -1    0    0    0  501 -0.00000000000E+00  0.00000000000E+00  0.20522825100E+02  0.20522825100E+02  0.00000000000E+00 0.  1.
          2   -1    0    0  501    0  0.00000000000E+00 -0.00000000000E+00 -0.69958486228E+03  0.69958486228E+03  0.00000000000E+00 0. -1.
         23    2    1    2    0    0 -0.32131913764E+02  0.45571816956E+02 -0.26473824869E+03  0.28373170019E+03  0.85487349879E+02 0.  0.
         23    2    1    2    0    0  0.32131913764E+02 -0.45571816956E+02 -0.41432378848E+03  0.43637598719E+03  0.12510215868E+03 0.  0.
          5    1    4    4  502    0 -0.40872772312E+02 -0.25117375625E+02 -0.78649495526E+02  0.92220830734E+02  0.41800000000E+01 0.  1.
         -5    1    4    4    0  502  0.73004686076E+02 -0.20454441331E+02 -0.33567429296E+03  0.34415515645E+03  0.41800000000E+01 0.  1.
        -11    1    3    3    0    0 -0.54606177894E+02  0.43584383463E+01 -0.15407899272E+03  0.16352726576E+03  0.00000000000E+00 0. -1.
         11    1    3    3    0    0  0.22474264129E+02  0.41213378610E+02 -0.11065925597E+03  0.12020443443E+03  0.00000000000E+00 0.  1.
</event>
<event>
 8    1  0.9181008E-006  0.1006953E+03  0.7561462E-02  0.1278841E+00
          1   -1    0    0  501    0  0.00000000000E+00  0.00000000000E+00  0.18694850896E+03  0.18694850896E+03  0.00000000000E+00 0. -1.
         -1   -1    0    0    0  501 -0.00000000000E+00 -0.00000000000E+00 -0.10698828768E+03  0.10698828768E+03  0.00000000000E+00 0.  1.
         23    2    1    2    0    0  0.28250919032E+02 -0.81408905953E+02  0.68529058655E+01  0.12536037425E+03  0.90789518772E+02 0.  0.
         23    2    1    2    0    0 -0.28250919032E+02  0.81408905953E+02  0.73107315410E+02  0.16857642239E+03  0.12509119163E+03 0.  0.
          5    1    4    4  502    0  0.18802166278E+01  0.14161312624E+02 -0.34795447497E+02  0.37845390159E+02  0.41800000000E+01 0.  1.
         -5    1    4    4    0  502 -0.30131135660E+02  0.67247593329E+02  0.10790276291E+03  0.13073103223E+03  0.41800000000E+01 0.  1.
        -11    1    3    3    0    0  0.52551105601E+02 -0.46537889181E+02 -0.22492740937E+02  0.73711038686E+02  0.00000000000E+00 0.  1.
         11    1    3    3    0    0 -0.24300186569E+02 -0.34871016773E+02  0.29345646802E+02  0.51649335565E+02  0.00000000000E+00 0. -1.
</event>
<event>
 8    1  0.9181008E-006  0.1666104E+03  0.7561462E-02  0.1181430E+00
          1   -1    0    0  501    0  0.00000000000E+00  0.00000000000E+00  0.32359297584E+03  0.32359297584E+03  0.00000000000E+00 0. -1.
         -1   -1    0    0    0  501 -0.00000000000E+00 -0.00000000000E+00 -0.11110815122E+03  0.11110815122E+03  0.00000000000E+00 0.  1.
         23    2    1    2    0    0 -0.10177451073E+03 -0.72710299258E+02  0.18165677937E+03  0.25513840072E+03  0.12826371029E+03 0.  0.
         23    2    1    2    0    0  0.10177451073E+03  0.72710299258E+02  0.30828045241E+02  0.17956272634E+03  0.12509023009E+03 0.  0.
          5    1    4    4  502    0  0.52764247944E+02  0.94622745770E+02 -0.14229255111E+02  0.10935023539E+03  0.41800000000E+01 0. -1.
         -5    1    4    4    0  502  0.49010262783E+02 -0.21912446513E+02  0.45057300353E+02  0.70212490950E+02  0.41800000000E+01 0. -1.
        -11    1    3    3    0    0 -0.83948513682E+02  0.11628338999E+02  0.51968212854E+02  0.99414618465E+02  0.00000000000E+00 0. -1.
         11    1    3    3    0    0 -0.17825997046E+02 -0.84338638256E+02  0.12968856652E+03  0.15572378226E+03  0.00000000000E+00 0.  1.
</event>
<event>
 8    1  0.9181008E-006  0.9135010E+02  0.7561462E-02  0.1299615E+00
          1   -1    0    0  501    0  0.00000000000E+00  0.00000000000E+00  0.31812400291E+03  0.31812400291E+03  0.00000000000E+00 0. -1.
         -1   -1    0    0    0  501 -0.00000000000E+00 -0.00000000000E+00 -0.42999377384E+02  0.42999377384E+02  0.00000000000E+00 0.  1.
         23    2    1    2    0    0  0.80712863717E+01 -0.38155484681E+02  0.10224378312E+03  0.14419771289E+03  0.93905284948E+02 0.  0.
         23    2    1    2    0    0 -0.80712863717E+01  0.38155484681E+02  0.17288084240E+03  0.21692566740E+03  0.12509185758E+03 0.  0.
          5    1    4    4  502    0  0.21223571007E+01  0.63582024974E+02  0.28369848982E+02  0.69781795840E+02  0.41800000000E+01 0. -1.
         -5    1    4    4    0  502 -0.10193643472E+02 -0.25426540293E+02  0.14451099342E+03  0.14714387156E+03  0.41800000000E+01 0. -1.
        -11    1    3    3    0    0 -0.37384581486E+02 -0.18492758122E+02  0.15857126843E+02  0.44621043327E+02  0.00000000000E+00 0. -1.
         11    1    3    3    0    0  0.45455867858E+02 -0.19662726558E+02  0.86386656280E+02  0.99576669565E+02  0.00000000000E+00 0.  1.
</event>
<event>
 8    1  0.9181008E-006  0.1543065E+03  0.7561462E-02  0.1195279E+00
          1   -1    0    0  501    0  0.00000000000E+00  0.00000000000E+00  0.64606536169E+03  0.64606536169E+03  0.00000000000E+00 0. -1.
         -1   -1    0    0    0  501 -0.00000000000E+00 -0.00000000000E+00 -0.38487999932E+02  0.38487999932E+02  0.00000000000E+00 0.  1.
         23    2    1    2    0    0 -0.26825325696E+02  0.10770254120E+03  0.22408581659E+03  0.26618450602E+03  0.91215692545E+02 0.  0.
         23    2    1    2    0    0  0.26825325696E+02 -0.10770254120E+03  0.38349154517E+03  0.41836885561E+03  0.12508916280E+03 0.  0.
          5    1    4    4  502    0 -0.16036050126E+02 -0.11999142855E+03  0.25526944500E+03  0.28255098616E+03  0.41800000000E+01 0. -1.
         -5    1    4    4    0  502  0.42861375821E+02  0.12288887358E+02  0.12822210016E+03  0.13581786944E+03  0.41800000000E+01 0. -1.
        -11    1    3    3    0    0 -0.12424884199E+02 -0.14816385049E+02  0.42090059595E+02  0.46319284644E+02  0.00000000000E+00 0. -1.
         11    1    3    3    0    0 -0.14400441496E+02  0.12251892625E+03  0.18199575700E+03  0.21986522137E+03  0.00000000000E+00 0.  1.
</event>
<event>
 8    1  0.9181008E-006  0.7365404E+02  0.7561462E-02  0.1348090E+00
         -2   -1    0    0    0  501 -0.00000000000E+00  0.00000000000E+00  0.96967836157E+01  0.96967836157E+01  0.00000000000E+00 0.  1.
          2   -1    0    0  501    0  0.00000000000E+00 -0.00000000000E+00 -0.17930016313E+04  0.17930016313E+04  0.00000000000E+00 0. -1.
         23    2    1    2    0    0 -0.33653958842E+02  0.31445414405E+02 -0.43090382863E+03  0.44374391794E+03  0.95441878411E+02 0.  0.
         23    2    1    2    0    0  0.33653958842E+02 -0.31445414405E+02 -0.13524010191E+04  0.13589544970E+04  0.12508958973E+03 0.  0.
          5    1    4    4  502    0  0.81545527890E+01 -0.22947664554E+02 -0.12970060091E+04  0.12972413623E+04  0.41800000000E+01 0.  1.
         -5    1    4    4    0  502  0.25499406053E+02 -0.84977498503E+01 -0.55395009938E+02  0.61713134644E+02  0.41800000000E+01 0.  1.
        -11    1    3    3    0    0  0.25298056989E+02 -0.54136735593E+01 -0.47511726933E+02  0.54098648273E+02  0.00000000000E+00 0.  1.
         11    1    3    3    0    0 -0.58952015831E+02  0.36859087964E+02 -0.38339210169E+03  0.38964526967E+03  0.00000000000E+00 0. -1.
</event>
<event>
 8    1  0.9181008E-006  0.7620845E+02  0.7561462E-02  0.1340169E+00
          1   -1    0    0  501    0  0.00000000000E+00  0.00000000000E+00  0.13686493108E+03  0.13686493108E+03  0.00000000000E+00 0. -1.
         -1   -1    0    0    0  501 -0.00000000000E+00 -0.00000000000E+00 -0.97004183075E+02  0.97004183075E+02  0.00000000000E+00 0.  1.
         23    2    1    2    0    0  0.26258060338E+02  0.28886388908E+02  0.23840721034E+02  0.10184267401E+03  0.90992533063E+02 0.  0.
         23    2    1    2    0    0 -0.26258060338E+02 -0.28886388908E+02  0.16020026972E+02  0.13202644015E+03  0.12510168039E+03 0.  0.
          5    1    4    4  502    0 -0.65111907711E+02 -0.10237680108E+02 -0.26665389390E+02  0.71224195405E+02  0.41800000000E+01 0. -1.
         -5    1    4    4    0  502  0.38853847373E+02 -0.18648708800E+02  0.42685416362E+02  0.60802244741E+02  0.41800000000E+01 0. -1.
        -11    1    3    3    0    0  0.98659935266E+01  0.24030113381E+02  0.58051219447E+02  0.63598178092E+02  0.00000000000E+00 0. -1.
         11    1    3    3    0    0  0.16392066811E+02  0.48562755269E+01 -0.34210498413E+02  0.38244495918E+02  0.00000000000E+00 0.  1.
</event>
<event>
 8    1  0.9181008E-006  0.2014831E+03  0.7561462E-02  0.1148494E+00
         -2   -1    0    0    0  501 -0.00000000000E+00  0.00000000000E+00  0.23760342609E+02  0.23760342609E+02  0.00000000000E+00 0.  1.
          2   -1    0    0  501    0  0.00000000000E+00 -0.00000000000E+00 -0.30557315679E+04  0.30557315679E+04  0.00000000000E+00 0. -1.
         23    2    1    2    0    0  0.19705256786E+03 -0.25249751281E+02 -0.64385852191E+03  0.67986726410E+03  0.90545215916E+02 0.  0.
         23    2    1    2    0    0 -0.19705256786E+03  0.25249751281E+02 -0.23881127034E+04  0.23996246464E+04  0.12509554408E+03 0.  0.
          5    1    4    4  502    0 -0.16690208255E+03  0.90597189845E+01 -0.12673366655E+04  0.12783184579E+04  0.41800000000E+01 0.  1.
         -5    1    4    4    0  502 -0.30150485303E+02  0.16190032296E+02 -0.11207760378E+04  0.11213061885E+04  0.41800000000E+01 0.  1.
        -11    1    3    3    0    0  0.54806307090E+02  0.75133687078E+01 -0.78932630606E+02  0.96387458627E+02  0.00000000000E+00 0.  1.
         11    1    3    3    0    0  0.14224626077E+03 -0.32763119988E+02 -0.56492589130E+03  0.58347980547E+03  0.00000000000E+00 0. -1.
</event>
<event>
 8    1  0.9181008E-006  0.1963426E+03  0.7561462E-02  0.1152862E+00
         -3   -1    0    0    0  501 -0.00000000000E+00  0.00000000000E+00  0.19151121946E+03  0.19151121946E+03  0.00000000000E+00 0.  1.
          3   -1    0    0  501    0  0.00000000000E+00 -0.00000000000E+00 -0.24446701707E+03  0.24446701707E+03  0.00000000000E+00 0. -1.
         23    2    1    2    0    0 -0.18262964000E+03  0.11536381774E+02  0.11911425751E+02  0.20502119357E+03  0.91679519197E+02 0.  0.
         23    2    1    2    0    0  0.18262964000E+03 -0.11536381774E+02 -0.64867223356E+02  0.23095704296E+03  0.12508687189E+03 0.  0.
          5    1    4    4  502    0  0.99252269815E+02  0.41501917276E+02  0.82241113854E+01  0.10797467578E+03  0.41800000000E+01 0. -1.
         -5    1    4    4    0  502  0.83377370181E+02 -0.53038299050E+02 -0.73091334742E+02  0.12298236719E+03  0.41800000000E+01 0. -1.
        -11    1    3    3    0    0 -0.93413306956E+02 -0.11113079459E+02 -0.36639140857E+02  0.10095530246E+03  0.00000000000E+00 0. -1.
         11    1    3    3    0    0 -0.89216333040E+02  0.22649461233E+02  0.48550566608E+02  0.10406589111E+03  0.00000000000E+00 0.  1.
</event>
<event>
 8    1  0.9181008E-006  0.1230491E+03  0.7561462E-02  0.1238150E+00
         -2   -1    0    0    0  501 -0.00000000000E+00  0.00000000000E+00  0.45459841139E+02  0.45459841139E+02  0.00000000000E+00 0.  1.
          2   -1    0    0  501    0  0.00000000000E+00 -0.00000000000E+00 -0.72243637289E+03  0.72243637289E+03  0.00000000000E+00 0. -1.
         23    2    1    2    0    0  0.10307188712E+03  0.30872086481E+02 -0.11232580972E+03  0.17963176733E+03  0.89853128304E+02 0.  0.
         23    2    1    2    0    0 -0.10307188712E+03 -0.30872086481E+02 -0.56465072204E+03  0.58826444670E+03  0.12509085387E+03 0.  0.
          5    1    4    4  502    0 -0.87488939096E+02  0.85691005344E+01 -0.51658852802E+03  0.52403141473E+03  0.41800000000E+01 0.  1.
         -5    1    4    4    0  502 -0.15582948026E+02 -0.39441187015E+02 -0.48062194022E+02  0.64233031974E+02  0.41800000000E+01 0.  1.
        -11    1    3    3    0    0  0.68779425761E+02  0.40553606098E+02 -0.22436333309E+02  0.82937286114E+02  0.00000000000E+00 0.  1.
         11    1    3    3    0    0  0.34292461361E+02 -0.96815196167E+01 -0.89889476408E+02  0.96694481214E+02  0.00000000000E+00 0. -1.
</event>
<event>
 8    1  0.9181008E-006  0.6300247E+02  0.7561462E-02  0.1385647E+00
         -1   -1    0    0    0  501 -0.00000000000E+00  0.00000000000E+00  0.17085733085E+03  0.17085733085E+03  0.00000000000E+00 0.  1.
          1   -1    0    0  501    0  0.00000000000E+00 -0.00000000000E+00 -0.10547801698E+03  0.10547801698E+03  0.00000000000E+00 0. -1.
         23    2    1    2    0    0 -0.16921263419E+02  0.29736042937E+02  0.11333399400E+03  0.14935027898E+03  0.91051360389E+02 0.  0.
         23    2    1    2    0    0  0.16921263419E+02 -0.29736042937E+02 -0.47954680133E+02  0.12698506885E+03  0.11249442190E+03 0.  0.
          5    1    4    4  502    0 -0.12357673806E+02 -0.37783463568E+02 -0.75723268955E+02  0.85625861060E+02  0.41800000000E+01 0. -1.
         -5    1    4    4    0  502  0.29278937225E+02  0.80474206308E+01  0.27768588822E+02  0.41359207790E+02  0.41800000000E+01 0.  1.
        -11    1    3    3    0    0  0.81660817431E+01 -0.70953202109E+01 -0.12102643732E+02  0.16232758399E+02  0.00000000000E+00 0. -1.
         11    1    3    3    0    0 -0.25087345162E+02  0.36831363148E+02  0.12543663773E+03  0.13311752058E+03  0.00000000000E+00 0.  1.
</event>
<event>
 8    1  0.9181008E-006  0.2020254E+03  0.7561462E-02  0.1148041E+00
          2   -1    0    0  501    0  0.00000000000E+00  0.00000000000E+00  0.99175431533E+02  0.99175431533E+02  0.00000000000E+00 0. -1.
         -2   -1    0    0    0  501 -0.00000000000E+00 -0.00000000000E+00 -0.55554434072E+03  0.55554434072E+03  0.00000000000E+00 0.  1.
         23    2    1    2    0    0  0.46107444401E+02 -0.18324978191E+03 -0.34234078986E+03  0.40103397688E+03  0.89020532530E+02 0.  0.
         23    2    1    2    0    0 -0.46107444401E+02  0.18324978191E+03 -0.11402811933E+03  0.25368579537E+03  0.12509073417E+03 0.  0.
          5    1    4    4  502    0 -0.47937969570E+02  0.45054872997E+02  0.11522509800E+02  0.66919587113E+02  0.41800000000E+01 0.  1.
         -5    1    4    4    0  502  0.18305251687E+01  0.13819490892E+03 -0.12555062913E+03  0.18676620826E+03  0.41800000000E+01 0.  1.
        -11    1    3    3    0    0 -0.15755389785E+02 -0.58923925203E+02 -0.16419783199E+03  0.17516046728E+03  0.00000000000E+00 0.  1.
         11    1    3    3    0    0  0.61862834186E+02 -0.12432585671E+03 -0.17814295787E+03  0.22587350960E+03  0.00000000000E+00 0. -1.
</event>
<event>
 8    1  0.9181008E-006  0.6831407E+02  0.7561462E-02  0.1365922E+00
         -1   -1    0    0    0  501 -0.00000000000E+00  0.00000000000E+00  0.21532533045E+03  0.21532533045E+03  0.00000000000E+00 0. -1.
          1   -1    0    0  501    0  0.00000000000E+00 -0.00000000000E+00 -0.65347636930E+02  0.65347636930E+02  0.00000000000E+00 0.  1.
         23    2    1    2    0    0 -0.33526153111E+02 -0.17730901626E+02  0.96619955035E+02  0.13948825900E+03  0.93183533270E+02 0.  0.
         23    2    1    2    0    0  0.33526153111E+02  0.17730901626E+02  0.53357738483E+02  0.14118470838E+03  0.12509071032E+03 0.  0.
          5    1    4    4  502    0 -0.20480372429E+01  0.48032380453E+01 -0.39897397633E+02  0.40454175188E+02  0.41800000000E+01 0. -1.
         -5    1    4    4    0  502  0.35574190354E+02  0.12927663580E+02  0.93255136116E+02  0.10073053319E+03  0.41800000000E+01 0. -1.
        -11    1    3    3    0    0  0.25366601242E+02  0.93544216081E+01  0.53816514361E+01  0.27566861163E+02  0.00000000000E+00 0.  1.
         11    1    3    3    0    0 -0.58892754353E+02 -0.27085323234E+02  0.91238303599E+02  0.11192139784E+03  0.00000000000E+00 0. -1.
</event>
<event>
 8    1  0.9181008E-006  0.9785044E+02  0.7561462E-02  0.1284882E+00
          1   -1    0    0  501    0  0.00000000000E+00  0.00000000000E+00  0.79166615510E+03  0.79166615510E+03  0.00000000000E+00 0. -1.
         -1   -1    0    0    0  501 -0.00000000000E+00 -0.00000000000E+00 -0.23731855178E+02  0.23731855178E+02  0.00000000000E+00 0.  1.
         23    2    1    2    0    0 -0.42488991650E+02 -0.61873422376E+02  0.24035907435E+03  0.26802558988E+03  0.91823730046E+02 0.  0.
         23    2    1    2    0    0  0.42488991650E+02  0.61873422376E+02  0.52757522557E+03  0.54737242040E+03  0.12508922084E+03 0.  0.
          5    1    4    4  502    0  0.24453407275E+02  0.54780180761E+00  0.11522406795E+02  0.27358864606E+02  0.41800000000E+01 0.  1.
         -5    1    4    4    0  502  0.18035584375E+02  0.61325620569E+02  0.51605281877E+03  0.52001355579E+03  0.41800000000E+01 0.  1.
        -11    1    3    3    0    0 -0.48659795918E+02 -0.42174373143E+01  0.53803372143E+02  0.72666122576E+02  0.00000000000E+00 0.  1.
         11    1    3    3    0    0  0.61708042683E+01 -0.57655985062E+02  0.18655570221E+03  0.19535946730E+03  0.00000000000E+00 0. -1.
</event>
<event>
 8    1  0.9181008E-006  0.1002588E+03  0.7561462E-02  0.1279753E+00
          2   -1    0    0  501    0  0.00000000000E+00  0.00000000000E+00  0.18478375006E+03  0.18478375006E+03  0.00000000000E+00 0. -1.
         -2   -1    0    0    0  501 -0.00000000000E+00 -0.00000000000E+00 -0.95805365153E+02  0.95805365153E+02  0.00000000000E+00 0.  1.
         23    2    1    2    0    0 -0.63131665001E+02  0.11892826103E+02 -0.43970698580E+01  0.11178749131E+03  0.91378676680E+02 0.  0.
         23    2    1    2    0    0  0.63131665001E+02 -0.11892826103E+02  0.93375454765E+02  0.16880162390E+03  0.12509183123E+03 0.  0.
          5    1    4    4  502    0  0.59467362167E+02  0.47588803516E+02  0.73268963736E+02  0.10576802367E+03  0.41800000000E+01 0.  1.
         -5    1    4    4    0  502  0.36643028340E+01 -0.59481629619E+02  0.20106491029E+02  0.63033600237E+02  0.41800000000E+01 0.  1.
        -11    1    3    3    0    0 -0.20684768156E+02  0.66530603836E+01 -0.46777118492E+02  0.51577336696E+02  0.00000000000E+00 0. -1.
         11    1    3    3    0    0 -0.42446896844E+02  0.52397657190E+01  0.42380048634E+02  0.60210154615E+02  0.00000000000E+00 0.  1.
</event>
<event>
 8    1  0.9181008E-006  0.1213153E+03  0.7561462E-02  0.1240943E+00
         -2   -1    0    0    0  501 -0.00000000000E+00  0.00000000000E+00  0.50443058790E+02  0.50443058790E+02  0.00000000000E+00 0.  1.
          2   -1    0    0  501    0  0.00000000000E+00 -0.00000000000E+00 -0.33460975711E+03  0.33460975711E+03  0.00000000000E+00 0. -1.
         23    2    1    2    0    0 -0.44326463692E+02  0.32686255946E+02 -0.62395115738E+02  0.12454749583E+03  0.92659060752E+02 0.  0.
         23    2    1    2    0    0  0.44326463692E+02 -0.32686255946E+02 -0.22177158258E+03  0.26050532006E+03  0.12508860952E+03 0.  0.
          5    1    4    4  502    0  0.80646451547E+02  0.88418483493E+01 -0.12674008793E+03  0.15054086062E+03  0.41800000000E+01 0.  1.
         -5    1    4    4    0  502 -0.36319987856E+02 -0.41528104295E+02 -0.95031494654E+02  0.10996445944E+03  0.41800000000E+01 0.  1.
        -11    1    3    3    0    0 -0.20876191955E+02 -0.31465870969E+02 -0.33143956004E+02  0.50243788133E+02  0.00000000000E+00 0.  1.
         11    1    3    3    0    0 -0.23450271737E+02  0.64152126915E+02 -0.29251159734E+02  0.74303707701E+02  0.00000000000E+00 0. -1.
</event>
<event>
 8    1  0.9181008E-006  0.8855013E+02  0.7561462E-02  0.1306401E+00
         -3   -1    0    0    0  501 -0.00000000000E+00  0.00000000000E+00  0.34433615097E+03  0.34433615097E+03  0.00000000000E+00 0.  1.
          3   -1    0    0  501    0  0.00000000000E+00 -0.00000000000E+00 -0.41231840834E+02  0.41231840834E+02  0.00000000000E+00 0. -1.
         23    2    1    2    0    0 -0.45918154662E+02  0.21523923287E+02  0.12481894252E+03  0.16194974384E+03  0.89867652224E+02 0.  0.
         23    2    1    2    0    0  0.45918154662E+02 -0.21523923287E+02  0.17828536762E+03  0.22361824797E+03  0.12509073633E+03 0.  0.
          5    1    4    4  502    0  0.45191492048E+01 -0.56212941575E+02  0.15436981513E+03  0.16440142863E+03  0.41800000000E+01 0. -1.
         -5    1    4    4    0  502  0.41399005457E+02  0.34689018288E+02  0.23915552488E+02  0.59216819345E+02  0.41800000000E+01 0. -1.
        -11    1    3    3    0    0 -0.13583279365E+02  0.30016663440E+02  0.12421764007E+03  0.12851275294E+03  0.00000000000E+00 0.  1.
         11    1    3    3    0    0 -0.32334875297E+02 -0.84927401531E+01  0.60130244502E+00  0.33436990899E+02  0.00000000000E+00 0. -1.
</event>
<event>
 8    1  0.9181008E-006  0.1791083E+03  0.7561462E-02  0.1168669E+00
          2   -1    0    0  501    0  0.00000000000E+00  0.00000000000E+00  0.14494327173E+04  0.14494327173E+04  0.00000000000E+00 0. -1.
         -2   -1    0    0    0  501 -0.00000000000E+00 -0.00000000000E+00 -0.26256077187E+02  0.26256077187E+02  0.00000000000E+00 0.  1.
         23    2    1    2    0    0 -0.82886017122E+02  0.13626351078E+03  0.78438346821E+03  0.80550737901E+03  0.90260047826E+02 0.  0.
         23    2    1    2    0    0  0.82886017122E+02 -0.13626351078E+03  0.63879317192E+03  0.67018141549E+03  0.12509427235E+03 0.  0.
          5    1    4    4  502    0  0.80983438512E+02 -0.24175958624E+02  0.35672785868E+03  0.36662655639E+03  0.41800000000E+01 0.  1.
         -5    1    4    4    0  502  0.19025786097E+01 -0.11208755216E+03  0.28206531323E+03  0.30355485910E+03  0.41800000000E+01 0.  1.
        -11    1    3    3    0    0 -0.55065835957E+02  0.11067946626E+03  0.72246379282E+03  0.73296392986E+03  0.00000000000E+00 0. -1.
         11    1    3    3    0    0 -0.27820181165E+02  0.25584044523E+02  0.61919675395E+02  0.72543449154E+02  0.00000000000E+00 0.  1.
</event>
<event>
 7    1  0.9181008E-006  0.3512149E+03  0.7561462E-02  0.1062117E+00
          1   -1    0    0  501    0  0.00000000000E+00  0.00000000000E+00  0.45935094769E+03  0.45935094769E+03  0.00000000000E+00 0. -1.
         -1   -1    0    0    0  501 -0.00000000000E+00 -0.00000000000E+00 -0.30833377085E+03  0.30833377085E+03  0.00000000000E+00 0.  1.
         23    2    1    2    0    0 -0.39722823344E+01 -0.84011155940E+02 -0.29805120863E+02  0.13019820832E+03  0.94813368629E+02 0.  0.
          5    1    1    2  502    0  0.15642108417E+03  0.30168615547E+03  0.14425248943E+03  0.36919960059E+03  0.41800000000E+01 0. -1.
         -5    1    1    2    0  502 -0.15244880184E+03 -0.21767499953E+03  0.36569808279E+02  0.26828690963E+03  0.41800000000E+01 0.  1.
        -11    1    3    3    0    0  0.14157517878E+02 -0.75411152329E+02  0.17599836405E+02  0.78721226168E+02  0.00000000000E+00 0.  1.
         11    1    3    3    0    0 -0.18129800212E+02 -0.86000036114E+01 -0.47404957268E+02  0.51476982152E+02  0.00000000000E+00 0. -1.
</event>
<event>
 8    1  0.9181008E-006  0.9830435E+02  0.7561462E-02  0.1283903E+00
         -1   -1    0    0    0  501 -0.00000000000E+00  0.00000000000E+00  0.33979511065E+02  0.33979511065E+02  0.00000000000E+00 0.  1.
          1   -1    0    0  501    0  0.00000000000E+00 -0.00000000000E+00 -0.63933043865E+03  0.63933043865E+03  0.00000000000E+00 0. -1.
         23    2    1    2    0    0 -0.67938343893E+02  0.23730237184E+02 -0.11481353173E+03  0.16198570790E+03  0.88760800858E+02 0.  0.
         23    2    1    2    0    0  0.67938343893E+02 -0.23730237184E+02 -0.49053739585E+03  0.51132424181E+03  0.12508717282E+03 0.  0.
          5    1    4    4  502    0  0.67028008683E+01 -0.43527748618E+02 -0.52897609504E+02  0.68958117220E+02  0.41800000000E+01 0. -1.
         -5    1    4    4    0  502  0.61235543025E+02  0.19797511434E+02 -0.43763978635E+03  0.44236612459E+03  0.41800000000E+01 0. -1.
        -11    1    3    3    0    0 -0.18569494452E+02 -0.15997013626E+02  0.62908832598E+01  0.25304264094E+02  0.00000000000E+00 0.  1.
         11    1    3    3    0    0 -0.49368849442E+02  0.39727250810E+02 -0.12110441499E+03  0.13668144381E+03  0.00000000000E+00 0. -1.
</event>
<event>
 8    1  0.9181008E-006  0.9911356E+02  0.7561462E-02  0.1282171E+00
          1   -1    0    0  501    0  0.00000000000E+00  0.00000000000E+00  0.17382844598E+03  0.17382844598E+03  0.00000000000E+00 0. -1.
         -1   -1    0    0    0  501 -0.00000000000E+00 -0.00000000000E+00 -0.75429170678E+02  0.75429170678E+02  0.00000000000E+00 0.  1.
         23    2    1    2    0    0  0.27912732540E+02  0.27192362252E+02  0.33129126696E+02  0.10287737546E+03  0.89261806748E+02 0.  0.
         23    2    1    2    0    0 -0.27912732540E+02 -0.27192362252E+02  0.65270148607E+02  0.14638024119E+03  0.12509371491E+03 0.  0.
          5    1    4    4  502    0 -0.34117709806E+02 -0.61774931480E+02 -0.16155366206E+01  0.70712393824E+02  0.41800000000E+01 0.  1.
         -5    1    4    4    0  502  0.62049772659E+01  0.34582569228E+02  0.66885685228E+02  0.75667847371E+02  0.41800000000E+01 0.  1.
        -11    1    3    3    0    0  0.28446221868E+02 -0.26249006316E+02 -0.22699952808E+01  0.38773067324E+02  0.00000000000E+00 0.  1.
         11    1    3    3    0    0 -0.53348932791E+00  0.53441368568E+02  0.35399121977E+02  0.64104308139E+02  0.00000000000E+00 0. -1.
</event>
<event>
 8    1  0.9181008E-006  0.1281700E+03  0.7561462E-02  0.1230197E+00
          1   -1    0    0  501    0  0.00000000000E+00  0.00000000000E+00  0.16011100814E+02  0.16011100814E+02  0.00000000000E+00 0. -1.
         -1   -1    0    0    0  501 -0.00000000000E+00 -0.00000000000E+00 -0.10747237677E+04  0.10747237677E+04  0.00000000000E+00 0.  1.
         23    2    1    2    0    0 -0.45914991697E+02 -0.52645565753E+02 -0.56805127607E+03  0.57958328110E+03  0.91404515361E+02 0.  0.
         23    2    1    2    0    0  0.45914991697E+02  0.52645565753E+02 -0.49066139086E+03  0.51115158746E+03  0.12509037863E+03 0.  0.
          5    1    4    4  502    0  0.23303551971E+02  0.93266243108E+02 -0.34721677213E+03  0.36030349275E+03  0.41800000000E+01 0.  1.
         -5    1    4    4    0  502  0.22611439726E+02 -0.40620677355E+02 -0.14344461872E+03  0.15084809471E+03  0.41800000000E+01 0.  1.
        -11    1    3    3    0    0 -0.15644865514E+02 -0.74486141293E+02 -0.42383514146E+03  0.43061487921E+03  0.00000000000E+00 0.  1.
         11    1    3    3    0    0 -0.30270126183E+02  0.21840575540E+02 -0.14421613461E+03  0.14896840189E+03  0.00000000000E+00 0. -1.
</event>
<event>
 8    1  0.9181008E-006  0.6730039E+02  0.7561462E-02  0.1369521E+00
          1   -1    0    0  501    0  0.00000000000E+00  0.00000000000E+00  0.39122836757E+02  0.39122836757E+02  0.00000000000E+00 0. -1.
         -1   -1    0    0    0  501 -0.00000000000E+00 -0.00000000000E+00 -0.34512552066E+03  0.34512552066E+03  0.00000000000E+00 0.  1.
         23    2    1    2    0    0  0.39036300146E+02  0.62408518370E+01 -0.16054112421E+03  0.18836880190E+03  0.90258362524E+02 0.  0.
         23    2    1    2    0    0 -0.39036300146E+02 -0.62408518370E+01 -0.14546155969E+03  0.19587955552E+03  0.12508778502E+03 0.  0.
          5    1    4    4  502    0 -0.35705631528E+02 -0.60324143010E+01 -0.16841316569E+03  0.17231293893E+03  0.41800000000E+01 0. -1.
         -5    1    4    4    0  502 -0.33306686178E+01 -0.20843753602E+00  0.22951605996E+02  0.23566616589E+02  0.41800000000E+01 0. -1.
        -11    1    3    3    0    0  0.65761604004E+02  0.64180101552E+01 -0.81427313400E+02  0.10486270444E+03  0.00000000000E+00 0. -1.
         11    1    3    3    0    0 -0.26725303858E+02 -0.17715831823E+00 -0.79113810814E+02  0.83506097460E+02  0.00000000000E+00 0.  1.
</event>
<event>
 8    1  0.9181008E-006  0.1198206E+03  0.7561462E-02  0.1243393E+00
          1   -1    0    0  501    0  0.00000000000E+00  0.00000000000E+00  0.63604096959E+03  0.63604096959E+03  0.00000000000E+00 0. -1.
         -1   -1    0    0    0  501 -0.00000000000E+00 -0.00000000000E+00 -0.41677413563E+02  0.41677413563E+02  0.00000000000E+00 0.  1.
         23    2    1    2    0    0 -0.26354498780E+02 -0.56914821099E+02  0.62872356839E+02  0.12811403204E+03  0.92338591527E+02 0.  0.
         23    2    1    2    0    0  0.26354498780E+02  0.56914821099E+02  0.53149119919E+03  0.54960435111E+03  0.12509273151E+03 0.  0.
          5    1    4    4  502    0 -0.43911737294E+02  0.27415215717E+02  0.11507933618E+03  0.12625593348E+03  0.41800000000E+01 0.  1.
         -5    1    4    4    0  502  0.70266236074E+02  0.29499605382E+02  0.41641186301E+03  0.42334841763E+03  0.41800000000E+01 0.  1.
        -11    1    3    3    0    0  0.27646355741E+02 -0.49741850068E+02  0.36334359510E+02  0.67518577554E+02  0.00000000000E+00 0. -1.
         11    1    3    3    0    0 -0.54000854522E+02 -0.71729710314E+01  0.26537997329E+02  0.60595454489E+02  0.00000000000E+00 0.  1.
</event>
<event>
 8    1  0.9181008E-006  0.1056352E+03  0.7561462E-02  0.1268873E+00
          2   -1    0    0  501    0  0.00000000000E+00  0.00000000000E+00  0.22195920894E+03  0.22195920894E+03  0.00000000000E+00 0. -1.
         -2   -1    0    0    0  501 -0.00000000000E+00 -0.00000000000E+00 -0.67700676389E+02  0.67700676389E+02  0.00000000000E+00 0.  1.
         23    2    1    2    0    0 -0.23972623115E+02 -0.39242864799E+02  0.26865858261E+02  0.10529315870E+03  0.90830533590E+02 0.  0.
         23    2    1    2    0    0  0.23972623115E+02  0.39242864799E+02  0.12739267429E+03  0.18436672663E+03  0.12508999692E+03 0.  0.
          5    1    4    4  502    0  0.48285586887E+02  0.63765824123E+02  0.12631208697E+03  0.14956535007E+03  0.41800000000E+01 0. -1.
         -5    1    4    4    0  502 -0.24312963771E+02 -0.24522959324E+02  0.10805873188E+01  0.34801376558E+02  0.41800000000E+01 0. -1.
        -11    1    3    3    0    0  0.31457707764E+02 -0.68652401637E+01 -0.66485217743E+01  0.32877374318E+02  0.00000000000E+00 0.  1.
         11    1    3    3    0    0 -0.55430330879E+02 -0.32377624635E+02  0.33514380035E+02  0.72415784381E+02  0.00000000000E+00 0. -1.
</event>
<event>
 8    1  0.9181008E-006  0.7691765E+02  0.7561462E-02  0.1338033E+00
          1   -1    0    0  501    0  0.00000000000E+00  0.00000000000E+00  0.43545412946E+03  0.43545412946E+03  0.00000000000E+00 0.  1.
         -1   -1    0    0    0  501 -0.00000000000E+00 -0.00000000000E+00 -0.34626987139E+02  0.34626987139E+02  0.00000000000E+00 0. -1.
         23    2    1    2    0    0  0.10233759559E+02 -0.19232831706E+02  0.11539854035E+03  0.15767960300E+03  0.10522073197E+03 0.  0.
         23    2    1    2    0    0 -0.10233759559E+02  0.19232831706E+02  0.28542860197E+03  0.31240151360E+03  0.12510230704E+03 0.  0.
          5    1    4    4  502    0 -0.14902615747E+02  0.63226703326E+02  0.24071729336E+03  0.24936317228E+03  0.41800000000E+01 0.  1.
         -5    1    4    4    0  502  0.46688561882E+01 -0.43993871621E+02  0.44711308613E+02  0.63038341318E+02  0.41800000000E+01 0.  1.
        -11    1    3    3    0    0 -0.13099883379E+02  0.13761233991E+01 -0.17093133154E+02  0.21579524118E+02  0.00000000000E+00 0. -1.
         11    1    3    3    0    0  0.23333642938E+02 -0.20608955105E+02  0.13249167351E+03  0.13610007888E+03  0.00000000000E+00 0.  1.
</event>
<event>
 8    1  0.9181008E-006  0.1352052E+03  0.7561462E-02  0.1219930E+00
         -1   -1    0    0    0  501 -0.00000000000E+00  0.00000000000E+00  0.42696310633E+02  0.42696310633E+02  0.00000000000E+00 0.  1.
          1   -1    0    0  501    0  0.00000000000E+00 -0.00000000000E+00 -0.53268385721E+03  0.53268385721E+03  0.00000000000E+00 0. -1.
         23    2    1    2    0    0 -0.18169948474E+02 -0.87824093384E+02 -0.12366551297E+03  0.17803647484E+03  0.91436365129E+02 0.  0.
         23    2    1    2    0    0  0.18169948474E+02  0.87824093384E+02 -0.36632203361E+03  0.39734369300E+03  0.12508780780E+03 0.  0.
          5    1    4    4  502    0 -0.18982581597E+01  0.11406096059E+03 -0.32382813109E+03  0.34335934092E+03  0.41800000000E+01 0. -1.
         -5    1    4    4    0  502  0.20068206634E+02 -0.26236867209E+02 -0.42493902519E+02  0.53984352082E+02  0.41800000000E+01 0. -1.
        -11    1    3    3    0    0  0.29535106533E+02 -0.62093452432E+02 -0.43834184279E+02  0.81543577701E+02  0.00000000000E+00 0.  1.
         11    1    3    3    0    0 -0.47705055007E+02 -0.25730640952E+02 -0.79831328694E+02  0.96492897138E+02  0.00000000000E+00 0. -1.
</event>
<event>
 8    1  0.9181008E-006  0.1134175E+03  0.7561462E-02  0.1254369E+00
          2   -1    0    0  501    0  0.00000000000E+00  0.00000000000E+00  0.34021684650E+03  0.34021684650E+03  0.00000000000E+00 0. -1.
         -2   -1    0    0    0  501 -0.00000000000E+00 -0.00000000000E+00 -0.61381829511E+02  0.61381829511E+02  0.00000000000E+00 0.  1.
         23    2    1    2    0    0 -0.70510267326E+02 -0.51980923407E+01  0.38723283377E+02  0.12177603067E+03  0.91275358162E+02 0.  0.
         23    2    1    2    0    0  0.70510267326E+02  0.51980923407E+01  0.24011173361E+03  0.27982264534E+03  0.12509336619E+03 0.  0.
          5    1    4    4  502    0  0.20898173015E+02 -0.58132799867E+02  0.12262433432E+03  0.13736941371E+03  0.41800000000E+01 0. -1.
         -5    1    4    4    0  502  0.49612094311E+02  0.63330892208E+02  0.11748739929E+03  0.14245323163E+03  0.41800000000E+01 0. -1.
        -11    1    3    3    0    0 -0.62569032847E+02  0.13532709947E+02  0.63193980482E+02  0.89952750258E+02  0.00000000000E+00 0. -1.
         11    1    3    3    0    0 -0.79412344797E+01 -0.18730802287E+02 -0.24470697104E+02  0.31823280411E+02  0.00000000000E+00 0.  1.
</event>
<event>
 8    1  0.9181008E-006  0.1068926E+03  0.7561462E-02  0.1266435E+00
          1   -1    0    0  501    0  0.00000000000E+00  0.00000000000E+00  0.10878079586E+04  0.10878079586E+04  0.00000000000E+00 0. -1.
         -1   -1    0    0    0  501 -0.00000000000E+00 -0.00000000000E+00 -0.12552879693E+02  0.12552879693E+02  0.00000000000E+00 0.  1.
         23    2    1    2    0    0 -0.20922064918E+02  0.18555445357E+02  0.30289226228E+03  0.31743421368E+03  0.90767395669E+02 0.  0.
         23    2    1    2    0    0  0.20922064918E+02 -0.18555445357E+02  0.77236281664E+03  0.78292662462E+03  0.12509093355E+03 0.  0.
          5    1    4    4  502    0 -0.44703537658E+02 -0.38766550233E+02  0.37011500467E+03  0.37483841956E+03  0.41800000000E+01 0. -1.
         -5    1    4    4    0  502  0.65625602576E+02  0.20211104876E+02  0.40224781196E+03  0.40808820505E+03  0.41800000000E+01 0. -1.
        -11    1    3    3    0    0 -0.13409893514E+02 -0.31929498809E+02  0.19533009623E+03  0.19837632074E+03  0.00000000000E+00 0. -1.
         11    1    3    3    0    0 -0.75121714039E+01  0.50484944166E+02  0.10756216605E+03  0.11905789294E+03  0.00000000000E+00 0.  1.
</event>
<event>
 8    1  0.9181008E-006  0.9614025E+02  0.7561462E-02  0.1288628E+00
          2   -1    0    0  501    0  0.00000000000E+00  0.00000000000E+00  0.54163627784E+03  0.54163627784E+03  0.00000000000E+00 0.  1.
         -2   -1    0    0    0  501 -0.00000000000E+00 -0.00000000000E+00 -0.36439084393E+02  0.36439084393E+02  0.00000000000E+00 0. -1.
         23    2    1    2    0    0 -0.70852221121E+02  0.18028830310E+02  0.11816221057E+03  0.16480886830E+03  0.88626063341E+02 0.  0.
         23    2    1    2    0    0  0.70852221121E+02 -0.18028830310E+02  0.38703498287E+03  0.41326649393E+03  0.12509213036E+03 0.  0.
          5    1    4    4  502    0  0.14467794616E+02  0.23696516481E+02  0.30043512610E+03  0.30174422839E+03  0.41800000000E+01 0.  1.
         -5    1    4    4    0  502  0.56384426505E+02 -0.41725346791E+02  0.86599856771E+02  0.11152226553E+03  0.41800000000E+01 0.  1.
        -11    1    3    3    0    0 -0.63336809652E+02 -0.10704482360E+02  0.28349342918E+02  0.70212695742E+02  0.00000000000E+00 0.  1.
         11    1    3    3    0    0 -0.75154114695E+01  0.28733312670E+02  0.89812867656E+02  0.94596172561E+02  0.00000000000E+00 0. -1.
</event>
<event>
 8    1  0.9181008E-006  0.1316229E+03  0.7561462E-02  0.1225067E+00
          2   -1    0    0  501    0  0.00000000000E+00  0.00000000000E+00  0.10497461002E+03  0.10497461002E+03  0.00000000000E+00 0. -1.
         -2   -1    0    0    0  501 -0.00000000000E+00 -0.00000000000E+00 -0.23259985096E+03  0.23259985096E+03  0.00000000000E+00 0.  1.
         23    2    1    2    0    0  0.99914113899E+02  0.50340163893E+02 -0.51580809272E+02  0.15332721297E+03  0.91278103037E+02 0.  0.
         23    2    1    2    0    0 -0.99914113899E+02 -0.50340163893E+02 -0.76044431670E+02  0.18424724801E+03  0.12508929033E+03 0.  0.
          5    1    4    4  502    0 -0.38141262018E+02 -0.64371233591E+02  0.11801784191E+02  0.75862810997E+02  0.41800000000E+01 0. -1.
         -5    1    4    4    0  502 -0.61772851881E+02  0.14031069699E+02 -0.87846215860E+02  0.10838443702E+03  0.41800000000E+01 0. -1.
        -11    1    3    3    0    0  0.64427211999E+02  0.60005595012E+02 -0.69732038821E+02  0.11231248513E+03  0.00000000000E+00 0.  1.
         11    1    3    3    0    0  0.35486901899E+02 -0.96654311189E+01  0.18151229548E+02  0.41014727833E+02  0.00000000000E+00 0. -1.
</event>
<event>
 8    1  0.9181008E-006  0.1014865E+03  0.7561462E-02  0.1277201E+00
         -1   -1    0    0    0  501 -0.00000000000E+00  0.00000000000E+00  0.15348565145E+03  0.15348565145E+03  0.00000000000E+00 0.  1.
          1   -1    0    0  501    0  0.00000000000E+00 -0.00000000000E+00 -0.12672121558E+03  0.12672121558E+03  0.00000000000E+00 0. -1.
         23    2    1    2    0    0 -0.63991240790E+02 -0.24727989040E+02  0.67436971986E+02  0.13185386790E+03  0.90173970468E+02 0.  0.
         23    2    1    2    0    0  0.63991240790E+02  0.24727989040E+02 -0.40672536115E+02  0.14835299912E+03  0.12509198541E+03 0.  0.
          5    1    4    4  502    0  0.43879259548E+01  0.47183415789E+02 -0.64565301206E+02  0.80197750215E+02  0.41800000000E+01 0. -1.
         -5    1    4    4    0  502  0.59603314835E+02 -0.22455426749E+02  0.23892765092E+02  0.68155248906E+02  0.41800000000E+01 0. -1.
        -11    1    3    3    0    0  0.26672663187E+01 -0.24770305513E+02  0.59771794260E+02  0.64756078741E+02  0.00000000000E+00 0.  1.
         11    1    3    3    0    0 -0.66658507108E+02  0.42316472771E-01  0.76651777259E+01  0.67097789160E+02  0.00000000000E+00 0. -1.
</event>
<event>
 8    1  0.9181008E-006  0.7158965E+02  0.7561462E-02  0.1354769E+00
          2   -1    0    0  501    0  0.00000000000E+00  0.00000000000E+00  0.42259693807E+03  0.42259693807E+03  0.00000000000E+00 0.  1.
         -2   -1    0    0    0  501 -0.00000000000E+00 -0.00000000000E+00 -0.44235359566E+02  0.44235359566E+02  0.00000000000E+00 0. -1.
         23    2    1    2    0    0  0.63318982933E+01 -0.15277812566E+02  0.32250516302E+02  0.98439240536E+02  0.91524225114E+02 0.  0.
         23    2    1    2    0    0 -0.63318982933E+01  0.15277812566E+02  0.34611106221E+03  0.36839305710E+03  0.12508825943E+03 0.  0.
          5    1    4    4  502    0  0.16808467648E+02  0.24572376889E+02  0.10519915129E+02  0.31850703367E+02  0.41800000000E+01 0. -1.
         -5    1    4    4    0  502 -0.23140365941E+02 -0.92945643227E+01  0.33559114708E+03  0.33654235374E+03  0.41800000000E+01 0. -1.
        -11    1    3    3    0    0  0.32210163865E+01  0.36157968188E+02  0.29603279930E+02  0.46841517830E+02  0.00000000000E+00 0.  1.
         11    1    3    3    0    0  0.31108819068E+01 -0.51435780754E+02  0.26472363723E+01  0.51597722706E+02  0.00000000000E+00 0. -1.
</event>
<event>
 8    1  0.9181008E-006  0.1280950E+03  0.7561462E-02  0.1230310E+00
         -2   -1    0    0    0  501 -0.00000000000E+00  0.00000000000E+00  0.73979320888E+02  0.73979320888E+02  0.00000000000E+00 0.  1.
          2   -1    0    0  501    0  0.00000000000E+00 -0.00000000000E+00 -0.24779233129E+03  0.24779233129E+03  0.00000000000E+00 0. -1.
         23    2    1    2    0    0  0.59024051836E+02 -0.45465863533E+02 -0.48665945871E+02  0.12978243089E+03  0.94467569237E+02 0.  0.
         23    2    1    2    0    0 -0.59024051836E+02  0.45465863533E+02 -0.12514706453E+03  0.19198922129E+03  0.12508832835E+03 0.  0.
          5    1    4    4  502    0 -0.63508260541E+02  0.79229512119E+02 -0.12006176747E+03  0.15729880850E+03  0.41800000000E+01 0. -1.
         -5    1    4    4    0  502  0.44842087046E+01 -0.33763648587E+02 -0.50852970652E+01  0.34690412794E+02  0.41800000000E+01 0. -1.
        -11    1    3    3    0    0  0.89940532148E+01 -0.65676262467E+02 -0.28952458647E+02  0.72336085785E+02  0.00000000000E+00 0.  1.
         11    1    3    3    0    0  0.50029998621E+02  0.20210398935E+02 -0.19713487224E+02  0.57446345103E+02  0.00000000000E+00 0. -1.
</event>
<event>
 8    1  0.9181008E-006  0.1387426E+03  0.7561462E-02  0.1215031E+00
          2   -1    0    0  501    0  0.00000000000E+00  0.00000000000E+00  0.96712531197E+03  0.96712531197E+03  0.00000000000E+00 0. -1.
         -2   -1    0    0    0  501 -0.00000000000E+00 -0.00000000000E+00 -0.29487619091E+02  0.29487619091E+02  0.00000000000E+00 0.  1.
         23    2    1    2    0    0 -0.57698426241E+02  0.11220742332E+03  0.34977701648E+03  0.38249234307E+03  0.89648296230E+02 0.  0.
         23    2    1    2    0    0  0.57698426241E+02 -0.11220742332E+03  0.58786067640E+03  0.61412058798E+03  0.12507720612E+03 0.  0.
          5    1    4    4  502    0  0.72153536562E+02 -0.51511978770E+02  0.17164159236E+03  0.19323023941E+03  0.41800000000E+01 0. -1.
         -5    1    4    4    0  502 -0.14455110320E+02 -0.60695444545E+02  0.41621908404E+03  0.42089034857E+03  0.41800000000E+01 0. -1.
        -11    1    3    3    0    0 -0.48596619130E+02  0.96489076596E+02  0.34783369097E+03  0.36422527351E+03  0.00000000000E+00 0. -1.
         11    1    3    3    0    0 -0.91018071118E+01  0.15718346719E+02  0.19433255082E+01  0.18267069560E+02  0.00000000000E+00 0.  1.
</event>
<event>
 8    1  0.9181008E-006  0.1397232E+03  0.7561462E-02  0.1213702E+00
          3   -1    0    0  501    0  0.00000000000E+00  0.00000000000E+00  0.12841803126E+03  0.12841803126E+03  0.00000000000E+00 0. -1.
         -3   -1    0    0    0  501 -0.00000000000E+00 -0.00000000000E+00 -0.24641852846E+03  0.24641852846E+03  0.00000000000E+00 0.  1.
         23    2    1    2    0    0 -0.67968878553E+02  0.88679625120E+02 -0.12837415347E+03  0.20679216262E+03  0.11747012760E+03 0.  0.
         23    2    1    2    0    0  0.67968878553E+02 -0.88679625120E+02  0.10373656270E+02  0.16804439710E+03  0.12508981688E+03 0.  0.
          5    1    4    4  502    0  0.92879881035E+02 -0.10218646173E+03  0.15237408292E+02  0.13899063376E+03  0.41800000000E+01 0.  1.
         -5    1    4    4    0  502 -0.24911002482E+02  0.13506836613E+02 -0.48637520222E+01  0.29053763331E+02  0.41800000000E+01 0.  1.
        -11    1    3    3    0    0 -0.56160334197E+02  0.63077528214E+02 -0.99286037565E+01  0.85037255807E+02  0.00000000000E+00 0. -1.
         11    1    3    3    0    0 -0.11808544356E+02  0.25602096907E+02 -0.11844554972E+03  0.12175490681E+03  0.00000000000E+00 0.  1.
</event>
<event>
 8    1  0.9181008E-006  0.1210193E+03  0.7561462E-02  0.1241425E+00
          2   -1    0    0  501    0  0.00000000000E+00  0.00000000000E+00  0.42638170504E+03  0.42638170504E+03  0.00000000000E+00 0.  1.
         -2   -1    0    0    0  501 -0.00000000000E+00 -0.00000000000E+00 -0.82054473591E+02  0.82054473591E+02  0.00000000000E+00 0. -1.
         23    2    1    2    0    0 -0.11169128765E+03  0.49212512069E+01  0.23790250844E+02  0.14664807261E+03  0.91872295689E+02 0.  0.
         23    2    1    2    0    0  0.11169128765E+03 -0.49212512069E+01  0.32053698061E+03  0.36178810602E+03  0.12509002867E+03 0.  0.
          5    1    4    4  502    0  0.36927979636E+02 -0.24257830263E+02  0.15357644851E+02  0.46962193991E+02  0.41800000000E+01 0. -1.
         -5    1    4    4    0  502  0.74763308011E+02  0.19336579056E+02  0.30517933576E+03  0.31482591203E+03  0.41800000000E+01 0. -1.
        -11    1    3    3    0    0 -0.75390131410E+02 -0.17844002303E+02 -0.25288829207E+02  0.81496044167E+02  0.00000000000E+00 0. -1.
         11    1    3    3    0    0 -0.36301156237E+02  0.22765253510E+02  0.49079080051E+02  0.65152028443E+02  0.00000000000E+00 0.  1.
</event>
<event>
 8    1  0.9181008E-006  0.1171668E+03  0.7561462E-02  0.1247845E+00
         -1   -1    0    0    0  501 -0.00000000000E+00  0.00000000000E+00  0.30785519518E+02  0.30785519518E+02  0.00000000000E+00 0.  1.
          1   -1    0    0  501    0  0.00000000000E+00 -0.00000000000E+00 -0.53217583920E+03  0.53217583920E+03  0.00000000000E+00 0. -1.
         23    2    1    2    0    0 -0.64942365317E+02 -0.29626633143E+02 -0.17405193858E+03  0.20533967912E+03  0.82310742273E+02 0.  0.
         23    2    1    2    0    0  0.64942365317E+02  0.29626633143E+02 -0.32733838111E+03  0.35762167960E+03  0.12509037442E+03 0.  0.
          5    1    4    4  502    0  0.40337520416E+02 -0.47634576073E+02 -0.15343721734E+03  0.16570039365E+03  0.41800000000E+01 0. -1.
         -5    1    4    4    0  502  0.24604844901E+02  0.77261209215E+02 -0.17390116377E+03  0.19192128595E+03  0.41800000000E+01 0. -1.
        -11    1    3    3    0    0 -0.47213912925E+02 -0.46384855952E+02 -0.16746584814E+03  0.18007087141E+03  0.00000000000E+00 0. -1.
         11    1    3    3    0    0 -0.17728452392E+02  0.16758222809E+02 -0.65860904356E+01  0.25268807712E+02  0.00000000000E+00 0.  1.
</event>
<event>
 8    1  0.9181008E-006  0.9711354E+02  0.7561462E-02  0.1286486E+00
          1   -1    0    0  501    0  0.00000000000E+00  0.00000000000E+00  0.66347923941E+03  0.66347923941E+03  0.00000000000E+00 0. -1.
         -1   -1    0    0    0  501 -0.00000000000E+00 -0.00000000000E+00 -0.52381951220E+02  0.52381951220E+02  0.00000000000E+00 0.  1.
         23    2    1    2    0    0  0.22782153788E+02  0.71066943177E+02  0.34804892157E+02  0.12144511536E+03  0.89263646474E+02 0.  0.
         23    2    1    2    0    0 -0.22782153788E+02 -0.71066943177E+02  0.57629239604E+03  0.59441607528E+03  0.12509199765E+03 0.  0.
          5    1    4    4  502    0  0.74240396426E+00  0.65734487842E+01 -0.37750475291E+01  0.86881975353E+01  0.41800000000E+01 0.  1.
         -5    1    4    4    0  502 -0.23524557752E+02 -0.77640391961E+02  0.58006744357E+03  0.58572787774E+03  0.41800000000E+01 0.  1.
        -11    1    3    3    0    0  0.44101644015E+02  0.71312123218E+02  0.47761286816E+02  0.96496188738E+02  0.00000000000E+00 0. -1.
         11    1    3    3    0    0 -0.21319490227E+02 -0.24518004104E+00 -0.12956394659E+02  0.24948926617E+02  0.00000000000E+00 0.  1.
</event>
<event>
 8    1  0.9181008E-006  0.2049870E+03  0.7561462E-02  0.1145598E+00
         -2   -1    0    0    0  501 -0.00000000000E+00  0.00000000000E+00  0.13866085682E+03  0.13866085682E+03  0.00000000000E+00 0. -1.
          2   -1    0    0  501    0  0.00000000000E+00 -0.00000000000E+00 -0.55925623084E+03  0.55925623084E+03  0.00000000000E+00 0.  1.
         23    2    1    2    0    0 -0.12732016526E+03 -0.13523692096E+03  0.15917260838E+02  0.20731495295E+03  0.90701054323E+02 0.  0.
         23    2    1    2    0    0  0.12732016526E+03  0.13523692096E+03 -0.43651263486E+03  0.49060213470E+03  0.12509086661E+03 0.  0.
          5    1    4    4  502    0  0.89926292601E+02  0.15623950503E+03 -0.33842492545E+03  0.38346632655E+03  0.41800000000E+01 0. -1.
         -5    1    4    4    0  502  0.37393872656E+02 -0.21002584077E+02 -0.98087709413E+02  0.10713580815E+03  0.41800000000E+01 0. -1.
        -11    1    3    3    0    0 -0.36551147866E+02 -0.50877037718E+02  0.48453229453E+02  0.79197063214E+02  0.00000000000E+00 0. -1.
         11    1    3    3    0    0 -0.90769017391E+02 -0.84359883237E+02 -0.32535968614E+02  0.12811788974E+03  0.00000000000E+00 0.  1.
</event>
<event>
 8    1  0.9181008E-006  0.2473195E+03  0.7561462E-02  0.1115011E+00
         -1   -1    0    0    0  501 -0.00000000000E+00  0.00000000000E+00  0.91615310030E+03  0.91615310030E+03  0.00000000000E+00 0.  1.
          1   -1    0    0  501    0  0.00000000000E+00 -0.00000000000E+00 -0.73307941284E+02  0.73307941284E+02  0.00000000000E+00 0. -1.
         23    2    1    2    0    0 -0.17757725826E+03  0.13344029585E+03  0.55498681437E+03  0.60494745112E+03  0.92795793514E+02 0.  0.
         23    2    1    2    0    0  0.17757725826E+03 -0.13344029585E+03  0.28785834465E+03  0.38451359046E+03  0.12509308316E+03 0.  0.
          5    1    4    4  502    0  0.77253113035E+02  0.10884064842E+02  0.10455999299E+03  0.13052498181E+03  0.41800000000E+01 0. -1.
         -5    1    4    4    0  502  0.10032414522E+03 -0.14432436069E+03  0.18329835165E+03  0.25398860865E+03  0.41800000000E+01 0. -1.
        -11    1    3    3    0    0 -0.80293272504E+02  0.62121642445E+01  0.18070311210E+03  0.19783633467E+03  0.00000000000E+00 0.  1.
         11    1    3    3    0    0 -0.97283985754E+02  0.12722813161E+03  0.37428370226E+03  0.40711111645E+03  0.00000000000E+00 0. -1.
</event>
<event>
 8    1  0.9181008E-006  0.1000079E+03  0.7561462E-02  0.1280279E+00
         -2   -1    0    0    0  501 -0.00000000000E+00  0.00000000000E+00  0.19083322597E+02  0.19083322597E+02  0.00000000000E+00 0.  1.
          2   -1    0    0  501    0  0.00000000000E+00 -0.00000000000E+00 -0.67296756107E+03  0.67296756107E+03  0.00000000000E+00 0. -1.
         23    2    1    2    0    0 -0.18939565624E+02 -0.13209171336E+02 -0.21479187454E+03  0.23490466985E+03  0.92257602353E+02 0.  0.
         23    2    1    2    0    0  0.18939565624E+02  0.13209171336E+02 -0.43909236393E+03  0.45714621382E+03  0.12508943759E+03 0.  0.
          5    1    4    4  502    0  0.62847059239E+02  0.17837139065E+01 -0.12728600896E+03  0.14202864136E+03  0.41800000000E+01 0. -1.
         -5    1    4    4    0  502 -0.43907493615E+02  0.11425457430E+02 -0.31180635497E+03  0.31511757246E+03  0.41800000000E+01 0. -1.
        -11    1    3    3    0    0  0.25842168849E+02 -0.33474624031E+02 -0.13213053072E+03  0.13873300001E+03  0.00000000000E+00 0. -1.
         11    1    3    3    0    0 -0.44781734473E+02  0.20265452694E+02 -0.82661343825E+02  0.96171669832E+02  0.00000000000E+00 0.  1.
</event>
<event>
 8    1  0.9181008E-006  0.3979826E+03  0.7561462E-02  0.1044480E+00
         -2   -1    0    0    0  501 -0.00000000000E+00  0.00000000000E+00  0.85598850313E+02  0.85598850313E+02  0.00000000000E+00 0.  1.
          2   -1    0    0  501    0  0.00000000000E+00 -0.00000000000E+00 -0.18731462458E+04  0.18731462458E+04  0.00000000000E+00 0. -1.
         23    2    1    2    0    0  0.37530838851E+03 -0.87110961224E+02 -0.89815747524E+03  0.98144959521E+03  0.90065262747E+02 0.  0.
         23    2    1    2    0    0 -0.37530838851E+03  0.87110961224E+02 -0.88938992023E+03  0.97729550089E+03  0.12508940721E+03 0.  0.
          5    1    4    4  502    0 -0.20015535665E+03  0.10246487218E+03 -0.42735851370E+03  0.48292234206E+03  0.41800000000E+01 0. -1.
         -5    1    4    4    0  502 -0.17515303186E+03 -0.15353910953E+02 -0.46203140653E+03  0.49437315883E+03  0.41800000000E+01 0. -1.
        -11    1    3    3    0    0  0.29661587014E+03 -0.10471337377E+03 -0.73370651715E+03  0.79829262703E+03  0.00000000000E+00 0. -1.
         11    1    3    3    0    0  0.78692518372E+02  0.17602412545E+02 -0.16445095809E+03  0.18315696818E+03  0.00000000000E+00 0.  1.
</event>
<event>
 8    1  0.9181008E-006  0.8566527E+02  0.7561462E-02  0.1313702E+00
          2   -1    0    0  501    0  0.00000000000E+00  0.00000000000E+00  0.51650590291E+03  0.51650590291E+03  0.00000000000E+00 0. -1.
         -2   -1    0    0    0  501 -0.00000000000E+00 -0.00000000000E+00 -0.21662629299E+02  0.21662629299E+02  0.00000000000E+00 0.  1.
         23    2    1    2    0    0 -0.51910087131E+01 -0.15384296295E+02  0.12271263436E+03  0.14669882754E+03  0.78730757813E+02 0.  0.
         23    2    1    2    0    0  0.51910087131E+01  0.15384296295E+02  0.37213063926E+03  0.39146970468E+03  0.12043128274E+03 0.  0.
          5    1    4    4  502    0 -0.13811726389E+02  0.64000794481E+02  0.25242100626E+03  0.26080778800E+03  0.41800000000E+01 0. -1.
         -5    1    4    4    0  502  0.19002735102E+02 -0.48616498186E+02  0.11970963299E+03  0.13066191667E+03  0.41800000000E+01 0.  1.
        -11    1    3    3    0    0 -0.25994588066E+02 -0.19057742070E+02  0.12647679470E+02  0.34624845667E+02  0.00000000000E+00 0. -1.
         11    1    3    3    0    0  0.20803579353E+02  0.36734457756E+01  0.11006495489E+03  0.11207398187E+03  0.00000000000E+00 0.  1.
</event>
<event>
 8    1  0.9181008E-006  0.1911753E+03  0.7561462E-02  0.1157406E+00
          1   -1    0    0  501    0  0.00000000000E+00  0.00000000000E+00  0.99099823896E+03  0.99099823896E+03  0.00000000000E+00 0. -1.
         -1   -1    0    0    0  501 -0.00000000000E+00 -0.00000000000E+00 -0.54827924848E+02  0.54827924848E+02  0.00000000000E+00 0.  1.
         23    2    1    2    0    0 -0.24991414455E+02  0.18026112265E+03  0.23374678214E+03  0.30950912958E+03  0.89664374178E+02 0.  0.
         23    2    1    2    0    0  0.24991414455E+02 -0.18026112265E+03  0.70242353197E+03  0.73631703422E+03  0.12508122758E+03 0.  0.
          5    1    4    4  502    0  0.23088524586E+02 -0.63268071764E+02  0.48225014654E+03  0.48694825711E+03  0.41800000000E+01 0. -1.
         -5    1    4    4    0  502  0.19028898690E+01 -0.11699305088E+03  0.22017338543E+03  0.24936877711E+03  0.41800000000E+01 0. -1.
        -11    1    3    3    0    0 -0.44071417471E+02  0.52211027609E+02  0.49699803707E+02  0.84488766888E+02  0.00000000000E+00 0. -1.
         11    1    3    3    0    0  0.19080003016E+02  0.12805009504E+03  0.18404697843E+03  0.22502036269E+03  0.00000000000E+00 0.  1.
</event>
<event>
 8    1  0.9181008E-006  0.8911242E+02  0.7561462E-02  0.1305015E+00
          2   -1    0    0  501    0  0.00000000000E+00  0.00000000000E+00  0.28762648075E+03  0.28762648075E+03  0.00000000000E+00 0. -1.
         -2   -1    0    0    0  501 -0.00000000000E+00 -0.00000000000E+00 -0.46590398498E+02  0.46590398498E+02  0.00000000000E+00 0.  1.
         23    2    1    2    0    0 -0.24980264920E+02 -0.87438730942E+01  0.60615544578E+02  0.11308142624E+03  0.91720748821E+02 0.  0.
         23    2    1    2    0    0  0.24980264920E+02  0.87438730942E+01  0.18042053767E+03  0.22113545300E+03  0.12509536046E+03 0.  0.
          5    1    4    4  502    0  0.64124630223E+02  0.39052959340E+02  0.84518229082E+02  0.11312782718E+03  0.41800000000E+01 0.  1.
         -5    1    4    4    0  502 -0.39144365303E+02 -0.30309086245E+02  0.95902308591E+02  0.10800762583E+03  0.41800000000E+01 0.  1.
        -11    1    3    3    0    0  0.57514970779E+01  0.13984940512E+02  0.71704706788E+02  0.73281807124E+02  0.00000000000E+00 0. -1.
         11    1    3    3    0    0 -0.30731761998E+02 -0.22728813606E+02 -0.11089162210E+02  0.39799619118E+02  0.00000000000E+00 0.  1.
</event>
<event>
 7    1  0.9181008E-006  0.1119654E+03  0.7561462E-02  0.1256973E+00
          1   -1    0    0  501    0  0.00000000000E+00  0.00000000000E+00  0.72204749480E+03  0.72204749480E+03  0.00000000000E+00 0. -1.
         -1   -1    0    0    0  501 -0.00000000000E+00 -0.00000000000E+00 -0.19573887720E+02  0.19573887720E+02  0.00000000000E+00 0.  1.
         23    2    1    2    0    0  0.20654529779E+02  0.17596136833E+02  0.31421495413E+03  0.32812719677E+03  0.90554879646E+02 0.  0.
          5    1    1    2  502    0  0.51241587738E+02 -0.34081563056E+02  0.24064137519E+03  0.24842100779E+03  0.41800000000E+01 0. -1.
         -5    1    1    2    0  502 -0.71896117517E+02  0.16485426223E+02  0.14761727776E+03  0.16507317797E+03  0.41800000000E+01 0.  1.
        -11    1    3    3    0    0 -0.10865078096E+02  0.45189204805E+02  0.10602487270E+03  0.11576436319E+03  0.00000000000E+00 0. -1.
         11    1    3    3    0    0  0.31519607874E+02 -0.27593067972E+02  0.20819008143E+03  0.21236283358E+03  0.00000000000E+00 0.  1.
</event>
<event>
 8    1  0.9181008E-006  0.8287010E+02  0.7561462E-02  0.1321098E+00
          1   -1    0    0  501    0  0.00000000000E+00  0.00000000000E+00  0.29003143737E+03  0.29003143737E+03  0.00000000000E+00 0. -1.
         -1   -1    0    0    0  501 -0.00000000000E+00 -0.00000000000E+00 -0.57436637534E+02  0.57436637534E+02  0.00000000000E+00 0.  1.
         23    2    1    2    0    0 -0.33762162097E+02  0.11049526784E+02  0.12138883404E+02  0.91517956641E+02  0.83463814110E+02 0.  0.
         23    2    1    2    0    0  0.33762162097E+02 -0.11049526784E+02  0.22045591643E+03  0.25595011826E+03  0.12509067238E+03 0.  0.
          5    1    4    4  502    0 -0.46911143864E+02 -0.39534609494E+01  0.62112708686E+02  0.78049639669E+02  0.41800000000E+01 0.  1.
         -5    1    4    4    0  502  0.80673305961E+02 -0.70960658346E+01  0.15834320774E+03  0.17790047859E+03  0.41800000000E+01 0.  1.
        -11    1    3    3    0    0 -0.21619270891E+02  0.10330511385E+01 -0.35371346529E+02  0.41467966237E+02  0.00000000000E+00 0.  1.
         11    1    3    3    0    0 -0.12142891206E+02  0.10016475645E+02  0.47510229933E+02  0.50049990404E+02  0.00000000000E+00 0. -1.
</event>
<event>
 8    1  0.9181008E-006  0.2016595E+03  0.7561462E-02  0.1148346E+00
          1   -1    0    0  501    0  0.00000000000E+00  0.00000000000E+00  0.10797699211E+04  0.10797699211E+04  0.00000000000E+00 0. -1.
         -1   -1    0    0    0  501 -0.00000000000E+00 -0.00000000000E+00 -0.43002793511E+02  0.43002793511E+02  0.00000000000E+00 0.  1.
         23    2    1    2    0    0  0.12053705902E+03 -0.12885530626E+03  0.35045925078E+03  0.40319072603E+03  0.92780399617E+02 0.  0.
         23    2    1    2    0    0 -0.12053705902E+03  0.12885530626E+03  0.68630787676E+03  0.71958198853E+03  0.12508742528E+03 0.  0.
          5    1    4    4  502    0 -0.10117570276E+03  0.15314631272E+03  0.55474313843E+03  0.58433529584E+03  0.41800000000E+01 0. -1.
         -5    1    4    4    0  502 -0.19361356260E+02 -0.24291006465E+02  0.13156473833E+03  0.13524669269E+03  0.41800000000E+01 0. -1.
        -11    1    3    3    0    0  0.43030981702E+02 -0.64681930253E+01  0.14784554763E+03  0.15411621869E+03  0.00000000000E+00 0.  1.
         11    1    3    3    0    0  0.77506077319E+02 -0.12238711323E+03  0.20261370315E+03  0.24907450734E+03  0.00000000000E+00 0. -1.
</event>
<event>
 8    1  0.9181008E-006  0.1448560E+03  0.7561462E-02  0.1206940E+00
         -1   -1    0    0    0  501 -0.00000000000E+00  0.00000000000E+00  0.55195954595E+03  0.55195954595E+03  0.00000000000E+00 0.  1.
          1   -1    0    0  501    0  0.00000000000E+00 -0.00000000000E+00 -0.91618162207E+02  0.91618162207E+02  0.00000000000E+00 0. -1.
         23    2    1    2    0    0  0.96955779127E+02 -0.68966183605E+02  0.44594023347E+03  0.47033316949E+03  0.90519837091E+02 0.  0.
         23    2    1    2    0    0 -0.96955779127E+02  0.68966183605E+02  0.14401150273E+02  0.17324453867E+03  0.12509803940E+03 0.  0.
          5    1    4    4  502    0 -0.22579978280E+02  0.69328790367E+02 -0.37844396779E+02  0.82255743632E+02  0.41800000000E+01 0. -1.
         -5    1    4    4    0  502 -0.74375800848E+02 -0.36260676218E+00  0.52245547053E+02  0.90988795037E+02  0.41800000000E+01 0. -1.
        -11    1    3    3    0    0  0.48955742774E+01 -0.47374403478E+02  0.87407947836E+02  0.99541197990E+02  0.00000000000E+00 0. -1.
         11    1    3    3    0    0  0.92060204850E+02 -0.21591780128E+02  0.35853228564E+03  0.37079197150E+03  0.00000000000E+00 0.  1.
</event>
<event>
 8    1  0.9181008E-006  0.1287235E+03  0.7561462E-02  0.1229362E+00
         -2   -1    0    0    0  501 -0.00000000000E+00  0.00000000000E+00  0.17426420959E+02  0.17426420959E+02  0.00000000000E+00 0.  1.
          2   -1    0    0  501    0  0.00000000000E+00 -0.00000000000E+00 -0.11251975839E+04  0.11251975839E+04  0.00000000000E+00 0. -1.
         23    2    1    2    0    0 -0.37063498535E+02  0.76935975919E+02 -0.42384214881E+03  0.44212467169E+03  0.92407850850E+02 0.  0.
         23    2    1    2    0    0  0.37063498535E+02 -0.76935975919E+02 -0.68392901415E+03  0.70049933318E+03  0.12509025573E+03 0.  0.
          5    1    4    4  502    0  0.44279449932E+01  0.28872925167E+02 -0.60650127106E+02  0.67447481959E+02  0.41800000000E+01 0. -1.
         -5    1    4    4    0  502  0.32635553542E+02 -0.10580890109E+03 -0.62327888704E+03  0.63305185122E+03  0.41800000000E+01 0. -1.
        -11    1    3    3    0    0 -0.14575699530E+02 -0.15924450892E+02 -0.30643535472E+02  0.37484202262E+02  0.00000000000E+00 0.  1.
         11    1    3    3    0    0 -0.22487799006E+02  0.92860426811E+02 -0.39319861334E+03  0.40464046943E+03  0.00000000000E+00 0. -1.
</event>
<event>
 8    1  0.9181008E-006  0.1169574E+03  0.7561462E-02  0.1248202E+00
         -2   -1    0    0    0  501 -0.00000000000E+00  0.00000000000E+00  0.11095748085E+02  0.11095748085E+02  0.00000000000E+00 0.  1.
          2   -1    0    0  501    0  0.00000000000E+00 -0.00000000000E+00 -0.13171338528E+04  0.13171338528E+04  0.00000000000E+00 0. -1.
         23    2    1    2    0    0 -0.48653930882E+02  0.19692214306E+02 -0.52300992454E+03  0.53353849369E+03  0.91481991617E+02 0.  0.
         23    2    1    2    0    0  0.48653930882E+02 -0.19692214306E+02 -0.78302818021E+03  0.79469110723E+03  0.12508331867E+03 0.  0.
          5    1    4    4  502    0  0.87349273249E+02 -0.66176282119E+01 -0.40186786732E+03  0.41132583644E+03  0.41800000000E+01 0. -1.
         -5    1    4    4    0  502 -0.38695342367E+02 -0.13074586094E+02 -0.38116031289E+03  0.38336527079E+03  0.41800000000E+01 0. -1.
        -11    1    3    3    0    0 -0.52934769864E+01  0.51254140384E+02 -0.23579198613E+03  0.24135631031E+03  0.00000000000E+00 0. -1.
         11    1    3    3    0    0 -0.43360453895E+02 -0.31561926078E+02 -0.28721793841E+03  0.29218218338E+03  0.00000000000E+00 0.  1.
</event>
<event>
 8    1  0.9181008E-006  0.6600485E+02  0.7561462E-02  0.1374231E+00
          1   -1    0    0  501    0  0.00000000000E+00  0.00000000000E+00  0.67168484129E+03  0.67168484129E+03  0.00000000000E+00 0. -1.
         -1   -1    0    0    0  501 -0.00000000000E+00 -0.00000000000E+00 -0.90032179148E+02  0.90032179148E+02  0.00000000000E+00 0.  1.
         23    2    1    2    0    0  0.22161570315E+02 -0.14194095834E+02 -0.56673807718E+02  0.11068663772E+03  0.91361938103E+02 0.  0.
         23    2    1    2    0    0 -0.22161570315E+02  0.14194095834E+02  0.63832646986E+03  0.65103038271E+03  0.12524883048E+03 0.  0.
          5    1    4    4  502    0 -0.55307064932E+02  0.15284040019E+02  0.58678755461E+03  0.58960120416E+03  0.41800000000E+01 0. -1.
         -5    1    4    4    0  502  0.33145494618E+02 -0.10899441853E+01  0.51538915254E+02  0.61429178550E+02  0.41800000000E+01 0.  1.
        -11    1    3    3    0    0  0.71829137837E+01 -0.22711848576E+02  0.20613734028E+02  0.31501561021E+02  0.00000000000E+00 0. -1.
         11    1    3    3    0    0  0.14978656531E+02  0.85177527420E+01 -0.77287541746E+02  0.79185076703E+02  0.00000000000E+00 0.  1.
</event>
<event>
 8    1  0.9181008E-006  0.1108387E+03  0.7561462E-02  0.1259025E+00
          1   -1    0    0  501    0  0.00000000000E+00  0.00000000000E+00  0.49074467692E+02  0.49074467692E+02  0.00000000000E+00 0. -1.
         -1   -1    0    0    0  501 -0.00000000000E+00 -0.00000000000E+00 -0.29620675531E+03  0.29620675531E+03  0.00000000000E+00 0.  1.
         23    2    1    2    0    0  0.26245864464E+02 -0.31953899632E+02 -0.15661915588E+03  0.18543702226E+03  0.90263127201E+02 0.  0.
         23    2    1    2    0    0 -0.26245864464E+02  0.31953899632E+02 -0.90513131742E+02  0.15984420075E+03  0.12509054478E+03 0.  0.
          5    1    4    4  502    0 -0.82068222113E+00 -0.43457212975E+02 -0.60666251011E+02  0.74746700868E+02  0.41800000000E+01 0. -1.
         -5    1    4    4    0  502 -0.25425182243E+02  0.75411112607E+02 -0.29846880731E+02  0.85097499881E+02  0.41800000000E+01 0. -1.
        -11    1    3    3    0    0  0.15963190146E+02 -0.63325499935E+02 -0.91346190189E+02  0.11229011018E+03  0.00000000000E+00 0. -1.
         11    1    3    3    0    0  0.10282674318E+02  0.31371600303E+02 -0.65272965689E+02  0.73146912078E+02  0.00000000000E+00 0.  1.
</event>
<event>
 8    1  0.9181008E-006  0.1458423E+03  0.7561462E-02  0.1205677E+00
          1   -1    0    0  501    0  0.00000000000E+00  0.00000000000E+00  0.35568974286E+03  0.35568974286E+03  0.00000000000E+00 0. -1.
         -1   -1    0    0    0  501 -0.00000000000E+00 -0.00000000000E+00 -0.80390192848E+02  0.80390192848E+02  0.00000000000E+00 0.  1.
         23    2    1    2    0    0  0.88567946821E+02 -0.93723596023E+02  0.13814369683E+03  0.21005693614E+03  0.91716093414E+02 0.  0.
         23    2    1    2    0    0 -0.88567946821E+02  0.93723596023E+02  0.13715585317E+03  0.22602299956E+03  0.12508506952E+03 0.  0.
          5    1    4    4  502    0 -0.47011906918E+02 -0.11870099726E+02  0.92977839014E+00  0.48676026413E+02  0.41800000000E+01 0.  1.
         -5    1    4    4    0  502 -0.41556039903E+02  0.10559369575E+03  0.13622607478E+03  0.17734697315E+03  0.41800000000E+01 0.  1.
        -11    1    3    3    0    0  0.31270443069E+02 -0.41301130164E+02  0.11941909024E+03  0.13017120678E+03  0.00000000000E+00 0. -1.
         11    1    3    3    0    0  0.57297503752E+02 -0.52422465858E+02  0.18724606597E+02  0.79885729358E+02  0.00000000000E+00 0.  1.
</event>
<event>
 8    1  0.9181008E-006  0.1000412E+03  0.7561462E-02  0.1280209E+00
          3   -1    0    0  501    0  0.00000000000E+00  0.00000000000E+00  0.19976691224E+03  0.19976691224E+03  0.00000000000E+00 0. -1.
         -3   -1    0    0    0  501 -0.00000000000E+00 -0.00000000000E+00 -0.34461434419E+03  0.34461434419E+03  0.00000000000E+00 0.  1.
         23    2    1    2    0    0  0.61454200941E+02  0.42299368132E+02 -0.30815958743E+03  0.32994519893E+03  0.91299767857E+02 0.  0.
         23    2    1    2    0    0 -0.61454200941E+02 -0.42299368132E+02  0.16331215549E+03  0.21443605750E+03  0.11724379417E+03 0.  0.
          5    1    4    4  502    0 -0.78072451125E+02 -0.28296588944E+02  0.17169771329E+03  0.19077101908E+03  0.41800000000E+01 0. -1.
         -5    1    4    4    0  502  0.16618250184E+02 -0.14002779188E+02 -0.83855578022E+01  0.23665038429E+02  0.41800000000E+01 0.  1.
        -11    1    3    3    0    0  0.52304005359E+02  0.80087248365E+00 -0.26213113403E+03  0.26729961055E+03  0.00000000000E+00 0.  1.
         11    1    3    3    0    0  0.91501955816E+01  0.41498495648E+02 -0.46028453403E+02  0.62645588376E+02  0.00000000000E+00 0. -1.
</event>
<event>
 8    1  0.9181008E-006  0.1052836E+03  0.7561462E-02  0.1269562E+00
          1   -1    0    0  501    0  0.00000000000E+00  0.00000000000E+00  0.84500306876E+03  0.84500306876E+03  0.00000000000E+00 0. -1.
         -1   -1    0    0    0  501 -0.00000000000E+00 -0.00000000000E+00 -0.13864601197E+02  0.13864601197E+02  0.00000000000E+00 0.  1.
         23    2    1    2    0    0 -0.63981087537E+01 -0.52341692213E+01  0.32845688048E+03  0.34079237551E+03  0.90483084322E+02 0.  0.
         23    2    1    2    0    0  0.63981087537E+01  0.52341692213E+01  0.50268158709E+03  0.51807529445E+03  0.12507957627E+03 0.  0.
          5    1    4    4  502    0  0.28097637729E+02  0.58418280601E+02  0.32014217827E+03  0.32666597536E+03  0.41800000000E+01 0. -1.
         -5    1    4    4    0  502 -0.21699528975E+02 -0.53184111379E+02  0.18253940882E+03  0.19140931909E+03  0.41800000000E+01 0. -1.
        -11    1    3    3    0    0  0.54448978465E+01  0.40453542978E+02  0.11086528626E+03  0.11814079630E+03  0.00000000000E+00 0.  1.
         11    1    3    3    0    0 -0.11843006600E+02 -0.45687712200E+02  0.21759159422E+03  0.22265157921E+03  0.00000000000E+00 0. -1.
</event>
<event>
 8    1  0.9181008E-006  0.8133610E+02  0.7561462E-02  0.1325302E+00
         -1   -1    0    0    0  501 -0.00000000000E+00  0.00000000000E+00  0.14918313152E+02  0.14918313152E+02  0.00000000000E+00 0.  1.
          1   -1    0    0  501    0  0.00000000000E+00 -0.00000000000E+00 -0.18506237603E+04  0.18506237603E+04  0.00000000000E+00 0. -1.
         23    2    1    2    0    0  0.12427837037E+02 -0.29497775191E+02 -0.16984762473E+03  0.19468314340E+03  0.89603241133E+02 0.  0.
         23    2    1    2    0    0 -0.12427837037E+02  0.29497775191E+02 -0.16658578224E+04  0.16708589300E+04  0.12515074815E+03 0.  0.
          5    1    4    4  502    0 -0.38412375509E+02  0.32714302343E+02 -0.26744973861E+03  0.27219950634E+03  0.41800000000E+01 0.  1.
         -5    1    4    4    0  502  0.25984538472E+02 -0.32165271516E+01 -0.13984080838E+04  0.13986594237E+04  0.41800000000E+01 0.  1.
        -11    1    3    3    0    0 -0.33765711517E+02 -0.86903763867E+01 -0.30191477319E+02  0.46121266447E+02  0.00000000000E+00 0.  1.
         11    1    3    3    0    0  0.46193548553E+02 -0.20807398804E+02 -0.13965614742E+03  0.14856187695E+03  0.00000000000E+00 0. -1.
</event>
<event>
 8    1  0.9181008E-006  0.1150084E+03  0.7561462E-02  0.1251566E+00
          1   -1    0    0  501    0  0.00000000000E+00  0.00000000000E+00  0.13377502902E+04  0.13377502902E+04  0.00000000000E+00 0. -1.
         -1   -1    0    0    0  501 -0.00000000000E+00 -0.00000000000E+00 -0.31785403884E+02  0.31785403884E+02  0.00000000000E+00 0.  1.
         23    2    1    2    0    0 -0.58071167839E+02 -0.33951390116E+02  0.45798235522E+02  0.10139100873E+03  0.60478928973E+02 0.  0.
         23    2    1    2    0    0  0.58071167839E+02  0.33951390116E+02  0.12601666508E+04  0.12681446854E+04  0.12508396296E+03 0.  0.
          5    1    4    4  502    0  0.38492035030E+01  0.73180271348E+02  0.75181155009E+03  0.75538615803E+03  0.41800000000E+01 0.  1.
         -5    1    4    4    0  502  0.54221964336E+02 -0.39228881233E+02  0.50835510074E+03  0.51275852737E+03  0.41800000000E+01 0.  1.
        -11    1    3    3    0    0  0.99687771903E+01  0.50084974530E+01  0.10807439201E+02  0.15532620754E+02  0.00000000000E+00 0. -1.
         11    1    3    3    0    0 -0.68039945029E+02 -0.38959887569E+02  0.34990796321E+02  0.85858387978E+02  0.00000000000E+00 0.  1.
</event>
<event>
 8    1  0.9181008E-006  0.9409815E+02  0.7561462E-02  0.1293220E+00
          1   -1    0    0  501    0  0.00000000000E+00  0.00000000000E+00  0.49776673552E+03  0.49776673552E+03  0.00000000000E+00 0. -1.
         -1   -1    0    0    0  501 -0.00000000000E+00 -0.00000000000E+00 -0.24805201175E+02  0.24805201175E+02  0.00000000000E+00 0.  1.
         23    2    1    2    0    0  0.16926448817E+02 -0.22025530349E+02  0.20154592136E+03  0.22242940176E+03  0.89902456545E+02 0.  0.
         23    2    1    2    0    0 -0.16926448817E+02  0.22025530349E+02  0.27141561298E+03  0.30014253493E+03  0.12508987828E+03 0.  0.
          5    1    4    4  502    0  0.26938634124E+02  0.45625881785E+02  0.49374860637E+02  0.72544885141E+02  0.41800000000E+01 0.  1.
         -5    1    4    4    0  502 -0.43865082941E+02 -0.23600351436E+02  0.22204075234E+03  0.22759764979E+03  0.41800000000E+01 0.  1.
        -11    1    3    3    0    0  0.11781182835E+01 -0.51568747340E+02  0.16496440716E+03  0.17284090747E+03  0.00000000000E+00 0. -1.
         11    1    3    3    0    0  0.15748330533E+02  0.29543216991E+02  0.36581514202E+02  0.49588494291E+02  0.00000000000E+00 0.  1.
</event>
<event>
 8    1  0.9181008E-006  0.9531075E+02  0.7561462E-02  0.1290478E+00
          2   -1    0    0  501    0  0.00000000000E+00  0.00000000000E+00  0.13760968263E+03  0.13760968263E+03  0.00000000000E+00 0. -1.
         -2   -1    0    0    0  501 -0.00000000000E+00 -0.00000000000E+00 -0.13609727756E+03  0.13609727756E+03  0.00000000000E+00 0.  1.
         23    2    1    2    0    0  0.41465474207E+02  0.42567535426E+02 -0.48364031001E+02  0.12651127851E+03  0.10067096638E+03 0.  0.
         23    2    1    2    0    0 -0.41465474207E+02 -0.42567535426E+02  0.49876436077E+02  0.14719568168E+03  0.12509008437E+03 0.  0.
          5    1    4    4  502    0 -0.32109498061E+02 -0.19099971254E+01  0.85960932406E+02  0.91877212925E+02  0.41800000000E+01 0. -1.
         -5    1    4    4    0  502 -0.93559761467E+01 -0.40657538301E+02 -0.36084496329E+02  0.55318468757E+02  0.41800000000E+01 0. -1.
        -11    1    3    3    0    0 -0.13945113076E+02 -0.25149887250E+02 -0.17839585228E+02  0.33841303292E+02  0.00000000000E+00 0.  1.
         11    1    3    3    0    0  0.55410587283E+02  0.67717422676E+02 -0.30524445773E+02  0.92669975217E+02  0.00000000000E+00 0. -1.
</event>
<event>
 8    1  0.9181008E-006  0.9697579E+02  0.7561462E-02  0.1286787E+00
          2   -1    0    0  501    0  0.00000000000E+00  0.00000000000E+00  0.82756614262E+03  0.82756614262E+03  0.00000000000E+00 0. -1.
         -2   -1    0    0    0  501 -0.00000000000E+00 -0.00000000000E+00 -0.43555175775E+02  0.43555175775E+02  0.00000000000E+00 0.  1.
         23    2    1    2    0    0  0.28100864152E+02  0.14892269225E+02  0.21310454356E+02  0.97576769496E+02  0.89753285354E+02 0.  0.
         23    2    1    2    0    0 -0.28100864152E+02 -0.14892269225E+02  0.76270051249E+03  0.77354454890E+03  0.12509060369E+03 0.  0.
          5    1    4    4  502    0  0.22526075573E+02  0.44937216339E+02  0.28080545121E+03  0.28529975696E+03  0.41800000000E+01 0.  1.
         -5    1    4    4    0  502 -0.50626939725E+02 -0.59829485564E+02  0.48189506129E+03  0.48824479194E+03  0.41800000000E+01 0.  1.
        -11    1    3    3    0    0 -0.15662313712E+02  0.14373841190E+02  0.43566773742E+02  0.48476583580E+02  0.00000000000E+00 0. -1.
         11    1    3    3    0    0  0.43763177864E+02  0.51842803527E+00 -0.22256319386E+02  0.49100185916E+02  0.00000000000E+00 0.  1.
</event>
<event>
 7    1  0.9181008E-006  0.5916813E+02  0.7561462E-02  0.1401356E+00
         -3   -1    0    0    0  501 -0.00000000000E+00  0.00000000000E+00  0.26140479939E+02  0.26140479939E+02  0.00000000000E+00 0. -1.
          3   -1    0    0  501    0  0.00000000000E+00 -0.00000000000E+00 -0.29847645264E+03  0.29847645264E+03  0.00000000000E+00 0.  1.
         23    2    1    2    0    0 -0.85501147088E+01  0.58866987369E+01 -0.26647683621E+03  0.28919751888E+03  0.11188182608E+03 0.  0.
          5    1    3    3  502    0  0.25678070090E+02 -0.27410252117E+02 -0.30964406613E+02  0.48856443604E+02  0.41800000000E+01 0. -1.
         -5    1    3    3    0  502 -0.34228184799E+02  0.33296950854E+02 -0.23551242960E+03  0.24034107528E+03  0.41800000000E+01 0.  1.
        -11    1    1    2    0    0 -0.78036321190E+01 -0.12690675811E+02 -0.90359901406E+01  0.17424093796E+02  0.00000000000E+00 0. -1.
         11    1    1    2    0    0  0.16353746828E+02  0.68039770737E+01  0.31768536489E+01  0.17995319904E+02  0.00000000000E+00 0.  1.
</event>
<event>
 7    1  0.9181008E-006  0.1102010E+03  0.7561462E-02  0.1260198E+00
          1   -1    0    0  501    0  0.00000000000E+00  0.00000000000E+00  0.38976606713E+03  0.38976606713E+03  0.00000000000E+00 0. -1.
         -1   -1    0    0    0  501 -0.00000000000E+00 -0.00000000000E+00 -0.57934755367E+02  0.57934755367E+02  0.00000000000E+00 0.  1.
         23    2    1    2    0    0 -0.38076236752E+02  0.43144832448E+02  0.33890383678E+02  0.11149884324E+03  0.89286939499E+02 0.  0.
          5    1    1    2  502    0  0.36911525670E+02  0.50076722115E+02  0.11368872436E+03  0.12966393975E+03  0.41800000000E+01 0. -1.
         -5    1    1    2    0  502  0.11647110817E+01 -0.93221554563E+02  0.18425220372E+03  0.20653803951E+03  0.41800000000E+01 0.  1.
        -11    1    3    3    0    0 -0.25934120891E+02  0.73870090070E+01 -0.28078650833E+02  0.38930157476E+02  0.00000000000E+00 0.  1.
         11    1    3    3    0    0 -0.12142115861E+02  0.35757823441E+02  0.61969034511E+02  0.72568685761E+02  0.00000000000E+00 0. -1.
</event>
<event>
 8    1  0.9181008E-006  0.7497597E+02  0.7561462E-02  0.1343945E+00
         -1   -1    0    0    0  501 -0.00000000000E+00  0.00000000000E+00  0.36754327649E+02  0.36754327649E+02  0.00000000000E+00 0.  1.
          1   -1    0    0  501    0  0.00000000000E+00 -0.00000000000E+00 -0.37122312911E+03  0.37122312911E+03  0.00000000000E+00 0. -1.
         23    2    1    2    0    0 -0.16468210156E+02  0.18569778143E+01 -0.67478389676E+02  0.11267033072E+03  0.88693968447E+02 0.  0.
         23    2    1    2    0    0  0.16468210156E+02 -0.18569778143E+01 -0.26699041179E+03  0.29530712604E+03  0.12509104042E+03 0.  0.
          5    1    4    4  502    0  0.26041493882E+02 -0.30360518556E+02 -0.17303150432E+02  0.43781182093E+02  0.41800000000E+01 0. -1.
         -5    1    4    4    0  502 -0.95732837259E+01  0.28503540742E+02 -0.24968726135E+03  0.25152594395E+03  0.41800000000E+01 0. -1.
        -11    1    3    3    0    0 -0.38558319574E+02 -0.23962806158E+02 -0.64065119045E+02  0.78519421582E+02  0.00000000000E+00 0. -1.
         11    1    3    3    0    0  0.22090109418E+02  0.25819783973E+02 -0.34132706311E+01  0.34150909137E+02  0.00000000000E+00 0.  1.
</event>
<event>
 8    1  0.9181008E-006  0.9376732E+02  0.7561462E-02  0.1293977E+00
         -2   -1    0    0    0  501 -0.00000000000E+00  0.00000000000E+00  0.42478714616E+02  0.42478714616E+02  0.00000000000E+00 0.  1.
          2   -1    0    0  501    0  0.00000000000E+00 -0.00000000000E+00 -0.32365127333E+03  0.32365127333E+03  0.00000000000E+00 0. -1.
         23    2    1    2    0    0 -0.36110255317E+02 -0.23024736241E+01 -0.81058958171E+02  0.12737821869E+03  0.91353182606E+02 0.  0.
         23    2    1    2    0    0  0.36110255317E+02  0.23024736241E+01 -0.20011360055E+03  0.23875176926E+03  0.12509077615E+03 0.  0.
          5    1    4    4  502    0  0.64210695479E+02 -0.79422427131E+01 -0.19815030210E+03  0.20848766691E+03  0.41800000000E+01 0.  1.
         -5    1    4    4    0  502 -0.28100440162E+02  0.10244716337E+02 -0.19632984456E+01  0.30264102348E+02  0.41800000000E+01 0.  1.
        -11    1    3    3    0    0 -0.64273495815E+02 -0.27549668614E+01 -0.34597646815E+02  0.73045665661E+02  0.00000000000E+00 0.  1.
         11    1    3    3    0    0  0.28163240497E+02  0.45249323732E+00 -0.46461311356E+02  0.54332553026E+02  0.00000000000E+00 0. -1.
</event>
<event>
 8    1  0.9181008E-006  0.9320137E+02  0.7561462E-02  0.1295279E+00
          2   -1    0    0  501    0  0.00000000000E+00  0.00000000000E+00  0.50775417539E+03  0.50775417539E+03  0.00000000000E+00 0. -1.
         -2   -1    0    0    0  501 -0.00000000000E+00 -0.00000000000E+00 -0.26614997771E+02  0.26614997771E+02  0.00000000000E+00 0.  1.
         23    2    1    2    0    0 -0.13927387949E+02  0.34211398749E+02  0.14948287588E+03  0.17799002301E+03  0.89280043509E+02 0.  0.
         23    2    1    2    0    0  0.13927387949E+02 -0.34211398749E+02  0.33165630174E+03  0.35637915016E+03  0.12508318929E+03 0.  0.
          5    1    4    4  502    0  0.69461598087E+02 -0.23880554105E+02  0.19736269189E+03  0.21062929289E+03  0.41800000000E+01 0. -1.
         -5    1    4    4    0  502 -0.55534210138E+02 -0.10330844643E+02  0.13429360985E+03  0.14574985727E+03  0.41800000000E+01 0. -1.
        -11    1    3    3    0    0 -0.27822596128E+02  0.31509499539E+02  0.15660184334E+03  0.16214525203E+03  0.00000000000E+00 0. -1.
         11    1    3    3    0    0  0.13895208178E+02  0.27018992096E+01 -0.71189674626E+01  0.15844770980E+02  0.00000000000E+00 0.  1.
</event>
<event>
 8    1  0.9181008E-006  0.6649259E+02  0.7561462E-02  0.1372443E+00
          4   -1    0    0  501    0  0.00000000000E+00  0.00000000000E+00  0.16881902540E+03  0.16881902540E+03  0.00000000000E+00 0.  1.
         -4   -1    0    0    0  501 -0.00000000000E+00 -0.00000000000E+00 -0.82504902177E+02  0.82504902177E+02  0.00000000000E+00 0. -1.
         23    2    1    2    0    0  0.11198481837E+02 -0.51127022267E+01 -0.11158079968E+02  0.92263657859E+02  0.90755352974E+02 0.  0.
         23    2    1    2    0    0 -0.11198481837E+02  0.51127022267E+01  0.97472203188E+02  0.15906026971E+03  0.12509113993E+03 0.  0.
          5    1    4    4  502    0 -0.21454887066E+02  0.15059858514E+02 -0.24536194236E+02  0.36147043379E+02  0.41800000000E+01 0. -1.
         -5    1    4    4    0  502  0.10256405228E+02 -0.99471562871E+01  0.12200839742E+03  0.12291322634E+03  0.41800000000E+01 0. -1.
        -11    1    3    3    0    0 -0.38906484719E+02  0.80913454711E+01 -0.60509569612E+01  0.40196996217E+02  0.00000000000E+00 0.  1.
         11    1    3    3    0    0  0.50104966556E+02 -0.13204047698E+02 -0.51071230064E+01  0.52066661642E+02  0.00000000000E+00 0. -1.
</event>
<event>
 8    1  0.9181008E-006  0.8380892E+02  0.7561462E-02  0.1318577E+00
          1   -1    0    0  501    0  0.00000000000E+00  0.00000000000E+00  0.82350940517E+02  0.82350940517E+02  0.00000000000E+00 0. -1.
         -1   -1    0    0    0  501 -0.00000000000E+00 -0.00000000000E+00 -0.20263059667E+03  0.20263059667E+03  0.00000000000E+00 0.  1.
         23    2    1    2    0    0 -0.34814952512E+02  0.60506741530E+02 -0.48188801430E+02  0.12461531304E+03  0.91288931270E+02 0.  0.
         23    2    1    2    0    0  0.34814952512E+02 -0.60506741530E+02 -0.72090854725E+02  0.16036622415E+03  0.12508832009E+03 0.  0.
          5    1    4    4  502    0  0.11719412584E+02  0.88173802468E+01  0.30642754045E+02  0.34227789896E+02  0.41800000000E+01 0.  1.
         -5    1    4    4    0  502  0.23095539928E+02 -0.69324121776E+02 -0.10273360877E+03  0.12613843425E+03  0.41800000000E+01 0.  1.
        -11    1    3    3    0    0 -0.39761315414E+02  0.34307977041E+02  0.16172368531E+02  0.54950386677E+02  0.00000000000E+00 0. -1.
         11    1    3    3    0    0  0.49463629013E+01  0.26198764489E+02 -0.64361169961E+02  0.69664926365E+02  0.00000000000E+00 0.  1.
</event>
<event>
 7    1  0.9181008E-006  0.1648859E+03  0.7561462E-02  0.1183288E+00
         -4   -1    0    0    0  501 -0.00000000000E+00  0.00000000000E+00  0.21334890456E+03  0.21334890456E+03  0.00000000000E+00 0.  1.
          4   -1    0    0  501    0  0.00000000000E+00 -0.00000000000E+00 -0.13309883745E+03  0.13309883745E+03  0.00000000000E+00 0. -1.
         23    2    1    2    0    0  0.10463184906E+03  0.47439964106E+02  0.17690755711E+02  0.14865453061E+03  0.92665163904E+02 0.  0.
          5    1    1    2  502    0  0.32719654673E+02 -0.37345642151E+02  0.15144223481E+02  0.52077756234E+02  0.41800000000E+01 0. -1.
         -5    1    1    2    0  502 -0.13735150373E+03 -0.10094321956E+02  0.47415087915E+02  0.14571545517E+03  0.41800000000E+01 0.  1.
        -11    1    3    3    0    0 -0.10427218824E+02  0.21964277746E+02 -0.12018057631E+02  0.27121764296E+02  0.00000000000E+00 0.  1.
         11    1    3    3    0    0  0.11505906788E+03  0.25475686360E+02  0.29708813341E+02  0.12153276631E+03  0.00000000000E+00 0. -1.
</event>
<event>
 8    1  0.9181008E-006  0.9857495E+02  0.7561462E-02  0.1283321E+00
          2   -1    0    0  501    0  0.00000000000E+00  0.00000000000E+00  0.22911967676E+03  0.22911967676E+03  0.00000000000E+00 0. -1.
         -2   -1    0    0    0  501 -0.00000000000E+00 -0.00000000000E+00 -0.70350100628E+02  0.70350100628E+02  0.00000000000E+00 0.  1.
         23    2    1    2    0    0 -0.17123826582E+02  0.28575636766E+02  0.37691248884E+01  0.97522450463E+02  0.91578543275E+02 0.  0.
         23    2    1    2    0    0  0.17123826582E+02 -0.28575636766E+02  0.15500045124E+03  0.20194732692E+03  0.12509112883E+03 0.  0.
          5    1    4    4  502    0  0.71302630435E+02 -0.16453451873E+02  0.79404274607E+02  0.10806152142E+03  0.41800000000E+01 0.  1.
         -5    1    4    4    0  502 -0.54178803853E+02 -0.12122184894E+02  0.75596176635E+02  0.93885805506E+02  0.41800000000E+01 0.  1.
        -11    1    3    3    0    0 -0.15466634673E+02 -0.16763919037E+02  0.35472880558E+02  0.42173107837E+02  0.00000000000E+00 0. -1.
         11    1    3    3    0    0 -0.16571919093E+01  0.45339555803E+02 -0.31703755670E+02  0.55349342625E+02  0.00000000000E+00 0.  1.
</event>
<event>
 8    1  0.9181008E-006  0.1870574E+03  0.7561462E-02  0.1161142E+00
         -1   -1    0    0    0  501 -0.00000000000E+00  0.00000000000E+00  0.36614722169E+03  0.36614722169E+03  0.00000000000E+00 0.  1.
          1   -1    0    0  501    0  0.00000000000E+00 -0.00000000000E+00 -0.12876171095E+03  0.12876171095E+03  0.00000000000E+00 0. -1.
         23    2    1    2    0    0 -0.14613048571E+03 -0.79537609096E+02  0.21406713026E+03  0.28545401730E+03  0.89324742480E+02 0.  0.
         23    2    1    2    0    0  0.14613048571E+03  0.79537609096E+02  0.23318380480E+02  0.20945491534E+03  0.12508902660E+03 0.  0.
          5    1    4    4  502    0  0.15587495344E+03  0.63497786151E+02 -0.12473400214E+02  0.16882543667E+03  0.41800000000E+01 0.  1.
         -5    1    4    4    0  502 -0.97444677252E+01  0.16039822946E+02  0.35791780695E+02  0.40629478666E+02  0.41800000000E+01 0.  1.
        -11    1    3    3    0    0 -0.61805359632E+02 -0.81366377063E+02  0.94844676762E+02  0.13941270568E+03  0.00000000000E+00 0. -1.
         11    1    3    3    0    0 -0.84325126079E+02  0.18287679667E+01  0.11922245350E+03  0.14604131161E+03  0.00000000000E+00 0.  1.
</event>
<event>
 8    1  0.9181008E-006  0.1014516E+03  0.7561462E-02  0.1277273E+00
          1   -1    0    0  501    0  0.00000000000E+00  0.00000000000E+00  0.82545133277E+02  0.82545133277E+02  0.00000000000E+00 0. -1.
         -1   -1    0    0    0  501 -0.00000000000E+00 -0.00000000000E+00 -0.20320625743E+03  0.20320625743E+03  0.00000000000E+00 0.  1.
         23    2    1    2    0    0 -0.54390942210E+02 -0.23909865791E+02 -0.88092955094E+02  0.14349035781E+03  0.96431622251E+02 0.  0.
         23    2    1    2    0    0  0.54390942210E+02  0.23909865791E+02 -0.32568169062E+02  0.14226103290E+03  0.12508980602E+03 0.  0.
          5    1    4    4  502    0 -0.33482225768E+01  0.34655662172E+02 -0.65865536198E+02  0.74618809784E+02  0.41800000000E+01 0. -1.
         -5    1    4    4    0  502  0.57739164786E+02 -0.10745796380E+02  0.33297367136E+02  0.67642223118E+02  0.41800000000E+01 0. -1.
        -11    1    3    3    0    0 -0.21108325576E+02 -0.57753361966E+02 -0.68741824627E+02  0.92230421663E+02  0.00000000000E+00 0.  1.
         11    1    3    3    0    0 -0.33282616633E+02  0.33843496174E+02 -0.19351130467E+02  0.51259936145E+02  0.00000000000E+00 0. -1.
</event>
<event>
 8    1  0.9181008E-006  0.2120313E+03  0.7561462E-02  0.1139967E+00
         -1   -1    0    0    0  501 -0.00000000000E+00  0.00000000000E+00  0.39385741525E+03  0.39385741525E+03  0.00000000000E+00 0.  1.
          1   -1    0    0  501    0  0.00000000000E+00 -0.00000000000E+00 -0.12944586548E+03  0.12944586548E+03  0.00000000000E+00 0. -1.
         23    2    1    2    0    0 -0.16940918584E+03 -0.97289917037E+02  0.16336050636E+03  0.27027623403E+03  0.90541633743E+02 0.  0.
         23    2    1    2    0    0  0.16940918584E+03  0.97289917037E+02  0.10105104342E+03  0.25302704670E+03  0.12508626137E+03 0.  0.
          5    1    4    4  502    0  0.10485669563E+03  0.11198431113E+03  0.10598324502E+03  0.18650826572E+03  0.41800000000E+01 0. -1.
         -5    1    4    4    0  502  0.64552490216E+02 -0.14694394097E+02 -0.49322016022E+01  0.66518780984E+02  0.41800000000E+01 0. -1.
        -11    1    3    3    0    0 -0.11297971667E+03 -0.30906537070E+02  0.50135997959E+02  0.12740976691E+03  0.00000000000E+00 0. -1.
         11    1    3    3    0    0 -0.56429469175E+02 -0.66383379967E+02  0.11322450840E+03  0.14286646713E+03  0.00000000000E+00 0.  1.
</event>
<event>
 8    1  0.9181008E-006  0.6960423E+02  0.7561462E-02  0.1361444E+00
          2   -1    0    0  501    0  0.00000000000E+00  0.00000000000E+00  0.66449025274E+03  0.66449025274E+03  0.00000000000E+00 0. -1.
         -2   -1    0    0    0  501 -0.00000000000E+00 -0.00000000000E+00 -0.24529013407E+02  0.24529013407E+02  0.00000000000E+00 0.  1.
         23    2    1    2    0    0 -0.23162633961E+02  0.39827562372E+02  0.14967398916E+03  0.18093480128E+03  0.90622055522E+02 0.  0.
         23    2    1    2    0    0  0.23162633961E+02 -0.39827562372E+02  0.49028725017E+03  0.50808446487E+03  0.12508194682E+03 0.  0.
          5    1    4    4  502    0  0.27478414615E+02 -0.78932300021E+01  0.16677568400E+02  0.33361355448E+02  0.41800000000E+01 0. -1.
         -5    1    4    4    0  502 -0.43157806541E+01 -0.31934332370E+02  0.47360968177E+03  0.47472310942E+03  0.41800000000E+01 0. -1.
        -11    1    3    3    0    0 -0.75957527071E+01 -0.17148750502E+02  0.10556333236E+03  0.10721656701E+03  0.00000000000E+00 0. -1.
         11    1    3    3    0    0 -0.15566881254E+02  0.56976312875E+02  0.44110656807E+02  0.73718234276E+02  0.00000000000E+00 0.  1.
</event>
<event>
 8    1  0.9181008E-006  0.2367214E+03  0.7561462E-02  0.1121996E+00
         -1   -1    0    0    0  501 -0.00000000000E+00  0.00000000000E+00  0.68382655084E+02  0.68382655084E+02  0.00000000000E+00 0.  1.
          1   -1    0    0  501    0  0.00000000000E+00 -0.00000000000E+00 -0.10683060519E+04  0.10683060519E+04  0.00000000000E+00 0. -1.
         23    2    1    2    0    0 -0.16810597959E+03  0.15270517722E+03 -0.28431146552E+03  0.37555415337E+03  0.92894677796E+02 0.  0.
         23    2    1    2    0    0  0.16810597959E+03 -0.15270517722E+03 -0.71561193125E+03  0.76113455357E+03  0.12508749322E+03 0.  0.
          5    1    4    4  502    0  0.60869009727E+02 -0.22545992552E+01 -0.30206678326E+03  0.30817516693E+03  0.41800000000E+01 0.  1.
         -5    1    4    4    0  502  0.10723696987E+03 -0.15045057797E+03 -0.41354514799E+03  0.45295938664E+03  0.41800000000E+01 0.  1.
        -11    1    3    3    0    0 -0.85567627436E+02  0.87632094442E+02 -0.81474484210E+02  0.14710300615E+03  0.00000000000E+00 0.  1.
         11    1    3    3    0    0 -0.82538352158E+02  0.65073082778E+02 -0.20283698131E+03  0.22845114722E+03  0.00000000000E+00 0. -1.
</event>
<event>
 7    1  0.9181008E-006  0.1938349E+03  0.7561462E-02  0.1155047E+00
          1   -1    0    0  501    0  0.00000000000E+00  0.00000000000E+00  0.21301822260E+04  0.21301822260E+04  0.00000000000E+00 0. -1.
         -1   -1    0    0    0  501 -0.00000000000E+00 -0.00000000000E+00 -0.18688416695E+02  0.18688416695E+02  0.00000000000E+00 0.  1.
         23    2    1    2    0    0 -0.35198523865E+02  0.92420480375E+02  0.59718150738E+03  0.61148590652E+03  0.86653215984E+02 0.  0.
          5    1    1    2  502    0  0.11920716292E+03  0.15366028320E+02  0.90275560910E+03  0.91073136802E+03  0.41800000000E+01 0. -1.
         -5    1    1    2    0  502 -0.84008639058E+02 -0.10778650869E+03  0.61155669281E+03  0.62665336815E+03  0.41800000000E+01 0.  1.
        -11    1    3    3    0    0 -0.63103876300E+02  0.53140642849E+02  0.34339118479E+03  0.35316219067E+03  0.00000000000E+00 0.  1.
         11    1    3    3    0    0  0.27905352435E+02  0.39279837526E+02  0.25379032260E+03  0.25832371586E+03  0.00000000000E+00 0. -1.
</event>
<event>
 8    1  0.9181008E-006  0.2144730E+03  0.7561462E-02  0.1138072E+00
          2   -1    0    0  501    0  0.00000000000E+00  0.00000000000E+00  0.18831158803E+03  0.18831158803E+03  0.00000000000E+00 0. -1.
         -2   -1    0    0    0  501 -0.00000000000E+00 -0.00000000000E+00 -0.28631759284E+03  0.28631759284E+03  0.00000000000E+00 0.  1.
         23    2    1    2    0    0 -0.17075509620E+03  0.97095236464E+02 -0.10597149453E+03  0.24161419872E+03  0.92534726180E+02 0.  0.
         23    2    1    2    0    0  0.17075509620E+03 -0.97095236464E+02  0.79654897197E+01  0.23301498215E+03  0.12509094715E+03 0.  0.
          5    1    4    4  502    0  0.67375822638E+02 -0.10660253483E+03 -0.13571995447E+02  0.12690655369E+03  0.41800000000E+01 0. -1.
         -5    1    4    4    0  502  0.10337927356E+03  0.95072983640E+01  0.21537485167E+02  0.10610842847E+03  0.41800000000E+01 0. -1.
        -11    1    3    3    0    0 -0.27085867995E+02  0.29636312435E+02  0.14144612465E+02  0.42567890735E+02  0.00000000000E+00 0. -1.
         11    1    3    3    0    0 -0.14366922820E+03  0.67458924029E+02 -0.12011610699E+03  0.19904630799E+03  0.00000000000E+00 0.  1.
</event>
<event>
 8    1  0.9181008E-006  0.1416909E+03  0.7561462E-02  0.1211072E+00
          2   -1    0    0  501    0  0.00000000000E+00  0.00000000000E+00  0.16763317193E+04  0.16763317193E+04  0.00000000000E+00 0. -1.
         -2   -1    0    0    0  501 -0.00000000000E+00 -0.00000000000E+00 -0.14385977076E+02  0.14385977076E+02  0.00000000000E+00 0.  1.
         23    2    1    2    0    0  0.89836542245E+02  0.48320459294E+02  0.53024240717E+03  0.54756172374E+03  0.90892022898E+02 0.  0.
         23    2    1    2    0    0 -0.89836542245E+02 -0.48320459294E+02  0.11317033351E+04  0.11431559726E+04  0.12509063958E+03 0.  0.
          5    1    4    4  502    0  0.29638246554E+02 -0.10177744292E+02  0.13882513577E+03  0.14237943271E+03  0.41800000000E+01 0.  1.
         -5    1    4    4    0  502 -0.11947478880E+03 -0.38142715002E+02  0.99287819928E+03  0.10007765399E+04  0.41800000000E+01 0.  1.
        -11    1    3    3    0    0  0.17682849203E+01  0.37511152835E+02  0.76438617226E+02  0.85164990588E+02  0.00000000000E+00 0.  1.
         11    1    3    3    0    0  0.88068257325E+02  0.10809306459E+02  0.45380378995E+03  0.46239673315E+03  0.00000000000E+00 0. -1.
</event>
<event>
 8    1  0.9181008E-006  0.1077556E+03  0.7561462E-02  0.1264783E+00
         -1   -1    0    0    0  501 -0.00000000000E+00  0.00000000000E+00  0.65539352400E+03  0.65539352400E+03  0.00000000000E+00 0.  1.
          1   -1    0    0  501    0  0.00000000000E+00 -0.00000000000E+00 -0.20989298542E+02  0.20989298542E+02  0.00000000000E+00 0. -1.
         23    2    1    2    0    0 -0.33195845011E+02  0.32870374381E+02  0.29122621603E+03  0.30984949642E+03  0.94929320508E+02 0.  0.
         23    2    1    2    0    0  0.33195845011E+02 -0.32870374381E+02  0.34317800943E+03  0.36653332612E+03  0.11997127725E+03 0.  0.
          5    1    4    4  502    0  0.17181812695E+02  0.40010406809E+02  0.20317997227E+03  0.20783556210E+03  0.41800000000E+01 0. -1.
         -5    1    4    4    0  502  0.16014032316E+02 -0.72880781190E+02  0.13999803715E+03  0.15869776402E+03  0.41800000000E+01 0.  1.
        -11    1    3    3    0    0 -0.61363544867E+02  0.31133845001E+02  0.25387919575E+03  0.26303886971E+03  0.00000000000E+00 0.  1.
         11    1    3    3    0    0  0.28167699856E+02  0.17365293802E+01  0.37347020278E+02  0.46810626711E+02  0.00000000000E+00 0. -1.
</event>
<event>
 8    1  0.9181008E-006  0.1074515E+03  0.7561462E-02  0.1265363E+00
         -1   -1    0    0    0  501 -0.00000000000E+00  0.00000000000E+00  0.35839716930E+02  0.35839716930E+02  0.00000000000E+00 0.  1.
          1   -1    0    0  501    0  0.00000000000E+00 -0.00000000000E+00 -0.55129801702E+03  0.55129801702E+03  0.00000000000E+00 0. -1.
         23    2    1    2    0    0  0.86564194194E+02  0.76833817462E+01 -0.19233116530E+03  0.22990690547E+03  0.91178473139E+02 0.  0.
         23    2    1    2    0    0 -0.86564194194E+02 -0.76833817462E+01 -0.32312713479E+03  0.35723082848E+03  0.12510126102E+03 0.  0.
          5    1    4    4  502    0 -0.59140526166E+02 -0.15753821794E+02 -0.41358643747E+02  0.73985096802E+02  0.41800000000E+01 0.  1.
         -5    1    4    4    0  502 -0.27423668028E+02  0.80704400477E+01 -0.28176849104E+03  0.28324573168E+03  0.41800000000E+01 0.  1.
        -11    1    3    3    0    0 -0.12405224371E+02  0.21415980755E+02 -0.26184404727E+02  0.36029944134E+02  0.00000000000E+00 0. -1.
         11    1    3    3    0    0  0.98969418565E+02 -0.13732599009E+02 -0.16614676058E+03  0.19387696133E+03  0.00000000000E+00 0.  1.
</event>
<event>
 8    1  0.9181008E-006  0.1182189E+03  0.7561462E-02  0.1246065E+00
          1   -1    0    0  501    0  0.00000000000E+00  0.00000000000E+00  0.93412333099E+03  0.93412333099E+03  0.00000000000E+00 0. -1.
         -1   -1    0    0    0  501 -0.00000000000E+00 -0.00000000000E+00 -0.16926599280E+02  0.16926599280E+02  0.00000000000E+00 0.  1.
         23    2    1    2    0    0 -0.44599091315E+02  0.43465096007E+02  0.34358081360E+03  0.36065901159E+03  0.90271001154E+02 0.  0.
         23    2    1    2    0    0  0.44599091315E+02 -0.43465096007E+02  0.57361591811E+03  0.59039091868E+03  0.12509165374E+03 0.  0.
          5    1    4    4  502    0 -0.92565784706E+01  0.32242796560E+02  0.64212871027E+02  0.72567536685E+02  0.41800000000E+01 0. -1.
         -5    1    4    4    0  502  0.53855669785E+02 -0.75707892567E+02  0.50940304708E+03  0.51782338199E+03  0.41800000000E+01 0. -1.
        -11    1    3    3    0    0  0.76815959028E+01 -0.23471226333E+02  0.73479834908E+02  0.77518975221E+02  0.00000000000E+00 0.  1.
         11    1    3    3    0    0 -0.52280687218E+02  0.66936322339E+02  0.27010097869E+03  0.28314003637E+03  0.00000000000E+00 0. -1.
</event>
<event>
 8    1  0.9181008E-006  0.1205630E+03  0.7561462E-02  0.1242171E+00
         -4   -1    0    0    0  501 -0.00000000000E+00  0.00000000000E+00  0.15408415844E+02  0.15408415844E+02  0.00000000000E+00 0. -1.
          4   -1    0    0  501    0  0.00000000000E+00 -0.00000000000E+00 -0.11881371570E+04  0.11881371570E+04  0.00000000000E+00 0.  1.
         23    2    1    2    0    0 -0.18012441034E+02  0.68521366075E+02 -0.37344006941E+03  0.39143180440E+03  0.93497306997E+02 0.  0.
         23    2    1    2    0    0  0.18012441034E+02 -0.68521366075E+02 -0.79928867170E+03  0.81211376840E+03  0.12508703558E+03 0.  0.
          5    1    4    4  502    0  0.65903078857E+02 -0.14597826634E+02 -0.48091635958E+03  0.48564836008E+03  0.41800000000E+01 0. -1.
         -5    1    4    4    0  502 -0.47890637823E+02 -0.53923539441E+02 -0.31837231213E+03  0.32646540832E+03  0.41800000000E+01 0. -1.
        -11    1    3    3    0    0  0.16508125217E+02 -0.72202975924E+01 -0.14972369606E+02  0.23426966238E+02  0.00000000000E+00 0. -1.
         11    1    3    3    0    0 -0.34520566251E+02  0.75741663667E+02 -0.35846769980E+03  0.36800483816E+03  0.00000000000E+00 0.  1.
</event>
<event>
 8    1  0.9181008E-006  0.1353148E+03  0.7561462E-02  0.1219776E+00
          2   -1    0    0  501    0  0.00000000000E+00  0.00000000000E+00  0.17338105956E+04  0.17338105956E+04  0.00000000000E+00 0. -1.
         -2   -1    0    0    0  501 -0.00000000000E+00 -0.00000000000E+00 -0.11777928192E+02  0.11777928192E+02  0.00000000000E+00 0.  1.
         23    2    1    2    0    0 -0.83791760527E+02  0.15254329338E+02  0.57316827635E+03  0.58680054972E+03  0.92516260423E+02 0.  0.
         23    2    1    2    0    0  0.83791760527E+02 -0.15254329338E+02  0.11488643910E+04  0.11587879741E+04  0.12508567510E+03 0.  0.
          5    1    4    4  502    0  0.93635618439E+02 -0.53071267085E+02  0.70414583343E+03  0.71233630791E+03  0.41800000000E+01 0.  1.
         -5    1    4    4    0  502 -0.98438579121E+01  0.37816937747E+02  0.44471855762E+03  0.44645166615E+03  0.41800000000E+01 0.  1.
        -11    1    3    3    0    0 -0.15907944482E+02 -0.35471811736E+02  0.13374029406E+03  0.13927590739E+03  0.00000000000E+00 0.  1.
         11    1    3    3    0    0 -0.67883816045E+02  0.50726141074E+02  0.43942798229E+03  0.44752464233E+03  0.00000000000E+00 0. -1.
</event>
<event>
 8    1  0.9181008E-006  0.1450674E+03  0.7561462E-02  0.1206669E+00
          2   -1    0    0  501    0  0.00000000000E+00  0.00000000000E+00  0.27197367933E+03  0.27197367933E+03  0.00000000000E+00 0. -1.
         -2   -1    0    0    0  501 -0.00000000000E+00 -0.00000000000E+00 -0.89188435310E+02  0.89188435310E+02  0.00000000000E+00 0.  1.
         23    2    1    2    0    0  0.10148020862E+03  0.47071443550E+02  0.73667900478E+02  0.16099237068E+03  0.89317581239E+02 0.  0.
         23    2    1    2    0    0 -0.10148020862E+03 -0.47071443550E+02  0.10911734354E+03  0.20016974396E+03  0.12508948076E+03 0.  0.
          5    1    4    4  502    0 -0.10728895376E+03 -0.10936901381E+01  0.10987835077E+03  0.15363215849E+03  0.41800000000E+01 0.  1.
         -5    1    4    4    0  502  0.58087451401E+01 -0.45977753412E+02 -0.76100722597E+00  0.46537585465E+02  0.41800000000E+01 0.  1.
        -11    1    3    3    0    0  0.23865160375E+02 -0.21903296777E+02 -0.20878211537E+01  0.32460118401E+02  0.00000000000E+00 0.  1.
         11    1    3    3    0    0  0.77615048240E+02  0.68974740327E+02  0.75755721632E+02  0.12853225228E+03  0.00000000000E+00 0. -1.
</event>
<event>
 8    1  0.9181008E-006  0.1008929E+03  0.7561462E-02  0.1278429E+00
          1   -1    0    0  501    0  0.00000000000E+00  0.00000000000E+00  0.19672015361E+03  0.19672015361E+03  0.00000000000E+00 0. -1.
         -1   -1    0    0    0  501 -0.00000000000E+00 -0.00000000000E+00 -0.77893745416E+02  0.77893745416E+02  0.00000000000E+00 0.  1.
         23    2    1    2    0    0 -0.25671938802E+02 -0.48800641729E+02  0.27170242112E+02  0.11002653415E+03  0.91252753855E+02 0.  0.
         23    2    1    2    0    0  0.25671938802E+02  0.48800641729E+02  0.91656166080E+02  0.16458736487E+03  0.12509035462E+03 0.  0.
          5    1    4    4  502    0 -0.40205517369E+02  0.34384729498E+02  0.30454398082E+01  0.53155812036E+02  0.41800000000E+01 0.  1.
         -5    1    4    4    0  502  0.65877456171E+02  0.14415912231E+02  0.88610726271E+02  0.11143155284E+03  0.41800000000E+01 0.  1.
        -11    1    3    3    0    0  0.31871084481E+00 -0.54534981979E+02  0.50728879528E+02  0.74482112311E+02  0.00000000000E+00 0. -1.
         11    1    3    3    0    0 -0.25990649647E+02  0.57343402502E+01 -0.23558637416E+02  0.35544421842E+02  0.00000000000E+00 0.  1.
</event>
<event>
 8    1  0.9181008E-006  0.1041590E+03  0.7561462E-02  0.1271786E+00
          2   -1    0    0  501    0  0.00000000000E+00  0.00000000000E+00  0.41909142755E+03  0.41909142755E+03  0.00000000000E+00 0. -1.
         -2   -1    0    0    0  501 -0.00000000000E+00 -0.00000000000E+00 -0.31545504427E+02  0.31545504427E+02  0.00000000000E+00 0.  1.
         23    2    1    2    0    0 -0.14999066296E+02  0.96967924647E+01  0.96849062064E+02  0.13366506831E+03  0.90374829956E+02 0.  0.
         23    2    1    2    0    0  0.14999066296E+02 -0.96967924647E+01  0.29069686106E+03  0.31697186367E+03  0.12508995785E+03 0.  0.
          5    1    4    4  502    0 -0.17759679700E+02 -0.61929494373E+02  0.14898068741E+03  0.16236805756E+03  0.41800000000E+01 0.  1.
         -5    1    4    4    0  502  0.32758745996E+02  0.52232701908E+02  0.14171617365E+03  0.15460380610E+03  0.41800000000E+01 0.  1.
        -11    1    3    3    0    0 -0.28069703712E+02 -0.29452609242E+02  0.17635753336E+02  0.44343931415E+02  0.00000000000E+00 0.  1.
         11    1    3    3    0    0  0.13070637415E+02  0.39149401707E+02  0.79213308728E+02  0.89321136895E+02  0.00000000000E+00 0. -1.
</event>
<event>
 8    1  0.9181008E-006  0.1003804E+03  0.7561462E-02  0.1279498E+00
         -2   -1    0    0    0  501 -0.00000000000E+00  0.00000000000E+00  0.80767795676E+02  0.80767795676E+02  0.00000000000E+00 0. -1.
          2   -1    0    0  501    0  0.00000000000E+00 -0.00000000000E+00 -0.25730371334E+03  0.25730371334E+03  0.00000000000E+00 0.  1.
         23    2    1    2    0    0  0.38730010259E+02 -0.97855649858E+01  0.21486437244E+02  0.10046702812E+03  0.89644775519E+02 0.  0.
         23    2    1    2    0    0 -0.38730010259E+02  0.97855649858E+01 -0.19802235491E+03  0.23760448089E+03  0.12508902958E+03 0.  0.
          5    1    4    4  502    0 -0.71783560364E+02 -0.34135373244E+00 -0.55343830833E+02  0.90738129098E+02  0.41800000000E+01 0. -1.
         -5    1    4    4    0  502  0.33053550105E+02  0.10126918718E+02 -0.14267852408E+03  0.14686635180E+03  0.41800000000E+01 0. -1.
        -11    1    3    3    0    0  0.28308428610E+02  0.36725019249E+02  0.24990283812E+02  0.52674552245E+02  0.00000000000E+00 0.  1.
         11    1    3    3    0    0  0.10421581650E+02 -0.46510584234E+02 -0.35038465684E+01  0.47792475879E+02  0.00000000000E+00 0. -1.
</event>
<event>
 8    1  0.9181008E-006  0.7785641E+02  0.7561462E-02  0.1335247E+00
         -2   -1    0    0    0  501 -0.00000000000E+00  0.00000000000E+00  0.15910838431E+02  0.15910838431E+02  0.00000000000E+00 0.  1.
          2   -1    0    0  501    0  0.00000000000E+00 -0.00000000000E+00 -0.98236603010E+03  0.98236603010E+03  0.00000000000E+00 0. -1.
         23    2    1    2    0    0  0.21738011427E+02 -0.31431518304E+02 -0.23467763337E+03  0.25486131449E+03  0.91761737842E+02 0.  0.
         23    2    1    2    0    0 -0.21738011427E+02  0.31431518304E+02 -0.73177755830E+03  0.74341555405E+03  0.12533080103E+03 0.  0.
          5    1    4    4  502    0 -0.37892256915E+02  0.36667167599E+02 -0.72086245272E+03  0.72280042366E+03  0.41800000000E+01 0. -1.
         -5    1    4    4    0  502  0.16154245488E+02 -0.52356492944E+01 -0.10915105581E+02  0.20615130382E+02  0.41800000000E+01 0. -1.
        -11    1    3    3    0    0 -0.22389373447E+02  0.10255078254E+02 -0.19875481330E+02  0.31646254619E+02  0.00000000000E+00 0.  1.
         11    1    3    3    0    0  0.44127384874E+02 -0.41686596558E+02 -0.21480215204E+03  0.22321505987E+03  0.00000000000E+00 0. -1.
</event>
<event>
 8    1  0.9181008E-006  0.1177426E+03  0.7561462E-02  0.1246868E+00
         -2   -1    0    0    0  501 -0.00000000000E+00  0.00000000000E+00  0.50479039923E+02  0.50479039923E+02  0.00000000000E+00 0. -1.
          2   -1    0    0  501    0  0.00000000000E+00 -0.00000000000E+00 -0.31459792923E+03  0.31459792923E+03  0.00000000000E+00 0.  1.
         23    2    1    2    0    0  0.17478282777E+02 -0.62950961980E+02 -0.11004548266E+03  0.15613011836E+03  0.89433168464E+02 0.  0.
         23    2    1    2    0    0 -0.17478282777E+02  0.62950961980E+02 -0.15407340666E+03  0.20894685080E+03  0.12510738523E+03 0.  0.
          5    1    4    4  502    0  0.44544679538E+02  0.38284185726E+02 -0.25805822903E+02  0.64290903303E+02  0.41800000000E+01 0.  1.
         -5    1    4    4    0  502 -0.62022962315E+02  0.24666776254E+02 -0.12826758375E+03  0.14465594750E+03  0.41800000000E+01 0.  1.
        -11    1    3    3    0    0 -0.26259067611E+02  0.70423574249E+01 -0.18569865224E+02  0.32923750156E+02  0.00000000000E+00 0. -1.
         11    1    3    3    0    0  0.43737350388E+02 -0.69993319405E+02 -0.91475617433E+02  0.12320636820E+03  0.00000000000E+00 0.  1.
</event>
<event>
 8    1  0.9181008E-006  0.9712725E+02  0.7561462E-02  0.1286456E+00
          2   -1    0    0  501    0  0.00000000000E+00  0.00000000000E+00  0.12226249244E+03  0.12226249244E+03  0.00000000000E+00 0. -1.
         -2   -1    0    0    0  501 -0.00000000000E+00 -0.00000000000E+00 -0.96658226560E+02  0.96658226560E+02  0.00000000000E+00 0.  1.
         23    2    1    2    0    0 -0.10488566718E+02  0.13383425107E+02 -0.50608843985E+01  0.89007424905E+02  0.87221459732E+02 0.  0.
         23    2    1    2    0    0  0.10488566718E+02 -0.13383425107E+02  0.30665150282E+02  0.12991329410E+03  0.12509191198E+03 0.  0.
          5    1    4    4  502    0 -0.10862679374E+02  0.52695862136E+02  0.20005590807E+00  0.53966323868E+02  0.41800000000E+01 0. -1.
         -5    1    4    4    0  502  0.21351246091E+02 -0.66079287243E+02  0.30465094374E+02  0.75946970232E+02  0.41800000000E+01 0. -1.
        -11    1    3    3    0    0  0.14727293560E+02  0.34703243958E+02 -0.29547277808E+02  0.47898329226E+02  0.00000000000E+00 0.  1.
         11    1    3    3    0    0 -0.25215860277E+02 -0.21319818850E+02  0.24486393409E+02  0.41109095679E+02  0.00000000000E+00 0. -1.
</event>
<event>
 8    1  0.9181008E-006  0.1243755E+03  0.7561462E-02  0.1236048E+00
         -2   -1    0    0    0  501 -0.00000000000E+00  0.00000000000E+00  0.55539036441E+02  0.55539036441E+02  0.00000000000E+00 0.  1.
          2   -1    0    0  501    0  0.00000000000E+00 -0.00000000000E+00 -0.94069701653E+03  0.94069701653E+03  0.00000000000E+00 0. -1.
         23    2    1    2    0    0  0.67267323371E+02 -0.24747087320E+02 -0.19793782416E+02  0.11894446457E+03  0.92836849932E+02 0.  0.
         23    2    1    2    0    0 -0.67267323371E+02  0.24747087320E+02 -0.86536419767E+03  0.87729158840E+03  0.12509206745E+03 0.  0.
          5    1    4    4  502    0 -0.10261060314E+03  0.32557806823E+02 -0.64491628211E+03  0.65385275865E+03  0.41800000000E+01 0.  1.
         -5    1    4    4    0  502  0.35343279773E+02 -0.78107195032E+01 -0.22044791556E+03  0.22343882975E+03  0.41800000000E+01 0.  1.
        -11    1    3    3    0    0 -0.63152950538E+01  0.18281311109E+02  0.17331574820E+02  0.25970613647E+02  0.00000000000E+00 0.  1.
         11    1    3    3    0    0  0.73582618424E+02 -0.43028398428E+02 -0.37125357236E+02  0.92973850923E+02  0.00000000000E+00 0. -1.
</event>
<event>
 8    1  0.9181008E-006  0.1531702E+03  0.7561462E-02  0.1196631E+00
          1   -1    0    0  501    0  0.00000000000E+00  0.00000000000E+00  0.54882253286E+03  0.54882253286E+03  0.00000000000E+00 0. -1.
         -1   -1    0    0    0  501 -0.00000000000E+00 -0.00000000000E+00 -0.65652244851E+02  0.65652244851E+02  0.00000000000E+00 0.  1.
         23    2    1    2    0    0 -0.11810305401E+03  0.13661084359E+00  0.67397982899E+02  0.16451618480E+03  0.92599875453E+02 0.  0.
         23    2    1    2    0    0  0.11810305401E+03 -0.13661084359E+00  0.41577230511E+03  0.44995859291E+03  0.12509106924E+03 0.  0.
          5    1    4    4  502    0 -0.93561891353E+01 -0.26644148386E+02  0.16423228059E+03  0.16669482087E+03  0.41800000000E+01 0. -1.
         -5    1    4    4    0  502  0.12745924315E+03  0.26507537543E+02  0.25154002453E+03  0.28326377204E+03  0.41800000000E+01 0. -1.
        -11    1    3    3    0    0 -0.58977093080E+01 -0.30630290555E+02  0.27303006287E+02  0.41454213620E+02  0.00000000000E+00 0.  1.
         11    1    3    3    0    0 -0.11220534471E+03  0.30766901399E+02  0.40094976612E+02  0.12306197118E+03  0.00000000000E+00 0. -1.
</event>
<event>
 8    1  0.9181008E-006  0.9383710E+02  0.7561462E-02  0.1293817E+00
         -1   -1    0    0    0  501 -0.00000000000E+00  0.00000000000E+00  0.93142303040E+02  0.93142303040E+02  0.00000000000E+00 0.  1.
          1   -1    0    0  501    0  0.00000000000E+00 -0.00000000000E+00 -0.17300069169E+03  0.17300069169E+03  0.00000000000E+00 0. -1.
         23    2    1    2    0    0  0.23730018104E+02 -0.66688456468E+01  0.28545336984E+02  0.98794658874E+02  0.91312436705E+02 0.  0.
         23    2    1    2    0    0 -0.23730018104E+02  0.66688456468E+01 -0.10840372563E+03  0.16734833586E+03  0.12508601249E+03 0.  0.
          5    1    4    4  502    0  0.28013971492E+02  0.25650919769E+02  0.74975001858E+01  0.38941458534E+02  0.41800000000E+01 0.  1.
         -5    1    4    4    0  502 -0.51743989596E+02 -0.18982074122E+02 -0.11590122582E+03  0.12840687732E+03  0.41800000000E+01 0.  1.
        -11    1    3    3    0    0  0.49820222902E+02 -0.30863169846E+02  0.22099779623E+02  0.62633777807E+02  0.00000000000E+00 0.  1.
         11    1    3    3    0    0 -0.26090204798E+02  0.24194324200E+02  0.64455573613E+01  0.36160881067E+02  0.00000000000E+00 0. -1.
</event>
<event>
 8    1  0.9181008E-006  0.3970737E+03  0.7561462E-02  0.1044798E+00
         -1   -1    0    0    0  501 -0.00000000000E+00  0.00000000000E+00  0.22001618516E+03  0.22001618516E+03  0.00000000000E+00 0.  1.
          1   -1    0    0  501    0  0.00000000000E+00 -0.00000000000E+00 -0.76249016181E+03  0.76249016181E+03  0.00000000000E+00 0. -1.
         23    2    1    2    0    0 -0.17977157465E+03 -0.35086418235E+03 -0.29667971762E+03  0.50137632455E+03  0.89083502757E+02 0.  0.
         23    2    1    2    0    0  0.17977157465E+03  0.35086418235E+03 -0.24579425903E+03  0.48113002241E+03  0.12509111555E+03 0.  0.
          5    1    4    4  502    0  0.61654919120E+01  0.63012578440E+02 -0.91222594388E+02  0.11111990127E+03  0.41800000000E+01 0.  1.
         -5    1    4    4    0  502  0.17360608274E+03  0.28785160391E+03 -0.15457166464E+03  0.37001012114E+03  0.41800000000E+01 0.  1.
        -11    1    3    3    0    0 -0.11423671640E+03 -0.20696068344E+03 -0.12293521279E+03  0.26645040515E+03  0.00000000000E+00 0.  1.
         11    1    3    3    0    0 -0.65534858254E+02 -0.14390349891E+03 -0.17374450483E+03  0.23492591939E+03  0.00000000000E+00 0. -1.
</event>
<event>
 8    1  0.9181008E-006  0.1006531E+03  0.7561462E-02  0.1278928E+00
         -3   -1    0    0    0  501 -0.00000000000E+00  0.00000000000E+00  0.10343696164E+03  0.10343696164E+03  0.00000000000E+00 0.  1.
          3   -1    0    0  501    0  0.00000000000E+00 -0.00000000000E+00 -0.12232898939E+03  0.12232898939E+03  0.00000000000E+00 0. -1.
         23    2    1    2    0    0 -0.29321172015E+02  0.98264850152E+01  0.12824373529E+02  0.98413093839E+02  0.92543943867E+02 0.  0.
         23    2    1    2    0    0  0.29321172015E+02 -0.98264850152E+01 -0.31716401281E+02  0.12735285719E+03  0.11940070849E+03 0.  0.
          5    1    4    4  502    0 -0.20289924164E+02  0.35133605490E+02  0.17265725025E+02  0.44290280175E+02  0.41800000000E+01 0. -1.
         -5    1    4    4    0  502  0.49611096179E+02 -0.44960090505E+02 -0.48982126306E+02  0.83062577012E+02  0.41800000000E+01 0.  1.
        -11    1    3    3    0    0 -0.57814912719E+02 -0.10068172371E+02 -0.58249785592E+01  0.58973405895E+02  0.00000000000E+00 0. -1.
         11    1    3    3    0    0  0.28493740704E+02  0.19894657386E+02  0.18649352088E+02  0.39439687944E+02  0.00000000000E+00 0.  1.
</event>
<event>
 8    1  0.9181008E-006  0.8443081E+02  0.7561462E-02  0.1316928E+00
          2   -1    0    0  501    0  0.00000000000E+00  0.00000000000E+00  0.20347789643E+03  0.20347789643E+03  0.00000000000E+00 0. -1.
         -2   -1    0    0    0  501 -0.00000000000E+00 -0.00000000000E+00 -0.65433868545E+02  0.65433868545E+02  0.00000000000E+00 0.  1.
         23    2    1    2    0    0  0.21849912569E+02 -0.29668941668E+02  0.46172048743E+02  0.10940075785E+03  0.92081501691E+02 0.  0.
         23    2    1    2    0    0 -0.21849912569E+02  0.29668941668E+02  0.91871979141E+02  0.15951100713E+03  0.12508251702E+03 0.  0.
          5    1    4    4  502    0 -0.26999819996E+02  0.46504654423E+02  0.11683234624E+03  0.12868155536E+03  0.41800000000E+01 0. -1.
         -5    1    4    4    0  502  0.51499074277E+01 -0.16835712755E+02 -0.24960367097E+02  0.30829451764E+02  0.41800000000E+01 0. -1.
        -11    1    3    3    0    0  0.34363544182E+02 -0.57120739144E+02  0.20372129379E+02  0.69704057733E+02  0.00000000000E+00 0.  1.
         11    1    3    3    0    0 -0.12513631613E+02  0.27451797476E+02  0.25799919364E+02  0.39696700115E+02  0.00000000000E+00 0. -1.
</event>
<event>
 8    1  0.9181008E-006  0.1483895E+03  0.7561462E-02  0.1202466E+00
         -2   -1    0    0    0  501 -0.00000000000E+00  0.00000000000E+00  0.34950446511E+02  0.34950446511E+02  0.00000000000E+00 0.  1.
          2   -1    0    0  501    0  0.00000000000E+00 -0.00000000000E+00 -0.10978181161E+04  0.10978181161E+04  0.00000000000E+00 0. -1.
         23    2    1    2    0    0  0.12843662026E+03 -0.32287804416E+02 -0.19963305729E+03  0.25052130137E+03  0.73274123255E+02 0.  0.
         23    2    1    2    0    0 -0.12843662026E+03  0.32287804416E+02 -0.86323461226E+03  0.88224726120E+03  0.12509103227E+03 0.  0.
          5    1    4    4  502    0 -0.14177047939E+03  0.30685865566E+02 -0.55391040756E+03  0.57260344321E+03  0.41800000000E+01 0. -1.
         -5    1    4    4    0  502  0.13333859129E+02  0.16019388499E+01 -0.30932420469E+03  0.30964381798E+03  0.41800000000E+01 0. -1.
        -11    1    3    3    0    0  0.49911025132E+02 -0.31596262390E+02 -0.36412622161E+02  0.69392458375E+02  0.00000000000E+00 0.  1.
         11    1    3    3    0    0  0.78525595130E+02 -0.69154202670E+00 -0.16322043513E+03  0.18112884299E+03  0.00000000000E+00 0. -1.
</event>
<event>
 8    1  0.9181008E-006  0.5853157E+02  0.7561462E-02  0.1404099E+00
         -1   -1    0    0    0  501 -0.00000000000E+00  0.00000000000E+00  0.26633018059E+02  0.26633018059E+02  0.00000000000E+00 0.  1.
          1   -1    0    0  501    0  0.00000000000E+00 -0.00000000000E+00 -0.45424651710E+03  0.45424651710E+03  0.00000000000E+00 0. -1.
         23    2    1    2    0    0 -0.93740881652E+00  0.29097695271E+02 -0.16721326009E+03  0.19052794102E+03  0.86562505491E+02 0.  0.
         23    2    1    2    0    0  0.93740881652E+00 -0.29097695271E+02 -0.26040023895E+03  0.29035159413E+03  0.12509280221E+03 0.  0.
          5    1    4    4  502    0  0.29689328801E+02 -0.23360157903E+02 -0.25783946047E+03  0.26062581030E+03  0.41800000000E+01 0.  1.
         -5    1    4    4    0  502 -0.28751919985E+02 -0.57375373679E+01 -0.25607784846E+01  0.29725783830E+02  0.41800000000E+01 0.  1.
        -11    1    3    3    0    0 -0.11997358067E+01  0.39257804658E+02 -0.17395361917E+03  0.17833248782E+03  0.00000000000E+00 0. -1.
         11    1    3    3    0    0  0.26232699020E+00 -0.10160109387E+02  0.67403590806E+01  0.12195453199E+02  0.00000000000E+00 0.  1.
</event>
<event>
 8    1  0.9181008E-006  0.1525927E+03  0.7561462E-02  0.1197323E+00
          1   -1    0    0  501    0  0.00000000000E+00  0.00000000000E+00  0.11431937912E+04  0.11431937912E+04  0.00000000000E+00 0. -1.
         -1   -1    0    0    0  501 -0.00000000000E+00 -0.00000000000E+00 -0.22422830994E+02  0.22422830994E+02  0.00000000000E+00 0.  1.
         23    2    1    2    0    0  0.27058548895E+02 -0.10487296883E+03  0.35716578377E+03  0.38429055248E+03  0.91549587464E+02 0.  0.
         23    2    1    2    0    0 -0.27058548895E+02  0.10487296883E+03  0.76360517639E+03  0.78132606967E+03  0.12508819722E+03 0.  0.
          5    1    4    4  502    0  0.39714252883E+02 -0.10993054250E+01  0.20099280908E+03  0.20492440572E+03  0.41800000000E+01 0. -1.
         -5    1    4    4    0  502 -0.66772801778E+02  0.10597227426E+03  0.56261236730E+03  0.57640166396E+03  0.41800000000E+01 0. -1.
        -11    1    3    3    0    0 -0.26267300309E+02 -0.50639497377E+01  0.96112338538E+02  0.99765706892E+02  0.00000000000E+00 0. -1.
         11    1    3    3    0    0  0.53325849204E+02 -0.99809019096E+02  0.26105344523E+03  0.28452484558E+03  0.00000000000E+00 0.  1.
</event>
<event>
 8    1  0.9181008E-006  0.9325277E+02  0.7561462E-02  0.1295160E+00
          2   -1    0    0  501    0  0.00000000000E+00  0.00000000000E+00  0.16095306476E+04  0.16095306476E+04  0.00000000000E+00 0. -1.
         -2   -1    0    0    0  501 -0.00000000000E+00 -0.00000000000E+00 -0.11549475699E+02  0.11549475699E+02  0.00000000000E+00 0.  1.
         23    2    1    2    0    0 -0.10083169853E+02 -0.57347425903E+02  0.61437237959E+03  0.62784155483E+03  0.11550411074E+03 0.  0.
         23    2    1    2    0    0  0.10083169853E+02  0.57347425903E+02  0.98360879229E+03  0.99323856845E+03  0.12508477129E+03 0.  0.
          5    1    4    4  502    0  0.55346878341E+01  0.16298226003E+02  0.89720953429E+03  0.89738435788E+03  0.41800000000E+01 0. -1.
         -5    1    4    4    0  502  0.45484820185E+01  0.41049199900E+02  0.86399258000E+02  0.95854210570E+02  0.41800000000E+01 0. -1.
        -11    1    3    3    0    0  0.51766824309E+02 -0.25152386840E+02  0.22306113048E+03  0.23036647889E+03  0.00000000000E+00 0.  1.
         11    1    3    3    0    0 -0.61849994162E+02 -0.32195039063E+02  0.39131124911E+03  0.39747507594E+03  0.00000000000E+00 0. -1.
</event>
<event>
 8    1  0.9181008E-006  0.1172407E+03  0.7561462E-02  0.1247720E+00
         -1   -1    0    0    0  501 -0.00000000000E+00  0.00000000000E+00  0.18572119538E+02  0.18572119538E+02  0.00000000000E+00 0. -1.
          1   -1    0    0  501    0  0.00000000000E+00 -0.00000000000E+00 -0.85365306756E+03  0.85365306756E+03  0.00000000000E+00 0.  1.
         23    2    1    2    0    0 -0.58986428796E+02  0.17986453061E+02 -0.35868912328E+03  0.37583772196E+03  0.93772036403E+02 0.  0.
         23    2    1    2    0    0  0.58986428796E+02 -0.17986453061E+02 -0.47639182474E+03  0.49638746514E+03  0.12509369925E+03 0.  0.
          5    1    4    4  502    0  0.41196350707E+02  0.48254566393E+02 -0.15139879246E+03  0.16420934580E+03  0.41800000000E+01 0.  1.
         -5    1    4    4    0  502  0.17790078089E+02 -0.66241019454E+02 -0.32499303229E+03  0.33217811935E+03  0.41800000000E+01 0.  1.
        -11    1    3    3    0    0  0.14042719723E+02 -0.16290020614E+02 -0.27212786164E+02  0.34685710021E+02  0.00000000000E+00 0. -1.
         11    1    3    3    0    0 -0.73029148519E+02  0.34276473675E+02 -0.33147633712E+03  0.34115201194E+03  0.00000000000E+00 0.  1.
</event>
<event>
 8    1  0.9181008E-006  0.1088917E+03  0.7561462E-02  0.1262636E+00
          1   -1    0    0  501    0  0.00000000000E+00  0.00000000000E+00  0.31748629378E+03  0.31748629378E+03  0.00000000000E+00 0. -1.
         -1   -1    0    0    0  501 -0.00000000000E+00 -0.00000000000E+00 -0.53013611563E+02  0.53013611563E+02  0.00000000000E+00 0.  1.
         23    2    1    2    0    0 -0.28122373276E+02  0.34657475781E+02  0.97321629809E+02  0.15701494941E+03  0.11484853592E+03 0.  0.
         23    2    1    2    0    0  0.28122373276E+02 -0.34657475781E+02  0.16715105241E+03  0.21348495594E+03  0.12507735040E+03 0.  0.
          5    1    4    4  502    0  0.36085450349E+02 -0.72828384880E+02  0.65297265590E+02  0.10434241067E+03  0.41800000000E+01 0. -1.
         -5    1    4    4    0  502 -0.79630770730E+01  0.38170909099E+02  0.10185378682E+03  0.10914254527E+03  0.41800000000E+01 0. -1.
        -11    1    3    3    0    0  0.10199571667E+02  0.53510151946E+02  0.42823673862E+01  0.54641616868E+02  0.00000000000E+00 0.  1.
         11    1    3    3    0    0 -0.38321944943E+02 -0.18852676166E+02  0.93039262423E+02  0.10237333254E+03  0.00000000000E+00 0. -1.
</event>
<event>
 8    1  0.9181008E-006  0.1086797E+03  0.7561462E-02  0.1263035E+00
         -1   -1    0    0    0  501 -0.00000000000E+00  0.00000000000E+00  0.22412356653E+03  0.22412356653E+03  0.00000000000E+00 0.  1.
          1   -1    0    0  501    0  0.00000000000E+00 -0.00000000000E+00 -0.70463994987E+02  0.70463994987E+02  0.00000000000E+00 0. -1.
         23    2    1    2    0    0 -0.30128043669E+02 -0.31095106415E+02  0.11939704280E+03  0.15785179887E+03  0.93738636214E+02 0.  0.
         23    2    1    2    0    0  0.30128043669E+02  0.31095106415E+02  0.34262528735E+02  0.13673576264E+03  0.12509253875E+03 0.  0.
          5    1    4    4  502    0  0.14693816631E+02  0.71515708870E+02 -0.11033033687E+02  0.73956778558E+02  0.41800000000E+01 0.  1.
         -5    1    4    4    0  502  0.15434227037E+02 -0.40420602455E+02  0.45295562421E+02  0.62778984080E+02  0.41800000000E+01 0.  1.
        -11    1    3    3    0    0  0.30754044211E+02  0.31403294750E+01  0.53698411841E+02  0.61961216408E+02  0.00000000000E+00 0.  1.
         11    1    3    3    0    0 -0.60882087880E+02 -0.34235435890E+02  0.65698630964E+02  0.95890582466E+02  0.00000000000E+00 0. -1.
</event>
<event>
 8    1  0.9181008E-006  0.2086377E+03  0.7561462E-02  0.1142649E+00
         -2   -1    0    0    0  501 -0.00000000000E+00  0.00000000000E+00  0.17019402136E+03  0.17019402136E+03  0.00000000000E+00 0.  1.
          2   -1    0    0  501    0  0.00000000000E+00 -0.00000000000E+00 -0.36677402317E+03  0.36677402317E+03  0.00000000000E+00 0. -1.
         23    2    1    2    0    0  0.17018088525E+03  0.72867325224E+02  0.36592771172E+02  0.21403079143E+03  0.10098994003E+03 0.  0.
         23    2    1    2    0    0 -0.17018088525E+03 -0.72867325224E+02 -0.23317277298E+03  0.32293725310E+03  0.12509095327E+03 0.  0.
          5    1    4    4  502    0 -0.27558900811E+02  0.34684051990E+02 -0.52764184577E+02  0.69021794025E+02  0.41800000000E+01 0.  1.
         -5    1    4    4    0  502 -0.14262198444E+03 -0.10755137721E+03 -0.18040858841E+03  0.25391545907E+03  0.41800000000E+01 0.  1.
        -11    1    3    3    0    0  0.91307206988E+02  0.70214091027E+02  0.62401063361E+02  0.13099968449E+03  0.00000000000E+00 0.  1.
         11    1    3    3    0    0  0.78873678260E+02  0.26532341964E+01 -0.25808292190E+02  0.83031106940E+02  0.00000000000E+00 0. -1.
</event>
<event>
 8    1  0.9181008E-006  0.9891837E+02  0.7561462E-02  0.1282587E+00
          2   -1    0    0  501    0  0.00000000000E+00  0.00000000000E+00  0.92229422128E+03  0.92229422128E+03  0.00000000000E+00 0.  1.
         -2   -1    0    0    0  501 -0.00000000000E+00 -0.00000000000E+00 -0.13294127278E+02  0.13294127278E+02  0.00000000000E+00 0. -1.
         23    2    1    2    0    0 -0.25969280057E+01 -0.20224209818E+02  0.26896400744E+03  0.28312406302E+03  0.86033918115E+02 0.  0.
         23    2    1    2    0    0  0.25969280057E+01  0.20224209818E+02  0.64003608656E+03  0.65246428553E+03  0.12509072348E+03 0.  0.
          5    1    4    4  502    0 -0.84531949470E+01 -0.46307402642E+02  0.13725630273E+03  0.14516403509E+03  0.41800000000E+01 0. -1.
         -5    1    4    4    0  502  0.11050122953E+02  0.66531612460E+02  0.50277978383E+03  0.50730025045E+03  0.41800000000E+01 0. -1.
        -11    1    3    3    0    0 -0.33644748502E+02  0.14315245576E+02  0.16883089621E+03  0.17274480274E+03  0.00000000000E+00 0.  1.
         11    1    3    3    0    0  0.31047820496E+02 -0.34539455394E+02  0.10013311123E+03  0.11037926028E+03  0.00000000000E+00 0. -1.
</event>
<event>
 8    1  0.9181008E-006  0.1360066E+03  0.7561462E-02  0.1218806E+00
         -1   -1    0    0    0  501 -0.00000000000E+00  0.00000000000E+00  0.26079827475E+02  0.26079827475E+02  0.00000000000E+00 0.  1.
          1   -1    0    0  501    0  0.00000000000E+00 -0.00000000000E+00 -0.10993605650E+04  0.10993605650E+04  0.00000000000E+00 0. -1.
         23    2    1    2    0    0  0.10735823672E+03 -0.27428723284E+02 -0.28254827623E+03  0.31724270827E+03  0.92364937604E+02 0.  0.
         23    2    1    2    0    0 -0.10735823672E+03  0.27428723284E+02 -0.79073246129E+03  0.80819768420E+03  0.12509014971E+03 0.  0.
          5    1    4    4  502    0 -0.39694927195E+02  0.69737841308E+02 -0.51084283753E+03  0.51712370939E+03  0.41800000000E+01 0.  1.
         -5    1    4    4    0  502 -0.67663309524E+02 -0.42309118025E+02 -0.27988962375E+03  0.29107397481E+03  0.41800000000E+01 0.  1.
        -11    1    3    3    0    0  0.47360393726E+02 -0.19547227531E+02 -0.34135619207E+02  0.61565749380E+02  0.00000000000E+00 0.  1.
         11    1    3    3    0    0  0.59997842993E+02 -0.78814957528E+01 -0.24841265703E+03  0.25567695889E+03  0.00000000000E+00 0. -1.
</event>
<event>
 8    1  0.9181008E-006  0.6785448E+02  0.7561462E-02  0.1367545E+00
         -4   -1    0    0    0  501 -0.00000000000E+00  0.00000000000E+00  0.27496484865E+03  0.27496484865E+03  0.00000000000E+00 0.  1.
          4   -1    0    0  501    0  0.00000000000E+00 -0.00000000000E+00 -0.67448808203E+02  0.67448808203E+02  0.00000000000E+00 0. -1.
         23    2    1    2    0    0 -0.41325258073E+02  0.46828497208E+02  0.72282474278E+02  0.14790133335E+03  0.11291307813E+03 0.  0.
         23    2    1    2    0    0  0.41325258073E+02 -0.46828497208E+02  0.13523356617E+03  0.19451232351E+03  0.12508493703E+03 0.  0.
          5    1    4    4  502    0  0.10526217143E+02 -0.39181089153E+02  0.15269693090E+03  0.15804994180E+03  0.41800000000E+01 0. -1.
         -5    1    4    4    0  502  0.30799040930E+02 -0.76474080551E+01 -0.17463364733E+02  0.36462381710E+02  0.41800000000E+01 0. -1.
        -11    1    3    3    0    0 -0.26277964036E+02  0.24091127259E+02  0.10171438466E+03  0.10778093456E+03  0.00000000000E+00 0.  1.
         11    1    3    3    0    0 -0.15047294037E+02  0.22737369949E+02 -0.29431910386E+02  0.40120398789E+02  0.00000000000E+00 0. -1.
</event>
<event>
 8    1  0.9181008E-006  0.1249072E+03  0.7561462E-02  0.1235214E+00
         -2   -1    0    0    0  501 -0.00000000000E+00  0.00000000000E+00  0.40066809063E+02  0.40066809063E+02  0.00000000000E+00 0.  1.
          2   -1    0    0  501    0  0.00000000000E+00 -0.00000000000E+00 -0.72880328794E+03  0.72880328794E+03  0.00000000000E+00 0. -1.
         23    2    1    2    0    0 -0.24141470199E+02 -0.66755281756E+02 -0.71563756326E+02  0.13516034800E+03  0.90043712860E+02 0.  0.
         23    2    1    2    0    0  0.24141470199E+02  0.66755281756E+02 -0.61717272255E+03  0.63370974901E+03  0.12508716280E+03 0.  0.
          5    1    4    4  502    0 -0.49495996474E+02  0.18007774683E+02 -0.17573396740E+03  0.18350485910E+03  0.41800000000E+01 0. -1.
         -5    1    4    4    0  502  0.73637466672E+02  0.48747507073E+02 -0.44143875515E+03  0.45020488991E+03  0.41800000000E+01 0. -1.
        -11    1    3    3    0    0 -0.23482103217E+02  0.14311541395E+02 -0.73691750241E+00  0.27509497196E+02  0.00000000000E+00 0.  1.
         11    1    3    3    0    0 -0.65936698190E+00 -0.81066823151E+02 -0.70826838824E+02  0.10765085080E+03  0.00000000000E+00 0. -1.
</event>
<event>
 7    1  0.9181008E-006  0.1369271E+03  0.7561462E-02  0.1217525E+00
         -3   -1    0    0    0  501 -0.00000000000E+00  0.00000000000E+00  0.25109253077E+02  0.25109253077E+02  0.00000000000E+00 0.  1.
          3   -1    0    0  501    0  0.00000000000E+00 -0.00000000000E+00 -0.17369826270E+04  0.17369826270E+04  0.00000000000E+00 0. -1.
         23    2    1    2    0    0 -0.61467622522E+02  0.33535524985E+01 -0.12798759803E+03  0.16831687407E+03  0.90333990916E+02 0.  0.
          5    1    1    2  502    0 -0.55957615250E+02 -0.57913422763E+01 -0.37967465472E+03  0.38384255911E+03  0.41800000000E+01 0. -1.
         -5    1    1    2    0  502  0.11742523777E+03  0.24377897777E+01 -0.12042111211E+04  0.12099324469E+04  0.41800000000E+01 0.  1.
        -11    1    3    3    0    0 -0.56307301755E+02  0.36022285696E+02 -0.49596064510E+02  0.83233928855E+02  0.00000000000E+00 0.  1.
         11    1    3    3    0    0 -0.51603207668E+01 -0.32668733197E+02 -0.78391533521E+02  0.85082945218E+02  0.00000000000E+00 0. -1.
</event>
<event>
 8    1  0.9181008E-006  0.1081563E+03  0.7561462E-02  0.1264023E+00
          2   -1    0    0  501    0  0.00000000000E+00  0.00000000000E+00  0.55920803797E+03  0.55920803797E+03  0.00000000000E+00 0. -1.
         -2   -1    0    0    0  501 -0.00000000000E+00 -0.00000000000E+00 -0.27962176132E+02  0.27962176132E+02  0.00000000000E+00 0.  1.
         23    2    1    2    0    0  0.19545079280E+02 -0.20983786710E+02  0.12616240083E+03  0.16224660995E+03  0.97901387258E+02 0.  0.
         23    2    1    2    0    0 -0.19545079280E+02  0.20983786710E+02  0.40508346101E+03  0.42492360416E+03  0.12508049232E+03 0.  0.
          5    1    4    4  502    0  0.15642507248E+02  0.60534510883E+02  0.30757246075E+03  0.31389075496E+03  0.41800000000E+01 0. -1.
         -5    1    4    4    0  502 -0.35187586528E+02 -0.39550724173E+02  0.97511000261E+02  0.11103284919E+03  0.41800000000E+01 0. -1.
        -11    1    3    3    0    0  0.48560602039E+02 -0.42414444608E+02  0.93559467501E+02  0.11362434220E+03  0.00000000000E+00 0. -1.
         11    1    3    3    0    0 -0.29015522759E+02  0.21430657899E+02  0.32602933331E+02  0.48622267746E+02  0.00000000000E+00 0.  1.
</event>
<event>
 7    1  0.9181008E-006  0.1055813E+03  0.7561462E-02  0.1268978E+00
         -4   -1    0    0    0  501 -0.00000000000E+00  0.00000000000E+00  0.19616667202E+02  0.19616667202E+02  0.00000000000E+00 0. -1.
          4   -1    0    0  501    0  0.00000000000E+00 -0.00000000000E+00 -0.81501401501E+03  0.81501401501E+03  0.00000000000E+00 0.  1.
         23    2    1    2    0    0  0.83009917796E+02  0.18388890205E+02 -0.56770939557E+03  0.58750539942E+03  0.12505934110E+03 0.  0.
          5    1    3    3  502    0  0.88321269163E+02 -0.71218493387E+01 -0.54648769935E+03  0.55364035733E+03  0.41800000000E+01 0. -1.
         -5    1    3    3    0  502 -0.53113513667E+01  0.25510739544E+02 -0.21221696222E+02  0.33865042093E+02  0.41800000000E+01 0. -1.
        -11    1    1    2    0    0 -0.22003419494E+02 -0.26586169215E+02 -0.82726230949E+02  0.89635953445E+02  0.00000000000E+00 0.  1.
         11    1    1    2    0    0 -0.61006498302E+02  0.81972790100E+01 -0.14496172129E+03  0.15748932934E+03  0.00000000000E+00 0. -1.
</event>
<event>
 8    1  0.9181008E-006  0.1378095E+03  0.7561462E-02  0.1216307E+00
         -2   -1    0    0    0  501 -0.00000000000E+00  0.00000000000E+00  0.62275904523E+02  0.62275904523E+02  0.00000000000E+00 0. -1.
          2   -1    0    0  501    0  0.00000000000E+00 -0.00000000000E+00 -0.31824731999E+03  0.31824731999E+03  0.00000000000E+00 0.  1.
         23    2    1    2    0    0  0.16266125226E+01 -0.87781068689E+02 -0.14016233294E+03  0.18877184471E+03  0.91000922473E+02 0.  0.
         23    2    1    2    0    0 -0.16266125226E+01  0.87781068689E+02 -0.11580908253E+03  0.19175137981E+03  0.12509470881E+03 0.  0.
          5    1    4    4  502    0  0.60400664891E+02  0.42066856766E+02 -0.71834906057E+02  0.10293486720E+03  0.41800000000E+01 0.  1.
         -5    1    4    4    0  502 -0.62027277413E+02  0.45714211924E+02 -0.43974176472E+02  0.88816512606E+02  0.41800000000E+01 0.  1.
        -11    1    3    3    0    0 -0.36838116408E+02 -0.76069331939E+02 -0.10884050184E+03  0.13780364626E+03  0.00000000000E+00 0.  1.
         11    1    3    3    0    0  0.38464728931E+02 -0.11711736750E+02 -0.31321831098E+02  0.50968198445E+02  0.00000000000E+00 0. -1.
</event>
<event>
 8    1  0.9181008E-006  0.8690253E+02  0.7561462E-02  0.1310531E+00
         -1   -1    0    0    0  501 -0.00000000000E+00  0.00000000000E+00  0.53873773853E+02  0.53873773853E+02  0.00000000000E+00 0.  1.
          1   -1    0    0  501    0  0.00000000000E+00 -0.00000000000E+00 -0.32540929972E+03  0.32540929972E+03  0.00000000000E+00 0. -1.
         23    2    1    2    0    0 -0.39539312465E+02 -0.25839338060E+02 -0.30565747482E+02  0.10556140459E+03  0.89319183819E+02 0.  0.
         23    2    1    2    0    0  0.39539312465E+02  0.25839338060E+02 -0.24096977838E+03  0.27372166898E+03  0.12093837007E+03 0.  0.
          5    1    4    4  502    0  0.21413899350E+01  0.53182067383E+02 -0.21268035497E+03  0.21927909985E+03  0.41800000000E+01 0. -1.
         -5    1    4    4    0  502  0.37397922530E+02 -0.27342729323E+02 -0.28289423412E+02  0.54442569129E+02  0.41800000000E+01 0.  1.
        -11    1    3    3    0    0  0.82429366448E+01  0.10872136355E+02 -0.42060524527E+02  0.44218062791E+02  0.00000000000E+00 0.  1.
         11    1    3    3    0    0 -0.47782249110E+02 -0.36711474415E+02  0.11494777045E+02  0.61343341799E+02  0.00000000000E+00 0. -1.
</event>
<event>
 8    1  0.9181008E-006  0.6248602E+02  0.7561462E-02  0.1387686E+00
          2   -1    0    0  501    0  0.00000000000E+00  0.00000000000E+00  0.15157121397E+04  0.15157121397E+04  0.00000000000E+00 0. -1.
         -2   -1    0    0    0  501 -0.00000000000E+00 -0.00000000000E+00 -0.25899862311E+02  0.25899862311E+02  0.00000000000E+00 0.  1.
         23    2    1    2    0    0  0.34997752558E+02  0.49084124616E+02  0.10588822209E+03  0.15042098170E+03  0.88204660783E+02 0.  0.
         23    2    1    2    0    0 -0.34997752558E+02 -0.49084124616E+02  0.13839240553E+04  0.13911910203E+04  0.12857904261E+03 0.  0.
          5    1    4    4  502    0 -0.27134973846E+02 -0.47226816621E+02  0.13803296293E+04  0.13814101624E+04  0.41800000000E+01 0. -1.
         -5    1    4    4    0  502 -0.78627787114E+01 -0.18573079953E+01  0.35944259869E+01  0.97808578473E+01  0.41800000000E+01 0.  1.
        -11    1    3    3    0    0  0.64072256257E+01  0.17548598115E+02  0.10622286837E+03  0.10785315758E+03  0.00000000000E+00 0. -1.
         11    1    3    3    0    0  0.28590526932E+02  0.31535526502E+02 -0.33464627495E+00  0.42567824118E+02  0.00000000000E+00 0.  1.
</event>
<event>
 8    1  0.9181008E-006  0.1070495E+03  0.7561462E-02  0.1266133E+00
          1   -1    0    0  501    0  0.00000000000E+00  0.00000000000E+00  0.64161223422E+02  0.64161223422E+02  0.00000000000E+00 0. -1.
         -1   -1    0    0    0  501 -0.00000000000E+00 -0.00000000000E+00 -0.27628242994E+03  0.27628242994E+03  0.00000000000E+00 0.  1.
         23    2    1    2    0    0  0.14677156344E+02 -0.39580961508E+02 -0.17740155344E+03  0.20393289146E+03  0.91297544440E+02 0.  0.
         23    2    1    2    0    0 -0.14677156344E+02  0.39580961508E+02 -0.34719653070E+02  0.13651076190E+03  0.12509061665E+03 0.  0.
          5    1    4    4  502    0 -0.64355654918E+02 -0.54256296242E+01 -0.13913417329E+02  0.66197759467E+02  0.41800000000E+01 0. -1.
         -5    1    4    4    0  502  0.49678498574E+02  0.45006591133E+02 -0.20806235742E+02  0.70313002437E+02  0.41800000000E+01 0. -1.
        -11    1    3    3    0    0  0.39622281201E+02 -0.55315849958E+01 -0.28384009003E+02  0.49052783480E+02  0.00000000000E+00 0. -1.
         11    1    3    3    0    0 -0.24945124856E+02 -0.34049376513E+02 -0.14901754444E+03  0.15488010798E+03  0.00000000000E+00 0.  1.
</event>
<event>
 8    1  0.9181008E-006  0.1020819E+03  0.7561462E-02  0.1275978E+00
         -2   -1    0    0    0  501 -0.00000000000E+00  0.00000000000E+00  0.96342878439E+02  0.96342878439E+02  0.00000000000E+00 0.  1.
          2   -1    0    0  501    0  0.00000000000E+00 -0.00000000000E+00 -0.12949501040E+03  0.12949501040E+03  0.00000000000E+00 0. -1.
         23    2    1    2    0    0 -0.15773680757E+02 -0.23206514611E+02 -0.13056918046E+02  0.96075176088E+02  0.90953862075E+02 0.  0.
         23    2    1    2    0    0  0.15773680757E+02  0.23206514611E+02 -0.20095213912E+02  0.12976271275E+03  0.12508873919E+03 0.  0.
          5    1    4    4  502    0  0.66336365052E+02  0.18225719207E+02 -0.34098729075E+02  0.76895291751E+02  0.41800000000E+01 0.  1.
         -5    1    4    4    0  502 -0.50562684295E+02  0.49807954036E+01  0.14003515163E+02  0.52867420997E+02  0.41800000000E+01 0.  1.
        -11    1    3    3    0    0  0.32602340267E+02 -0.82913831127E+01 -0.27480071517E+02  0.43437471789E+02  0.00000000000E+00 0.  1.
         11    1    3    3    0    0 -0.48376021024E+02 -0.14915131498E+02  0.14423153471E+02  0.52637704299E+02  0.00000000000E+00 0. -1.
</event>
<event>
 8    1  0.9181008E-006  0.1340184E+03  0.7561462E-02  0.1221612E+00
          1   -1    0    0  501    0  0.00000000000E+00  0.00000000000E+00  0.31776866875E+03  0.31776866875E+03  0.00000000000E+00 0. -1.
         -1   -1    0    0    0  501 -0.00000000000E+00 -0.00000000000E+00 -0.67629680173E+02  0.67629680173E+02  0.00000000000E+00 0.  1.
         23    2    1    2    0    0 -0.56704440153E+02 -0.57817089435E+02  0.39344416460E+02  0.12724755379E+03  0.89920784444E+02 0.  0.
         23    2    1    2    0    0  0.56704440153E+02  0.57817089435E+02  0.21079457212E+03  0.25815079514E+03  0.12509705045E+03 0.  0.
          5    1    4    4  502    0  0.29318383693E+02 -0.38335885797E+02  0.58956452432E+02  0.76305592492E+02  0.41800000000E+01 0. -1.
         -5    1    4    4    0  502  0.27386056460E+02  0.96152975232E+02  0.15183811969E+03  0.18184520265E+03  0.41800000000E+01 0. -1.
        -11    1    3    3    0    0 -0.32264793443E+02  0.20003014251E+02  0.34093543026E+01  0.38115104248E+02  0.00000000000E+00 0.  1.
         11    1    3    3    0    0 -0.24439646710E+02 -0.77820103686E+02  0.35935062157E+02  0.89132449541E+02  0.00000000000E+00 0. -1.
</event>
<event>
 8    1  0.9181008E-006  0.1190942E+03  0.7561462E-02  0.1244599E+00
          2   -1    0    0  501    0  0.00000000000E+00  0.00000000000E+00  0.43607810925E+03  0.43607810925E+03  0.00000000000E+00 0. -1.
         -2   -1    0    0    0  501 -0.00000000000E+00 -0.00000000000E+00 -0.42316198674E+02  0.42316198674E+02  0.00000000000E+00 0.  1.
         23    2    1    2    0    0  0.39380660090E+02  0.57957906831E+02  0.10283767911E+03  0.15405711973E+03  0.90818789581E+02 0.  0.
         23    2    1    2    0    0 -0.39380660090E+02 -0.57957906831E+02  0.29092423146E+03  0.32433718819E+03  0.12509095827E+03 0.  0.
          5    1    4    4  502    0 -0.25854111861E+02 -0.88663832944E+02  0.26796860660E+03  0.28346844074E+03  0.41800000000E+01 0. -1.
         -5    1    4    4    0  502 -0.13526548229E+02  0.30705926113E+02  0.22955624858E+02  0.40868747450E+02  0.41800000000E+01 0. -1.
        -11    1    3    3    0    0 -0.27415397152E+02  0.26359310939E+02  0.51754529527E+02  0.64225762750E+02  0.00000000000E+00 0.  1.
         11    1    3    3    0    0  0.66796057242E+02  0.31598595891E+02  0.51083149587E+02  0.89831356981E+02  0.00000000000E+00 0. -1.
</event>
<event>
 8    1  0.9181008E-006  0.3291291E+03  0.7561462E-02  0.1071523E+00
          3   -1    0    0  501    0  0.00000000000E+00  0.00000000000E+00  0.76326446222E+03  0.76326446222E+03  0.00000000000E+00 0. -1.
         -3   -1    0    0    0  501 -0.00000000000E+00 -0.00000000000E+00 -0.15526094792E+03  0.15526094792E+03  0.00000000000E+00 0.  1.
         23    2    1    2    0    0  0.61793316635E+02 -0.31171484318E+03  0.39877790029E+03  0.51801615413E+03  0.91281787591E+02 0.  0.
         23    2    1    2    0    0 -0.61793316635E+02  0.31171484318E+03  0.20922561401E+03  0.40050925601E+03  0.12509096350E+03 0.  0.
          5    1    4    4  502    0 -0.91533792743E+02  0.27855325177E+03  0.16022190341E+03  0.33415397651E+03  0.41800000000E+01 0. -1.
         -5    1    4    4    0  502  0.29740476107E+02  0.33161591406E+02  0.49003710604E+02  0.66355279493E+02  0.41800000000E+01 0. -1.
        -11    1    3    3    0    0 -0.50041388154E+01 -0.47130938498E+02  0.11468695421E+03  0.12409457778E+03  0.00000000000E+00 0.  1.
         11    1    3    3    0    0  0.66797455451E+02 -0.26458390468E+03  0.28409094608E+03  0.39392157635E+03  0.00000000000E+00 0. -1.
</event>
<event>
 8    1  0.9181008E-006  0.7548190E+02  0.7561462E-02  0.1342385E+00
          2   -1    0    0  501    0  0.00000000000E+00  0.00000000000E+00  0.93359910666E+02  0.93359910666E+02  0.00000000000E+00 0.  1.
         -2   -1    0    0    0  501 -0.00000000000E+00 -0.00000000000E+00 -0.15373503655E+03  0.15373503655E+03  0.00000000000E+00 0. -1.
         23    2    1    2    0    0  0.30496132540E+02 -0.64851228060E+01 -0.67493314372E+02  0.11799043570E+03  0.91620546356E+02 0.  0.
         23    2    1    2    0    0 -0.30496132540E+02  0.64851228060E+01  0.71181884905E+01  0.12910451151E+03  0.12508091528E+03 0.  0.
          5    1    4    4  502    0 -0.37839828822E+02  0.37664309611E+02 -0.43542498941E+02  0.69020826406E+02  0.41800000000E+01 0. -1.
         -5    1    4    4    0  502  0.73436962817E+01 -0.31179186805E+02  0.50660687431E+02  0.60083685106E+02  0.41800000000E+01 0. -1.
        -11    1    3    3    0    0  0.65072133318E+01 -0.30486117408E+02  0.10533157398E+02  0.32904324712E+02  0.00000000000E+00 0.  1.
         11    1    3    3    0    0  0.23988919209E+02  0.24000994602E+02 -0.78026471770E+02  0.85086110991E+02  0.00000000000E+00 0. -1.
</event>
<event>
 8    1  0.9181008E-006  0.3716277E+03  0.7561462E-02  0.1054072E+00
         -1   -1    0    0    0  501 -0.00000000000E+00  0.00000000000E+00  0.38510955470E+03  0.38510955470E+03  0.00000000000E+00 0.  1.
          1   -1    0    0  501    0  0.00000000000E+00 -0.00000000000E+00 -0.46005067383E+03  0.46005067383E+03  0.00000000000E+00 0. -1.
         23    2    1    2    0    0 -0.16315875722E+03  0.32254659952E+03  0.14965002688E+03  0.40167813955E+03  0.91066504961E+02 0.  0.
         23    2    1    2    0    0  0.16315875722E+03 -0.32254659952E+03 -0.22459114601E+03  0.44348208898E+03  0.12481222479E+03 0.  0.
          5    1    4    4  502    0 -0.18884588053E+02 -0.53598092857E+02 -0.24679418933E+02  0.62096129853E+02  0.41800000000E+01 0.  1.
         -5    1    4    4    0  502  0.18204334528E+03 -0.26894850667E+03 -0.19991172707E+03  0.38138595913E+03  0.41800000000E+01 0.  1.
        -11    1    3    3    0    0 -0.43723152539E+02  0.89787724944E+02 -0.83551479255E+00  0.99871155513E+02  0.00000000000E+00 0. -1.
         11    1    3    3    0    0 -0.11943560468E+03  0.23275887458E+03  0.15048554167E+03  0.30180698404E+03  0.00000000000E+00 0.  1.
</event>
<event>
 8    1  0.9181008E-006  0.1294597E+03  0.7561462E-02  0.1228260E+00
         -1   -1    0    0    0  501 -0.00000000000E+00  0.00000000000E+00  0.25834307986E+03  0.25834307986E+03  0.00000000000E+00 0.  1.
          1   -1    0    0  501    0  0.00000000000E+00 -0.00000000000E+00 -0.10494974917E+03  0.10494974917E+03  0.00000000000E+00 0. -1.
         23    2    1    2    0    0 -0.10605787949E+03  0.55687927429E+00  0.13996591398E+03  0.19874632774E+03  0.93064825778E+02 0.  0.
         23    2    1    2    0    0  0.10605787949E+03 -0.55687927429E+00  0.13427416711E+02  0.16454650129E+03  0.12508665657E+03 0.  0.
          5    1    4    4  502    0  0.53116806155E+02  0.29097347551E+02 -0.48530851908E+02  0.77722369480E+02  0.41800000000E+01 0. -1.
         -5    1    4    4    0  502  0.52941073336E+02 -0.29654226825E+02  0.61958268619E+02  0.86824131812E+02  0.41800000000E+01 0. -1.
        -11    1    3    3    0    0 -0.65667571220E+02  0.43237732768E+02  0.57147095862E+02  0.97198364237E+02  0.00000000000E+00 0.  1.
         11    1    3    3    0    0 -0.40390308272E+02 -0.42680853493E+02  0.82818818120E+02  0.10154796350E+03  0.00000000000E+00 0. -1.
</event>
<event>
 8    1  0.9181008E-006  0.9319134E+02  0.7561462E-02  0.1295302E+00
          1   -1    0    0  501    0  0.00000000000E+00  0.00000000000E+00  0.69999241338E+03  0.69999241338E+03  0.00000000000E+00 0. -1.
         -1   -1    0    0    0  501 -0.00000000000E+00 -0.00000000000E+00 -0.37982408847E+02  0.37982408847E+02  0.00000000000E+00 0.  1.
         23    2    1    2    0    0  0.25641187703E+02 -0.22134498755E+02  0.42397052713E+02  0.10495422402E+03  0.89835808663E+02 0.  0.
         23    2    1    2    0    0 -0.25641187703E+02  0.22134498755E+02  0.61961295182E+03  0.63302059821E+03  0.12508981235E+03 0.  0.
          5    1    4    4  502    0  0.71202363552E+01 -0.36557495046E+02  0.70955257877E+02  0.80245057356E+02  0.41800000000E+01 0.  1.
         -5    1    4    4    0  502 -0.32761424058E+02  0.58691993801E+02  0.54865769394E+03  0.55277554085E+03  0.41800000000E+01 0.  1.
        -11    1    3    3    0    0  0.50568968308E+02 -0.25098075502E+02  0.90828950479E+00  0.56462013244E+02  0.00000000000E+00 0.  1.
         11    1    3    3    0    0 -0.24927780606E+02  0.29635767474E+01  0.41488763209E+02  0.48492210773E+02  0.00000000000E+00 0. -1.
</event>
<event>
 8    1  0.9181008E-006  0.1072486E+03  0.7561462E-02  0.1265752E+00
          2   -1    0    0  501    0  0.00000000000E+00  0.00000000000E+00  0.78791645077E+03  0.78791645077E+03  0.00000000000E+00 0. -1.
         -2   -1    0    0    0  501 -0.00000000000E+00 -0.00000000000E+00 -0.19520477533E+02  0.19520477533E+02  0.00000000000E+00 0.  1.
         23    2    1    2    0    0  0.38318235377E+02  0.27529511509E+00  0.23370475267E+03  0.25697368988E+03  0.99745691259E+02 0.  0.
         23    2    1    2    0    0 -0.38318235377E+02 -0.27529511509E+00  0.53469122057E+03  0.55046323841E+03  0.12508682003E+03 0.  0.
          5    1    4    4  502    0 -0.13578514687E+02 -0.59997747086E+02  0.33185164514E+03  0.33753087636E+03  0.41800000000E+01 0. -1.
         -5    1    4    4    0  502 -0.24739720689E+02  0.59722451971E+02  0.20283957543E+03  0.21293236205E+03  0.41800000000E+01 0. -1.
        -11    1    3    3    0    0  0.48712566653E+02  0.29564658496E+02  0.69594652246E+02  0.89946644202E+02  0.00000000000E+00 0.  1.
         11    1    3    3    0    0 -0.10394331276E+02 -0.29289363381E+02  0.16411010042E+03  0.16702704568E+03  0.00000000000E+00 0. -1.
</event>
<event>
 8    1  0.9181008E-006  0.1284880E+03  0.7561462E-02  0.1229717E+00
         -2   -1    0    0    0  501 -0.00000000000E+00  0.00000000000E+00  0.52724531230E+02  0.52724531230E+02  0.00000000000E+00 0.  1.
          2   -1    0    0  501    0  0.00000000000E+00 -0.00000000000E+00 -0.47992940857E+03  0.47992940857E+03  0.00000000000E+00 0. -1.
         23    2    1    2    0    0 -0.79911069694E+02  0.18412611195E+00 -0.55806654466E+02  0.13269158320E+03  0.90038106419E+02 0.  0.
         23    2    1    2    0    0  0.79911069694E+02 -0.18412611195E+00 -0.37139822287E+03  0.39996235660E+03  0.12508970294E+03 0.  0.
          5    1    4    4  502    0  0.52270655146E+02  0.58310326957E+02 -0.25427729628E+03  0.26609534273E+03  0.41800000000E+01 0. -1.
         -5    1    4    4    0  502  0.27640414548E+02 -0.58494453069E+02 -0.11712092659E+03  0.13386701387E+03  0.41800000000E+01 0. -1.
        -11    1    3    3    0    0 -0.12946542347E+02 -0.35541387385E+02 -0.40213392901E+02  0.55207971748E+02  0.00000000000E+00 0.  1.
         11    1    3    3    0    0 -0.66964527347E+02  0.35725513497E+02 -0.15593261565E+02  0.77483611452E+02  0.00000000000E+00 0. -1.
</event>
<event>
 8    1  0.9181008E-006  0.1790459E+03  0.7561462E-02  0.1168730E+00
         -2   -1    0    0    0  501 -0.00000000000E+00  0.00000000000E+00  0.21314426380E+02  0.21314426380E+02  0.00000000000E+00 0.  1.
          2   -1    0    0  501    0  0.00000000000E+00 -0.00000000000E+00 -0.18849061115E+04  0.18849061115E+04  0.00000000000E+00 0. -1.
         23    2    1    2    0    0 -0.12115020885E+03  0.10834289124E+03 -0.64586839361E+03  0.67134684239E+03  0.84528372401E+02 0.  0.
         23    2    1    2    0    0  0.12115020885E+03 -0.10834289124E+03 -0.12177232915E+04  0.12348736955E+04  0.12508986341E+03 0.  0.
          5    1    4    4  502    0  0.38371147041E+02  0.11173565250E+02 -0.55136058179E+03  0.55282289843E+03  0.41800000000E+01 0. -1.
         -5    1    4    4    0  502  0.82779061814E+02 -0.11951645649E+03 -0.66636270970E+03  0.68205079702E+03  0.41800000000E+01 0. -1.
        -11    1    3    3    0    0 -0.56941198502E+02  0.88543384032E+02 -0.27540306556E+03  0.29483737800E+03  0.00000000000E+00 0. -1.
         11    1    3    3    0    0 -0.64209010352E+02  0.19799507211E+02 -0.37046532804E+03  0.37650946439E+03  0.00000000000E+00 0.  1.
</event>
<event>
 8    1  0.9181008E-006  0.1194228E+03  0.7561462E-02  0.1244052E+00
         -1   -1    0    0    0  501 -0.00000000000E+00  0.00000000000E+00  0.49541425054E+02  0.49541425054E+02  0.00000000000E+00 0.  1.
          1   -1    0    0  501    0  0.00000000000E+00 -0.00000000000E+00 -0.32383031540E+03  0.32383031540E+03  0.00000000000E+00 0. -1.
         23    2    1    2    0    0  0.60472507684E+02 -0.27337824896E+02 -0.95079777216E+02  0.14491691341E+03  0.86927940857E+02 0.  0.
         23    2    1    2    0    0 -0.60472507684E+02  0.27337824896E+02 -0.17920911313E+03  0.22845482705E+03  0.12518554595E+03 0.  0.
          5    1    4    4  502    0  0.16110316172E+02 -0.31382417092E+02 -0.90832445830E+02  0.97531553895E+02  0.41800000000E+01 0.  1.
         -5    1    4    4    0  502 -0.76582823856E+02  0.58720241988E+02 -0.88376667303E+02  0.13092327315E+03  0.41800000000E+01 0.  1.
        -11    1    3    3    0    0  0.12263604025E+02  0.29649106408E+02 -0.44054649288E+02  0.54500253379E+02  0.00000000000E+00 0.  1.
         11    1    3    3    0    0  0.48208903659E+02 -0.56986931304E+02 -0.51025127927E+02  0.90416660033E+02  0.00000000000E+00 0. -1.
</event>
<event>
 8    1  0.9181008E-006  0.8539488E+02  0.7561462E-02  0.1314403E+00
          2   -1    0    0  501    0  0.00000000000E+00  0.00000000000E+00  0.60474682670E+03  0.60474682670E+03  0.00000000000E+00 0. -1.
         -2   -1    0    0    0  501 -0.00000000000E+00 -0.00000000000E+00 -0.41540815421E+02  0.41540815421E+02  0.00000000000E+00 0.  1.
         23    2    1    2    0    0 -0.38579798429E+02  0.43154770524E+02  0.65269759173E+02  0.12962559112E+03  0.95874487462E+02 0.  0.
         23    2    1    2    0    0  0.38579798429E+02 -0.43154770524E+02  0.49793625210E+03  0.51666205099E+03  0.12509367974E+03 0.  0.
          5    1    4    4  502    0 -0.15976473631E+02 -0.45670236624E+02  0.41134019697E+03  0.41419711282E+03  0.41800000000E+01 0. -1.
         -5    1    4    4    0  502  0.54556272060E+02  0.25154660999E+01  0.86596055133E+02  0.10246493818E+03  0.41800000000E+01 0. -1.
        -11    1    3    3    0    0 -0.40136496777E+02  0.21105471168E+02 -0.13898530740E+02  0.47429404840E+02  0.00000000000E+00 0.  1.
         11    1    3    3    0    0  0.15566983486E+01  0.22049299356E+02  0.79168289913E+02  0.82196186284E+02  0.00000000000E+00 0. -1.
</event>
<event>
 8    1  0.9181008E-006  0.1222527E+03  0.7561462E-02  0.1239426E+00
          2   -1    0    0  501    0  0.00000000000E+00  0.00000000000E+00  0.61124477474E+03  0.61124477474E+03  0.00000000000E+00 0.  1.
         -2   -1    0    0    0  501 -0.00000000000E+00 -0.00000000000E+00 -0.37170591352E+02  0.37170591352E+02  0.00000000000E+00 0. -1.
         23    2    1    2    0    0  0.85422648850E+01  0.75863342014E+02  0.11125977707E+03  0.16295382559E+03  0.91361886639E+02 0.  0.
         23    2    1    2    0    0 -0.85422648850E+01 -0.75863342014E+02  0.46281440632E+03  0.48546154050E+03  0.12509003022E+03 0.  0.
          5    1    4    4  502    0 -0.43645815195E+02  0.84049268987E+01  0.24848748928E+03  0.25246604665E+03  0.41800000000E+01 0.  1.
         -5    1    4    4    0  502  0.35103550310E+02 -0.84268268912E+02  0.21432691703E+03  0.23299549385E+03  0.41800000000E+01 0.  1.
        -11    1    3    3    0    0 -0.34268279155E+02  0.39643552016E+02  0.87628044178E+02  0.10210093192E+03  0.00000000000E+00 0.  1.
         11    1    3    3    0    0  0.42810544040E+02  0.36219789998E+02  0.23631732891E+02  0.60852893669E+02  0.00000000000E+00 0. -1.
</event>
<event>
 7    1  0.9181008E-006  0.1253503E+03  0.7561462E-02  0.1234523E+00
         -1   -1    0    0    0  501 -0.00000000000E+00  0.00000000000E+00  0.46443630819E+02  0.46443630819E+02  0.00000000000E+00 0.  1.
          1   -1    0    0  501    0  0.00000000000E+00 -0.00000000000E+00 -0.44237033807E+03  0.44237033807E+03  0.00000000000E+00 0. -1.
         23    2    1    2    0    0 -0.26413726057E+02 -0.82376692459E+02 -0.12791442417E+03  0.17869085382E+03  0.89915054049E+02 0.  0.
          5    1    1    2  502    0 -0.51437898264E+02  0.24443962664E+02 -0.12269798670E+03  0.13533526158E+03  0.41800000000E+01 0. -1.
         -5    1    1    2    0  502  0.77851624321E+02  0.57932729795E+02 -0.14531429638E+03  0.17478785348E+03  0.41800000000E+01 0.  1.
        -11    1    3    3    0    0  0.64854486332E+01 -0.49611114908E+02 -0.87403781669E+01  0.50790924158E+02  0.00000000000E+00 0.  1.
         11    1    3    3    0    0 -0.32899174690E+02 -0.32765577552E+02 -0.11917404600E+03  0.12789992967E+03  0.00000000000E+00 0. -1.
</event>
<event>
 7    1  0.9181008E-006  0.8020667E+02  0.7561462E-02  0.1328466E+00
          2   -1    0    0  501    0  0.00000000000E+00  0.00000000000E+00  0.97030058313E+03  0.97030058313E+03  0.00000000000E+00 0. -1.
         -2   -1    0    0    0  501 -0.00000000000E+00 -0.00000000000E+00 -0.14637737911E+02  0.14637737911E+02  0.00000000000E+00 0.  1.
         23    2    1    2    0    0  0.11571675715E+02  0.54246377898E+02  0.85056421892E+03  0.86036007340E+03  0.11697603264E+03 0.  0.
          5    1    3    3  502    0 -0.32446578041E+02  0.50826879902E+02  0.71871388663E+03  0.72125118744E+03  0.41800000000E+01 0. -1.
         -5    1    3    3    0  502  0.44018253756E+02  0.34194979958E+01  0.13185033229E+03  0.13910888597E+03  0.41800000000E+01 0.  1.
        -11    1    1    2    0    0 -0.66422461383E+01 -0.21445096473E+02  0.79699204383E+02  0.82800813859E+02  0.00000000000E+00 0. -1.
         11    1    1    2    0    0 -0.49294295771E+01 -0.32801281426E+02  0.25399421917E+02  0.41777433775E+02  0.00000000000E+00 0.  1.
</event>
<event>
 8    1  0.9181008E-006  0.1139711E+03  0.7561462E-02  0.1253388E+00
          1   -1    0    0  501    0  0.00000000000E+00  0.00000000000E+00  0.10953422131E+04  0.10953422131E+04  0.00000000000E+00 0. -1.
         -1   -1    0    0    0  501 -0.00000000000E+00 -0.00000000000E+00 -0.12934874650E+02  0.12934874650E+02  0.00000000000E+00 0.  1.
         23    2    1    2    0    0  0.31592982076E+02 -0.27107653320E+02  0.37482668367E+03  0.38852170713E+03  0.93387005175E+02 0.  0.
         23    2    1    2    0    0 -0.31592982076E+02  0.27107653320E+02  0.70758065480E+03  0.71975538064E+03  0.12507790983E+03 0.  0.
          5    1    4    4  502    0 -0.78969721696E+02  0.27410299980E+02  0.41832154930E+03  0.42661215700E+03  0.41800000000E+01 0.  1.
         -5    1    4    4    0  502  0.47376739620E+02 -0.30264666072E+00  0.28925910550E+03  0.29314322364E+03  0.41800000000E+01 0.  1.
        -11    1    3    3    0    0  0.10314470135E+02  0.32127930083E+02  0.19736346590E+03  0.20022719560E+03  0.00000000000E+00 0. -1.
         11    1    3    3    0    0  0.21278511941E+02 -0.59235583403E+02  0.17746321777E+03  0.18829451153E+03  0.00000000000E+00 0.  1.
</event>
<event>
 8    1  0.9181008E-006  0.1019452E+03  0.7561462E-02  0.1276258E+00
         -2   -1    0    0    0  501 -0.00000000000E+00  0.00000000000E+00  0.39242922518E+02  0.39242922518E+02  0.00000000000E+00 0.  1.
          2   -1    0    0  501    0  0.00000000000E+00 -0.00000000000E+00 -0.39323327629E+03  0.39323327629E+03  0.00000000000E+00 0. -1.
         23    2    1    2    0    0  0.77927959267E+01  0.31061222142E+02 -0.65335038910E+02  0.11625743240E+03  0.90673017434E+02 0.  0.
         23    2    1    2    0    0 -0.77927959267E+01 -0.31061222142E+02 -0.28865531486E+03  0.31621876640E+03  0.12508753031E+03 0.  0.
          5    1    4    4  502    0 -0.95344446299E+00  0.41551377145E+02 -0.43074880298E+02  0.60002864196E+02  0.41800000000E+01 0. -1.
         -5    1    4    4    0  502 -0.68393514637E+01 -0.72612599288E+02 -0.24558043456E+03  0.25621590221E+03  0.41800000000E+01 0. -1.
        -11    1    3    3    0    0  0.44152404651E+02  0.28633206801E+02 -0.16154916397E+02  0.55047949025E+02  0.00000000000E+00 0.  1.
         11    1    3    3    0    0 -0.36359608724E+02  0.24280153417E+01 -0.49180122513E+02  0.61209483379E+02  0.00000000000E+00 0. -1.
</event>
<event>
 8    1  0.9181008E-006  0.1623887E+03  0.7561462E-02  0.1186026E+00
         -2   -1    0    0    0  501 -0.00000000000E+00  0.00000000000E+00  0.32803087988E+03  0.32803087988E+03  0.00000000000E+00 0.  1.
          2   -1    0    0  501    0  0.00000000000E+00 -0.00000000000E+00 -0.96426650213E+02  0.96426650213E+02  0.00000000000E+00 0. -1.
         23    2    1    2    0    0 -0.12473235984E+03  0.12685899537E+02  0.18643056296E+03  0.24167893407E+03  0.89068842632E+02 0.  0.
         23    2    1    2    0    0  0.12473235984E+03 -0.12685899537E+02  0.45173666707E+02  0.18277859603E+03  0.12509301084E+03 0.  0.
          5    1    4    4  502    0  0.97565395329E+02  0.47094943642E+02  0.43901817666E+02  0.11696915011E+03  0.41800000000E+01 0. -1.
         -5    1    4    4    0  502  0.27166964514E+02 -0.59780843179E+02  0.12718490407E+01  0.65809445919E+02  0.41800000000E+01 0. -1.
        -11    1    3    3    0    0 -0.11603552537E+03  0.39341947973E+02  0.16872044774E+03  0.20851527882E+03  0.00000000000E+00 0. -1.
         11    1    3    3    0    0 -0.86968344736E+01 -0.26656048436E+02  0.17710115228E+02  0.33163655249E+02  0.00000000000E+00 0.  1.
</event>
<event>
 8    1  0.9181008E-006  0.8862782E+02  0.7561462E-02  0.1306209E+00
          2   -1    0    0  501    0  0.00000000000E+00  0.00000000000E+00  0.34260728532E+03  0.34260728532E+03  0.00000000000E+00 0. -1.
         -2   -1    0    0    0  501 -0.00000000000E+00 -0.00000000000E+00 -0.39318461909E+02  0.39318461909E+02  0.00000000000E+00 0.  1.
         23    2    1    2    0    0 -0.23287753930E+02  0.28438281615E+02  0.11573858143E+03  0.15351621528E+03  0.93918868063E+02 0.  0.
         23    2    1    2    0    0  0.23287753930E+02 -0.28438281615E+02  0.18755024198E+03  0.22840953195E+03  0.12507903771E+03 0.  0.
          5    1    4    4  502    0  0.28337206582E+02  0.26626361568E+02  0.16324381128E+03  0.16786296413E+03  0.41800000000E+01 0.  1.
         -5    1    4    4    0  502 -0.50494526519E+01 -0.55064643183E+02  0.24306430705E+02  0.60546567818E+02  0.41800000000E+01 0.  1.
        -11    1    3    3    0    0 -0.54276941791E+01  0.52471416699E+02  0.25796908756E+02  0.58721290312E+02  0.00000000000E+00 0.  1.
         11    1    3    3    0    0 -0.17860059751E+02 -0.24033135084E+02  0.89941672678E+02  0.94794924971E+02  0.00000000000E+00 0. -1.
</event>
<event>
 8    1  0.9181008E-006  0.1550599E+03  0.7561462E-02  0.1194390E+00
          1   -1    0    0  501    0  0.00000000000E+00  0.00000000000E+00  0.27717939041E+02  0.27717939041E+02  0.00000000000E+00 0. -1.
         -1   -1    0    0    0  501 -0.00000000000E+00 -0.00000000000E+00 -0.11159721229E+04  0.11159721229E+04  0.00000000000E+00 0.  1.
         23    2    1    2    0    0 -0.10927901811E+03 -0.73277461950E+02 -0.64584292288E+03  0.66547803799E+03  0.91850137581E+02 0.  0.
         23    2    1    2    0    0  0.10927901811E+03  0.73277461950E+02 -0.44241126102E+03  0.47821202400E+03  0.12509007072E+03 0.  0.
          5    1    4    4  502    0  0.36070674360E+02  0.68950870680E+02 -0.93807764950E+02  0.12195361939E+03  0.41800000000E+01 0. -1.
         -5    1    4    4    0  502  0.73208343746E+02  0.43265912708E+01 -0.34860349607E+03  0.35625840461E+03  0.41800000000E+01 0. -1.
        -11    1    3    3    0    0 -0.26876460395E+02 -0.71423725806E+02 -0.26213239220E+03  0.27301480504E+03  0.00000000000E+00 0. -1.
         11    1    3    3    0    0 -0.82402557712E+02 -0.18537361444E+01 -0.38371053069E+03  0.39246323295E+03  0.00000000000E+00 0.  1.
</event>
<event>
 8    1  0.9181008E-006  0.3014138E+03  0.7561462E-02  0.1084536E+00
          2   -1    0    0  501    0  0.00000000000E+00  0.00000000000E+00  0.28184770944E+03  0.28184770944E+03  0.00000000000E+00 0. -1.
         -2   -1    0    0    0  501 -0.00000000000E+00 -0.00000000000E+00 -0.40924171535E+03  0.40924171535E+03  0.00000000000E+00 0.  1.
         23    2    1    2    0    0 -0.10283716057E+03 -0.27111525545E+03 -0.20398267380E+03  0.36613816875E+03  0.91483682007E+02 0.  0.
         23    2    1    2    0    0  0.10283716057E+03  0.27111525545E+03  0.76588667900E+02  0.32495125604E+03  0.12509409027E+03 0.  0.
          5    1    4    4  502    0  0.78754615044E+02  0.26829945672E+03  0.93757592617E+02  0.29494888785E+03  0.41800000000E+01 0. -1.
         -5    1    4    4    0  502  0.24082545523E+02  0.28157987247E+01 -0.17168924716E+02  0.30002368194E+02  0.41800000000E+01 0. -1.
        -11    1    3    3    0    0 -0.36180394995E+02 -0.25993595785E+02 -0.58071279840E+02  0.73191266870E+02  0.00000000000E+00 0. -1.
         11    1    3    3    0    0 -0.66656765573E+02 -0.24512165966E+03 -0.14591139396E+03  0.29294690188E+03  0.00000000000E+00 0.  1.
</event>
<event>
 8    1  0.9181008E-006  0.1514526E+03  0.7561462E-02  0.1198699E+00
          2   -1    0    0  501    0  0.00000000000E+00  0.00000000000E+00  0.10057920786E+04  0.10057920786E+04  0.00000000000E+00 0. -1.
         -2   -1    0    0    0  501 -0.00000000000E+00 -0.00000000000E+00 -0.38996371471E+02  0.38996371471E+02  0.00000000000E+00 0.  1.
         23    2    1    2    0    0 -0.10153037719E+03 -0.62973723068E+02  0.13352362159E+03  0.19375390965E+03  0.73742204293E+02 0.  0.
         23    2    1    2    0    0  0.10153037719E+03  0.62973723068E+02  0.83327208556E+03  0.85103454044E+03  0.12507323116E+03 0.  0.
          5    1    4    4  502    0  0.10940369797E+02 -0.36064789472E+02  0.21866649798E+03  0.22192987738E+03  0.41800000000E+01 0.  1.
         -5    1    4    4    0  502  0.90590007396E+02  0.99038512541E+02  0.61460558757E+03  0.62910466306E+03  0.41800000000E+01 0.  1.
        -11    1    3    3    0    0 -0.24963373069E+02  0.80859027404E+01  0.27545130509E+01  0.26384449213E+02  0.00000000000E+00 0.  1.
         11    1    3    3    0    0 -0.76567004124E+02 -0.71059625809E+02  0.13076910854E+03  0.16736946044E+03  0.00000000000E+00 0. -1.
</event>
<event>
 8    1  0.9181008E-006  0.7560764E+02  0.7561462E-02  0.1342000E+00
         -2   -1    0    0    0  501 -0.00000000000E+00  0.00000000000E+00  0.44788977968E+02  0.44788977968E+02  0.00000000000E+00 0. -1.
          2   -1    0    0  501    0  0.00000000000E+00 -0.00000000000E+00 -0.38533151155E+03  0.38533151155E+03  0.00000000000E+00 0.  1.
         23    2    1    2    0    0  0.48223737059E+02 -0.92314907061E+01 -0.60555418590E+02  0.11955434690E+03  0.90639582448E+02 0.  0.
         23    2    1    2    0    0 -0.48223737059E+02  0.92314907061E+01 -0.27998711500E+03  0.31056614262E+03  0.12509114733E+03 0.  0.
          5    1    4    4  502    0 -0.11838708639E+02  0.18701261843E+02  0.50052056055E+01  0.23074156537E+02  0.41800000000E+01 0. -1.
         -5    1    4    4    0  502 -0.36385028421E+02 -0.94697711370E+01 -0.28499232060E+03  0.28749198608E+03  0.41800000000E+01 0. -1.
        -11    1    3    3    0    0  0.61790611705E+02  0.14551794686E+02 -0.13178654650E+02  0.64834492069E+02  0.00000000000E+00 0. -1.
         11    1    3    3    0    0 -0.13566874646E+02 -0.23783285392E+02 -0.47376763940E+02  0.54719854835E+02  0.00000000000E+00 0.  1.
</event>
<event>
 8    1  0.9181008E-006  0.1236227E+03  0.7561462E-02  0.1237238E+00
         -1   -1    0    0    0  501 -0.00000000000E+00  0.00000000000E+00  0.49002318840E+02  0.49002318840E+02  0.00000000000E+00 0.  1.
          1   -1    0    0  501    0  0.00000000000E+00 -0.00000000000E+00 -0.45443945349E+03  0.45443945349E+03  0.00000000000E+00 0. -1.
         23    2    1    2    0    0  0.64910362736E+02 -0.44285504694E+02 -0.71617886889E+02  0.13840260193E+03  0.88609239824E+02 0.  0.
         23    2    1    2    0    0 -0.64910362736E+02  0.44285504694E+02 -0.33381924776E+03  0.36503917040E+03  0.12507495606E+03 0.  0.
          5    1    4    4  502    0 -0.92287067745E+02  0.93925330317E+01 -0.15439707404E+03  0.18016950747E+03  0.41800000000E+01 0. -1.
         -5    1    4    4    0  502  0.27376705009E+02  0.34892971663E+02 -0.17942217372E+03  0.18486966293E+03  0.41800000000E+01 0. -1.
        -11    1    3    3    0    0 -0.12016601541E+02 -0.29024784265E+02 -0.46376913645E+02  0.56014774243E+02  0.00000000000E+00 0. -1.
         11    1    3    3    0    0  0.76926964277E+02 -0.15260720430E+02 -0.25240973244E+02  0.82387827688E+02  0.00000000000E+00 0.  1.
</event>
<event>
 8    1  0.9181008E-006  0.1031141E+03  0.7561462E-02  0.1273880E+00
         -2   -1    0    0    0  501 -0.00000000000E+00  0.00000000000E+00  0.37955797257E+02  0.37955797257E+02  0.00000000000E+00 0.  1.
          2   -1    0    0  501    0  0.00000000000E+00 -0.00000000000E+00 -0.82136254693E+03  0.82136254693E+03  0.00000000000E+00 0. -1.
         23    2    1    2    0    0 -0.66195253022E+02 -0.44462006124E+02 -0.91490482499E+02  0.15167788271E+03  0.90977965485E+02 0.  0.
         23    2    1    2    0    0  0.66195253022E+02  0.44462006124E+02 -0.69191626717E+03  0.70764046148E+03  0.12509284724E+03 0.  0.
          5    1    4    4  502    0 -0.26365320021E+01  0.14232720014E+02 -0.39624805349E+01  0.15578680046E+02  0.41800000000E+01 0. -1.
         -5    1    4    4    0  502  0.68831785024E+02  0.30229286110E+02 -0.68795378664E+03  0.69206178143E+03  0.41800000000E+01 0. -1.
        -11    1    3    3    0    0 -0.44095201918E+02  0.19486361133E+02 -0.17177097220E+02  0.51177707757E+02  0.00000000000E+00 0. -1.
         11    1    3    3    0    0 -0.22100051104E+02 -0.63948367257E+02 -0.74313385279E+02  0.10050017495E+03  0.00000000000E+00 0.  1.
</event>
<event>
 8    1  0.9181008E-006  0.1148118E+03  0.7561462E-02  0.1251910E+00
          2   -1    0    0  501    0  0.00000000000E+00  0.00000000000E+00  0.32417942410E+03  0.32417942410E+03  0.00000000000E+00 0. -1.
         -2   -1    0    0    0  501 -0.00000000000E+00 -0.00000000000E+00 -0.47131714698E+02  0.47131714698E+02  0.00000000000E+00 0.  1.
         23    2    1    2    0    0 -0.39128537609E+01 -0.57503058827E+02  0.10388778639E+03  0.15005316507E+03  0.91658976586E+02 0.  0.
         23    2    1    2    0    0  0.39128537609E+01  0.57503058827E+02  0.17315992302E+03  0.22125797373E+03  0.12509524292E+03 0.  0.
          5    1    4    4  502    0 -0.53854163097E+02  0.92873512061E+01  0.11012429445E+03  0.12300958664E+03  0.41800000000E+01 0.  1.
         -5    1    4    4    0  502  0.57767016858E+02  0.48215707621E+02  0.63035628566E+02  0.98248387094E+02  0.41800000000E+01 0.  1.
        -11    1    3    3    0    0 -0.42493681935E+02 -0.28067879351E+02  0.23348184156E+02  0.56023714256E+02  0.00000000000E+00 0.  1.
         11    1    3    3    0    0  0.38580828174E+02 -0.29435179475E+02  0.80539602230E+02  0.94029450816E+02  0.00000000000E+00 0. -1.
</event>
<event>
 8    1  0.9181008E-006  0.1124181E+03  0.7561462E-02  0.1256156E+00
         -1   -1    0    0    0  501 -0.00000000000E+00  0.00000000000E+00  0.17153444532E+03  0.17153444532E+03  0.00000000000E+00 0.  1.
          1   -1    0    0  501    0  0.00000000000E+00 -0.00000000000E+00 -0.17011567293E+03  0.17011567293E+03  0.00000000000E+00 0. -1.
         23    2    1    2    0    0  0.67340228734E+01  0.10455443511E+03  0.56703431376E+02  0.16936878137E+03  0.12038906930E+03 0.  0.
         23    2    1    2    0    0 -0.67340228734E+01 -0.10455443511E+03 -0.55284658986E+02  0.17228133689E+03  0.12508992188E+03 0.  0.
          5    1    4    4  502    0  0.18096812038E+02 -0.80944659622E+01 -0.68759594251E+02  0.71682418951E+02  0.41800000000E+01 0.  1.
         -5    1    4    4    0  502 -0.24830834911E+02 -0.96459969145E+02  0.13474935265E+02  0.10059891794E+03  0.41800000000E+01 0.  1.
        -11    1    3    3    0    0  0.35931974568E+01  0.85197034923E+02 -0.22158835914E+02  0.88104823005E+02  0.00000000000E+00 0. -1.
         11    1    3    3    0    0  0.31408254165E+01  0.19357400184E+02  0.78862267290E+02  0.81263958360E+02  0.00000000000E+00 0.  1.
</event>
<event>
 8    1  0.9181008E-006  0.3570872E+03  0.7561462E-02  0.1059743E+00
          2   -1    0    0  501    0  0.00000000000E+00  0.00000000000E+00  0.10491090201E+04  0.10491090201E+04  0.00000000000E+00 0. -1.
         -2   -1    0    0    0  501 -0.00000000000E+00 -0.00000000000E+00 -0.13391150205E+03  0.13391150205E+03  0.00000000000E+00 0.  1.
         23    2    1    2    0    0  0.31485138826E+03 -0.14569793101E+03  0.30885696778E+03  0.47332879337E+03  0.91039751192E+02 0.  0.
         23    2    1    2    0    0 -0.31485138826E+03  0.14569793101E+03  0.60634055027E+03  0.70969172878E+03  0.12511675831E+03 0.  0.
          5    1    4    4  502    0 -0.18174130707E+02  0.46931098600E+02  0.47618769185E+02  0.69410709703E+02  0.41800000000E+01 0. -1.
         -5    1    4    4    0  502 -0.29667725755E+03  0.98766832409E+02  0.55872178109E+03  0.64028101908E+03  0.41800000000E+01 0. -1.
        -11    1    3    3    0    0  0.17171728792E+03 -0.50243212667E+02  0.10851279440E+03  0.20925160439E+03  0.00000000000E+00 0.  1.
         11    1    3    3    0    0  0.14313410034E+03 -0.95454718343E+02  0.20034417338E+03  0.26407718898E+03  0.00000000000E+00 0. -1.
</event>
<event>
 8    1  0.9181008E-006  0.1215203E+03  0.7561462E-02  0.1240610E+00
         -1   -1    0    0    0  501 -0.00000000000E+00  0.00000000000E+00  0.12668444457E+03  0.12668444457E+03  0.00000000000E+00 0.  1.
          1   -1    0    0  501    0  0.00000000000E+00 -0.00000000000E+00 -0.18546115333E+03  0.18546115333E+03  0.00000000000E+00 0. -1.
         23    2    1    2    0    0  0.42629229807E+01 -0.93427962249E+02  0.25076869553E+02  0.13487336979E+03  0.93888337138E+02 0.  0.
         23    2    1    2    0    0 -0.42629229807E+01  0.93427962249E+02 -0.83853578315E+02  0.17727222811E+03  0.12508822335E+03 0.  0.
          5    1    4    4  502    0  0.49650774563E+02  0.79238249554E+02 -0.26731383940E+02  0.97344434327E+02  0.41800000000E+01 0.  1.
         -5    1    4    4    0  502 -0.53913697544E+02  0.14189712695E+02 -0.57122194376E+02  0.79927793786E+02  0.41800000000E+01 0.  1.
        -11    1    3    3    0    0  0.10242233298E+01 -0.13620559035E+02  0.49499806840E+02  0.51349776427E+02  0.00000000000E+00 0.  1.
         11    1    3    3    0    0  0.32386996509E+01 -0.79807403214E+02 -0.24422937287E+02  0.83523593367E+02  0.00000000000E+00 0. -1.
</event>
<event>
 8    1  0.9181008E-006  0.1447897E+03  0.7561462E-02  0.1207026E+00
          1   -1    0    0  501    0  0.00000000000E+00  0.00000000000E+00  0.21073156378E+04  0.21073156378E+04  0.00000000000E+00 0. -1.
         -1   -1    0    0    0  501 -0.00000000000E+00 -0.00000000000E+00 -0.26733771080E+02  0.26733771080E+02  0.00000000000E+00 0.  1.
         23    2    1    2    0    0  0.79097018048E+02  0.54079370771E+02  0.16307851674E+03  0.21008282267E+03  0.91429060772E+02 0.  0.
         23    2    1    2    0    0 -0.79097018048E+02 -0.54079370771E+02  0.19175033500E+04  0.19239665862E+04  0.12508961205E+03 0.  0.
          5    1    4    4  502    0 -0.10662650268E+03 -0.12976395245E+02  0.12438045771E+04  0.12484409863E+04  0.41800000000E+01 0.  1.
         -5    1    4    4    0  502  0.27529484632E+02 -0.41102975526E+02  0.67369877294E+03  0.67552559995E+03  0.41800000000E+01 0.  1.
        -11    1    3    3    0    0  0.47826086429E+02 -0.20144823638E+02  0.64352985931E+02  0.82670764244E+02  0.00000000000E+00 0. -1.
         11    1    3    3    0    0  0.31270931619E+02  0.74224194409E+02  0.98725530805E+02  0.12741205843E+03  0.00000000000E+00 0.  1.
</event>
<event>
 8    1  0.9181008E-006  0.3724916E+03  0.7561462E-02  0.1053744E+00
          2   -1    0    0  501    0  0.00000000000E+00  0.00000000000E+00  0.51024235324E+03  0.51024235324E+03  0.00000000000E+00 0. -1.
         -2   -1    0    0    0  501 -0.00000000000E+00 -0.00000000000E+00 -0.50014080302E+03  0.50014080302E+03  0.00000000000E+00 0.  1.
         23    2    1    2    0    0  0.11773692507E+03  0.33833619671E+03 -0.33401189589E+03  0.49813234641E+03  0.90766306552E+02 0.  0.
         23    2    1    2    0    0 -0.11773692507E+03 -0.33833619671E+03  0.34411344611E+03  0.51225080985E+03  0.12511379965E+03 0.  0.
          5    1    4    4  502    0 -0.43756828641E+02 -0.28016196650E+03  0.23681077944E+03  0.36946204837E+03  0.41800000000E+01 0. -1.
         -5    1    4    4    0  502 -0.73980096433E+02 -0.58174230208E+02  0.10730266668E+03  0.14278876148E+03  0.41800000000E+01 0. -1.
        -11    1    3    3    0    0  0.62485466583E+02  0.27980837301E+03 -0.23623597173E+03  0.37148969498E+03  0.00000000000E+00 0.  1.
         11    1    3    3    0    0  0.55251458491E+02  0.58527823703E+02 -0.97775924168E+02  0.12664265142E+03  0.00000000000E+00 0. -1.
</event>
<event>
 8    1  0.9181008E-006  0.1167232E+03  0.7561462E-02  0.1248603E+00
          1   -1    0    0  501    0  0.00000000000E+00  0.00000000000E+00  0.19811175683E+03  0.19811175683E+03  0.00000000000E+00 0. -1.
         -1   -1    0    0    0  501 -0.00000000000E+00 -0.00000000000E+00 -0.13489585035E+03  0.13489585035E+03  0.00000000000E+00 0.  1.
         23    2    1    2    0    0  0.14890429094E+02 -0.51250864984E+02 -0.84558959427E+02  0.13217362697E+03  0.86436531675E+02 0.  0.
         23    2    1    2    0    0 -0.14890429094E+02  0.51250864984E+02  0.14777486590E+03  0.20083398020E+03  0.12509396697E+03 0.  0.
          5    1    4    4  502    0 -0.63927779435E+02  0.53322046710E+02  0.11352556479E+03  0.14083865914E+03  0.41800000000E+01 0.  1.
         -5    1    4    4    0  502  0.49037350341E+02 -0.20711817252E+01  0.34249301112E+02  0.59995321058E+02  0.41800000000E+01 0.  1.
        -11    1    3    3    0    0 -0.35769608583E+02 -0.26078656741E+02 -0.45151155858E+02  0.63231227340E+02  0.00000000000E+00 0.  1.
         11    1    3    3    0    0  0.50660037677E+02 -0.25172208243E+02 -0.39407803569E+02  0.68942399634E+02  0.00000000000E+00 0. -1.
</event>
<event>
 7    1  0.9181008E-006  0.1178878E+03  0.7561462E-02  0.1246623E+00
          1   -1    0    0  501    0  0.00000000000E+00  0.00000000000E+00  0.29095486371E+03  0.29095486371E+03  0.00000000000E+00 0. -1.
         -1   -1    0    0    0  501 -0.00000000000E+00 -0.00000000000E+00 -0.59464885660E+02  0.59464885660E+02  0.00000000000E+00 0.  1.
         23    2    1    2    0    0  0.51691113589E+02 -0.36165137600E+02  0.93673516368E+02  0.14463636516E+03  0.90360732941E+02 0.  0.
          5    1    1    2  502    0 -0.87858354654E+02 -0.13572214541E+02  0.98109609553E+02  0.13246230927E+03  0.41800000000E+01 0. -1.
         -5    1    1    2    0  502  0.36167241065E+02  0.49737352140E+02  0.39706852134E+02  0.73321074942E+02  0.41800000000E+01 0.  1.
        -11    1    3    3    0    0  0.43449703623E+02 -0.51711513781E+02  0.22303793141E+02  0.71129576063E+02  0.00000000000E+00 0.  1.
         11    1    3    3    0    0  0.82414099658E+01  0.15546376181E+02  0.71369723227E+02  0.73506789102E+02  0.00000000000E+00 0. -1.
</event>
<event>
 8    1  0.9181008E-006  0.2276881E+03  0.7561462E-02  0.1128278E+00
          1   -1    0    0  501    0  0.00000000000E+00  0.00000000000E+00  0.27218493350E+03  0.27218493350E+03  0.00000000000E+00 0. -1.
         -1   -1    0    0    0  501 -0.00000000000E+00 -0.00000000000E+00 -0.22408233297E+03  0.22408233297E+03  0.00000000000E+00 0.  1.
         23    2    1    2    0    0  0.69880719906E+02  0.18851815182E+03 -0.70223661908E+02  0.23155796789E+03  0.90913812044E+02 0.  0.
         23    2    1    2    0    0 -0.69880719906E+02 -0.18851815182E+03  0.11832626243E+03  0.26470929858E+03  0.12508996680E+03 0.  0.
          5    1    4    4  502    0  0.19412824292E+02  0.75290629304E+01  0.12720322748E+02  0.24755273103E+02  0.41800000000E+01 0. -1.
         -5    1    4    4    0  502 -0.89293544198E+02 -0.19604721475E+03  0.10560593968E+03  0.23995402548E+03  0.41800000000E+01 0. -1.
        -11    1    3    3    0    0 -0.79166302714E+01  0.10205868960E+03 -0.48354473763E+02  0.11321132581E+03  0.00000000000E+00 0.  1.
         11    1    3    3    0    0  0.77797350177E+02  0.86459462217E+02 -0.21869188144E+02  0.11834664208E+03  0.00000000000E+00 0. -1.
</event>
<event>
 8    1  0.9181008E-006  0.1669903E+03  0.7561462E-02  0.1181023E+00
          2   -1    0    0  501    0  0.00000000000E+00  0.00000000000E+00  0.14802836056E+03  0.14802836056E+03  0.00000000000E+00 0. -1.
         -2   -1    0    0    0  501 -0.00000000000E+00 -0.00000000000E+00 -0.19616546383E+03  0.19616546383E+03  0.00000000000E+00 0.  1.
         23    2    1    2    0    0 -0.12291921235E+03  0.45451366407E+02 -0.18382455652E+02  0.16059793994E+03  0.90988044067E+02 0.  0.
         23    2    1    2    0    0  0.12291921235E+03 -0.45451366407E+02 -0.29754647624E+02  0.18359588446E+03  0.12508856966E+03 0.  0.
          5    1    4    4  502    0  0.30084844966E+02  0.38682707921E+02  0.13474599074E+02  0.50994970428E+02  0.41800000000E+01 0.  1.
         -5    1    4    4    0  502  0.92834367385E+02 -0.84134074329E+02 -0.43229246698E+02  0.13260091403E+03  0.41800000000E+01 0.  1.
        -11    1    3    3    0    0  0.14123767765E+00 -0.20039189763E+02 -0.42506440631E+00  0.20044195025E+02  0.00000000000E+00 0. -1.
         11    1    3    3    0    0 -0.12306045003E+03  0.65490556170E+02 -0.17957391245E+02  0.14055374491E+03  0.00000000000E+00 0.  1.
</event>
<event>
 8    1  0.9181008E-006  0.1775378E+03  0.7561462E-02  0.1170207E+00
          2   -1    0    0  501    0  0.00000000000E+00  0.00000000000E+00  0.23854450809E+03  0.23854450809E+03  0.00000000000E+00 0. -1.
         -2   -1    0    0    0  501 -0.00000000000E+00 -0.00000000000E+00 -0.14403294344E+03  0.14403294344E+03  0.00000000000E+00 0.  1.
         23    2    1    2    0    0 -0.20778926532E+02 -0.14876582818E+03  0.45368618094E+02  0.18104236141E+03  0.90304981554E+02 0.  0.
         23    2    1    2    0    0  0.20778926532E+02  0.14876582818E+03  0.49142946562E+02  0.20153509013E+03  0.12505330037E+03 0.  0.
          5    1    4    4  502    0  0.70247706145E+02  0.82117939807E+02  0.70458312585E+01  0.10837533112E+03  0.41800000000E+01 0.  1.
         -5    1    4    4    0  502 -0.49468779614E+02  0.66647888376E+02  0.42097115303E+02  0.93159759007E+02  0.41800000000E+01 0.  1.
        -11    1    3    3    0    0  0.20368661589E+02 -0.88746898768E+02 -0.70985102429E+01  0.91330626098E+02  0.00000000000E+00 0.  1.
         11    1    3    3    0    0 -0.41147588121E+02 -0.60018929415E+02  0.52467128337E+02  0.89711735309E+02  0.00000000000E+00 0. -1.
</event>
<event>
 8    1  0.9181008E-006  0.7932014E+02  0.7561462E-02  0.1330992E+00
         -1   -1    0    0    0  501 -0.00000000000E+00  0.00000000000E+00  0.23485871114E+03  0.23485871114E+03  0.00000000000E+00 0.  1.
          1   -1    0    0  501    0  0.00000000000E+00 -0.00000000000E+00 -0.70463361924E+02  0.70463361924E+02  0.00000000000E+00 0. -1.
         23    2    1    2    0    0 -0.55836615899E+02 -0.28150437465E+02  0.38268694933E+02  0.11699703990E+03  0.91179161700E+02 0.  0.
         23    2    1    2    0    0  0.55836615899E+02  0.28150437465E+02  0.12612665429E+03  0.18832503317E+03  0.12509280712E+03 0.  0.
          5    1    4    4  502    0  0.23619457655E+02 -0.15020720859E+02  0.13105066353E+03  0.13407180780E+03  0.41800000000E+01 0. -1.
         -5    1    4    4    0  502  0.32217158244E+02  0.43171158324E+02 -0.49240092424E+01  0.54253225373E+02  0.41800000000E+01 0. -1.
        -11    1    3    3    0    0 -0.30599896886E+02 -0.38373886870E+02 -0.19751040397E+02  0.52905694209E+02  0.00000000000E+00 0.  1.
         11    1    3    3    0    0 -0.25236719012E+02  0.10223449406E+02  0.58019735331E+02  0.64091345688E+02  0.00000000000E+00 0. -1.
</event>
<event>
 8    1  0.9181008E-006  0.1141638E+03  0.7561462E-02  0.1253048E+00
         -2   -1    0    0    0  501 -0.00000000000E+00  0.00000000000E+00  0.43163982291E+02  0.43163982291E+02  0.00000000000E+00 0.  1.
          2   -1    0    0  501    0  0.00000000000E+00 -0.00000000000E+00 -0.31073504166E+03  0.31073504166E+03  0.00000000000E+00 0. -1.
         23    2    1    2    0    0  0.16254297114E+02 -0.36037787924E+02 -0.87286686399E+02  0.13093583135E+03  0.89231731885E+02 0.  0.
         23    2    1    2    0    0 -0.16254297114E+02  0.36037787924E+02 -0.18028437297E+03  0.22296319260E+03  0.12508879160E+03 0.  0.
          5    1    4    4  502    0  0.48103326577E+02  0.44567157525E+02 -0.99544527236E+02  0.11927592741E+03  0.41800000000E+01 0.  1.
         -5    1    4    4    0  502 -0.64357623691E+02 -0.85293696014E+01 -0.80739845729E+02  0.10368726518E+03  0.41800000000E+01 0.  1.
        -11    1    3    3    0    0  0.43801880376E+02  0.90498110070E+01 -0.38317426727E+02  0.58895916622E+02  0.00000000000E+00 0. -1.
         11    1    3    3    0    0 -0.27547583262E+02 -0.45087598931E+02 -0.48969259672E+02  0.72039914726E+02  0.00000000000E+00 0.  1.
</event>
<event>
 8    1  0.9181008E-006  0.1207462E+03  0.7561462E-02  0.1241871E+00
          2   -1    0    0  501    0  0.00000000000E+00  0.00000000000E+00  0.23005027332E+04  0.23005027332E+04  0.00000000000E+00 0. -1.
         -2   -1    0    0    0  501 -0.00000000000E+00 -0.00000000000E+00 -0.92823717377E+01  0.92823717377E+01  0.00000000000E+00 0.  1.
         23    2    1    2    0    0  0.49835874491E+02 -0.37034063451E+02  0.45342218395E+03  0.46668859474E+03  0.91386165894E+02 0.  0.
         23    2    1    2    0    0 -0.49835874491E+02  0.37034063451E+02  0.18377981776E+04  0.18430965102E+04  0.12508984135E+03 0.  0.
          5    1    4    4  502    0 -0.43840346806E+02 -0.36506204983E+02  0.50058321346E+03  0.50384095209E+03  0.41800000000E+01 0. -1.
         -5    1    4    4    0  502 -0.59955276853E+01  0.73540268434E+02  0.13372149641E+04  0.13392555581E+04  0.41800000000E+01 0. -1.
        -11    1    3    3    0    0  0.74614996980E+02 -0.12757809794E+02  0.31983217905E+03  0.32866819475E+03  0.00000000000E+00 0. -1.
         11    1    3    3    0    0 -0.24779122488E+02 -0.24276253657E+02  0.13359000490E+03  0.13802039999E+03  0.00000000000E+00 0.  1.
</event>
<event>
 8    1  0.9181008E-006  0.8337993E+02  0.7561462E-02  0.1319724E+00
         -1   -1    0    0    0  501 -0.00000000000E+00  0.00000000000E+00  0.76118070776E+02  0.76118070776E+02  0.00000000000E+00 0.  1.
          1   -1    0    0  501    0  0.00000000000E+00 -0.00000000000E+00 -0.21718638039E+03  0.21718638039E+03  0.00000000000E+00 0. -1.
         23    2    1    2    0    0  0.18184118678E+01 -0.55952269286E+02 -0.16935986437E+02  0.10839862146E+03  0.91265932521E+02 0.  0.
         23    2    1    2    0    0 -0.18184118678E+01  0.55952269286E+02 -0.12413232318E+03  0.18490582970E+03  0.12508944456E+03 0.  0.
          5    1    4    4  502    0 -0.15497260256E+02  0.20961714237E+02  0.21749327200E+02  0.34206200795E+02  0.41800000000E+01 0. -1.
         -5    1    4    4    0  502  0.13678848388E+02  0.34990555049E+02 -0.14588165038E+03  0.15069962891E+03  0.41800000000E+01 0. -1.
        -11    1    3    3    0    0 -0.19928578551E+02 -0.72526395900E+02  0.18277327613E+01  0.75236739379E+02  0.00000000000E+00 0.  1.
         11    1    3    3    0    0  0.21746990419E+02  0.16574126614E+02 -0.18763719198E+02  0.33161882086E+02  0.00000000000E+00 0. -1.
</event>
<event>
 8    1  0.9181008E-006  0.1192101E+03  0.7561462E-02  0.1244406E+00
         -1   -1    0    0    0  501 -0.00000000000E+00  0.00000000000E+00  0.82496806256E+01  0.82496806256E+01  0.00000000000E+00 0.  1.
          1   -1    0    0  501    0  0.00000000000E+00 -0.00000000000E+00 -0.25371225072E+04  0.25371225072E+04  0.00000000000E+00 0. -1.
         23    2    1    2    0    0  0.52592162971E+02 -0.15223311383E+02 -0.46767592896E+03  0.47965737124E+03  0.91393295393E+02 0.  0.
         23    2    1    2    0    0 -0.52592162971E+02  0.15223311383E+02 -0.20611968976E+04  0.20657148166E+04  0.12508943961E+03 0.  0.
          5    1    4    4  502    0  0.18786645975E+02 -0.41145837898E+02 -0.65449197781E+03  0.65606641391E+03  0.41800000000E+01 0. -1.
         -5    1    4    4    0  502 -0.71378808946E+02  0.56369149281E+02 -0.14067049198E+04  0.14096484027E+04  0.41800000000E+01 0. -1.
        -11    1    3    3    0    0  0.70966305138E+02  0.90091545508E+01 -0.38446255816E+03  0.39106117163E+03  0.00000000000E+00 0. -1.
         11    1    3    3    0    0 -0.18374142167E+02 -0.24232465933E+02 -0.83213370800E+02  0.88596199610E+02  0.00000000000E+00 0.  1.
</event>
<event>
 8    1  0.9181008E-006  0.8980734E+02  0.7561462E-02  0.1303319E+00
         -1   -1    0    0    0  501 -0.00000000000E+00  0.00000000000E+00  0.18756684877E+03  0.18756684877E+03  0.00000000000E+00 0.  1.
          1   -1    0    0  501    0  0.00000000000E+00 -0.00000000000E+00 -0.17893928732E+03  0.17893928732E+03  0.00000000000E+00 0. -1.
         23    2    1    2    0    0 -0.46171998725E+02 -0.34545859729E+02  0.14271550811E+03  0.17951965140E+03  0.92381378483E+02 0.  0.
         23    2    1    2    0    0  0.46171998725E+02  0.34545859729E+02 -0.13408794666E+03  0.18698648469E+03  0.11687214436E+03 0.  0.
          5    1    4    4  502    0  0.58059352876E+02  0.23359667262E+02 -0.15075741067E+03  0.16328451176E+03  0.41800000000E+01 0. -1.
         -5    1    4    4    0  502 -0.11887354152E+02  0.11186192467E+02  0.16669464003E+02  0.23701972931E+02  0.41800000000E+01 0.  1.
        -11    1    3    3    0    0 -0.81577828611E+01  0.26722382722E+02  0.12359844676E+02  0.30551610759E+02  0.00000000000E+00 0. -1.
         11    1    3    3    0    0 -0.38014215864E+02 -0.61268242452E+02  0.13035566344E+03  0.14896804064E+03  0.00000000000E+00 0.  1.
</event>
<event>
 8    1  0.9181008E-006  0.1172877E+03  0.7561462E-02  0.1247640E+00
         -1   -1    0    0    0  501 -0.00000000000E+00  0.00000000000E+00  0.33256816206E+02  0.33256816206E+02  0.00000000000E+00 0.  1.
          1   -1    0    0  501    0  0.00000000000E+00 -0.00000000000E+00 -0.53733180363E+03  0.53733180363E+03  0.00000000000E+00 0. -1.
         23    2    1    2    0    0  0.69915032607E+02  0.29298354660E+02 -0.24438572524E+03  0.27253918503E+03  0.93844122370E+02 0.  0.
         23    2    1    2    0    0 -0.69915032607E+02 -0.29298354660E+02 -0.25968926219E+03  0.29804943481E+03  0.12509375415E+03 0.  0.
          5    1    4    4  502    0  0.19758883710E+02 -0.12547621371E+02 -0.10924010535E+01  0.23801723207E+02  0.41800000000E+01 0.  1.
         -5    1    4    4    0  502 -0.89673916317E+02 -0.16750733289E+02 -0.25859686113E+03  0.27424771161E+03  0.41800000000E+01 0.  1.
        -11    1    3    3    0    0  0.93171040111E+01  0.53441514786E+02 -0.12993898624E+03  0.14080818185E+03  0.00000000000E+00 0. -1.
         11    1    3    3    0    0  0.60597928596E+02 -0.24143160126E+02 -0.11444673899E+03  0.13173100317E+03  0.00000000000E+00 0.  1.
</event>
<event>
 8    1  0.9181008E-006  0.7730896E+02  0.7561462E-02  0.1336866E+00
          3   -1    0    0  501    0  0.00000000000E+00  0.00000000000E+00  0.25898277186E+03  0.25898277186E+03  0.00000000000E+00 0. -1.
         -3   -1    0    0    0  501 -0.00000000000E+00 -0.00000000000E+00 -0.68825977446E+02  0.68825977446E+02  0.00000000000E+00 0.  1.
         23    2    1    2    0    0 -0.24011302696E+02  0.73143737906E+02  0.71702572102E+02  0.13911031179E+03  0.91015773066E+02 0.  0.
         23    2    1    2    0    0  0.24011302696E+02 -0.73143737906E+02  0.11845422231E+03  0.18869843752E+03  0.12509655665E+03 0.  0.
          5    1    4    4  502    0  0.11483807541E+02 -0.37865734954E+02  0.13983429135E+03  0.14538498257E+03  0.41800000000E+01 0.  1.
         -5    1    4    4    0  502  0.12527495155E+02 -0.35278002953E+02 -0.21380069043E+02  0.43313454947E+02  0.41800000000E+01 0.  1.
        -11    1    3    3    0    0 -0.19272254296E+02  0.51120149782E+02  0.93160874646E+02  0.10799832436E+03  0.00000000000E+00 0. -1.
         11    1    3    3    0    0 -0.47390484006E+01  0.22023588124E+02 -0.21458302544E+02  0.31111987427E+02  0.00000000000E+00 0.  1.
</event>
<event>
 8    1  0.9181008E-006  0.1616879E+03  0.7561462E-02  0.1186804E+00
         -1   -1    0    0    0  501 -0.00000000000E+00  0.00000000000E+00  0.60323160298E+02  0.60323160298E+02  0.00000000000E+00 0. -1.
          1   -1    0    0  501    0  0.00000000000E+00 -0.00000000000E+00 -0.58047926047E+03  0.58047926047E+03  0.00000000000E+00 0.  1.
         23    2    1    2    0    0 -0.13118461940E+03 -0.38160514004E+02 -0.12872291082E+03  0.20774390723E+03  0.89007381843E+02 0.  0.
         23    2    1    2    0    0  0.13118461940E+03  0.38160514004E+02 -0.39143318935E+03  0.43305851355E+03  0.12511636675E+03 0.  0.
          5    1    4    4  502    0  0.12088549143E+03  0.77873373358E+02 -0.29656552055E+03  0.32961514634E+03  0.41800000000E+01 0. -1.
         -5    1    4    4    0  502  0.10299127974E+02 -0.39712859354E+02 -0.94867668799E+02  0.10344336720E+03  0.41800000000E+01 0. -1.
        -11    1    3    3    0    0 -0.10582214876E+03 -0.39317559280E+02 -0.47202207701E+02  0.12236112964E+03  0.00000000000E+00 0. -1.
         11    1    3    3    0    0 -0.25362470647E+02  0.11570452762E+01 -0.81520703121E+02  0.85382777587E+02  0.00000000000E+00 0.  1.
</event>
<event>
 8    1  0.9181008E-006  0.2197671E+03  0.7561462E-02  0.1134057E+00
         -1   -1    0    0    0  501 -0.00000000000E+00  0.00000000000E+00  0.29770846624E+03  0.29770846624E+03  0.00000000000E+00 0.  1.
          1   -1    0    0  501    0  0.00000000000E+00 -0.00000000000E+00 -0.25291854052E+03  0.25291854052E+03  0.00000000000E+00 0. -1.
         23    2    1    2    0    0 -0.47356025997E+01  0.19189245338E+03  0.18434083146E+03  0.28235958944E+03  0.94341168133E+02 0.  0.
         23    2    1    2    0    0  0.47356025997E+01 -0.19189245338E+03 -0.13955090575E+03  0.26826741732E+03  0.12509121594E+03 0.  0.
          5    1    4    4  502    0 -0.37354368238E+02 -0.70476714883E+01 -0.13427688801E+02  0.40531391863E+02  0.41800000000E+01 0.  1.
         -5    1    4    4    0  502  0.42089970838E+02 -0.18484478189E+03 -0.12612321695E+03  0.22773602546E+03  0.41800000000E+01 0.  1.
        -11    1    3    3    0    0  0.21542647319E+02  0.39537815307E+01  0.33129848020E+02  0.39715297704E+02  0.00000000000E+00 0.  1.
         11    1    3    3    0    0 -0.26278249918E+02  0.18793867185E+03  0.15121098344E+03  0.24264429173E+03  0.00000000000E+00 0. -1.
</event>
<event>
 8    1  0.9181008E-006  0.5273010E+02  0.7561462E-02  0.1431149E+00
          2   -1    0    0  501    0  0.00000000000E+00  0.00000000000E+00  0.49187851541E+03  0.49187851541E+03  0.00000000000E+00 0. -1.
         -2   -1    0    0    0  501 -0.00000000000E+00 -0.00000000000E+00 -0.25907059944E+02  0.25907059944E+02  0.00000000000E+00 0.  1.
         23    2    1    2    0    0 -0.11184607891E+02 -0.85158378644E+01  0.18629508820E+03  0.21109337739E+03  0.98269726476E+02 0.  0.
         23    2    1    2    0    0  0.11184607891E+02  0.85158378644E+01  0.27967636727E+03  0.30669219797E+03  0.12507445358E+03 0.  0.
          5    1    4    4  502    0  0.29320279106E+02  0.71601484224E+01  0.44022706584E+01  0.30786342414E+02  0.41800000000E+01 0. -1.
         -5    1    4    4    0  502 -0.18135671215E+02  0.13556894420E+01  0.27527409661E+03  0.27590585555E+03  0.41800000000E+01 0. -1.
        -11    1    3    3    0    0  0.22090663863E+02 -0.63447056281E+01  0.11962737812E+01  0.23014860208E+02  0.00000000000E+00 0.  1.
         11    1    3    3    0    0 -0.33275271754E+02 -0.21711322363E+01  0.18509881442E+03  0.18807851718E+03  0.00000000000E+00 0. -1.
</event>
<event>
 8    1  0.9181008E-006  0.1551170E+03  0.7561462E-02  0.1194323E+00
          2   -1    0    0  501    0  0.00000000000E+00  0.00000000000E+00  0.11515545208E+04  0.11515545208E+04  0.00000000000E+00 0. -1.
         -2   -1    0    0    0  501 -0.00000000000E+00 -0.00000000000E+00 -0.27157409544E+02  0.27157409544E+02  0.00000000000E+00 0.  1.
         23    2    1    2    0    0  0.13074126917E+03  0.47473065172E+02  0.56976858110E+03  0.59338617753E+03  0.90132947833E+02 0.  0.
         23    2    1    2    0    0 -0.13074126917E+03 -0.47473065172E+02  0.55462853019E+03  0.58532575286E+03  0.12508580685E+03 0.  0.
          5    1    4    4  502    0 -0.59412697120E+02 -0.42843235897E+02  0.46430084148E+03  0.47006186321E+03  0.41800000000E+01 0.  1.
         -5    1    4    4    0  502 -0.71328572048E+02 -0.46298292744E+01  0.90327688711E+02  0.11526388965E+03  0.41800000000E+01 0.  1.
        -11    1    3    3    0    0 -0.12983188396E+02  0.10920469278E+02  0.46051775191E+02  0.49077345368E+02  0.00000000000E+00 0.  1.
         11    1    3    3    0    0  0.14372445756E+03  0.36552595894E+02  0.52371680591E+03  0.54430883216E+03  0.00000000000E+00 0. -1.
</event>
<event>
 8    1  0.9181008E-006  0.8546409E+02  0.7561462E-02  0.1314223E+00
          1   -1    0    0  501    0  0.00000000000E+00  0.00000000000E+00  0.23892476227E+03  0.23892476227E+03  0.00000000000E+00 0. -1.
         -1   -1    0    0    0  501 -0.00000000000E+00 -0.00000000000E+00 -0.78394434571E+02  0.78394434571E+02  0.00000000000E+00 0.  1.
         23    2    1    2    0    0 -0.18621429006E+02 -0.44110961015E+02 -0.75787526267E+01  0.10238078962E+03  0.90176793538E+02 0.  0.
         23    2    1    2    0    0  0.18621429006E+02  0.44110961015E+02  0.16810908033E+03  0.21493840722E+03  0.12508125962E+03 0.  0.
          5    1    4    4  502    0 -0.10830147771E+02  0.48713496824E+02  0.17668114252E+03  0.18364094150E+03  0.41800000000E+01 0.  1.
         -5    1    4    4    0  502  0.29451576776E+02 -0.46025358084E+01 -0.85720621864E+01  0.31297465722E+02  0.41800000000E+01 0.  1.
        -11    1    3    3    0    0 -0.43686523601E+02 -0.48531516518E+02 -0.26700704842E+02  0.70546070613E+02  0.00000000000E+00 0.  1.
         11    1    3    3    0    0  0.25065094595E+02  0.44205555028E+01  0.19121952215E+02  0.31834719012E+02  0.00000000000E+00 0. -1.
</event>
<event>
 8    1  0.9181008E-006  0.2240249E+03  0.7561462E-02  0.1130917E+00
         -3   -1    0    0    0  501 -0.00000000000E+00  0.00000000000E+00  0.94376137725E+03  0.94376137725E+03  0.00000000000E+00 0.  1.
          3   -1    0    0  501    0  0.00000000000E+00 -0.00000000000E+00 -0.53452765182E+02  0.53452765182E+02  0.00000000000E+00 0. -1.
         23    2    1    2    0    0 -0.41067933338E+01  0.19581501780E+03  0.40193108601E+03  0.45636289554E+03  0.91422686309E+02 0.  0.
         23    2    1    2    0    0  0.41067933338E+01 -0.19581501780E+03  0.48837752605E+03  0.54085124689E+03  0.12508827428E+03 0.  0.
          5    1    4    4  502    0  0.20132955546E+02  0.11804573537E+02  0.40881796363E+02  0.47259681857E+02  0.41800000000E+01 0.  1.
         -5    1    4    4    0  502 -0.16026162212E+02 -0.20761959134E+03  0.44749572969E+03  0.49359156504E+03  0.41800000000E+01 0.  1.
        -11    1    3    3    0    0  0.38342649086E+02  0.14431091363E+03  0.27183880648E+03  0.31014856962E+03  0.00000000000E+00 0. -1.
         11    1    3    3    0    0 -0.42449442420E+02  0.51504104175E+02  0.13009227954E+03  0.14621432592E+03  0.00000000000E+00 0.  1.
</event>
<event>
 8    1  0.9181008E-006  0.1115198E+03  0.7561462E-02  0.1257781E+00
         -2   -1    0    0    0  501 -0.00000000000E+00  0.00000000000E+00  0.19716744265E+02  0.19716744265E+02  0.00000000000E+00 0.  1.
          2   -1    0    0  501    0  0.00000000000E+00 -0.00000000000E+00 -0.67485390117E+03  0.67485390117E+03  0.00000000000E+00 0. -1.
         23    2    1    2    0    0 -0.33854155162E+02 -0.12336186324E+01 -0.21858879161E+03  0.23919252348E+03  0.91018557622E+02 0.  0.
         23    2    1    2    0    0  0.33854155162E+02  0.12336186324E+01 -0.43654836529E+03  0.45537812196E+03  0.12508850100E+03 0.  0.
          5    1    4    4  502    0 -0.14449315066E+02 -0.53759807059E+02 -0.20782723125E+03  0.21519416816E+03  0.41800000000E+01 0. -1.
         -5    1    4    4    0  502  0.48303470228E+02  0.54993425691E+02 -0.22872113404E+03  0.24018395380E+03  0.41800000000E+01 0. -1.
        -11    1    3    3    0    0  0.29000991148E+02 -0.94710213425E+01 -0.44787386913E+02  0.54191030248E+02  0.00000000000E+00 0.  1.
         11    1    3    3    0    0 -0.62855146310E+02  0.82374027101E+01 -0.17380140470E+03  0.18500149323E+03  0.00000000000E+00 0. -1.
</event>
<event>
 8    1  0.9181008E-006  0.1343885E+03  0.7561462E-02  0.1221085E+00
          1   -1    0    0  501    0  0.00000000000E+00  0.00000000000E+00  0.11936193380E+04  0.11936193380E+04  0.00000000000E+00 0. -1.
         -1   -1    0    0    0  501 -0.00000000000E+00 -0.00000000000E+00 -0.23829730850E+02  0.23829730850E+02  0.00000000000E+00 0.  1.
         23    2    1    2    0    0 -0.95036069825E+02 -0.75365934992E+02  0.45950315157E+03  0.48610476563E+03  0.10219010785E+03 0.  0.
         23    2    1    2    0    0  0.95036069825E+02  0.75365934992E+02  0.71028645562E+03  0.73134430325E+03  0.12508302101E+03 0.  0.
          5    1    4    4  502    0  0.39402074492E+02  0.30637162183E+02  0.64756825892E+02  0.81866220632E+02  0.41800000000E+01 0.  1.
         -5    1    4    4    0  502  0.55633995333E+02  0.44728772809E+02  0.64552962973E+03  0.64947808262E+03  0.41800000000E+01 0.  1.
        -11    1    3    3    0    0  0.14790522143E+02 -0.17936244919E+02  0.24430654440E+02  0.33724253934E+02  0.00000000000E+00 0.  1.
         11    1    3    3    0    0 -0.10982659197E+03 -0.57429690073E+02  0.43507249713E+03  0.45238051170E+03  0.00000000000E+00 0. -1.
</event>
<event>
 8    1  0.9181008E-006  0.1526120E+03  0.7561462E-02  0.1197300E+00
         -2   -1    0    0    0  501 -0.00000000000E+00  0.00000000000E+00  0.35126130955E+02  0.35126130955E+02  0.00000000000E+00 0.  1.
          2   -1    0    0  501    0  0.00000000000E+00 -0.00000000000E+00 -0.13890015299E+04  0.13890015299E+04  0.00000000000E+00 0. -1.
         23    2    1    2    0    0 -0.59534679966E+02 -0.10387712513E+03 -0.16567810785E+03  0.22337943210E+03  0.90079409529E+02 0.  0.
         23    2    1    2    0    0  0.59534679966E+02  0.10387712513E+03 -0.11881972911E+04  0.12007482288E+04  0.12509464837E+03 0.  0.
          5    1    4    4  502    0  0.88906420271E+02  0.92689790445E+02 -0.71250521434E+03  0.72400062270E+03  0.41800000000E+01 0.  1.
         -5    1    4    4    0  502 -0.29371740305E+02  0.11187334685E+02 -0.47569207678E+03  0.47674760607E+03  0.41800000000E+01 0.  1.
        -11    1    3    3    0    0 -0.41675167049E+02 -0.21503191026E+01 -0.24288733643E+02  0.48284428160E+02  0.00000000000E+00 0. -1.
         11    1    3    3    0    0 -0.17859512917E+02 -0.10172680603E+03 -0.14138937421E+03  0.17509500394E+03  0.00000000000E+00 0.  1.
</event>
<event>
 8    1  0.9181008E-006  0.1111391E+03  0.7561462E-02  0.1258475E+00
          2   -1    0    0  501    0  0.00000000000E+00  0.00000000000E+00  0.87977620620E+03  0.87977620620E+03  0.00000000000E+00 0. -1.
         -2   -1    0    0    0  501 -0.00000000000E+00 -0.00000000000E+00 -0.15170687410E+02  0.15170687410E+02  0.00000000000E+00 0.  1.
         23    2    1    2    0    0 -0.31854226803E+02 -0.30041070719E+02  0.36622162868E+03  0.37924278589E+03  0.88259003186E+02 0.  0.
         23    2    1    2    0    0  0.31854226803E+02  0.30041070719E+02  0.49838389011E+03  0.51570410772E+03  0.12508823725E+03 0.  0.
          5    1    4    4  502    0 -0.28073679604E+02 -0.28776446465E+02  0.25558540428E+03  0.25876164059E+03  0.41800000000E+01 0.  1.
         -5    1    4    4    0  502  0.59927906407E+02  0.58817517184E+02  0.24279848583E+03  0.25694246713E+03  0.41800000000E+01 0.  1.
        -11    1    3    3    0    0  0.12276171283E+02 -0.48441761086E+02  0.16394907774E+03  0.17139605798E+03  0.00000000000E+00 0.  1.
         11    1    3    3    0    0 -0.44130398085E+02  0.18400690367E+02  0.20227255094E+03  0.20784672791E+03  0.00000000000E+00 0. -1.
</event>
<event>
 8    1  0.9181008E-006  0.1253227E+03  0.7561462E-02  0.1234566E+00
         -1   -1    0    0    0  501 -0.00000000000E+00  0.00000000000E+00  0.24835543915E+03  0.24835543915E+03  0.00000000000E+00 0.  1.
          1   -1    0    0  501    0  0.00000000000E+00 -0.00000000000E+00 -0.73416953569E+02  0.73416953569E+02  0.00000000000E+00 0. -1.
         23    2    1    2    0    0  0.58055327144E+02  0.60734493093E+02  0.11067422022E+03  0.15795582634E+03  0.75114315501E+02 0.  0.
         23    2    1    2    0    0 -0.58055327144E+02 -0.60734493093E+02  0.64264265361E+02  0.16381656638E+03  0.12508745723E+03 0.  0.
          5    1    4    4  502    0 -0.97078329849E+02 -0.33289741898E+02  0.41298133399E+02  0.11070418811E+03  0.41800000000E+01 0. -1.
         -5    1    4    4    0  502  0.39023002704E+02 -0.27444751195E+02  0.22966131963E+02  0.53112378270E+02  0.41800000000E+01 0. -1.
        -11    1    3    3    0    0  0.25916653913E+02 -0.54355736446E+01  0.17763990366E+01  0.26540045298E+02  0.00000000000E+00 0.  1.
         11    1    3    3    0    0  0.32138673231E+02  0.66170066737E+02  0.10889782118E+03  0.13141578104E+03  0.00000000000E+00 0. -1.
</event>
<event>
 8    1  0.9181008E-006  0.1259297E+03  0.7561462E-02  0.1233623E+00
          2   -1    0    0  501    0  0.00000000000E+00  0.00000000000E+00  0.82510549572E+03  0.82510549572E+03  0.00000000000E+00 0. -1.
         -2   -1    0    0    0  501 -0.00000000000E+00 -0.00000000000E+00 -0.28867620879E+02  0.28867620879E+02  0.00000000000E+00 0.  1.
         23    2    1    2    0    0  0.76788519205E+02 -0.30134433672E+02  0.16186802212E+03  0.20214703329E+03  0.88643136826E+02 0.  0.
         23    2    1    2    0    0 -0.76788519205E+02  0.30134433672E+02  0.63436985271E+03  0.65182608331E+03  0.12509025572E+03 0.  0.
          5    1    4    4  502    0 -0.96109899617E+02 -0.93792022823E+01  0.31738122699E+03  0.33177311206E+03  0.41800000000E+01 0. -1.
         -5    1    4    4    0  502  0.19321380412E+02  0.39513635954E+02  0.31698862573E+03  0.32005297125E+03  0.41800000000E+01 0. -1.
        -11    1    3    3    0    0 -0.15031303300E+02 -0.43722723638E+01  0.17112205021E+01  0.15747543305E+02  0.00000000000E+00 0.  1.
         11    1    3    3    0    0  0.91819822505E+02 -0.25762161308E+02  0.16015680162E+03  0.18639948998E+03  0.00000000000E+00 0. -1.
</event>
<event>
 8    1  0.9181008E-006  0.2692379E+03  0.7561462E-02  0.1101717E+00
         -2   -1    0    0    0  501 -0.00000000000E+00  0.00000000000E+00  0.10775511487E+03  0.10775511487E+03  0.00000000000E+00 0.  1.
          2   -1    0    0  501    0  0.00000000000E+00 -0.00000000000E+00 -0.81848550018E+03  0.81848550018E+03  0.00000000000E+00 0. -1.
         23    2    1    2    0    0 -0.24359354031E+03 -0.68509252413E+02 -0.17774318743E+03  0.32311984695E+03  0.93714802830E+02 0.  0.
         23    2    1    2    0    0  0.24359354031E+03  0.68509252413E+02 -0.53298719788E+03  0.60312076810E+03  0.12509187530E+03 0.  0.
          5    1    4    4  502    0  0.23131375790E+03  0.93532332185E+02 -0.50555928978E+03  0.56379253244E+03  0.41800000000E+01 0. -1.
         -5    1    4    4    0  502  0.12279782407E+02 -0.25023079772E+02 -0.27427908105E+02  0.39328235661E+02  0.41800000000E+01 0. -1.
        -11    1    3    3    0    0 -0.36253797036E+02 -0.35602937094E+02 -0.71818044753E+02  0.87975783494E+02  0.00000000000E+00 0.  1.
         11    1    3    3    0    0 -0.20733974327E+03 -0.32906315320E+02 -0.10592514268E+03  0.23514406346E+03  0.00000000000E+00 0. -1.
</event>
<event>
 8    1  0.9181008E-006  0.2164425E+03  0.7561462E-02  0.1136563E+00
         -1   -1    0    0    0  501 -0.00000000000E+00  0.00000000000E+00  0.38216434082E+03  0.38216434082E+03  0.00000000000E+00 0.  1.
          1   -1    0    0  501    0  0.00000000000E+00 -0.00000000000E+00 -0.13459622182E+03  0.13459622182E+03  0.00000000000E+00 0. -1.
         23    2    1    2    0    0  0.19799964480E+03  0.13631831015E+02  0.13226211697E+03  0.25535345364E+03  0.91227367294E+02 0.  0.
         23    2    1    2    0    0 -0.19799964480E+03 -0.13631831015E+02  0.11530600203E+03  0.26140710899E+03  0.12509403010E+03 0.  0.
          5    1    4    4  502    0 -0.50881339327E+01  0.31056564133E+02 -0.91913297072E+00  0.31760297355E+02  0.41800000000E+01 0. -1.
         -5    1    4    4    0  502 -0.19291151087E+03 -0.44688395147E+02  0.11622513500E+03  0.22964681163E+03  0.41800000000E+01 0. -1.
        -11    1    3    3    0    0  0.15710574648E+03 -0.70175082539E+01  0.57055669908E+02  0.16729258940E+03  0.00000000000E+00 0.  1.
         11    1    3    3    0    0  0.40893898327E+02  0.20649339268E+02  0.75206447060E+02  0.88060864248E+02  0.00000000000E+00 0. -1.
</event>
