<event>
 8    1  0.6832629E-009  0.1955849E+03  0.7561462E-02  0.1153518E+00
         -1   -1    0    0    0  501 -0.00000000000E+00  0.00000000000E+00  0.42492778150E+02  0.42492778150E+02  0.00000000000E+00 0.  1.
          1   -1    0    0  501    0  0.00000000000E+00 -0.00000000000E+00 -0.10970957186E+04  0.10970957186E+04  0.00000000000E+00 0. -1.
         25    2    1    2    0    0 -0.11415668352E+03 -0.13084659559E+03 -0.37148261894E+03  0.42872308265E+03  0.12510621670E+03 0.  0.
         23    2    1    2    0    0  0.11415668352E+03  0.13084659559E+03 -0.68312032150E+03  0.71086541408E+03  0.92323796100E+02 0.  0.
          5    1    3    3  502    0 -0.13910275407E+03 -0.92939716937E+02 -0.30874563724E+03  0.35118187323E+03  0.41800000000E+01 0. -1.
         -5    1    3    3    0  502  0.24946070555E+02 -0.37906878650E+02 -0.62736981701E+02  0.77541209419E+02  0.41800000000E+01 0. -1.
        -11    1    4    4    0    0  0.80582977481E+02  0.62063606864E+02 -0.23227012441E+03  0.25356442623E+03  0.00000000000E+00 0.  1.
         11    1    4    4    0    0  0.33573706039E+02  0.68782988722E+02 -0.45085019709E+03  0.45730098786E+03  0.00000000000E+00 0. -1.
</event>
<event>
 8    1  0.6832629E-009  0.1118046E+03  0.7561462E-02  0.1257264E+00
         -1   -1    0    0    0  501 -0.00000000000E+00  0.00000000000E+00  0.52252408866E+02  0.52252408866E+02  0.00000000000E+00 0.  1.
          1   -1    0    0  501    0  0.00000000000E+00 -0.00000000000E+00 -0.26398641426E+03  0.26398641426E+03  0.00000000000E+00 0. -1.
         25    2    1    2    0    0  0.19952139682E+01  0.47232175828E+02 -0.14170468188E+03  0.19484417742E+03  0.12509667180E+03 0.  0.
         23    2    1    2    0    0 -0.19952139682E+01 -0.47232175828E+02 -0.70029323509E+02  0.12139464571E+03  0.87164755163E+02 0.  0.
          5    1    3    3  502    0  0.27117910236E+02  0.80042299883E+02 -0.12299601481E+03  0.14929046482E+03  0.41800000000E+01 0.  1.
         -5    1    3    3    0  502 -0.25122696267E+02 -0.32810124055E+02 -0.18708667073E+02  0.45553712603E+02  0.41800000000E+01 0.  1.
        -11    1    4    4    0    0  0.46847369246E+01  0.24739402079E+02 -0.88214449693E+01  0.26679630182E+02  0.00000000000E+00 0.  1.
         11    1    4    4    0    0 -0.66799508928E+01 -0.71971577907E+02 -0.61207878540E+02  0.94715015524E+02  0.00000000000E+00 0. -1.
</event>
<event>
 8    1  0.6832629E-009  0.3282347E+03  0.7561462E-02  0.1071921E+00
          2   -1    0    0  501    0  0.00000000000E+00  0.00000000000E+00  0.13135168295E+04  0.13135168295E+04  0.00000000000E+00 0. -1.
         -2   -1    0    0    0  501 -0.00000000000E+00 -0.00000000000E+00 -0.10664406090E+03  0.10664406090E+03  0.00000000000E+00 0.  1.
         25    2    1    2    0    0  0.29572341498E+03 -0.12747553995E+03  0.31489494853E+03  0.46744947416E+03  0.12509129000E+03 0.  0.
         23    2    1    2    0    0 -0.29572341498E+03  0.12747553995E+03  0.89197782004E+03  0.95271141620E+03  0.91281211990E+02 0.  0.
          5    1    3    3  502    0  0.18506482123E+03 -0.10076472666E+03  0.27559470023E+03  0.34694730059E+03  0.41800000000E+01 0. -1.
         -5    1    3    3    0  502  0.11065859376E+03 -0.26710813290E+02  0.39300248298E+02  0.12050217357E+03  0.41800000000E+01 0. -1.
        -11    1    4    4    0    0 -0.15168090641E+03  0.22007887244E+02  0.47523553217E+03  0.49933981967E+03  0.00000000000E+00 0.  1.
         11    1    4    4    0    0 -0.14404250857E+03  0.10546765270E+03  0.41674228787E+03  0.45337159653E+03  0.00000000000E+00 0. -1.
</event>
<event>
 8    1  0.6832629E-009  0.1491592E+03  0.7561462E-02  0.1201510E+00
         -1   -1    0    0    0  501 -0.00000000000E+00  0.00000000000E+00  0.20486009989E+03  0.20486009989E+03  0.00000000000E+00 0.  1.
          1   -1    0    0  501    0  0.00000000000E+00 -0.00000000000E+00 -0.13034955706E+03  0.13034955706E+03  0.00000000000E+00 0. -1.
         25    2    1    2    0    0  0.95121674135E+02 -0.64506935350E+02  0.79048465460E+01  0.17004820614E+03  0.12507848822E+03 0.  0.
         23    2    1    2    0    0 -0.95121674135E+02  0.64506935350E+02  0.66605696284E+02  0.16516145080E+03  0.98146362411E+02 0.  0.
          5    1    3    3  502    0  0.63301283675E+02 -0.87927627276E+02  0.43384113509E+02  0.11678173598E+03  0.41800000000E+01 0. -1.
         -5    1    3    3    0  502  0.31820390460E+02  0.23420691926E+02 -0.35479266963E+02  0.53266470163E+02  0.41800000000E+01 0. -1.
        -11    1    4    4    0    0  0.20105843168E+02  0.63066588171E+01  0.31128947693E+01  0.21300445742E+02  0.00000000000E+00 0.  1.
         11    1    4    4    0    0 -0.11522751730E+03  0.58200276533E+02  0.63492801515E+02  0.14386100506E+03  0.00000000000E+00 0. -1.
</event>
<event>
 8    1  0.6832629E-009  0.1210435E+03  0.7561462E-02  0.1241385E+00
         -1   -1    0    0    0  501 -0.00000000000E+00  0.00000000000E+00  0.60380535955E+02  0.60380535955E+02  0.00000000000E+00 0.  1.
          1   -1    0    0  501    0  0.00000000000E+00 -0.00000000000E+00 -0.24284457278E+03  0.24284457278E+03  0.00000000000E+00 0. -1.
         25    2    1    2    0    0  0.37366003218E+02  0.35361278287E+02 -0.97883951499E+02  0.16695911371E+03  0.12508972576E+03 0.  0.
         23    2    1    2    0    0 -0.37366003218E+02 -0.35361278287E+02 -0.84580085329E+02  0.13626599503E+03  0.93637558541E+02 0.  0.
          5    1    3    3  502    0  0.62247942120E+02  0.69114863094E+02 -0.68116926839E+02  0.11536489380E+03  0.41800000000E+01 0.  1.
         -5    1    3    3    0  502 -0.24881938903E+02 -0.33753584807E+02 -0.29767024661E+02  0.51594219909E+02  0.41800000000E+01 0.  1.
        -11    1    4    4    0    0 -0.29704281684E+02 -0.67527165314E+02 -0.58037029188E+02  0.93864578850E+02  0.00000000000E+00 0. -1.
         11    1    4    4    0    0 -0.76617215336E+01  0.32165887027E+02 -0.26543056141E+02  0.42401416183E+02  0.00000000000E+00 0.  1.
</event>
<event>
 8    1  0.6832629E-009  0.1127982E+03  0.7561462E-02  0.1255474E+00
         -1   -1    0    0    0  501 -0.00000000000E+00  0.00000000000E+00  0.11292336704E+03  0.11292336704E+03  0.00000000000E+00 0.  1.
          1   -1    0    0  501    0  0.00000000000E+00 -0.00000000000E+00 -0.13671849656E+03  0.13671849656E+03  0.00000000000E+00 0. -1.
         25    2    1    2    0    0  0.51471699186E+02  0.21580114869E+02  0.10470262557E+02  0.13737446261E+03  0.12508828644E+03 0.  0.
         23    2    1    2    0    0 -0.51471699186E+02 -0.21580114869E+02 -0.34265392081E+02  0.11226740099E+03  0.91185607717E+02 0.  0.
          5    1    3    3  502    0 -0.48147438284E+01 -0.47276377888E+02 -0.19715817416E+00  0.47704810404E+02  0.41800000000E+01 0.  1.
         -5    1    3    3    0  502  0.56286443015E+02  0.68856492757E+02  0.10667420732E+02  0.89669652208E+02  0.41800000000E+01 0.  1.
        -11    1    4    4    0    0 -0.40478678665E+02 -0.46483140130E+02  0.78343885547E+01  0.62133593063E+02  0.00000000000E+00 0.  1.
         11    1    4    4    0    0 -0.10993020521E+02  0.24903025261E+02 -0.42099780635E+02  0.50133807923E+02  0.00000000000E+00 0. -1.
</event>
<event>
 8    1  0.6832629E-009  0.9897031E+02  0.7561462E-02  0.1282476E+00
         -1   -1    0    0    0  501 -0.00000000000E+00  0.00000000000E+00  0.27207181346E+03  0.27207181346E+03  0.00000000000E+00 0.  1.
          1   -1    0    0  501    0  0.00000000000E+00 -0.00000000000E+00 -0.43629405479E+02  0.43629405479E+02  0.00000000000E+00 0. -1.
         25    2    1    2    0    0  0.16521498420E+02 -0.20365575960E+01  0.12786636366E+03  0.17965152143E+03  0.12509098577E+03 0.  0.
         23    2    1    2    0    0 -0.16521498420E+02  0.20365575960E+01  0.10057604432E+03  0.13604969750E+03  0.90093684702E+02 0.  0.
          5    1    3    3  502    0 -0.52753438976E+02 -0.14749748408E+02  0.46674364838E+02  0.72086400485E+02  0.41800000000E+01 0. -1.
         -5    1    3    3    0  502  0.69274937396E+02  0.12713190812E+02  0.81191998822E+02  0.10756512095E+03  0.41800000000E+01 0. -1.
        -11    1    4    4    0    0 -0.41796863108E+02 -0.12068401525E+02  0.97717555707E+02  0.10696422194E+03  0.00000000000E+00 0.  1.
         11    1    4    4    0    0  0.25275364688E+02  0.14104959121E+02  0.28584886130E+01  0.29085475569E+02  0.00000000000E+00 0. -1.
</event>
<event>
 8    1  0.6832629E-009  0.1147939E+03  0.7561462E-02  0.1251941E+00
          2   -1    0    0  501    0  0.00000000000E+00  0.00000000000E+00  0.14035532093E+03  0.14035532093E+03  0.00000000000E+00 0. -1.
         -2   -1    0    0    0  501 -0.00000000000E+00 -0.00000000000E+00 -0.14575637315E+03  0.14575637315E+03  0.00000000000E+00 0.  1.
         25    2    1    2    0    0 -0.10009931625E+02  0.57958313703E+02  0.69124075799E+02  0.15454764949E+03  0.12508986070E+03 0.  0.
         23    2    1    2    0    0  0.10009931625E+02 -0.57958313703E+02 -0.74525128020E+02  0.13156404458E+03  0.91080943462E+02 0.  0.
          5    1    3    3  502    0 -0.62493252453E+02  0.57810072232E+02  0.47979871284E+02  0.97810794404E+02  0.41800000000E+01 0. -1.
         -5    1    3    3    0  502  0.52483320827E+02  0.14824147183E+00  0.21144204515E+02  0.56736855087E+02  0.41800000000E+01 0. -1.
        -11    1    4    4    0    0 -0.80193760146E+01 -0.69718374502E+02 -0.82767202698E+02  0.10851438604E+03  0.00000000000E+00 0.  1.
         11    1    4    4    0    0  0.18029307640E+02  0.11760060799E+02  0.82420746782E+01  0.23049658544E+02  0.00000000000E+00 0. -1.
</event>
<event>
 8    1  0.6832629E-009  0.8809000E+02  0.7561462E-02  0.1307544E+00
         -2   -1    0    0    0  501 -0.00000000000E+00  0.00000000000E+00  0.38801958412E+02  0.38801958412E+02  0.00000000000E+00 0.  1.
          2   -1    0    0  501    0  0.00000000000E+00 -0.00000000000E+00 -0.34938041212E+03  0.34938041212E+03  0.00000000000E+00 0. -1.
         25    2    1    2    0    0  0.30377705983E+02  0.17375780023E+02 -0.18144743434E+03  0.22314966534E+03  0.12509148238E+03 0.  0.
         23    2    1    2    0    0 -0.30377705983E+02 -0.17375780023E+02 -0.12913101937E+03  0.16503270519E+03  0.96624276797E+02 0.  0.
          5    1    3    3  502    0 -0.20229142198E+02  0.66893379178E+01  0.10637899393E+02  0.24178559497E+02  0.41800000000E+01 0.  1.
         -5    1    3    3    0  502  0.50606848180E+02  0.10686442105E+02 -0.19208533373E+03  0.19897110585E+03  0.41800000000E+01 0.  1.
        -11    1    4    4    0    0  0.32325350365E+02  0.10454886485E+02 -0.47580936170E+02  0.58465189766E+02  0.00000000000E+00 0. -1.
         11    1    4    4    0    0 -0.62703056347E+02 -0.27830666508E+02 -0.81550083203E+02  0.10656751543E+03  0.00000000000E+00 0.  1.
</event>
<event>
 8    1  0.6832629E-009  0.2029867E+03  0.7561462E-02  0.1147243E+00
          1   -1    0    0  501    0  0.00000000000E+00  0.00000000000E+00  0.61549379761E+03  0.61549379761E+03  0.00000000000E+00 0. -1.
         -1   -1    0    0    0  501 -0.00000000000E+00 -0.00000000000E+00 -0.69166303351E+02  0.69166303351E+02  0.00000000000E+00 0.  1.
         25    2    1    2    0    0 -0.92514038599E+02 -0.14803735337E+03  0.26760317177E+03  0.34312119511E+03  0.12508713627E+03 0.  0.
         23    2    1    2    0    0  0.92514038599E+02  0.14803735337E+03  0.27872432249E+03  0.34153890585E+03  0.92128556549E+02 0.  0.
          5    1    3    3  502    0  0.28953178190E+02 -0.48715912780E+02  0.57266524616E+02  0.80674989475E+02  0.41800000000E+01 0. -1.
         -5    1    3    3    0  502 -0.12146721679E+03 -0.99321440593E+02  0.21033664715E+03  0.26244620563E+03  0.41800000000E+01 0. -1.
        -11    1    4    4    0    0  0.43811297837E+02  0.13476874966E+03  0.23660329376E+03  0.27579551179E+03  0.00000000000E+00 0. -1.
         11    1    4    4    0    0  0.48702740762E+02  0.13268603714E+02  0.42121028730E+02  0.65743394068E+02  0.00000000000E+00 0.  1.
</event>
<event>
 8    1  0.6832629E-009  0.1182857E+03  0.7561462E-02  0.1245952E+00
         -3   -1    0    0    0  501 -0.00000000000E+00  0.00000000000E+00  0.14267858276E+03  0.14267858276E+03  0.00000000000E+00 0.  1.
          3   -1    0    0  501    0  0.00000000000E+00 -0.00000000000E+00 -0.13400979228E+03  0.13400979228E+03  0.00000000000E+00 0. -1.
         25    2    1    2    0    0  0.34531514179E+02  0.36857432241E+02 -0.64579967794E+02  0.14956006688E+03  0.12508695208E+03 0.  0.
         23    2    1    2    0    0 -0.34531514179E+02 -0.36857432241E+02  0.73248758274E+02  0.12712830817E+03  0.90803801496E+02 0.  0.
          5    1    3    3  502    0 -0.44219540397E+02  0.33378923329E+02 -0.32373371211E+02  0.64304182128E+02  0.41800000000E+01 0.  1.
         -5    1    3    3    0  502  0.78751054576E+02  0.34785089118E+01 -0.32206596584E+02  0.85255884751E+02  0.41800000000E+01 0.  1.
        -11    1    4    4    0    0 -0.48860402341E+02  0.12700604320E+02  0.24356477808E+02  0.56052495736E+02  0.00000000000E+00 0. -1.
         11    1    4    4    0    0  0.14328888162E+02 -0.49558036561E+02  0.48892280467E+02  0.71075812433E+02  0.00000000000E+00 0.  1.
</event>
<event>
 8    1  0.6832629E-009  0.9376944E+02  0.7561462E-02  0.1293972E+00
         -2   -1    0    0    0  501 -0.00000000000E+00  0.00000000000E+00  0.60556318051E+02  0.60556318051E+02  0.00000000000E+00 0.  1.
          2   -1    0    0  501    0  0.00000000000E+00 -0.00000000000E+00 -0.31123463208E+03  0.31123463208E+03  0.00000000000E+00 0. -1.
         25    2    1    2    0    0 -0.72890408715E+02  0.27069307667E+02 -0.17530219030E+03  0.22896420994E+03  0.12509193582E+03 0.  0.
         23    2    1    2    0    0  0.72890408715E+02 -0.27069307667E+02 -0.75376123724E+02  0.14282674019E+03  0.93124425294E+02 0.  0.
          5    1    3    3  502    0 -0.38833458886E+01  0.11975956970E+02 -0.15469493933E+03  0.15526268249E+03  0.41800000000E+01 0. -1.
         -5    1    3    3    0  502 -0.69007062826E+02  0.15093350697E+02 -0.20607250978E+02  0.73701527447E+02  0.41800000000E+01 0. -1.
        -11    1    4    4    0    0  0.26187622461E+02 -0.46148998030E+02 -0.75616579058E+02  0.92376342306E+02  0.00000000000E+00 0. -1.
         11    1    4    4    0    0  0.46702786254E+02  0.19079690362E+02  0.24045533471E+00  0.50450397887E+02  0.00000000000E+00 0.  1.
</event>
<event>
 8    1  0.6832629E-009  0.1988422E+03  0.7561462E-02  0.1150720E+00
         -4   -1    0    0    0  501 -0.00000000000E+00  0.00000000000E+00  0.18201132960E+03  0.18201132960E+03  0.00000000000E+00 0.  1.
          4   -1    0    0  501    0  0.00000000000E+00 -0.00000000000E+00 -0.22179212212E+03  0.22179212212E+03  0.00000000000E+00 0. -1.
         25    2    1    2    0    0  0.12956032075E+03 -0.10439581520E+03  0.73034561646E+01  0.20829308668E+03  0.12509319144E+03 0.  0.
         23    2    1    2    0    0 -0.12956032075E+03  0.10439581520E+03 -0.47084248687E+02  0.19551036503E+03  0.91230550897E+02 0.  0.
          5    1    3    3  502    0  0.15107213773E+03 -0.68630181878E+02  0.98121419816E+01  0.16627279752E+03  0.41800000000E+01 0. -1.
         -5    1    3    3    0  502 -0.21511816987E+02 -0.35765633319E+02 -0.25086858171E+01  0.42020289163E+02  0.41800000000E+01 0. -1.
        -11    1    4    4    0    0 -0.81343350407E+02  0.11453813735E+03 -0.34930792749E+02  0.14476147914E+03  0.00000000000E+00 0. -1.
         11    1    4    4    0    0 -0.48216970341E+02 -0.10142322148E+02 -0.12153455938E+02  0.50748885886E+02  0.00000000000E+00 0.  1.
</event>
<event>
 8    1  0.6832629E-009  0.1207029E+03  0.7561462E-02  0.1241942E+00
          2   -1    0    0  501    0  0.00000000000E+00  0.00000000000E+00  0.52895965664E+03  0.52895965664E+03  0.00000000000E+00 0. -1.
         -2   -1    0    0    0  501 -0.00000000000E+00 -0.00000000000E+00 -0.61463999146E+02  0.61463999146E+02  0.00000000000E+00 0.  1.
         25    2    1    2    0    0  0.83932843808E+02  0.25122801648E+02  0.43151197278E+03  0.45774037000E+03  0.12509111175E+03 0.  0.
         23    2    1    2    0    0 -0.83932843808E+02 -0.25122801648E+02  0.35983684707E+02  0.13268328578E+03  0.92920134140E+02 0.  0.
          5    1    3    3  502    0  0.87404747223E+02  0.53862606655E+02  0.40640464085E+03  0.41919324271E+03  0.41800000000E+01 0. -1.
         -5    1    3    3    0  502 -0.34719034151E+01 -0.28739805008E+02  0.25107331937E+02  0.38547127288E+02  0.41800000000E+01 0. -1.
        -11    1    4    4    0    0 -0.49087675597E+02 -0.47244354578E+02 -0.12227221582E+02  0.69218017038E+02  0.00000000000E+00 0. -1.
         11    1    4    4    0    0 -0.34845168211E+02  0.22121552930E+02  0.48210906289E+02  0.63465268745E+02  0.00000000000E+00 0.  1.
</event>
<event>
 8    1  0.6832629E-009  0.8854488E+02  0.7561462E-02  0.1306414E+00
         -1   -1    0    0    0  501 -0.00000000000E+00  0.00000000000E+00  0.37400264457E+03  0.37400264457E+03  0.00000000000E+00 0.  1.
          1   -1    0    0  501    0  0.00000000000E+00 -0.00000000000E+00 -0.46362878942E+02  0.46362878942E+02  0.00000000000E+00 0. -1.
         25    2    1    2    0    0 -0.57411425578E+02 -0.25127975206E+02  0.11730947753E+03  0.18258241151E+03  0.12508931428E+03 0.  0.
         23    2    1    2    0    0  0.57411425578E+02  0.25127975206E+02  0.21033028809E+03  0.23778311200E+03  0.91512246941E+02 0.  0.
          5    1    3    3  502    0  0.16226692151E+02  0.20788820022E+02 -0.99489244890E+01  0.28494456909E+02  0.41800000000E+01 0. -1.
         -5    1    3    3    0  502 -0.73638117729E+02 -0.45916795228E+02  0.12725840202E+03  0.15408795460E+03  0.41800000000E+01 0. -1.
        -11    1    4    4    0    0  0.41587049014E+02  0.23047560480E+02  0.21575037776E+03  0.22092735954E+03  0.00000000000E+00 0.  1.
         11    1    4    4    0    0  0.15824376564E+02  0.20804147261E+01 -0.54200896684E+01  0.16855752463E+02  0.00000000000E+00 0. -1.
</event>
<event>
 8    1  0.6832629E-009  0.1688063E+03  0.7561462E-02  0.1179098E+00
         -1   -1    0    0    0  501 -0.00000000000E+00  0.00000000000E+00  0.54316378766E+02  0.54316378766E+02  0.00000000000E+00 0.  1.
          1   -1    0    0  501    0  0.00000000000E+00 -0.00000000000E+00 -0.56987778310E+03  0.56987778310E+03  0.00000000000E+00 0. -1.
         25    2    1    2    0    0  0.12923836625E+03 -0.46447615233E+02 -0.30326548579E+03  0.35563940738E+03  0.12509794937E+03 0.  0.
         23    2    1    2    0    0 -0.12923836625E+03  0.46447615233E+02 -0.21229591854E+03  0.26855475448E+03  0.90510567652E+02 0.  0.
          5    1    3    3  502    0  0.13592567360E+03 -0.70931928239E+02 -0.28638933728E+03  0.32487451746E+03  0.41800000000E+01 0.  1.
         -5    1    3    3    0  502 -0.66873073561E+01  0.24484313005E+02 -0.16876148511E+02  0.30764889917E+02  0.41800000000E+01 0.  1.
        -11    1    4    4    0    0 -0.12788002385E+03  0.16967461371E+02 -0.13949730184E+03  0.19000182227E+03  0.00000000000E+00 0.  1.
         11    1    4    4    0    0 -0.13583423932E+01  0.29480153862E+02 -0.72798616697E+02  0.78552932210E+02  0.00000000000E+00 0. -1.
</event>
<event>
 8    1  0.6832629E-009  0.1134274E+03  0.7561462E-02  0.1254351E+00
          1   -1    0    0  501    0  0.00000000000E+00  0.00000000000E+00  0.59469774658E+02  0.59469774658E+02  0.00000000000E+00 0. -1.
         -1   -1    0    0    0  501 -0.00000000000E+00 -0.00000000000E+00 -0.28853364885E+03  0.28853364885E+03  0.00000000000E+00 0.  1.
         25    2    1    2    0    0  0.55201815529E+02  0.33909421447E+02 -0.16960481838E+03  0.22047581588E+03  0.12508677656E+03 0.  0.
         23    2    1    2    0    0 -0.55201815529E+02 -0.33909421447E+02 -0.59459055808E+02  0.12752760762E+03  0.92362449556E+02 0.  0.
          5    1    3    3  502    0  0.22336760104E+02 -0.47659181990E+02 -0.61446091858E+02  0.81014955932E+02  0.41800000000E+01 0.  1.
         -5    1    3    3    0  502  0.32865055425E+02  0.81568603437E+02 -0.10815872653E+03  0.13946085995E+03  0.41800000000E+01 0.  1.
        -11    1    4    4    0    0 -0.69180730697E+01 -0.36991823840E+02  0.13502488471E+02  0.39982145526E+02  0.00000000000E+00 0. -1.
         11    1    4    4    0    0 -0.48283742459E+02  0.30824023924E+01 -0.72961544278E+02  0.87545462097E+02  0.00000000000E+00 0.  1.
</event>
<event>
 8    1  0.6832629E-009  0.1243082E+03  0.7561462E-02  0.1236154E+00
         -1   -1    0    0    0  501 -0.00000000000E+00  0.00000000000E+00  0.10865793369E+03  0.10865793369E+03  0.00000000000E+00 0.  1.
          1   -1    0    0  501    0  0.00000000000E+00 -0.00000000000E+00 -0.22935542224E+03  0.22935542224E+03  0.00000000000E+00 0. -1.
         25    2    1    2    0    0  0.53541290833E+02  0.52858623208E+02  0.27498507541E+02  0.14853998774E+03  0.12508899300E+03 0.  0.
         23    2    1    2    0    0 -0.53541290833E+02 -0.52858623208E+02 -0.14819599609E+03  0.18947336818E+03  0.90980218294E+02 0.  0.
          5    1    3    3  502    0  0.10027289117E+02 -0.40903323584E+02  0.11523357280E+02  0.43862154191E+02  0.41800000000E+01 0.  1.
         -5    1    3    3    0  502  0.43514001716E+02  0.93761946792E+02  0.15975150261E+02  0.10467783355E+03  0.41800000000E+01 0.  1.
        -11    1    4    4    0    0 -0.34422948133E+02  0.11036788129E+02 -0.10233720124E+03  0.10853410897E+03  0.00000000000E+00 0.  1.
         11    1    4    4    0    0 -0.19118342700E+02 -0.63895411337E+02 -0.45858794847E+02  0.80939259215E+02  0.00000000000E+00 0. -1.
</event>
<event>
 8    1  0.6832629E-009  0.9895688E+02  0.7561462E-02  0.1282505E+00
          2   -1    0    0  501    0  0.00000000000E+00  0.00000000000E+00  0.62443160673E+02  0.62443160673E+02  0.00000000000E+00 0. -1.
         -2   -1    0    0    0  501 -0.00000000000E+00 -0.00000000000E+00 -0.29194579209E+03  0.29194579209E+03  0.00000000000E+00 0.  1.
         25    2    1    2    0    0  0.39497901763E+02 -0.27815839690E+02 -0.42382206755E+02  0.14063328153E+03  0.12509062012E+03 0.  0.
         23    2    1    2    0    0 -0.39497901763E+02  0.27815839690E+02 -0.18712042466E+03  0.21375567124E+03  0.91343464345E+02 0.  0.
          5    1    3    3  502    0 -0.40951779071E+02  0.28832615801E+01 -0.34998107561E+02  0.54108237258E+02  0.41800000000E+01 0.  1.
         -5    1    3    3    0  502  0.80449680834E+02 -0.30699101270E+02 -0.73840991947E+01  0.86525044270E+02  0.41800000000E+01 0.  1.
        -11    1    4    4    0    0 -0.51587174813E+02  0.17284253398E+02 -0.18984996277E+03  0.19749174763E+03  0.00000000000E+00 0.  1.
         11    1    4    4    0    0  0.12089273049E+02  0.10531586292E+02  0.27295381048E+01  0.16263923603E+02  0.00000000000E+00 0. -1.
</event>
<event>
 8    1  0.6832629E-009  0.1418278E+03  0.7561462E-02  0.1210890E+00
          2   -1    0    0  501    0  0.00000000000E+00  0.00000000000E+00  0.97039446150E+02  0.97039446150E+02  0.00000000000E+00 0.  1.
         -2   -1    0    0    0  501 -0.00000000000E+00 -0.00000000000E+00 -0.24063384672E+03  0.24063384672E+03  0.00000000000E+00 0. -1.
         25    2    1    2    0    0  0.60072148114E+01  0.97042989700E+02 -0.28278994788E+02  0.16093732847E+03  0.12509074174E+03 0.  0.
         23    2    1    2    0    0 -0.60072148114E+01 -0.97042989700E+02 -0.11531540579E+03  0.17673596440E+03  0.92111507541E+02 0.  0.
          5    1    3    3  502    0 -0.55815846693E+02  0.71757343642E+02 -0.99487423477E+01  0.91547665087E+02  0.41800000000E+01 0.  1.
         -5    1    3    3    0  502  0.61823061504E+02  0.25285646058E+02 -0.18330252440E+02  0.69389663386E+02  0.41800000000E+01 0.  1.
        -11    1    4    4    0    0 -0.31394355558E+02 -0.95232455585E+02 -0.62632287230E+02  0.11822702551E+03  0.00000000000E+00 0.  1.
         11    1    4    4    0    0  0.25387140747E+02 -0.18105341146E+01 -0.52683118557E+02  0.58508938889E+02  0.00000000000E+00 0. -1.
</event>
<event>
 8    1  0.6832629E-009  0.1019558E+03  0.7561462E-02  0.1276236E+00
         -2   -1    0    0    0  501 -0.00000000000E+00  0.00000000000E+00  0.90909174609E+02  0.90909174609E+02  0.00000000000E+00 0.  1.
          2   -1    0    0  501    0  0.00000000000E+00 -0.00000000000E+00 -0.16774234473E+03  0.16774234473E+03  0.00000000000E+00 0. -1.
         25    2    1    2    0    0  0.54708878739E+02  0.61625927587E+01 -0.71946758914E+02  0.15445403887E+03  0.12509466432E+03 0.  0.
         23    2    1    2    0    0 -0.54708878739E+02 -0.61625927587E+01 -0.48864112086E+01  0.10419748047E+03  0.88330056948E+02 0.  0.
          5    1    3    3  502    0  0.55287250418E+02 -0.32451701676E+02  0.88059363433E+01  0.64844505668E+02  0.41800000000E+01 0.  1.
         -5    1    3    3    0  502 -0.57837167973E+00  0.38614294435E+02 -0.80752695257E+02  0.89609533197E+02  0.41800000000E+01 0.  1.
        -11    1    4    4    0    0  0.17303105691E+02 -0.21091098852E+02 -0.12978593564E+02  0.30210524793E+02  0.00000000000E+00 0. -1.
         11    1    4    4    0    0 -0.72011984430E+02  0.14928506094E+02  0.80921823559E+01  0.73986955681E+02  0.00000000000E+00 0.  1.
</event>
<event>
 8    1  0.6832629E-009  0.9178363E+02  0.7561462E-02  0.1298589E+00
          1   -1    0    0  501    0  0.00000000000E+00  0.00000000000E+00  0.18278710400E+03  0.18278710400E+03  0.00000000000E+00 0. -1.
         -1   -1    0    0    0  501 -0.00000000000E+00 -0.00000000000E+00 -0.71359215433E+02  0.71359215433E+02  0.00000000000E+00 0.  1.
         25    2    1    2    0    0  0.99840310180E+01 -0.45551018864E+01  0.10195475130E+03  0.16174582707E+03  0.12508601614E+03 0.  0.
         23    2    1    2    0    0 -0.99840310180E+01  0.45551018864E+01  0.94731372688E+01  0.92400492359E+02  0.91256127629E+02 0.  0.
          5    1    3    3  502    0  0.22054900365E+02  0.52421852696E+02  0.82318266250E+02  0.10014109361E+03  0.41800000000E+01 0.  1.
         -5    1    3    3    0  502 -0.12070869347E+02 -0.56976954582E+02  0.19636485045E+02  0.61604733464E+02  0.41800000000E+01 0.  1.
        -11    1    4    4    0    0 -0.25406224670E+02 -0.24475166053E+02 -0.26161235869E+02  0.43919474809E+02  0.00000000000E+00 0.  1.
         11    1    4    4    0    0  0.15422193652E+02  0.29030267940E+02  0.35634373138E+02  0.48481017549E+02  0.00000000000E+00 0. -1.
</event>
<event>
 8    1  0.6832629E-009  0.9789900E+02  0.7561462E-02  0.1284777E+00
          4   -1    0    0  501    0  0.00000000000E+00  0.00000000000E+00  0.38043132207E+03  0.38043132207E+03  0.00000000000E+00 0. -1.
         -4   -1    0    0    0  501 -0.00000000000E+00 -0.00000000000E+00 -0.58034259249E+02  0.58034259249E+02  0.00000000000E+00 0.  1.
         25    2    1    2    0    0  0.22720383243E+02 -0.70250506334E+02  0.72139638627E+02  0.16218278861E+03  0.12509108684E+03 0.  0.
         23    2    1    2    0    0 -0.22720383243E+02  0.70250506334E+02  0.25025742420E+03  0.27628279271E+03  0.90840815310E+02 0.  0.
          5    1    3    3  502    0  0.44193802594E+02 -0.87759716195E+01  0.84423324357E+02  0.95785593703E+02  0.41800000000E+01 0. -1.
         -5    1    3    3    0  502 -0.21473419351E+02 -0.61474534714E+02 -0.12283685730E+02  0.66397194911E+02  0.41800000000E+01 0. -1.
        -11    1    4    4    0    0 -0.28906791918E+02  0.21174650559E+02  0.20543814180E+02  0.41303955578E+02  0.00000000000E+00 0.  1.
         11    1    4    4    0    0  0.61864086753E+01  0.49075855775E+02  0.22971361002E+03  0.23497883713E+03  0.00000000000E+00 0. -1.
</event>
<event>
 8    1  0.6832629E-009  0.9930257E+02  0.7561462E-02  0.1281769E+00
          1   -1    0    0  501    0  0.00000000000E+00  0.00000000000E+00  0.20555258259E+03  0.20555258259E+03  0.00000000000E+00 0. -1.
         -1   -1    0    0    0  501 -0.00000000000E+00 -0.00000000000E+00 -0.82756525714E+02  0.82756525714E+02  0.00000000000E+00 0.  1.
         25    2    1    2    0    0 -0.25076245553E+01 -0.62611023141E+02  0.98100581007E+02  0.17087278122E+03  0.12508938791E+03 0.  0.
         23    2    1    2    0    0  0.25076245553E+01  0.62611023141E+02  0.24695475868E+02  0.11743632708E+03  0.96202889723E+02 0.  0.
          5    1    3    3  502    0 -0.12502526783E+02 -0.92579168676E+02  0.34387944022E+02  0.99635429154E+02  0.41800000000E+01 0. -1.
         -5    1    3    3    0  502  0.99949022275E+01  0.29968145535E+02  0.63712636985E+02  0.71237352063E+02  0.41800000000E+01 0. -1.
        -11    1    4    4    0    0  0.17388679642E+02  0.13807348251E+02  0.54148062754E+02  0.58523685337E+02  0.00000000000E+00 0. -1.
         11    1    4    4    0    0 -0.14881055087E+02  0.48803674890E+02 -0.29452586887E+02  0.58912641747E+02  0.00000000000E+00 0.  1.
</event>
<event>
 8    1  0.6832629E-009  0.1431088E+03  0.7561462E-02  0.1209206E+00
          1   -1    0    0  501    0  0.00000000000E+00  0.00000000000E+00  0.10412449460E+03  0.10412449460E+03  0.00000000000E+00 0. -1.
         -1   -1    0    0    0  501 -0.00000000000E+00 -0.00000000000E+00 -0.29446708433E+03  0.29446708433E+03  0.00000000000E+00 0.  1.
         25    2    1    2    0    0  0.65271649096E+01 -0.13658251962E+03 -0.11186744846E+03  0.21647237193E+03  0.12509425741E+03 0.  0.
         23    2    1    2    0    0 -0.65271649096E+01  0.13658251962E+03 -0.78475141266E+02  0.18211920700E+03  0.91168356423E+02 0.  0.
          5    1    3    3  502    0  0.27906822063E+02 -0.11093976765E+03 -0.13396991158E+03  0.17621530119E+03  0.41800000000E+01 0.  1.
         -5    1    3    3    0  502 -0.21379657154E+02 -0.25642751967E+02  0.22102463121E+02  0.40257070738E+02  0.41800000000E+01 0.  1.
        -11    1    4    4    0    0  0.25883292741E+01  0.10935540567E+03 -0.98431008534E+02  0.14715287166E+03  0.00000000000E+00 0.  1.
         11    1    4    4    0    0 -0.91154941837E+01  0.27227113954E+02  0.19955867268E+02  0.34966335337E+02  0.00000000000E+00 0. -1.
</event>
<event>
 8    1  0.6832629E-009  0.1167386E+03  0.7561462E-02  0.1248576E+00
         -2   -1    0    0    0  501 -0.00000000000E+00  0.00000000000E+00  0.32562608636E+02  0.32562608636E+02  0.00000000000E+00 0. -1.
          2   -1    0    0  501    0  0.00000000000E+00 -0.00000000000E+00 -0.54008221071E+03  0.54008221071E+03  0.00000000000E+00 0.  1.
         25    2    1    2    0    0  0.51857694105E+02 -0.46999343877E+02 -0.35152190844E+03  0.37962362301E+03  0.12509310241E+03 0.  0.
         23    2    1    2    0    0 -0.51857694105E+02  0.46999343877E+02 -0.15599769364E+03  0.19302119634E+03  0.89575348468E+02 0.  0.
          5    1    3    3  502    0  0.79078369814E+02  0.11780585588E+01 -0.26711652663E+03  0.27860992012E+03  0.41800000000E+01 0.  1.
         -5    1    3    3    0  502 -0.27220675709E+02 -0.48177402436E+02 -0.84405381811E+02  0.10101370288E+03  0.41800000000E+01 0.  1.
        -11    1    4    4    0    0  0.13913892724E+02 -0.51633005247E+01 -0.74705707272E+02  0.76165601042E+02  0.00000000000E+00 0.  1.
         11    1    4    4    0    0 -0.65771586829E+02  0.52162644402E+02 -0.81291986365E+02  0.11685559530E+03  0.00000000000E+00 0. -1.
</event>
<event>
 8    1  0.6832629E-009  0.1033378E+03  0.7561462E-02  0.1273430E+00
         -3   -1    0    0    0  501 -0.00000000000E+00  0.00000000000E+00  0.22253843586E+03  0.22253843586E+03  0.00000000000E+00 0. -1.
          3   -1    0    0  501    0  0.00000000000E+00 -0.00000000000E+00 -0.58812306444E+02  0.58812306444E+02  0.00000000000E+00 0.  1.
         25    2    1    2    0    0 -0.48168290935E+01 -0.31477923684E+02  0.11656012273E+03  0.17392002433E+03  0.12509137112E+03 0.  0.
         23    2    1    2    0    0  0.48168290935E+01  0.31477923684E+02  0.47166006686E+02  0.10743071798E+03  0.91118963210E+02 0.  0.
          5    1    3    3  502    0  0.40100381113E+02  0.20059737787E+02  0.89662490987E+02  0.10033577794E+03  0.41800000000E+01 0.  1.
         -5    1    3    3    0  502 -0.44917210207E+02 -0.51537661471E+02  0.26897631748E+02  0.73584246387E+02  0.41800000000E+01 0.  1.
        -11    1    4    4    0    0 -0.30204948565E+02  0.46170088903E+02  0.13788611007E+02  0.56869515742E+02  0.00000000000E+00 0.  1.
         11    1    4    4    0    0  0.35021777659E+02 -0.14692165219E+02  0.33377395679E+02  0.50561202236E+02  0.00000000000E+00 0. -1.
</event>
<event>
 8    1  0.6832629E-009  0.1424558E+03  0.7561462E-02  0.1210062E+00
         -1   -1    0    0    0  501 -0.00000000000E+00  0.00000000000E+00  0.46295438311E+02  0.46295438311E+02  0.00000000000E+00 0.  1.
          1   -1    0    0  501    0  0.00000000000E+00 -0.00000000000E+00 -0.70989208034E+03  0.70989208034E+03  0.00000000000E+00 0. -1.
         25    2    1    2    0    0  0.85943066794E+02 -0.44502044816E+02 -0.12636330559E+03  0.20244254767E+03  0.12509459376E+03 0.  0.
         23    2    1    2    0    0 -0.85943066794E+02  0.44502044816E+02 -0.53723333645E+03  0.55374497098E+03  0.92990281072E+02 0.  0.
          5    1    3    3  502    0 -0.15452400828E+02 -0.46925015878E+02 -0.15095415533E+02  0.51827384428E+02  0.41800000000E+01 0. -1.
         -5    1    3    3    0  502  0.10139546762E+03  0.24229710620E+01 -0.11126789005E+03  0.15061516325E+03  0.41800000000E+01 0. -1.
        -11    1    4    4    0    0 -0.79714148665E+02 -0.87616315870E+01 -0.34243187433E+03  0.35169688688E+03  0.00000000000E+00 0. -1.
         11    1    4    4    0    0 -0.62289181294E+01  0.53263676403E+02 -0.19480146211E+03  0.20204808410E+03  0.00000000000E+00 0.  1.
</event>
<event>
 8    1  0.6832629E-009  0.2246233E+03  0.7561462E-02  0.1130482E+00
          1   -1    0    0  501    0  0.00000000000E+00  0.00000000000E+00  0.51470691710E+03  0.51470691710E+03  0.00000000000E+00 0. -1.
         -1   -1    0    0    0  501 -0.00000000000E+00 -0.00000000000E+00 -0.11463166525E+03  0.11463166525E+03  0.00000000000E+00 0.  1.
         25    2    1    2    0    0 -0.57655805977E+02  0.19888611832E+03  0.12434340915E+03  0.27200898462E+03  0.12509086413E+03 0.  0.
         23    2    1    2    0    0  0.57655805977E+02 -0.19888611832E+03  0.27573184270E+03  0.35732959773E+03  0.93683041744E+02 0.  0.
          5    1    3    3  502    0  0.13864157306E+02  0.15841617670E+03  0.90675863973E+02  0.18310511900E+03  0.41800000000E+01 0.  1.
         -5    1    3    3    0  502 -0.71519963284E+02  0.40469941622E+02  0.33667545182E+02  0.88903865616E+02  0.41800000000E+01 0.  1.
        -11    1    4    4    0    0  0.37849328789E+02 -0.97580097655E+02  0.21087796547E+03  0.23542294593E+03  0.00000000000E+00 0. -1.
         11    1    4    4    0    0  0.19806477188E+02 -0.10130602066E+03  0.64853877230E+02  0.12190665180E+03  0.00000000000E+00 0.  1.
</event>
<event>
 8    1  0.6832629E-009  0.1514689E+03  0.7561462E-02  0.1198680E+00
          2   -1    0    0  501    0  0.00000000000E+00  0.00000000000E+00  0.55726182095E+03  0.55726182095E+03  0.00000000000E+00 0. -1.
         -2   -1    0    0    0  501 -0.00000000000E+00 -0.00000000000E+00 -0.51747928386E+02  0.51747928386E+02  0.00000000000E+00 0.  1.
         25    2    1    2    0    0  0.12138852982E+03  0.29047553000E+02  0.20700075875E+03  0.27216758655E+03  0.12508775137E+03 0.  0.
         23    2    1    2    0    0 -0.12138852982E+03 -0.29047553000E+02  0.29851313382E+03  0.33684216278E+03  0.93667582756E+02 0.  0.
          5    1    3    3  502    0 -0.13345316317E+02  0.38086541482E+01  0.92160935058E+02  0.93293695739E+02  0.41800000000E+01 0. -1.
         -5    1    3    3    0  502  0.13473384614E+03  0.25238898852E+02  0.11483982369E+03  0.17887389081E+03  0.41800000000E+01 0. -1.
        -11    1    4    4    0    0 -0.12518985919E+03 -0.32557206721E+01  0.20936950263E+03  0.24396452446E+03  0.00000000000E+00 0.  1.
         11    1    4    4    0    0  0.38013293716E+01 -0.25791832328E+02  0.89143631187E+02  0.92877638326E+02  0.00000000000E+00 0. -1.
</event>
<event>
 8    1  0.6832629E-009  0.1508475E+03  0.7561462E-02  0.1199435E+00
         -2   -1    0    0    0  501 -0.00000000000E+00  0.00000000000E+00  0.19709805572E+02  0.19709805572E+02  0.00000000000E+00 0.  1.
          2   -1    0    0  501    0  0.00000000000E+00 -0.00000000000E+00 -0.13309471464E+04  0.13309471464E+04  0.00000000000E+00 0. -1.
         25    2    1    2    0    0 -0.90039969161E+02 -0.75685740374E+02 -0.80519243805E+03  0.82329889384E+03  0.12510267370E+03 0.  0.
         23    2    1    2    0    0  0.90039969161E+02  0.75685740374E+02 -0.50604490275E+03  0.52735805810E+03  0.90496135291E+02 0.  0.
          5    1    3    3  502    0 -0.32372494313E+02  0.29841222098E+02 -0.33706407172E+03  0.33995314055E+03  0.41800000000E+01 0.  1.
         -5    1    3    3    0  502 -0.57667474848E+02 -0.10552696247E+03 -0.46812836633E+03  0.48334575329E+03  0.41800000000E+01 0.  1.
        -11    1    4    4    0    0  0.81385332328E+02  0.24164128386E+02 -0.40277891793E+03  0.41162887915E+03  0.00000000000E+00 0. -1.
         11    1    4    4    0    0  0.86546368328E+01  0.51521611988E+02 -0.10326598482E+03  0.11572917895E+03  0.00000000000E+00 0.  1.
</event>
<event>
 8    1  0.6832629E-009  0.1324083E+03  0.7561462E-02  0.1223925E+00
          2   -1    0    0  501    0  0.00000000000E+00  0.00000000000E+00  0.91536584303E+03  0.91536584303E+03  0.00000000000E+00 0. -1.
         -2   -1    0    0    0  501 -0.00000000000E+00 -0.00000000000E+00 -0.21950474427E+02  0.21950474427E+02  0.00000000000E+00 0.  1.
         25    2    1    2    0    0  0.48557123856E+02 -0.72028248286E+02  0.56760454104E+03  0.58768450456E+03  0.12510914857E+03 0.  0.
         23    2    1    2    0    0 -0.48557123856E+02  0.72028248286E+02  0.32581082756E+03  0.34963181290E+03  0.92432929243E+02 0.  0.
          5    1    3    3  502    0 -0.40822191946E+02 -0.31543954062E+02  0.24745883487E+03  0.25281380450E+03  0.41800000000E+01 0.  1.
         -5    1    3    3    0  502  0.89379315801E+02 -0.40484294224E+02  0.32014570618E+03  0.33487070005E+03  0.41800000000E+01 0.  1.
        -11    1    4    4    0    0  0.19314183874E+02  0.61675752920E+01  0.16361436305E+02  0.26053277753E+02  0.00000000000E+00 0.  1.
         11    1    4    4    0    0 -0.67871307730E+02  0.65860672994E+02  0.30944939126E+03  0.32357853515E+03  0.00000000000E+00 0. -1.
</event>
<event>
 8    1  0.6832629E-009  0.1353335E+03  0.7561462E-02  0.1219750E+00
          1   -1    0    0  501    0  0.00000000000E+00  0.00000000000E+00  0.17255261764E+03  0.17255261764E+03  0.00000000000E+00 0. -1.
         -1   -1    0    0    0  501 -0.00000000000E+00 -0.00000000000E+00 -0.16484765593E+03  0.16484765593E+03  0.00000000000E+00 0.  1.
         25    2    1    2    0    0  0.88790087537E+02 -0.23108076361E+02 -0.86272321403E+02  0.17750510269E+03  0.12508990848E+03 0.  0.
         23    2    1    2    0    0 -0.88790087537E+02  0.23108076361E+02  0.93977283111E+02  0.15989517089E+03  0.91197988435E+02 0.  0.
          5    1    3    3  502    0  0.10631811406E+03 -0.53100774681E+02 -0.75651388928E+02  0.14093913117E+03  0.41800000000E+01 0. -1.
         -5    1    3    3    0  502 -0.17528026524E+02  0.29992698320E+02 -0.10620932475E+02  0.36565971516E+02  0.41800000000E+01 0. -1.
        -11    1    4    4    0    0 -0.43660847023E+02 -0.25397038825E+02  0.76671844800E+01  0.51088793895E+02  0.00000000000E+00 0.  1.
         11    1    4    4    0    0 -0.45129240514E+02  0.48505115187E+02  0.86310098631E+02  0.10880637699E+03  0.00000000000E+00 0. -1.
</event>
<event>
 8    1  0.6832629E-009  0.1427101E+03  0.7561462E-02  0.1209728E+00
         -1   -1    0    0    0  501 -0.00000000000E+00  0.00000000000E+00  0.42512515280E+03  0.42512515280E+03  0.00000000000E+00 0.  1.
          1   -1    0    0  501    0  0.00000000000E+00 -0.00000000000E+00 -0.51619374059E+02  0.51619374059E+02  0.00000000000E+00 0. -1.
         25    2    1    2    0    0 -0.65116405164E+02 -0.73988946290E+02  0.23679561843E+03  0.28536721929E+03  0.12509106501E+03 0.  0.
         23    2    1    2    0    0  0.65116405164E+02  0.73988946290E+02  0.13671016031E+03  0.19137730756E+03  0.90670257105E+02 0.  0.
          5    1    3    3  502    0  0.29185584864E+02  0.40670052841E+01  0.18466286901E+02  0.35025919656E+02  0.41800000000E+01 0. -1.
         -5    1    3    3    0  502 -0.94301990028E+02 -0.78055951574E+02  0.21832933153E+03  0.25034129964E+03  0.41800000000E+01 0. -1.
        -11    1    4    4    0    0  0.76901937388E+02  0.86662958505E+02  0.12523799340E+03  0.17061339731E+03  0.00000000000E+00 0.  1.
         11    1    4    4    0    0 -0.11785532224E+02 -0.12674012215E+02  0.11472166917E+02  0.20763910258E+02  0.00000000000E+00 0. -1.
</event>
<event>
 8    1  0.6832629E-009  0.1903986E+03  0.7561462E-02  0.1158102E+00
         -2   -1    0    0    0  501 -0.00000000000E+00  0.00000000000E+00  0.24298767733E+03  0.24298767733E+03  0.00000000000E+00 0.  1.
          2   -1    0    0  501    0  0.00000000000E+00 -0.00000000000E+00 -0.17881225452E+03  0.17881225452E+03  0.00000000000E+00 0. -1.
         25    2    1    2    0    0 -0.16059767700E+03  0.73689629914E+02  0.59548340654E+02  0.22453375832E+03  0.12509048060E+03 0.  0.
         23    2    1    2    0    0  0.16059767700E+03 -0.73689629914E+02  0.46270821529E+01  0.19726617352E+03  0.87582863113E+02 0.  0.
          5    1    3    3  502    0 -0.12399671285E+03  0.27897170912E+01  0.72299562675E+02  0.14362334936E+03  0.41800000000E+01 0. -1.
         -5    1    3    3    0  502 -0.36600964149E+02  0.70899912823E+02 -0.12751222021E+02  0.80910408960E+02  0.41800000000E+01 0. -1.
        -11    1    4    4    0    0  0.79576029255E+02 -0.39825435513E+02 -0.41373215168E+02  0.98133341322E+02  0.00000000000E+00 0. -1.
         11    1    4    4    0    0  0.81021647747E+02 -0.33864194401E+02  0.46000297321E+02  0.99132832199E+02  0.00000000000E+00 0.  1.
</event>
<event>
 8    1  0.6832629E-009  0.1274993E+03  0.7561462E-02  0.1231214E+00
         -2   -1    0    0    0  501 -0.00000000000E+00  0.00000000000E+00  0.36072531685E+02  0.36072531685E+02  0.00000000000E+00 0. -1.
          2   -1    0    0  501    0  0.00000000000E+00 -0.00000000000E+00 -0.52223530754E+03  0.52223530754E+03  0.00000000000E+00 0.  1.
         25    2    1    2    0    0 -0.57631131205E+02 -0.47781080231E+02 -0.34428410807E+03  0.37387443030E+03  0.12508462596E+03 0.  0.
         23    2    1    2    0    0  0.57631131205E+02  0.47781080231E+02 -0.14187866778E+03  0.18443340892E+03  0.91004104541E+02 0.  0.
          5    1    3    3  502    0 -0.75628304166E+02 -0.77236156070E+02 -0.28879924020E+03  0.30839510005E+03  0.41800000000E+01 0. -1.
         -5    1    3    3    0  502  0.17997172961E+02  0.29455075839E+02 -0.55484867869E+02  0.65479330248E+02  0.41800000000E+01 0. -1.
        -11    1    4    4    0    0 -0.71093782969E+01 -0.18244083122E+02 -0.51647975569E+02  0.55234981752E+02  0.00000000000E+00 0.  1.
         11    1    4    4    0    0  0.64740509502E+02  0.66025163353E+02 -0.90230692215E+02  0.12919842717E+03  0.00000000000E+00 0. -1.
</event>
<event>
 8    1  0.6832629E-009  0.1020282E+03  0.7561462E-02  0.1276088E+00
          1   -1    0    0  501    0  0.00000000000E+00  0.00000000000E+00  0.43776224545E+03  0.43776224545E+03  0.00000000000E+00 0. -1.
         -1   -1    0    0    0  501 -0.00000000000E+00 -0.00000000000E+00 -0.41037303883E+02  0.41037303883E+02  0.00000000000E+00 0.  1.
         25    2    1    2    0    0 -0.40755267967E+02 -0.48986973123E+01  0.99204335092E+02  0.16484786867E+03  0.12509328759E+03 0.  0.
         23    2    1    2    0    0  0.40755267967E+02  0.48986973123E+01  0.29752060647E+03  0.31395168066E+03  0.91444832629E+02 0.  0.
          5    1    3    3  502    0 -0.27986778524E+02 -0.49644392466E+02  0.22067709147E+01  0.57185380241E+02  0.41800000000E+01 0.  1.
         -5    1    3    3    0  502 -0.12768489443E+02  0.44745695153E+02  0.96997564177E+02  0.10766248842E+03  0.41800000000E+01 0.  1.
        -11    1    4    4    0    0 -0.55703102601E+01 -0.37189736433E+02  0.10734842856E+03  0.11374440631E+03  0.00000000000E+00 0.  1.
         11    1    4    4    0    0  0.46325578227E+02  0.42088433745E+02  0.19017217791E+03  0.20020727436E+03  0.00000000000E+00 0. -1.
</event>
<event>
 8    1  0.6832629E-009  0.1379422E+03  0.7561462E-02  0.1216125E+00
          2   -1    0    0  501    0  0.00000000000E+00  0.00000000000E+00  0.83430495430E+03  0.83430495430E+03  0.00000000000E+00 0. -1.
         -2   -1    0    0    0  501 -0.00000000000E+00 -0.00000000000E+00 -0.38372931569E+02  0.38372931569E+02  0.00000000000E+00 0.  1.
         25    2    1    2    0    0  0.87438908707E+02  0.86614772982E+02  0.59097311073E+03  0.61647947804E+03  0.12510015020E+03 0.  0.
         23    2    1    2    0    0 -0.87438908707E+02 -0.86614772982E+02  0.20495891200E+03  0.25619840783E+03  0.92096617271E+02 0.  0.
          5    1    3    3  502    0 -0.10857890088E+02  0.30688021119E+01  0.27359388376E+03  0.27385835199E+03  0.41800000000E+01 0.  1.
         -5    1    3    3    0  502  0.98296798795E+02  0.83545970870E+02  0.31737922697E+03  0.34262112605E+03  0.41800000000E+01 0.  1.
        -11    1    4    4    0    0  0.74058220038E+01 -0.12005965973E+02  0.84581779982E+02  0.85750025793E+02  0.00000000000E+00 0. -1.
         11    1    4    4    0    0 -0.94844730711E+02 -0.74608807009E+02  0.12037713202E+03  0.17044838204E+03  0.00000000000E+00 0.  1.
</event>
<event>
 8    1  0.6832629E-009  0.7335955E+02  0.7561462E-02  0.1349028E+00
         -1   -1    0    0    0  501 -0.00000000000E+00  0.00000000000E+00  0.52239299669E+03  0.52239299669E+03  0.00000000000E+00 0.  1.
          1   -1    0    0  501    0  0.00000000000E+00 -0.00000000000E+00 -0.24858966005E+02  0.24858966005E+02  0.00000000000E+00 0. -1.
         25    2    1    2    0    0  0.16437974984E+02 -0.12615546349E+02  0.22855579211E+03  0.26137108981E+03  0.12509091673E+03 0.  0.
         23    2    1    2    0    0 -0.16437974984E+02  0.12615546349E+02  0.26897823858E+03  0.28588087289E+03  0.94600325710E+02 0.  0.
          5    1    3    3  502    0 -0.97482251684E+00  0.17230871779E+02 -0.99390970155E+01  0.20349724094E+02  0.41800000000E+01 0.  1.
         -5    1    3    3    0  502  0.17412797501E+02 -0.29846418128E+02  0.23849488912E+03  0.24102136571E+03  0.41800000000E+01 0.  1.
        -11    1    4    4    0    0 -0.22425370151E+02  0.50786678791E+02  0.12434909851E+03  0.13617959564E+03  0.00000000000E+00 0.  1.
         11    1    4    4    0    0  0.59873951666E+01 -0.38171132442E+02  0.14462914007E+03  0.14970127725E+03  0.00000000000E+00 0. -1.
</event>
<event>
 8    1  0.6832629E-009  0.1510268E+03  0.7561462E-02  0.1199217E+00
         -2   -1    0    0    0  501 -0.00000000000E+00  0.00000000000E+00  0.47108664483E+02  0.47108664483E+02  0.00000000000E+00 0.  1.
          2   -1    0    0  501    0  0.00000000000E+00 -0.00000000000E+00 -0.54310294535E+03  0.54310294535E+03  0.00000000000E+00 0. -1.
         25    2    1    2    0    0 -0.19442551582E+02  0.10304057845E+03 -0.36191911844E+03  0.39702603369E+03  0.12509536169E+03 0.  0.
         23    2    1    2    0    0  0.19442551582E+02 -0.10304057845E+03 -0.13407516243E+03  0.19318557614E+03  0.91373650631E+02 0.  0.
          5    1    3    3  502    0 -0.48711144864E+02 -0.68970923964E+01 -0.11175047761E+03  0.12217195736E+03  0.41800000000E+01 0.  1.
         -5    1    3    3    0  502  0.29268593282E+02  0.10993767085E+03 -0.25016864083E+03  0.27485407634E+03  0.41800000000E+01 0.  1.
        -11    1    4    4    0    0  0.47777236197E+02 -0.21275904970E+02 -0.56167500084E+02  0.76747094386E+02  0.00000000000E+00 0.  1.
         11    1    4    4    0    0 -0.28334684615E+02 -0.81764673483E+02 -0.77907662342E+02  0.11643848176E+03  0.00000000000E+00 0. -1.
</event>
<event>
 8    1  0.6832629E-009  0.1200190E+03  0.7561462E-02  0.1243066E+00
         -4   -1    0    0    0  501 -0.00000000000E+00  0.00000000000E+00  0.12442286562E+03  0.12442286562E+03  0.00000000000E+00 0.  1.
          4   -1    0    0  501    0  0.00000000000E+00 -0.00000000000E+00 -0.12434685110E+03  0.12434685110E+03  0.00000000000E+00 0. -1.
         25    2    1    2    0    0 -0.63458169124E+01  0.58943174142E+02  0.13512996957E+02  0.13908303647E+03  0.12508766037E+03 0.  0.
         23    2    1    2    0    0  0.63458169124E+01 -0.58943174142E+02 -0.13436982429E+02  0.10968668025E+03  0.91301961405E+02 0.  0.
          5    1    3    3  502    0 -0.11401940060E+01  0.94714266642E+02  0.29558078509E+02  0.99313869893E+02  0.41800000000E+01 0. -1.
         -5    1    3    3    0  502 -0.52056229064E+01 -0.35771092500E+02 -0.16045081552E+02  0.39769166580E+02  0.41800000000E+01 0. -1.
        -11    1    4    4    0    0 -0.38100805184E+01  0.24491186366E+02 -0.20845919841E+01  0.24873287819E+02  0.00000000000E+00 0.  1.
         11    1    4    4    0    0  0.10155897431E+02 -0.83434360509E+02 -0.11352390445E+02  0.84813392427E+02  0.00000000000E+00 0. -1.
</event>
<event>
 8    1  0.6832629E-009  0.1010595E+03  0.7561462E-02  0.1278084E+00
          4   -1    0    0  501    0  0.00000000000E+00  0.00000000000E+00  0.17948911140E+02  0.17948911140E+02  0.00000000000E+00 0. -1.
         -4   -1    0    0    0  501 -0.00000000000E+00 -0.00000000000E+00 -0.10754394246E+04  0.10754394246E+04  0.00000000000E+00 0.  1.
         25    2    1    2    0    0 -0.15756487250E+02  0.84977978947E+02 -0.66937136784E+03  0.68642162453E+03  0.12508834776E+03 0.  0.
         23    2    1    2    0    0  0.15756487250E+02 -0.84977978947E+02 -0.38811914566E+03  0.40696671125E+03  0.86694342602E+02 0.  0.
          5    1    3    3  502    0 -0.19397358399E+02  0.35245719777E+02 -0.59737764888E+03  0.59874539335E+03  0.41800000000E+01 0. -1.
         -5    1    3    3    0  502  0.36408711488E+01  0.49732259170E+02 -0.71993718964E+02  0.87676231187E+02  0.41800000000E+01 0. -1.
        -11    1    4    4    0    0  0.15144274455E+02 -0.97714052487E+02 -0.37791125347E+03  0.39063320468E+03  0.00000000000E+00 0.  1.
         11    1    4    4    0    0  0.61221279534E+00  0.12736073539E+02 -0.10207892191E+02  0.16333506564E+02  0.00000000000E+00 0. -1.
</event>
<event>
 8    1  0.6832629E-009  0.8626110E+02  0.7561462E-02  0.1312167E+00
         -2   -1    0    0    0  501 -0.00000000000E+00  0.00000000000E+00  0.82784944064E+02  0.82784944064E+02  0.00000000000E+00 0.  1.
          2   -1    0    0  501    0  0.00000000000E+00 -0.00000000000E+00 -0.19966301167E+03  0.19966301167E+03  0.00000000000E+00 0. -1.
         25    2    1    2    0    0 -0.17171966324E+02 -0.31333670036E+02 -0.95121845811E+00  0.13010059609E+03  0.12509430436E+03 0.  0.
         23    2    1    2    0    0  0.17171966324E+02  0.31333670036E+02 -0.11592684915E+03  0.15234735964E+03  0.92162944456E+02 0.  0.
          5    1    3    3  502    0 -0.34225584158E+02 -0.60363501677E+02  0.37365296549E+02  0.78922624968E+02  0.41800000000E+01 0.  1.
         -5    1    3    3    0  502  0.17053617834E+02  0.29029831641E+02 -0.38316515007E+02  0.51177971126E+02  0.41800000000E+01 0.  1.
        -11    1    4    4    0    0 -0.27657674183E+01 -0.16775229099E+02 -0.94529320876E+02  0.96046084179E+02  0.00000000000E+00 0. -1.
         11    1    4    4    0    0  0.19937733742E+02  0.48108899135E+02 -0.21397528277E+02  0.56301275466E+02  0.00000000000E+00 0.  1.
</event>
<event>
 8    1  0.6832629E-009  0.7859229E+02  0.7561462E-02  0.1333094E+00
         -1   -1    0    0    0  501 -0.00000000000E+00  0.00000000000E+00  0.14756225007E+02  0.14756225007E+02  0.00000000000E+00 0.  1.
          1   -1    0    0  501    0  0.00000000000E+00 -0.00000000000E+00 -0.19798391862E+04  0.19798391862E+04  0.00000000000E+00 0. -1.
         25    2    1    2    0    0 -0.15846367828E+01 -0.46855914093E+02 -0.17694180754E+04  0.17744539383E+04  0.12509382809E+03 0.  0.
         23    2    1    2    0    0  0.15846367828E+01  0.46855914093E+02 -0.19566488576E+03  0.22014147288E+03  0.89328230712E+02 0.  0.
          5    1    3    3  502    0  0.25664234321E+01  0.78453729607E+01 -0.14696353130E+04  0.14696644386E+04  0.41800000000E+01 0. -1.
         -5    1    3    3    0  502 -0.41510602149E+01 -0.54701287054E+02 -0.29978276239E+03  0.30478949970E+03  0.41800000000E+01 0. -1.
        -11    1    4    4    0    0  0.35101180236E+02 -0.24947523494E+00 -0.35771383255E+02  0.50117331850E+02  0.00000000000E+00 0.  1.
         11    1    4    4    0    0 -0.33516543453E+02  0.47105389328E+02 -0.15989350251E+03  0.17002414103E+03  0.00000000000E+00 0. -1.
</event>
<event>
 8    1  0.6832629E-009  0.1093211E+03  0.7561462E-02  0.1261832E+00
         -2   -1    0    0    0  501 -0.00000000000E+00  0.00000000000E+00  0.26035349432E+02  0.26035349432E+02  0.00000000000E+00 0. -1.
          2   -1    0    0  501    0  0.00000000000E+00 -0.00000000000E+00 -0.64742112242E+03  0.64742112242E+03  0.00000000000E+00 0.  1.
         25    2    1    2    0    0 -0.56863990435E+02  0.42008381906E+02 -0.35483753195E+03  0.38282638226E+03  0.12509255502E+03 0.  0.
         23    2    1    2    0    0  0.56863990435E+02 -0.42008381906E+02 -0.26654824104E+03  0.29063008958E+03  0.91758741343E+02 0.  0.
          5    1    3    3  502    0 -0.95693858670E+01  0.78551396666E+02 -0.24779495800E+03  0.26015708461E+03  0.41800000000E+01 0. -1.
         -5    1    3    3    0  502 -0.47294604568E+02 -0.36543014760E+02 -0.10704257395E+03  0.12266929765E+03  0.41800000000E+01 0. -1.
        -11    1    4    4    0    0  0.10114337538E+02 -0.29363489120E+02 -0.15049490986E+02  0.34510889529E+02  0.00000000000E+00 0. -1.
         11    1    4    4    0    0  0.46749652897E+02 -0.12644892786E+02 -0.25149875005E+03  0.25611920006E+03  0.00000000000E+00 0.  1.
</event>
<event>
 8    1  0.6832629E-009  0.1498666E+03  0.7561462E-02  0.1200637E+00
          1   -1    0    0  501    0  0.00000000000E+00  0.00000000000E+00  0.15713806868E+03  0.15713806868E+03  0.00000000000E+00 0. -1.
         -1   -1    0    0    0  501 -0.00000000000E+00 -0.00000000000E+00 -0.29700293476E+03  0.29700293476E+03  0.00000000000E+00 0.  1.
         25    2    1    2    0    0  0.58762377393E+02 -0.10104492677E+03  0.81796757828E+02  0.18973935053E+03  0.12508883773E+03 0.  0.
         23    2    1    2    0    0 -0.58762377393E+02  0.10104492677E+03 -0.22166162391E+03  0.26440165291E+03  0.84328312730E+02 0.  0.
          5    1    3    3  502    0 -0.67835528409E+01 -0.10486219436E+03  0.55260047660E+02  0.11879916524E+03  0.41800000000E+01 0. -1.
         -5    1    3    3    0  502  0.65545930234E+02  0.38172675911E+01  0.26536710167E+02  0.70940185287E+02  0.41800000000E+01 0. -1.
        -11    1    4    4    0    0 -0.51790701035E+02  0.35326619517E+02 -0.16785579366E+03  0.17918095386E+03  0.00000000000E+00 0.  1.
         11    1    4    4    0    0 -0.69716763577E+01  0.65718307248E+02 -0.53805830247E+02  0.85220699055E+02  0.00000000000E+00 0. -1.
</event>
<event>
 8    1  0.6832629E-009  0.1011293E+03  0.7561462E-02  0.1277939E+00
          2   -1    0    0  501    0  0.00000000000E+00  0.00000000000E+00  0.48893394388E+02  0.48893394388E+02  0.00000000000E+00 0. -1.
         -2   -1    0    0    0  501 -0.00000000000E+00 -0.00000000000E+00 -0.30652976565E+03  0.30652976565E+03  0.00000000000E+00 0.  1.
         25    2    1    2    0    0  0.37256015636E+02 -0.14689863800E+02 -0.20292181318E+03  0.24171328703E+03  0.12507696856E+03 0.  0.
         23    2    1    2    0    0 -0.37256015636E+02  0.14689863800E+02 -0.54714558088E+02  0.11370987301E+03  0.91282252131E+02 0.  0.
          5    1    3    3  502    0  0.77578577376E+02 -0.27173125335E+02 -0.94659841840E+02  0.12543832136E+03  0.41800000000E+01 0. -1.
         -5    1    3    3    0  502 -0.40322561740E+02  0.12483261535E+02 -0.10826197134E+03  0.11627496567E+03  0.41800000000E+01 0. -1.
        -11    1    4    4    0    0 -0.20018508316E+02 -0.26309732330E+02  0.10576004616E+02  0.34710150736E+02  0.00000000000E+00 0. -1.
         11    1    4    4    0    0 -0.17237507319E+02  0.40999596130E+02 -0.65290562704E+02  0.78999722276E+02  0.00000000000E+00 0.  1.
</event>
<event>
 8    1  0.6832629E-009  0.1341081E+03  0.7561462E-02  0.1221484E+00
         -2   -1    0    0    0  501 -0.00000000000E+00  0.00000000000E+00  0.79892153904E+02  0.79892153904E+02  0.00000000000E+00 0.  1.
          2   -1    0    0  501    0  0.00000000000E+00 -0.00000000000E+00 -0.32313549405E+03  0.32313549405E+03  0.00000000000E+00 0. -1.
         25    2    1    2    0    0  0.10012868444E+03 -0.32472766227E+02 -0.19295674566E+03  0.25290414864E+03  0.12509184110E+03 0.  0.
         23    2    1    2    0    0 -0.10012868444E+03  0.32472766227E+02 -0.50286594488E+02  0.15012349932E+03  0.94488567916E+02 0.  0.
          5    1    3    3  502    0  0.12934549878E+02  0.31286674668E+02 -0.11412299534E+03  0.11911208611E+03  0.41800000000E+01 0. -1.
         -5    1    3    3    0  502  0.87194134566E+02 -0.63759440895E+02 -0.78833750314E+02  0.13379206252E+03  0.41800000000E+01 0. -1.
        -11    1    4    4    0    0 -0.63095209050E+02 -0.15914844156E+02 -0.59891575499E+02  0.88438048855E+02  0.00000000000E+00 0. -1.
         11    1    4    4    0    0 -0.37033475394E+02  0.48387610383E+02  0.96049810112E+01  0.61685450461E+02  0.00000000000E+00 0.  1.
</event>
<event>
 8    1  0.6832629E-009  0.6839717E+02  0.7561462E-02  0.1365630E+00
         -2   -1    0    0    0  501 -0.00000000000E+00  0.00000000000E+00  0.60812634263E+02  0.60812634263E+02  0.00000000000E+00 0.  1.
          2   -1    0    0  501    0  0.00000000000E+00 -0.00000000000E+00 -0.25474007860E+03  0.25474007860E+03  0.00000000000E+00 0. -1.
         25    2    1    2    0    0  0.32488087645E+02  0.54660074059E+02 -0.10853489066E+03  0.17739912038E+03  0.12508967138E+03 0.  0.
         23    2    1    2    0    0 -0.32488087645E+02 -0.54660074059E+02 -0.85392553684E+02  0.13815359249E+03  0.88041622866E+02 0.  0.
          5    1    3    3  502    0  0.79960767552E+01  0.27841224987E+02 -0.13117304695E+03  0.13439833221E+03  0.41800000000E+01 0.  1.
         -5    1    3    3    0  502  0.24492010890E+02  0.26818849072E+02  0.22638156300E+02  0.43000788174E+02  0.41800000000E+01 0.  1.
        -11    1    4    4    0    0 -0.29321510701E+02 -0.18500139997E+02 -0.94560058443E+02  0.10071549445E+03  0.00000000000E+00 0. -1.
         11    1    4    4    0    0 -0.31665769440E+01 -0.36159934062E+02  0.91675047592E+01  0.37438098034E+02  0.00000000000E+00 0.  1.
</event>
<event>
 8    1  0.6832629E-009  0.2005940E+03  0.7561462E-02  0.1149239E+00
         -3   -1    0    0    0  501 -0.00000000000E+00  0.00000000000E+00  0.71491501017E+03  0.71491501017E+03  0.00000000000E+00 0.  1.
          3   -1    0    0  501    0  0.00000000000E+00 -0.00000000000E+00 -0.79350771807E+02  0.79350771807E+02  0.00000000000E+00 0. -1.
         25    2    1    2    0    0 -0.28842344782E+02  0.19369961271E+03  0.19571614546E+03  0.30381563731E+03  0.12509081125E+03 0.  0.
         23    2    1    2    0    0  0.28842344782E+02 -0.19369961271E+03  0.43984809290E+03  0.49045014467E+03  0.93400100444E+02 0.  0.
          5    1    3    3  502    0  0.15645806588E+02  0.10197088156E+03  0.27124623605E+02  0.10675237494E+03  0.41800000000E+01 0. -1.
         -5    1    3    3    0  502 -0.44488151370E+02  0.91728731147E+02  0.16859152186E+03  0.19706326236E+03  0.41800000000E+01 0. -1.
        -11    1    4    4    0    0  0.27883386051E+02 -0.17739917696E+03  0.43875827375E+03  0.47408519697E+03  0.00000000000E+00 0.  1.
         11    1    4    4    0    0  0.95895873096E+00 -0.16300435753E+02  0.10898191553E+01  0.16364947704E+02  0.00000000000E+00 0. -1.
</event>
<event>
 8    1  0.6832629E-009  0.1089554E+03  0.7561462E-02  0.1262517E+00
          2   -1    0    0  501    0  0.00000000000E+00  0.00000000000E+00  0.65547860312E+03  0.65547860312E+03  0.00000000000E+00 0. -1.
         -2   -1    0    0    0  501 -0.00000000000E+00 -0.00000000000E+00 -0.29802517187E+02  0.29802517187E+02  0.00000000000E+00 0.  1.
         25    2    1    2    0    0 -0.76846390240E+02 -0.34550077596E+02  0.39105959480E+03  0.41913487104E+03  0.12508939957E+03 0.  0.
         23    2    1    2    0    0  0.76846390240E+02  0.34550077596E+02  0.23461649114E+03  0.26614624927E+03  0.93219378519E+02 0.  0.
          5    1    3    3  502    0 -0.69321928920E+02 -0.46789467937E+02  0.39490485301E+03  0.40368564437E+03  0.41800000000E+01 0. -1.
         -5    1    3    3    0  502 -0.75244613202E+01  0.12239390340E+02 -0.38452582116E+01  0.15449226672E+02  0.41800000000E+01 0. -1.
        -11    1    4    4    0    0  0.28497008412E+02  0.58634457408E+02  0.85301314523E+02  0.10736104202E+03  0.00000000000E+00 0.  1.
         11    1    4    4    0    0  0.48349381828E+02 -0.24084379812E+02  0.14931517662E+03  0.15878520725E+03  0.00000000000E+00 0. -1.
</event>
<event>
 8    1  0.6832629E-009  0.6940293E+02  0.7561462E-02  0.1362135E+00
         -2   -1    0    0    0  501 -0.00000000000E+00  0.00000000000E+00  0.38375802355E+02  0.38375802355E+02  0.00000000000E+00 0.  1.
          2   -1    0    0  501    0  0.00000000000E+00 -0.00000000000E+00 -0.35528079272E+03  0.35528079272E+03  0.00000000000E+00 0. -1.
         25    2    1    2    0    0 -0.21044659497E+02  0.30001188232E+02 -0.20657986665E+03  0.24426512846E+03  0.12508901905E+03 0.  0.
         23    2    1    2    0    0  0.21044659497E+02 -0.30001188232E+02 -0.11032512371E+03  0.14939146661E+03  0.93825520977E+02 0.  0.
          5    1    3    3  502    0 -0.20069323995E+02  0.41178219889E+02 -0.22087753902E+03  0.22561645153E+03  0.41800000000E+01 0. -1.
         -5    1    3    3    0  502 -0.97533550239E+00 -0.11177031656E+02  0.14297672367E+02  0.18648676927E+02  0.41800000000E+01 0. -1.
        -11    1    4    4    0    0 -0.19991429605E+02  0.11005961671E+02  0.20628011268E+01  0.22913829851E+02  0.00000000000E+00 0.  1.
         11    1    4    4    0    0  0.41036089102E+02 -0.41007149903E+02 -0.11238792484E+03  0.12647763676E+03  0.00000000000E+00 0. -1.
</event>
<event>
 8    1  0.6832629E-009  0.1074452E+03  0.7561462E-02  0.1265375E+00
         -4   -1    0    0    0  501 -0.00000000000E+00  0.00000000000E+00  0.48244711200E+03  0.48244711200E+03  0.00000000000E+00 0.  1.
          4   -1    0    0  501    0  0.00000000000E+00 -0.00000000000E+00 -0.26708969550E+02  0.26708969550E+02  0.00000000000E+00 0. -1.
         25    2    1    2    0    0 -0.25272052435E+02 -0.14937883515E+02  0.29732628432E+03  0.32390120268E+03  0.12508897932E+03 0.  0.
         23    2    1    2    0    0  0.25272052435E+02  0.14937883515E+02  0.15841185813E+03  0.18525487887E+03  0.91450731834E+02 0.  0.
          5    1    3    3  502    0  0.13689484948E+02  0.46791890495E+02  0.17180311942E+03  0.17863557109E+03  0.41800000000E+01 0.  1.
         -5    1    3    3    0  502 -0.38961537383E+02 -0.61729774010E+02  0.12552316490E+03  0.14526563159E+03  0.41800000000E+01 0.  1.
        -11    1    4    4    0    0 -0.14374968185E+02 -0.29786754391E+02  0.35132180060E+02  0.48251015774E+02  0.00000000000E+00 0.  1.
         11    1    4    4    0    0  0.39647020621E+02  0.44724637906E+02  0.12327967807E+03  0.13700386310E+03  0.00000000000E+00 0. -1.
</event>
<event>
 8    1  0.6832629E-009  0.1131751E+03  0.7561462E-02  0.1254801E+00
          2   -1    0    0  501    0  0.00000000000E+00  0.00000000000E+00  0.71045312646E+03  0.71045312646E+03  0.00000000000E+00 0. -1.
         -2   -1    0    0    0  501 -0.00000000000E+00 -0.00000000000E+00 -0.19716561084E+02  0.19716561084E+02  0.00000000000E+00 0.  1.
         25    2    1    2    0    0 -0.30933672929E+02 -0.14238752870E+02  0.36452287652E+03  0.38689027136E+03  0.12509004900E+03 0.  0.
         23    2    1    2    0    0  0.30933672929E+02  0.14238752870E+02  0.32621368886E+03  0.34327941619E+03  0.10132005022E+03 0.  0.
          5    1    3    3  502    0 -0.74565804952E+02 -0.27989461262E+01  0.29174765945E+03  0.30116783122E+03  0.41800000000E+01 0. -1.
         -5    1    3    3    0  502  0.43632132023E+02 -0.11439806744E+02  0.72775217072E+02  0.85722440137E+02  0.41800000000E+01 0. -1.
        -11    1    4    4    0    0  0.28135469393E+02 -0.41701130885E+02  0.17219949397E+03  0.17939691937E+03  0.00000000000E+00 0.  1.
         11    1    4    4    0    0  0.27982035359E+01  0.55939883755E+02  0.15401419489E+03  0.16388249682E+03  0.00000000000E+00 0. -1.
</event>
<event>
 8    1  0.6832629E-009  0.2401154E+03  0.7561462E-02  0.1119716E+00
          1   -1    0    0  501    0  0.00000000000E+00  0.00000000000E+00  0.16173209933E+03  0.16173209933E+03  0.00000000000E+00 0. -1.
         -1   -1    0    0    0  501 -0.00000000000E+00 -0.00000000000E+00 -0.39176277396E+03  0.39176277396E+03  0.00000000000E+00 0.  1.
         25    2    1    2    0    0  0.19763847501E+03  0.10180228889E+03 -0.16582478538E+03  0.30425354677E+03  0.12509072086E+03 0.  0.
         23    2    1    2    0    0 -0.19763847501E+03 -0.10180228889E+03 -0.64205889246E+02  0.24924132652E+03  0.92596813146E+02 0.  0.
          5    1    3    3  502    0 -0.44717479748E+01 -0.16107331010E+02 -0.27354949315E+02  0.32329681319E+02  0.41800000000E+01 0.  1.
         -5    1    3    3    0  502  0.20211022298E+03  0.11790961990E+03 -0.13846983606E+03  0.27192386545E+03  0.41800000000E+01 0.  1.
        -11    1    4    4    0    0 -0.83276129400E+02 -0.73706571499E+02  0.73343732075E+01  0.11145117963E+03  0.00000000000E+00 0. -1.
         11    1    4    4    0    0 -0.11436234561E+03 -0.28095717390E+02 -0.71540262454E+02  0.13779014689E+03  0.00000000000E+00 0.  1.
</event>
<event>
 8    1  0.6832629E-009  0.6457886E+02  0.7561462E-02  0.1379563E+00
         -2   -1    0    0    0  501 -0.00000000000E+00  0.00000000000E+00  0.10936494904E+02  0.10936494904E+02  0.00000000000E+00 0.  1.
          2   -1    0    0  501    0  0.00000000000E+00 -0.00000000000E+00 -0.12932172288E+04  0.12932172288E+04  0.00000000000E+00 0. -1.
         25    2    1    2    0    0 -0.34661322454E+02 -0.12507079894E+02 -0.90217963744E+03  0.91155545002E+03  0.12508959159E+03 0.  0.
         23    2    1    2    0    0  0.34661322454E+02  0.12507079894E+02 -0.38010109648E+03  0.39259827371E+03  0.91097347120E+02 0.  0.
          5    1    3    3  502    0 -0.24401363871E+02 -0.99929668000E+01 -0.89948327740E+03  0.89987939451E+03  0.41800000000E+01 0. -1.
         -5    1    3    3    0  502 -0.10259958583E+02 -0.25141130942E+01 -0.26963600423E+01  0.11676055509E+02  0.41800000000E+01 0. -1.
        -11    1    4    4    0    0  0.10851833205E+02  0.47528309285E+02 -0.12809019201E+03  0.13705400307E+03  0.00000000000E+00 0. -1.
         11    1    4    4    0    0  0.23809489249E+02 -0.35021229391E+02 -0.25201090447E+03  0.25554427064E+03  0.00000000000E+00 0.  1.
</event>
<event>
 8    1  0.6832629E-009  0.1236290E+03  0.7561462E-02  0.1237228E+00
          2   -1    0    0  501    0  0.00000000000E+00  0.00000000000E+00  0.22867997322E+03  0.22867997322E+03  0.00000000000E+00 0. -1.
         -2   -1    0    0    0  501 -0.00000000000E+00 -0.00000000000E+00 -0.10029374361E+03  0.10029374361E+03  0.00000000000E+00 0.  1.
         25    2    1    2    0    0 -0.82958980692E+02  0.55378221696E+02  0.10432052801E+03  0.19099589868E+03  0.12509085031E+03 0.  0.
         23    2    1    2    0    0  0.82958980692E+02 -0.55378221696E+02  0.24065701601E+02  0.13797781816E+03  0.92248470959E+02 0.  0.
          5    1    3    3  502    0 -0.93376931501E+02  0.43344881907E+02  0.19836062008E+02  0.10492364786E+03  0.41800000000E+01 0.  1.
         -5    1    3    3    0  502  0.10417950809E+02  0.12033339789E+02  0.84484465998E+02  0.86072250816E+02  0.41800000000E+01 0.  1.
        -11    1    4    4    0    0  0.81543675205E+02 -0.97550019198E+01 -0.75217433129E+01  0.82468828359E+02  0.00000000000E+00 0.  1.
         11    1    4    4    0    0  0.14153054874E+01 -0.45623219776E+02  0.31587444914E+02  0.55508989799E+02  0.00000000000E+00 0. -1.
</event>
<event>
 8    1  0.6832629E-009  0.1124710E+03  0.7561462E-02  0.1256061E+00
         -1   -1    0    0    0  501 -0.00000000000E+00  0.00000000000E+00  0.46139670583E+02  0.46139670583E+02  0.00000000000E+00 0.  1.
          1   -1    0    0  501    0  0.00000000000E+00 -0.00000000000E+00 -0.44744531152E+03  0.44744531152E+03  0.00000000000E+00 0. -1.
         25    2    1    2    0    0 -0.75160963229E+01 -0.93202921588E+02 -0.17174683226E+03  0.23213789140E+03  0.12509096665E+03 0.  0.
         23    2    1    2    0    0  0.75160963229E+01  0.93202921588E+02 -0.22955880868E+03  0.26144709070E+03  0.83150816572E+02 0.  0.
          5    1    3    3  502    0  0.14261751237E+02 -0.18240509121E+02  0.16210419970E+02  0.28572081425E+02  0.41800000000E+01 0.  1.
         -5    1    3    3    0  502 -0.21777847560E+02 -0.74962412467E+02 -0.18795725223E+03  0.20356580998E+03  0.41800000000E+01 0.  1.
        -11    1    4    4    0    0  0.34365708530E+02  0.89830175465E+02 -0.15835897829E+03  0.18527824576E+03  0.00000000000E+00 0.  1.
         11    1    4    4    0    0 -0.26849612207E+02  0.33727461234E+01 -0.71199830385E+02  0.76168844937E+02  0.00000000000E+00 0. -1.
</event>
<event>
 8    1  0.6832629E-009  0.1314506E+03  0.7561462E-02  0.1225319E+00
         -1   -1    0    0    0  501 -0.00000000000E+00  0.00000000000E+00  0.70291206201E+02  0.70291206201E+02  0.00000000000E+00 0.  1.
          1   -1    0    0  501    0  0.00000000000E+00 -0.00000000000E+00 -0.42820908038E+03  0.42820908038E+03  0.00000000000E+00 0. -1.
         25    2    1    2    0    0  0.78493081387E+02  0.13899438042E+02 -0.31277716333E+02  0.15159112846E+03  0.12508883438E+03 0.  0.
         23    2    1    2    0    0 -0.78493081387E+02 -0.13899438042E+02 -0.32664015784E+03  0.34690915811E+03  0.85427238417E+02 0.  0.
          5    1    3    3  502    0  0.93062316324E+01 -0.50893737536E+02 -0.72218542787E+00  0.51911197438E+02  0.41800000000E+01 0. -1.
         -5    1    3    3    0  502  0.69186849755E+02  0.64793175579E+02 -0.30555530905E+02  0.99679931027E+02  0.41800000000E+01 0. -1.
        -11    1    4    4    0    0 -0.35080268443E+02  0.35800695098E+02 -0.16044253652E+03  0.16808962647E+03  0.00000000000E+00 0.  1.
         11    1    4    4    0    0 -0.43412812944E+02 -0.49700133141E+02 -0.16619762132E+03  0.17881953164E+03  0.00000000000E+00 0. -1.
</event>
<event>
 8    1  0.6832629E-009  0.1353686E+03  0.7561462E-02  0.1219700E+00
         -1   -1    0    0    0  501 -0.00000000000E+00  0.00000000000E+00  0.11714963115E+03  0.11714963115E+03  0.00000000000E+00 0.  1.
          1   -1    0    0  501    0  0.00000000000E+00 -0.00000000000E+00 -0.20863006734E+03  0.20863006734E+03  0.00000000000E+00 0. -1.
         25    2    1    2    0    0 -0.10918785722E+03 -0.11891578079E+01 -0.20870686195E+02  0.16735091735E+03  0.12508933502E+03 0.  0.
         23    2    1    2    0    0  0.10918785722E+03  0.11891578079E+01 -0.70609749993E+02  0.15842878113E+03  0.90501600182E+02 0.  0.
          5    1    3    3  502    0 -0.36467296594E+02  0.32901891440E+02 -0.60215594753E+02  0.77818946489E+02  0.41800000000E+01 0.  1.
         -5    1    3    3    0  502 -0.72720560630E+02 -0.34091049248E+02  0.39344908558E+02  0.89531970863E+02  0.41800000000E+01 0.  1.
        -11    1    4    4    0    0 -0.14126081499E+02 -0.98374625575E+01 -0.33658600209E+01  0.17539978956E+02  0.00000000000E+00 0.  1.
         11    1    4    4    0    0  0.12331393872E+03  0.11026620365E+02 -0.67243889972E+02  0.14088880218E+03  0.00000000000E+00 0. -1.
</event>
<event>
 8    1  0.6832629E-009  0.6607100E+02  0.7561462E-02  0.1373988E+00
         -1   -1    0    0    0  501 -0.00000000000E+00  0.00000000000E+00  0.87156165792E+02  0.87156165792E+02  0.00000000000E+00 0.  1.
          1   -1    0    0  501    0  0.00000000000E+00 -0.00000000000E+00 -0.18682512450E+03  0.18682512450E+03  0.00000000000E+00 0. -1.
         25    2    1    2    0    0  0.10733889986E+02  0.24211122091E+02 -0.12072123293E+03  0.17584806245E+03  0.12509008818E+03 0.  0.
         23    2    1    2    0    0 -0.10733889986E+02 -0.24211122091E+02  0.21052274222E+02  0.98133227837E+02  0.92116976333E+02 0.  0.
          5    1    3    3  502    0 -0.26386914753E+02  0.23500265458E+02  0.12325143348E+02  0.37655189621E+02  0.41800000000E+01 0. -1.
         -5    1    3    3    0  502  0.37120804739E+02  0.71085663305E+00 -0.13304637628E+03  0.13819287283E+03  0.41800000000E+01 0. -1.
        -11    1    4    4    0    0  0.46875783049E+01  0.15714343103E+02  0.45831879239E+02  0.48677254689E+02  0.00000000000E+00 0.  1.
         11    1    4    4    0    0 -0.15421468291E+02 -0.39925465194E+02 -0.24779605017E+02  0.49455973148E+02  0.00000000000E+00 0. -1.
</event>
<event>
 8    1  0.6832629E-009  0.1148391E+03  0.7561462E-02  0.1251862E+00
          3   -1    0    0  501    0  0.00000000000E+00  0.00000000000E+00  0.42648653390E+02  0.42648653390E+02  0.00000000000E+00 0. -1.
         -3   -1    0    0    0  501 -0.00000000000E+00 -0.00000000000E+00 -0.33281594536E+03  0.33281594536E+03  0.00000000000E+00 0.  1.
         25    2    1    2    0    0 -0.23598715565E+02 -0.37507988895E+02 -0.12827035476E+03  0.18457304708E+03  0.12510066822E+03 0.  0.
         23    2    1    2    0    0  0.23598715565E+02  0.37507988895E+02 -0.16189693721E+03  0.19089155167E+03  0.90913242239E+02 0.  0.
          5    1    3    3  502    0  0.43432247774E+02 -0.46204211435E+02 -0.75716589663E+02  0.98851725585E+02  0.41800000000E+01 0. -1.
         -5    1    3    3    0  502 -0.67030963339E+02  0.86962225400E+01 -0.52553765099E+02  0.85721321494E+02  0.41800000000E+01 0. -1.
        -11    1    4    4    0    0 -0.32253803953E+02  0.25886265132E+02 -0.46959102132E+02  0.62574466558E+02  0.00000000000E+00 0.  1.
         11    1    4    4    0    0  0.55852519518E+02  0.11621723763E+02 -0.11493783507E+03  0.12831708511E+03  0.00000000000E+00 0. -1.
</event>
<event>
 8    1  0.6832629E-009  0.2189084E+03  0.7561462E-02  0.1134700E+00
         -3   -1    0    0    0  501 -0.00000000000E+00  0.00000000000E+00  0.27662667535E+03  0.27662667535E+03  0.00000000000E+00 0.  1.
          3   -1    0    0  501    0  0.00000000000E+00 -0.00000000000E+00 -0.19558280039E+03  0.19558280039E+03  0.00000000000E+00 0. -1.
         25    2    1    2    0    0  0.41428101259E+02 -0.19442607373E+03  0.93761524823E+02  0.25289351378E+03  0.12508445169E+03 0.  0.
         23    2    1    2    0    0 -0.41428101259E+02  0.19442607373E+03 -0.12717649859E+02  0.21931596196E+03  0.91760377239E+02 0.  0.
          5    1    3    3  502    0  0.33807226281E+02 -0.21045820193E+03  0.73209046391E+02  0.22541654816E+03  0.41800000000E+01 0.  1.
         -5    1    3    3    0  502  0.76208749780E+01  0.16032128204E+02  0.20552478432E+02  0.27476965624E+02  0.41800000000E+01 0.  1.
        -11    1    4    4    0    0 -0.49861386636E+02  0.10161273999E+03  0.29553628870E+02  0.11698172415E+03  0.00000000000E+00 0.  1.
         11    1    4    4    0    0  0.84332853775E+01  0.92813333743E+02 -0.42271278729E+02  0.10233423781E+03  0.00000000000E+00 0. -1.
</event>
<event>
 8    1  0.6832629E-009  0.1374709E+03  0.7561462E-02  0.1216773E+00
         -4   -1    0    0    0  501 -0.00000000000E+00  0.00000000000E+00  0.13120588438E+03  0.13120588438E+03  0.00000000000E+00 0.  1.
          4   -1    0    0  501    0  0.00000000000E+00 -0.00000000000E+00 -0.16645533942E+03  0.16645533942E+03  0.00000000000E+00 0. -1.
         25    2    1    2    0    0  0.14980889000E+02 -0.89642475125E+02 -0.61219642170E+02  0.16629935408E+03  0.12508968861E+03 0.  0.
         23    2    1    2    0    0 -0.14980889000E+02  0.89642475125E+02  0.25970187131E+02  0.13136186973E+03  0.91221104016E+02 0.  0.
          5    1    3    3  502    0  0.76027277098E+01 -0.11717131401E+03 -0.25175478211E+02  0.12015904210E+03  0.41800000000E+01 0. -1.
         -5    1    3    3    0  502  0.73781612903E+01  0.27528838880E+02 -0.36044163959E+02  0.46140311980E+02  0.41800000000E+01 0. -1.
        -11    1    4    4    0    0  0.17189859840E+02  0.94551336424E+02  0.21902353211E+02  0.98565509064E+02  0.00000000000E+00 0.  1.
         11    1    4    4    0    0 -0.32170748840E+02 -0.49088612993E+01  0.40678339203E+01  0.32796360667E+02  0.00000000000E+00 0. -1.
</event>
<event>
 8    1  0.6832629E-009  0.1328312E+03  0.7561462E-02  0.1223314E+00
          1   -1    0    0  501    0  0.00000000000E+00  0.00000000000E+00  0.90521530471E+03  0.90521530471E+03  0.00000000000E+00 0. -1.
         -1   -1    0    0    0  501 -0.00000000000E+00 -0.00000000000E+00 -0.34381322592E+02  0.34381322592E+02  0.00000000000E+00 0.  1.
         25    2    1    2    0    0 -0.44571363822E+02 -0.10224539795E+03  0.24018638681E+03  0.29287794713E+03  0.12508902282E+03 0.  0.
         23    2    1    2    0    0  0.44571363822E+02  0.10224539795E+03  0.63064759531E+03  0.64671868018E+03  0.89932941377E+02 0.  0.
          5    1    3    3  502    0 -0.12860275294E+02 -0.85663992291E+02  0.24173079993E+03  0.25681697430E+03  0.41800000000E+01 0. -1.
         -5    1    3    3    0  502 -0.31711088528E+02 -0.16581405655E+02 -0.15444131194E+01  0.36060972824E+02  0.41800000000E+01 0. -1.
        -11    1    4    4    0    0 -0.42324686392E+01  0.93173848302E+02  0.38901931914E+03  0.40004413564E+03  0.00000000000E+00 0.  1.
         11    1    4    4    0    0  0.48803832461E+02  0.90715496441E+01  0.24162827618E+03  0.24667454454E+03  0.00000000000E+00 0. -1.
</event>
<event>
 8    1  0.6832629E-009  0.1454424E+03  0.7561462E-02  0.1206188E+00
          2   -1    0    0  501    0  0.00000000000E+00  0.00000000000E+00  0.15383748950E+04  0.15383748950E+04  0.00000000000E+00 0.  1.
         -2   -1    0    0    0  501 -0.00000000000E+00 -0.00000000000E+00 -0.13848781574E+02  0.13848781574E+02  0.00000000000E+00 0. -1.
         25    2    1    2    0    0 -0.44127971548E+02  0.87346441043E+02  0.80621582083E+03  0.82171096715E+03  0.12509310593E+03 0.  0.
         23    2    1    2    0    0  0.44127971548E+02 -0.87346441043E+02  0.71831029263E+03  0.73051270945E+03  0.90013685274E+02 0.  0.
          5    1    3    3  502    0  0.32908056360E+02  0.72985947419E+02  0.38794312164E+03  0.39614041288E+03  0.41800000000E+01 0.  1.
         -5    1    3    3    0  502 -0.77036027908E+02  0.14360493624E+02  0.41827269919E+03  0.42557055427E+03  0.41800000000E+01 0.  1.
        -11    1    4    4    0    0  0.26383835344E+02  0.13643441099E+02  0.13165613219E+03  0.13496513400E+03  0.00000000000E+00 0. -1.
         11    1    4    4    0    0  0.17744136204E+02 -0.10098988214E+03  0.58665416044E+03  0.59554757545E+03  0.00000000000E+00 0.  1.
</event>
<event>
 8    1  0.6832629E-009  0.1090242E+03  0.7561462E-02  0.1262388E+00
          1   -1    0    0  501    0  0.00000000000E+00  0.00000000000E+00  0.89150780967E+03  0.89150780967E+03  0.00000000000E+00 0. -1.
         -1   -1    0    0    0  501 -0.00000000000E+00 -0.00000000000E+00 -0.18944447918E+02  0.18944447918E+02  0.00000000000E+00 0.  1.
         25    2    1    2    0    0  0.16507395556E+02 -0.45686127526E+02  0.67425627393E+03  0.68747788301E+03  0.12507837681E+03 0.  0.
         23    2    1    2    0    0 -0.16507395556E+02  0.45686127526E+02  0.19830708783E+03  0.22297437458E+03  0.89622286738E+02 0.  0.
          5    1    3    3  502    0 -0.32755838757E+02  0.27463819448E+02  0.15835543661E+03  0.16407657680E+03  0.41800000000E+01 0. -1.
         -5    1    3    3    0  502  0.49263234313E+02 -0.73149946974E+02  0.51590083732E+03  0.52340130621E+03  0.41800000000E+01 0. -1.
        -11    1    4    4    0    0  0.19206154914E+02  0.47307463057E+02  0.54045770388E+02  0.74349295520E+02  0.00000000000E+00 0.  1.
         11    1    4    4    0    0 -0.35713550469E+02 -0.16213355313E+01  0.14426131744E+03  0.14862507906E+03  0.00000000000E+00 0. -1.
</event>
<event>
 8    1  0.6832629E-009  0.7610233E+02  0.7561462E-02  0.1340491E+00
          2   -1    0    0  501    0  0.00000000000E+00  0.00000000000E+00  0.59167829451E+02  0.59167829451E+02  0.00000000000E+00 0. -1.
         -2   -1    0    0    0  501 -0.00000000000E+00 -0.00000000000E+00 -0.25913249096E+03  0.25913249096E+03  0.00000000000E+00 0.  1.
         25    2    1    2    0    0 -0.54008610449E+02  0.24819481052E+02 -0.11054317555E+03  0.17721504820E+03  0.12510972387E+03 0.  0.
         23    2    1    2    0    0  0.54008610449E+02 -0.24819481052E+02 -0.89421485965E+02  0.14108527221E+03  0.91520026444E+02 0.  0.
          5    1    3    3  502    0 -0.45382066692E+02  0.27590503892E+02  0.11716955816E+02  0.54548394439E+02  0.41800000000E+01 0.  1.
         -5    1    3    3    0  502 -0.86265437571E+01 -0.27710228404E+01 -0.12226013136E+03  0.12266665376E+03  0.41800000000E+01 0.  1.
        -11    1    4    4    0    0  0.33082684402E+02  0.20579677266E+02 -0.37118819624E+00  0.38963122363E+02  0.00000000000E+00 0. -1.
         11    1    4    4    0    0  0.20925926047E+02 -0.45399158318E+02 -0.89050297769E+02  0.10212214985E+03  0.00000000000E+00 0.  1.
</event>
<event>
 8    1  0.6832629E-009  0.1092128E+03  0.7561462E-02  0.1262035E+00
          2   -1    0    0  501    0  0.00000000000E+00  0.00000000000E+00  0.10307401205E+04  0.10307401205E+04  0.00000000000E+00 0. -1.
         -2   -1    0    0    0  501 -0.00000000000E+00 -0.00000000000E+00 -0.19782570128E+02  0.19782570128E+02  0.00000000000E+00 0.  1.
         25    2    1    2    0    0  0.72818959570E+02  0.54403207595E+02  0.59967722236E+03  0.61929180150E+03  0.12508898640E+03 0.  0.
         23    2    1    2    0    0 -0.72818959570E+02 -0.54403207595E+02  0.41128032799E+03  0.43123088910E+03  0.92445993198E+02 0.  0.
          5    1    3    3  502    0  0.73380941300E+02  0.28492834568E+02  0.58274694271E+03  0.58805448371E+03  0.41800000000E+01 0. -1.
         -5    1    3    3    0  502 -0.56198172993E+00  0.25910373027E+02  0.16930279646E+02  0.31237317790E+02  0.41800000000E+01 0. -1.
        -11    1    4    4    0    0 -0.26320259847E+02 -0.60947351510E+02  0.12909098839E+03  0.14516135511E+03  0.00000000000E+00 0.  1.
         11    1    4    4    0    0 -0.46498699723E+02  0.65441439156E+01  0.28218933960E+03  0.28606953399E+03  0.00000000000E+00 0. -1.
</event>
<event>
 8    1  0.6832629E-009  0.1127171E+03  0.7561462E-02  0.1255619E+00
          2   -1    0    0  501    0  0.00000000000E+00  0.00000000000E+00  0.76008813524E+03  0.76008813524E+03  0.00000000000E+00 0. -1.
         -2   -1    0    0    0  501 -0.00000000000E+00 -0.00000000000E+00 -0.20397298315E+02  0.20397298315E+02  0.00000000000E+00 0.  1.
         25    2    1    2    0    0  0.37645378635E+02  0.16025821344E+02  0.25992541865E+03  0.29134682079E+03  0.12509094788E+03 0.  0.
         23    2    1    2    0    0 -0.37645378635E+02 -0.16025821344E+02  0.47976541828E+03  0.48913861277E+03  0.86068138363E+02 0.  0.
          5    1    3    3  502    0 -0.43840322337E+02  0.20472717906E+02  0.77547350766E+02  0.91499563124E+02  0.41800000000E+01 0. -1.
         -5    1    3    3    0  502  0.81485700972E+02 -0.44468965620E+01  0.18237806788E+03  0.19984725766E+03  0.41800000000E+01 0. -1.
        -11    1    4    4    0    0 -0.47990791046E+02  0.24110433209E+02  0.28397994826E+03  0.28901390975E+03  0.00000000000E+00 0. -1.
         11    1    4    4    0    0  0.10345412412E+02 -0.40136254553E+02  0.19578547002E+03  0.20012470302E+03  0.00000000000E+00 0.  1.
</event>
<event>
 8    1  0.6832629E-009  0.1081197E+03  0.7561462E-02  0.1264092E+00
         -1   -1    0    0    0  501 -0.00000000000E+00  0.00000000000E+00  0.66037309755E+02  0.66037309755E+02  0.00000000000E+00 0.  1.
          1   -1    0    0  501    0  0.00000000000E+00 -0.00000000000E+00 -0.25802456829E+03  0.25802456829E+03  0.00000000000E+00 0. -1.
         25    2    1    2    0    0  0.59139536032E+02 -0.41465265427E+02 -0.12471827783E+03  0.19083768870E+03  0.12509005414E+03 0.  0.
         23    2    1    2    0    0 -0.59139536032E+02  0.41465265427E+02 -0.67268980703E+02  0.13322418935E+03  0.89480254264E+02 0.  0.
          5    1    3    3  502    0  0.92870731596E+02 -0.53242715673E+02 -0.81504701240E+02  0.13461147159E+03  0.41800000000E+01 0. -1.
         -5    1    3    3    0  502 -0.33731195564E+02  0.11777450246E+02 -0.43213576594E+02  0.56226217110E+02  0.41800000000E+01 0. -1.
        -11    1    4    4    0    0 -0.40817699148E+02  0.21863353881E+02  0.13404693146E+02  0.48205566120E+02  0.00000000000E+00 0.  1.
         11    1    4    4    0    0 -0.18321836884E+02  0.19601911547E+02 -0.80673673848E+02  0.85018623226E+02  0.00000000000E+00 0. -1.
</event>
<event>
 8    1  0.6832629E-009  0.1503578E+03  0.7561462E-02  0.1200034E+00
         -1   -1    0    0    0  501 -0.00000000000E+00  0.00000000000E+00  0.24180011270E+02  0.24180011270E+02  0.00000000000E+00 0.  1.
          1   -1    0    0  501    0  0.00000000000E+00 -0.00000000000E+00 -0.98850035942E+03  0.98850035942E+03  0.00000000000E+00 0. -1.
         25    2    1    2    0    0  0.45538801157E+02  0.97095381371E+02 -0.59841517908E+03  0.62068477693E+03  0.12509024845E+03 0.  0.
         23    2    1    2    0    0 -0.45538801157E+02 -0.97095381371E+02 -0.36590516907E+03  0.39199559377E+03  0.90954149362E+02 0.  0.
          5    1    3    3  502    0 -0.16898173892E+02  0.98580176758E+02 -0.31872441965E+03  0.33407533225E+03  0.41800000000E+01 0.  1.
         -5    1    3    3    0  502  0.62436975049E+02 -0.14847953878E+01 -0.27969075943E+03  0.28660944468E+03  0.41800000000E+01 0.  1.
        -11    1    4    4    0    0  0.24309587387E+01 -0.89399804365E+02 -0.27104030660E+03  0.28541387910E+03  0.00000000000E+00 0. -1.
         11    1    4    4    0    0 -0.47969759896E+02 -0.76955770057E+01 -0.94864862467E+02  0.10658171466E+03  0.00000000000E+00 0.  1.
</event>
<event>
 8    1  0.6832629E-009  0.2023735E+03  0.7561462E-02  0.1147752E+00
         -1   -1    0    0    0  501 -0.00000000000E+00  0.00000000000E+00  0.31405176119E+03  0.31405176119E+03  0.00000000000E+00 0.  1.
          1   -1    0    0  501    0  0.00000000000E+00 -0.00000000000E+00 -0.14296660186E+03  0.14296660186E+03  0.00000000000E+00 0. -1.
         25    2    1    2    0    0 -0.74309728051E+01 -0.17433823102E+03  0.29698132450E+02  0.21674584824E+03  0.12509094894E+03 0.  0.
         23    2    1    2    0    0  0.74309728051E+01  0.17433823102E+03  0.14138702689E+03  0.24027251481E+03  0.85390584088E+02 0.  0.
          5    1    3    3  502    0  0.43724707642E+02 -0.20767581053E+02  0.25269415906E+02  0.54764571225E+02  0.41800000000E+01 0.  1.
         -5    1    3    3    0  502 -0.51155680447E+02 -0.15357064996E+03  0.44287165440E+01  0.16198127701E+03  0.41800000000E+01 0.  1.
        -11    1    4    4    0    0 -0.38889871313E+02  0.89396400735E+02  0.73048945426E+02  0.12182071656E+03  0.00000000000E+00 0.  1.
         11    1    4    4    0    0  0.46320844118E+02  0.84941830281E+02  0.68338081460E+02  0.11845179825E+03  0.00000000000E+00 0. -1.
</event>
<event>
 8    1  0.6832629E-009  0.7000496E+02  0.7561462E-02  0.1360076E+00
          1   -1    0    0  501    0  0.00000000000E+00  0.00000000000E+00  0.99481161235E+03  0.99481161235E+03  0.00000000000E+00 0. -1.
         -1   -1    0    0    0  501 -0.00000000000E+00 -0.00000000000E+00 -0.17095259680E+02  0.17095259680E+02  0.00000000000E+00 0.  1.
         25    2    1    2    0    0  0.83718121533E+01  0.93578822567E+01  0.79172504121E+03  0.80164422846E+03  0.12508905205E+03 0.  0.
         23    2    1    2    0    0 -0.83718121533E+01 -0.93578822567E+01  0.18599131146E+03  0.21026264357E+03  0.97262295593E+02 0.  0.
          5    1    3    3  502    0 -0.14970106279E+02  0.40917934559E+02  0.70499892689E+03  0.70635638368E+03  0.41800000000E+01 0.  1.
         -5    1    3    3    0  502  0.23341918432E+02 -0.31560052302E+02  0.86726114317E+02  0.95287844775E+02  0.41800000000E+01 0.  1.
        -11    1    4    4    0    0  0.76069258098E+01  0.21066766632E+02  0.13372251087E+01  0.22437962198E+02  0.00000000000E+00 0.  1.
         11    1    4    4    0    0 -0.15978737963E+02 -0.30424648889E+02  0.18465408635E+03  0.18782468137E+03  0.00000000000E+00 0. -1.
</event>
<event>
 8    1  0.6832629E-009  0.1294121E+03  0.7561462E-02  0.1228331E+00
          3   -1    0    0  501    0  0.00000000000E+00  0.00000000000E+00  0.33124916868E+02  0.33124916868E+02  0.00000000000E+00 0. -1.
         -3   -1    0    0    0  501 -0.00000000000E+00 -0.00000000000E+00 -0.77417459705E+03  0.77417459705E+03  0.00000000000E+00 0.  1.
         25    2    1    2    0    0 -0.45852988996E+02 -0.57385922579E+02 -0.63130955533E+03  0.64776089834E+03  0.12508711387E+03 0.  0.
         23    2    1    2    0    0  0.45852988996E+02  0.57385922579E+02 -0.10974012485E+03  0.15953861558E+03  0.89521137997E+02 0.  0.
          5    1    3    3  502    0  0.19462998472E+02  0.28898206836E+02 -0.20049663311E+03  0.20354431202E+03  0.41800000000E+01 0. -1.
         -5    1    3    3    0  502 -0.65315987467E+02 -0.86284129416E+02 -0.43081292222E+03  0.44421658631E+03  0.41800000000E+01 0. -1.
        -11    1    4    4    0    0  0.14848187999E+01 -0.23303767828E+02 -0.27503081553E+02  0.36078938133E+02  0.00000000000E+00 0.  1.
         11    1    4    4    0    0  0.44368170196E+02  0.80689690408E+02 -0.82237043300E+02  0.12345967745E+03  0.00000000000E+00 0. -1.
</event>
<event>
 8    1  0.6832629E-009  0.9225603E+02  0.7561462E-02  0.1297479E+00
          1   -1    0    0  501    0  0.00000000000E+00  0.00000000000E+00  0.17198845524E+03  0.17198845524E+03  0.00000000000E+00 0. -1.
         -1   -1    0    0    0  501 -0.00000000000E+00 -0.00000000000E+00 -0.11707720690E+03  0.11707720690E+03  0.00000000000E+00 0.  1.
         25    2    1    2    0    0 -0.57196161831E+02 -0.53929106999E+02 -0.14263298649E+02  0.14842371926E+03  0.12508560765E+03 0.  0.
         23    2    1    2    0    0  0.57196161831E+02  0.53929106999E+02  0.69174546991E+02  0.14064194288E+03  0.93889768539E+02 0.  0.
          5    1    3    3  502    0 -0.57550086791E+02 -0.41881741668E+02  0.47293873076E+02  0.85558609183E+02  0.41800000000E+01 0.  1.
         -5    1    3    3    0  502  0.35392496018E+00 -0.12047365332E+02 -0.61557171725E+02  0.62865110078E+02  0.41800000000E+01 0.  1.
        -11    1    4    4    0    0  0.11695449416E+02 -0.14283320546E+02 -0.14511394115E+02  0.23481425468E+02  0.00000000000E+00 0.  1.
         11    1    4    4    0    0  0.45500712415E+02  0.68212427545E+02  0.83685941106E+02  0.11716051741E+03  0.00000000000E+00 0. -1.
</event>
<event>
 8    1  0.6832629E-009  0.2523081E+03  0.7561462E-02  0.1111855E+00
          1   -1    0    0  501    0  0.00000000000E+00  0.00000000000E+00  0.28034795826E+03  0.28034795826E+03  0.00000000000E+00 0. -1.
         -1   -1    0    0    0  501 -0.00000000000E+00 -0.00000000000E+00 -0.27226757782E+03  0.27226757782E+03  0.00000000000E+00 0.  1.
         25    2    1    2    0    0  0.23789001317E+03  0.69919143275E+01  0.92397304370E+02  0.28429921030E+03  0.12509290102E+03 0.  0.
         23    2    1    2    0    0 -0.23789001317E+03 -0.69919143275E+01 -0.84316923934E+02  0.26831632578E+03  0.90795163883E+02 0.  0.
          5    1    3    3  502    0 -0.12316438416E+02  0.98086875664E+01  0.15520275163E+02  0.22500141070E+02  0.41800000000E+01 0.  1.
         -5    1    3    3    0  502  0.25020645159E+03 -0.28167732390E+01  0.76877029207E+02  0.26179906923E+03  0.41800000000E+01 0.  1.
        -11    1    4    4    0    0 -0.16460117639E+03 -0.76107028258E+01 -0.10084154300E+03  0.19318511035E+03  0.00000000000E+00 0.  1.
         11    1    4    4    0    0 -0.73288836789E+02  0.61878849827E+00  0.16524619068E+02  0.75131215433E+02  0.00000000000E+00 0. -1.
</event>
<event>
 8    1  0.6832629E-009  0.9783477E+02  0.7561462E-02  0.1284916E+00
         -2   -1    0    0    0  501 -0.00000000000E+00  0.00000000000E+00  0.12176728836E+03  0.12176728836E+03  0.00000000000E+00 0.  1.
          2   -1    0    0  501    0  0.00000000000E+00 -0.00000000000E+00 -0.16239946278E+03  0.16239946278E+03  0.00000000000E+00 0. -1.
         25    2    1    2    0    0 -0.77272320642E+02 -0.41759889804E+02 -0.28418133922E+02  0.15546449604E+03  0.12508684687E+03 0.  0.
         23    2    1    2    0    0  0.77272320642E+02  0.41759889804E+02 -0.12214040500E+02  0.12870225509E+03  0.93274796953E+02 0.  0.
          5    1    3    3  502    0  0.97759607394E+01 -0.79036738007E+01  0.38352200484E+02  0.40575869059E+02  0.41800000000E+01 0. -1.
         -5    1    3    3    0  502 -0.87048281382E+02 -0.33856216003E+02 -0.66770334407E+02  0.11488862698E+03  0.41800000000E+01 0. -1.
        -11    1    4    4    0    0  0.59028599348E+02  0.24828549433E+02  0.36707982178E+02  0.73812657204E+02  0.00000000000E+00 0.  1.
         11    1    4    4    0    0  0.18243721294E+02  0.16931340371E+02 -0.48922022678E+02  0.54889597888E+02  0.00000000000E+00 0. -1.
</event>
<event>
 8    1  0.6832629E-009  0.1299830E+03  0.7561462E-02  0.1227481E+00
          3   -1    0    0  501    0  0.00000000000E+00  0.00000000000E+00  0.10727019580E+03  0.10727019580E+03  0.00000000000E+00 0. -1.
         -3   -1    0    0    0  501 -0.00000000000E+00 -0.00000000000E+00 -0.16247445172E+03  0.16247445172E+03  0.00000000000E+00 0.  1.
         25    2    1    2    0    0  0.88494101589E+01 -0.74827300324E+02 -0.19833623497E+02  0.14736502082E+03  0.12508253198E+03 0.  0.
         23    2    1    2    0    0 -0.88494101589E+01  0.74827300324E+02 -0.35370632425E+02  0.12237962670E+03  0.89712064180E+02 0.  0.
          5    1    3    3  502    0  0.62025461323E+02 -0.12491024016E+02 -0.21882067847E+01  0.63446388252E+02  0.41800000000E+01 0.  1.
         -5    1    3    3    0  502 -0.53176051164E+02 -0.62336276307E+02 -0.17645416712E+02  0.83918632569E+02  0.41800000000E+01 0.  1.
        -11    1    4    4    0    0  0.29387593730E+02  0.70069782769E+02 -0.35454638746E+02  0.83847698425E+02  0.00000000000E+00 0.  1.
         11    1    4    4    0    0 -0.38237003888E+02  0.47575175548E+01  0.84006320979E-01  0.38531928277E+02  0.00000000000E+00 0. -1.
</event>
<event>
 8    1  0.6832629E-009  0.1145545E+03  0.7561462E-02  0.1252361E+00
         -2   -1    0    0    0  501 -0.00000000000E+00  0.00000000000E+00  0.25806760718E+02  0.25806760718E+02  0.00000000000E+00 0.  1.
          2   -1    0    0  501    0  0.00000000000E+00 -0.00000000000E+00 -0.61146448253E+03  0.61146448253E+03  0.00000000000E+00 0. -1.
         25    2    1    2    0    0  0.52730766666E+02  0.30935276162E+02 -0.28798018890E+03  0.31986834377E+03  0.12508254506E+03 0.  0.
         23    2    1    2    0    0 -0.52730766666E+02 -0.30935276162E+02 -0.29767753291E+03  0.31740289948E+03  0.91625116301E+02 0.  0.
          5    1    3    3  502    0  0.49589909260E+02  0.77593250164E+02 -0.18522900252E+03  0.20689883360E+03  0.41800000000E+01 0.  1.
         -5    1    3    3    0  502  0.31408574064E+01 -0.46657974002E+02 -0.10275118638E+03  0.11296951016E+03  0.41800000000E+01 0.  1.
        -11    1    4    4    0    0 -0.36591844423E+02  0.16302678463E+02 -0.22912844148E+03  0.23260391892E+03  0.00000000000E+00 0. -1.
         11    1    4    4    0    0 -0.16138922243E+02 -0.47237954625E+02 -0.68549091430E+02  0.84798980561E+02  0.00000000000E+00 0.  1.
</event>
<event>
 8    1  0.6832629E-009  0.1138132E+03  0.7561462E-02  0.1253667E+00
         -1   -1    0    0    0  501 -0.00000000000E+00  0.00000000000E+00  0.42916077609E+02  0.42916077609E+02  0.00000000000E+00 0.  1.
          1   -1    0    0  501    0  0.00000000000E+00 -0.00000000000E+00 -0.39962866956E+03  0.39962866956E+03  0.00000000000E+00 0. -1.
         25    2    1    2    0    0 -0.66573588215E+02 -0.60485180624E+01 -0.24632797322E+03  0.28424088426E+03  0.12508710034E+03 0.  0.
         23    2    1    2    0    0  0.66573588215E+02  0.60485180624E+01 -0.11038461873E+03  0.15830386292E+03  0.91688176680E+02 0.  0.
          5    1    3    3  502    0  0.35269139153E+02 -0.12561087471E+02 -0.89273498224E+02  0.96896454942E+02  0.41800000000E+01 0.  1.
         -5    1    3    3    0  502 -0.10184272737E+03  0.65125694081E+01 -0.15705447500E+03  0.18734442931E+03  0.41800000000E+01 0.  1.
        -11    1    4    4    0    0 -0.10400139430E+02  0.28258329407E+01  0.10441617482E+02  0.15005852446E+02  0.00000000000E+00 0.  1.
         11    1    4    4    0    0  0.76973727645E+02  0.32226851218E+01 -0.12082623621E+03  0.14329801047E+03  0.00000000000E+00 0. -1.
</event>
<event>
 8    1  0.6832629E-009  0.6478651E+02  0.7561462E-02  0.1378776E+00
          2   -1    0    0  501    0  0.00000000000E+00  0.00000000000E+00  0.22391663785E+02  0.22391663785E+02  0.00000000000E+00 0. -1.
         -2   -1    0    0    0  501 -0.00000000000E+00 -0.00000000000E+00 -0.65926664294E+03  0.65926664294E+03  0.00000000000E+00 0.  1.
         25    2    1    2    0    0  0.10618392945E+02  0.30789251119E+02 -0.49936274495E+03  0.51582057812E+03  0.12508792713E+03 0.  0.
         23    2    1    2    0    0 -0.10618392945E+02 -0.30789251119E+02 -0.13751223420E+03  0.16583772860E+03  0.86785997832E+02 0.  0.
          5    1    3    3  502    0 -0.84271172661E+00 -0.70817632379E+01 -0.45924217585E+03  0.45931656841E+03  0.41800000000E+01 0.  1.
         -5    1    3    3    0  502  0.11461104672E+02  0.37871014357E+02 -0.40120569102E+02  0.56504009714E+02  0.41800000000E+01 0.  1.
        -11    1    4    4    0    0 -0.43042935342E+02 -0.18325088261E+02 -0.37474385302E+02  0.59940242712E+02  0.00000000000E+00 0. -1.
         11    1    4    4    0    0  0.32424542397E+02 -0.12464162858E+02 -0.10003784890E+03  0.10589748589E+03  0.00000000000E+00 0.  1.
</event>
<event>
 8    1  0.6832629E-009  0.1571042E+03  0.7561462E-02  0.1192005E+00
         -2   -1    0    0    0  501 -0.00000000000E+00  0.00000000000E+00  0.85581332465E+02  0.85581332465E+02  0.00000000000E+00 0. -1.
          2   -1    0    0  501    0  0.00000000000E+00 -0.00000000000E+00 -0.34951570072E+03  0.34951570072E+03  0.00000000000E+00 0.  1.
         25    2    1    2    0    0  0.24336101223E+02  0.11902008165E+03 -0.68612881968E+02  0.18738555442E+03  0.12509033845E+03 0.  0.
         23    2    1    2    0    0 -0.24336101223E+02 -0.11902008165E+03 -0.19532148629E+03  0.24771147877E+03  0.91937304985E+02 0.  0.
          5    1    3    3  502    0  0.14779791890E+02  0.14320460635E+03 -0.71666390052E+02  0.16087120746E+03  0.41800000000E+01 0. -1.
         -5    1    3    3    0  502  0.95563093335E+01 -0.24184524695E+02  0.30535080838E+01  0.26514346955E+02  0.41800000000E+01 0. -1.
        -11    1    4    4    0    0 -0.51269950138E+02 -0.59683673525E+02 -0.14648619164E+03  0.16627974324E+03  0.00000000000E+00 0.  1.
         11    1    4    4    0    0  0.26933848915E+02 -0.59336408128E+02 -0.48835294652E+02  0.81431735526E+02  0.00000000000E+00 0. -1.
</event>
<event>
 8    1  0.6832629E-009  0.1134104E+03  0.7561462E-02  0.1254382E+00
          2   -1    0    0  501    0  0.00000000000E+00  0.00000000000E+00  0.69215815500E+03  0.69215815500E+03  0.00000000000E+00 0. -1.
         -2   -1    0    0    0  501 -0.00000000000E+00 -0.00000000000E+00 -0.22075690789E+02  0.22075690789E+02  0.00000000000E+00 0.  1.
         25    2    1    2    0    0  0.27611532139E+02 -0.24740966462E+02  0.50920212394E+03  0.52565114452E+03  0.12509120906E+03 0.  0.
         23    2    1    2    0    0 -0.27611532139E+02  0.24740966462E+02  0.16088034028E+03  0.18858270127E+03  0.91139668662E+02 0.  0.
          5    1    3    3  502    0 -0.33539059879E+02  0.31513229826E+02  0.15089422542E+03  0.15781157073E+03  0.41800000000E+01 0.  1.
         -5    1    3    3    0  502  0.61150592018E+02 -0.56254196288E+02  0.35830789851E+03  0.36783957378E+03  0.41800000000E+01 0.  1.
        -11    1    4    4    0    0 -0.43882696842E+01 -0.33983395527E+02  0.44391673872E+02  0.56078059805E+02  0.00000000000E+00 0.  1.
         11    1    4    4    0    0 -0.23223262455E+02  0.58724361989E+02  0.11648866640E+03  0.13250464147E+03  0.00000000000E+00 0. -1.
</event>
<event>
 8    1  0.6832629E-009  0.4803247E+02  0.7561462E-02  0.1456252E+00
         -4   -1    0    0    0  501 -0.00000000000E+00  0.00000000000E+00  0.34547386167E+02  0.34547386167E+02  0.00000000000E+00 0. -1.
          4   -1    0    0  501    0  0.00000000000E+00 -0.00000000000E+00 -0.35945914688E+03  0.35945914688E+03  0.00000000000E+00 0.  1.
         25    2    1    2    0    0 -0.46060664821E+01  0.20869792467E+02 -0.16580323641E+03  0.20879475563E+03  0.12509105759E+03 0.  0.
         23    2    1    2    0    0  0.46060664821E+01 -0.20869792467E+02 -0.15910852430E+03  0.18521177742E+03  0.92364040091E+02 0.  0.
          5    1    3    3  502    0 -0.17738840437E+02  0.83055962985E+01 -0.18260073488E+03  0.18369580880E+03  0.41800000000E+01 0.  1.
         -5    1    3    3    0  502  0.13132773955E+02  0.12564196168E+02  0.16797498473E+02  0.25098946832E+02  0.41800000000E+01 0.  1.
        -11    1    4    4    0    0  0.87328715367E+01 -0.38398764290E+02 -0.16222477723E+03  0.16693593529E+03  0.00000000000E+00 0.  1.
         11    1    4    4    0    0 -0.41268050545E+01  0.17528971824E+02  0.31162529253E+01  0.18275842127E+02  0.00000000000E+00 0. -1.
</event>
<event>
 8    1  0.6832629E-009  0.4021865E+03  0.7561462E-02  0.1043025E+00
         -1   -1    0    0    0  501 -0.00000000000E+00  0.00000000000E+00  0.55161336426E+02  0.55161336426E+02  0.00000000000E+00 0.  1.
          1   -1    0    0  501    0  0.00000000000E+00 -0.00000000000E+00 -0.29745157256E+04  0.29745157256E+04  0.00000000000E+00 0. -1.
         25    2    1    2    0    0 -0.16925819359E+03  0.34889955666E+03 -0.13440278850E+04  0.14044349285E+04  0.12508907227E+03 0.  0.
         23    2    1    2    0    0  0.16925819359E+03 -0.34889955666E+03 -0.15753265042E+04  0.16252421335E+04  0.96846069094E+02 0.  0.
          5    1    3    3  502    0 -0.81280141555E+02  0.28376517169E+03 -0.90417277594E+03  0.95114405598E+03  0.41800000000E+01 0. -1.
         -5    1    3    3    0  502 -0.87978052035E+02  0.65134384975E+02 -0.43985510907E+03  0.45329087254E+03  0.41800000000E+01 0. -1.
        -11    1    4    4    0    0  0.35501822425E+01 -0.10322421103E+03 -0.39344164823E+03  0.40677287532E+03  0.00000000000E+00 0.  1.
         11    1    4    4    0    0  0.16570801135E+03 -0.24567534563E+03 -0.11818848560E+04  0.12184692582E+04  0.00000000000E+00 0. -1.
</event>
<event>
 8    1  0.6832629E-009  0.1291884E+03  0.7561462E-02  0.1228665E+00
         -1   -1    0    0    0  501 -0.00000000000E+00  0.00000000000E+00  0.76012962093E+02  0.76012962093E+02  0.00000000000E+00 0.  1.
          1   -1    0    0  501    0  0.00000000000E+00 -0.00000000000E+00 -0.23210484357E+03  0.23210484357E+03  0.00000000000E+00 0. -1.
         25    2    1    2    0    0 -0.53224802712E+02  0.52578233652E+02 -0.10798556562E+03  0.18139960035E+03  0.12509029677E+03 0.  0.
         23    2    1    2    0    0  0.53224802712E+02 -0.52578233652E+02 -0.48106315850E+02  0.12671820531E+03  0.90254837292E+02 0.  0.
          5    1    3    3  502    0 -0.90851355232E+02  0.49040526904E+02 -0.57663935387E+02  0.11832811953E+03  0.41800000000E+01 0. -1.
         -5    1    3    3    0  502  0.37626552520E+02  0.35377067478E+01 -0.50321630237E+02  0.63071480823E+02  0.41800000000E+01 0. -1.
        -11    1    4    4    0    0  0.58716501987E+02  0.52388751958E+01 -0.27974073450E+02  0.65250457503E+02  0.00000000000E+00 0.  1.
         11    1    4    4    0    0 -0.54916992754E+01 -0.57817108848E+02 -0.20132242399E+02  0.61467747807E+02  0.00000000000E+00 0. -1.
</event>
<event>
 8    1  0.6832629E-009  0.1138563E+03  0.7561462E-02  0.1253591E+00
          2   -1    0    0  501    0  0.00000000000E+00  0.00000000000E+00  0.49048828477E+03  0.49048828477E+03  0.00000000000E+00 0. -1.
         -2   -1    0    0    0  501 -0.00000000000E+00 -0.00000000000E+00 -0.40590108720E+02  0.40590108720E+02  0.00000000000E+00 0.  1.
         25    2    1    2    0    0  0.15503906260E+02 -0.82125022536E+02  0.30846318639E+03  0.34319245469E+03  0.12508650274E+03 0.  0.
         23    2    1    2    0    0 -0.15503906260E+02  0.82125022536E+02  0.14143498967E+03  0.18788593880E+03  0.91172250495E+02 0.  0.
          5    1    3    3  502    0  0.52111024941E+02 -0.56669037991E+02  0.27930989628E+03  0.28975580986E+03  0.41800000000E+01 0. -1.
         -5    1    3    3    0  502 -0.36607118681E+02 -0.25455984545E+02  0.29153290105E+02  0.53436644835E+02  0.41800000000E+01 0. -1.
        -11    1    4    4    0    0 -0.41105563117E+02  0.52392679015E+02  0.13151735506E+03  0.14741599240E+03  0.00000000000E+00 0. -1.
         11    1    4    4    0    0  0.25601656857E+02  0.29732343520E+02  0.99176346038E+01  0.40469946395E+02  0.00000000000E+00 0.  1.
</event>
<event>
 8    1  0.6832629E-009  0.1622438E+03  0.7561462E-02  0.1186187E+00
         -2   -1    0    0    0  501 -0.00000000000E+00  0.00000000000E+00  0.11011259913E+03  0.11011259913E+03  0.00000000000E+00 0.  1.
          2   -1    0    0  501    0  0.00000000000E+00 -0.00000000000E+00 -0.35459720827E+03  0.35459720827E+03  0.00000000000E+00 0. -1.
         25    2    1    2    0    0 -0.50447321208E+02 -0.13988851223E+03 -0.44579179723E+02  0.19937175243E+03  0.12509222330E+03 0.  0.
         23    2    1    2    0    0  0.50447321208E+02  0.13988851223E+03 -0.19990542941E+03  0.26533805497E+03  0.91259928975E+02 0.  0.
          5    1    3    3  502    0 -0.41990670014E+02 -0.12838231708E+03 -0.82709671280E+02  0.15844114942E+03  0.41800000000E+01 0. -1.
         -5    1    3    3    0  502 -0.84566511946E+01 -0.11506195153E+02  0.38130491556E+02  0.40930603008E+02  0.41800000000E+01 0. -1.
        -11    1    4    4    0    0  0.64217720671E+02  0.44589057138E+02 -0.90805196526E+02  0.11982355103E+03  0.00000000000E+00 0.  1.
         11    1    4    4    0    0 -0.13770399463E+02  0.95299455093E+02 -0.10910023289E+03  0.14551450395E+03  0.00000000000E+00 0. -1.
</event>
<event>
 8    1  0.6832629E-009  0.8125410E+02  0.7561462E-02  0.1325530E+00
          2   -1    0    0  501    0  0.00000000000E+00  0.00000000000E+00  0.63829161977E+03  0.63829161977E+03  0.00000000000E+00 0.  1.
         -2   -1    0    0    0  501 -0.00000000000E+00 -0.00000000000E+00 -0.19591202788E+02  0.19591202788E+02  0.00000000000E+00 0. -1.
         25    2    1    2    0    0  0.24272142203E+02  0.11330200674E+00  0.44055867311E+03  0.45861606654E+03  0.12509037659E+03 0.  0.
         23    2    1    2    0    0 -0.24272142203E+02 -0.11330200674E+00  0.17814174387E+03  0.19926675601E+03  0.85927931533E+02 0.  0.
          5    1    3    3  502    0  0.68906935564E+01  0.34368724546E+02  0.30241198790E+02  0.46483259232E+02  0.41800000000E+01 0.  1.
         -5    1    3    3    0  502  0.17381448646E+02 -0.34255422539E+02  0.41031747432E+03  0.41213280731E+03  0.41800000000E+01 0.  1.
        -11    1    4    4    0    0  0.49077399870E+01 -0.39358343586E+02  0.92510452999E+02  0.10065460266E+03  0.00000000000E+00 0. -1.
         11    1    4    4    0    0 -0.29179882190E+02  0.39245041579E+02  0.85631290870E+02  0.98612153354E+02  0.00000000000E+00 0.  1.
</event>
<event>
 8    1  0.6832629E-009  0.1158004E+03  0.7561462E-02  0.1250190E+00
          3   -1    0    0  501    0  0.00000000000E+00  0.00000000000E+00  0.11129457055E+04  0.11129457055E+04  0.00000000000E+00 0. -1.
         -3   -1    0    0    0  501 -0.00000000000E+00 -0.00000000000E+00 -0.21318279525E+02  0.21318279525E+02  0.00000000000E+00 0.  1.
         25    2    1    2    0    0 -0.90376227582E+01  0.96487027525E+02  0.40526880140E+03  0.43506529972E+03  0.12509032147E+03 0.  0.
         23    2    1    2    0    0  0.90376227582E+01 -0.96487027525E+02  0.68635862453E+03  0.69919868526E+03  0.91647230716E+02 0.  0.
          5    1    3    3  502    0 -0.76617184367E+01  0.22947248772E+02  0.32571497773E+03  0.32663894023E+03  0.41800000000E+01 0.  1.
         -5    1    3    3    0  502 -0.13759043215E+01  0.73539778753E+02  0.79553823666E+02  0.10842635949E+03  0.41800000000E+01 0.  1.
        -11    1    4    4    0    0  0.47104781189E+02 -0.77855787817E+02  0.47042996112E+03  0.47915001036E+03  0.00000000000E+00 0.  1.
         11    1    4    4    0    0 -0.38067158431E+02 -0.18631239708E+02  0.21592866341E+03  0.22004867491E+03  0.00000000000E+00 0. -1.
</event>
<event>
 8    1  0.6832629E-009  0.1133992E+03  0.7561462E-02  0.1254401E+00
          1   -1    0    0  501    0  0.00000000000E+00  0.00000000000E+00  0.14406521662E+04  0.14406521662E+04  0.00000000000E+00 0. -1.
         -1   -1    0    0    0  501 -0.00000000000E+00 -0.00000000000E+00 -0.18465064125E+02  0.18465064125E+02  0.00000000000E+00 0.  1.
         25    2    1    2    0    0 -0.14856878370E+02 -0.60833555785E+02  0.12264613777E+04  0.12344136298E+04  0.12509216567E+03 0.  0.
         23    2    1    2    0    0  0.14856878370E+02  0.60833555785E+02  0.19572572432E+03  0.22470360055E+03  0.90893897455E+02 0.  0.
          5    1    3    3  502    0 -0.45987225701E+02  0.11745405486E+02  0.74304799966E+03  0.74457409415E+03  0.41800000000E+01 0. -1.
         -5    1    3    3    0  502  0.31130347331E+02 -0.72578961271E+02  0.48341337808E+03  0.48983953562E+03  0.41800000000E+01 0. -1.
        -11    1    4    4    0    0 -0.47030784804E+01 -0.18123361029E+02  0.84842411477E+01  0.20556203687E+02  0.00000000000E+00 0. -1.
         11    1    4    4    0    0  0.19559956850E+02  0.78956916814E+02  0.18724148317E+03  0.20414739686E+03  0.00000000000E+00 0.  1.
</event>
<event>
 8    1  0.6832629E-009  0.1337388E+03  0.7561462E-02  0.1222011E+00
         -1   -1    0    0    0  501 -0.00000000000E+00  0.00000000000E+00  0.29040098452E+02  0.29040098452E+02  0.00000000000E+00 0.  1.
          1   -1    0    0  501    0  0.00000000000E+00 -0.00000000000E+00 -0.66006809519E+03  0.66006809519E+03  0.00000000000E+00 0. -1.
         25    2    1    2    0    0 -0.76036649615E+02  0.38420459353E+02 -0.30023387545E+03  0.33622248612E+03  0.12508987338E+03 0.  0.
         23    2    1    2    0    0  0.76036649615E+02 -0.38420459353E+02 -0.33079412129E+03  0.35288570753E+03  0.88576905079E+02 0.  0.
          5    1    3    3  502    0 -0.67553988278E+00 -0.40197755874E+02 -0.59060870802E+02  0.71567973224E+02  0.41800000000E+01 0.  1.
         -5    1    3    3    0  502 -0.75361109732E+02  0.78618215227E+02 -0.24117300465E+03  0.26465451289E+03  0.41800000000E+01 0.  1.
        -11    1    4    4    0    0  0.45513451336E+02  0.21870864952E+02 -0.94838209352E+02  0.10744344996E+03  0.00000000000E+00 0.  1.
         11    1    4    4    0    0  0.30523198279E+02 -0.60291324306E+02 -0.23595591194E+03  0.24544225757E+03  0.00000000000E+00 0. -1.
</event>
<event>
 8    1  0.6832629E-009  0.1237140E+03  0.7561462E-02  0.1237093E+00
         -1   -1    0    0    0  501 -0.00000000000E+00  0.00000000000E+00  0.60746890363E+02  0.60746890363E+02  0.00000000000E+00 0.  1.
          1   -1    0    0  501    0  0.00000000000E+00 -0.00000000000E+00 -0.49624265092E+03  0.49624265092E+03  0.00000000000E+00 0. -1.
         25    2    1    2    0    0 -0.74202119724E+02  0.39521421724E+02 -0.39579311073E+03  0.42351727409E+03  0.12508716002E+03 0.  0.
         23    2    1    2    0    0  0.74202119724E+02 -0.39521421724E+02 -0.39702649826E+02  0.13347226720E+03  0.95763502235E+02 0.  0.
          5    1    3    3  502    0 -0.79061649419E+02 -0.89045640388E+00 -0.36168036723E+03  0.37024545610E+03  0.41800000000E+01 0.  1.
         -5    1    3    3    0  502  0.48595296950E+01  0.40411878128E+02 -0.34112743496E+02  0.53271817986E+02  0.41800000000E+01 0.  1.
        -11    1    4    4    0    0  0.32071642044E+02  0.31373498576E+02 -0.16482342159E+02  0.47797010778E+02  0.00000000000E+00 0.  1.
         11    1    4    4    0    0  0.42130477680E+02 -0.70894920300E+02 -0.23220307668E+02  0.85675256417E+02  0.00000000000E+00 0. -1.
</event>
<event>
 8    1  0.6832629E-009  0.1150923E+03  0.7561462E-02  0.1251420E+00
         -3   -1    0    0    0  501 -0.00000000000E+00  0.00000000000E+00  0.48662867334E+02  0.48662867334E+02  0.00000000000E+00 0.  1.
          3   -1    0    0  501    0  0.00000000000E+00 -0.00000000000E+00 -0.46039552460E+03  0.46039552460E+03  0.00000000000E+00 0. -1.
         25    2    1    2    0    0 -0.81437315997E+02 -0.16336058429E+02 -0.11904063840E+03  0.19161670731E+03  0.12508951070E+03 0.  0.
         23    2    1    2    0    0  0.81437315997E+02  0.16336058429E+02 -0.29269201887E+03  0.31744168463E+03  0.90563248558E+02 0.  0.
          5    1    3    3  502    0 -0.26107417341E+02 -0.66932479997E+02 -0.77658610362E+02  0.10587675043E+03  0.41800000000E+01 0.  1.
         -5    1    3    3    0  502 -0.55329898657E+02  0.50596421568E+02 -0.41382028043E+02  0.85739956880E+02  0.41800000000E+01 0.  1.
        -11    1    4    4    0    0  0.53878846371E+02  0.12416100537E+02 -0.28240358333E+03  0.28776530978E+03  0.00000000000E+00 0. -1.
         11    1    4    4    0    0  0.27558469627E+02  0.39199578923E+01 -0.10288435539E+02  0.29676374844E+02  0.00000000000E+00 0.  1.
</event>
<event>
 8    1  0.6832629E-009  0.1433544E+03  0.7561462E-02  0.1208885E+00
          2   -1    0    0  501    0  0.00000000000E+00  0.00000000000E+00  0.10513537744E+04  0.10513537744E+04  0.00000000000E+00 0. -1.
         -2   -1    0    0    0  501 -0.00000000000E+00 -0.00000000000E+00 -0.28151977952E+02  0.28151977952E+02  0.00000000000E+00 0.  1.
         25    2    1    2    0    0  0.88348056244E+02  0.96377753439E+02  0.61185101283E+03  0.63804594333E+03  0.12508762329E+03 0.  0.
         23    2    1    2    0    0 -0.88348056244E+02 -0.96377753439E+02  0.41135078361E+03  0.44145980901E+03  0.92645806151E+02 0.  0.
          5    1    3    3  502    0  0.32850573066E+02  0.33198741191E+02  0.45049343950E+02  0.65024859536E+02  0.41800000000E+01 0. -1.
         -5    1    3    3    0  502  0.55497483178E+02  0.63179012248E+02  0.56680166888E+03  0.57302108379E+03  0.41800000000E+01 0. -1.
        -11    1    4    4    0    0 -0.37211462802E+02 -0.97617556526E+02  0.22251397201E+03  0.24581771304E+03  0.00000000000E+00 0.  1.
         11    1    4    4    0    0 -0.51136593442E+02  0.12398030862E+01  0.18883681160E+03  0.19564209597E+03  0.00000000000E+00 0. -1.
</event>
<event>
 8    1  0.6832629E-009  0.1028253E+03  0.7561462E-02  0.1274465E+00
          1   -1    0    0  501    0  0.00000000000E+00  0.00000000000E+00  0.38053164962E+02  0.38053164962E+02  0.00000000000E+00 0. -1.
         -1   -1    0    0    0  501 -0.00000000000E+00 -0.00000000000E+00 -0.57238244683E+03  0.57238244683E+03  0.00000000000E+00 0.  1.
         25    2    1    2    0    0  0.60062255108E+02  0.11757517408E+02 -0.12467168872E+03  0.18690444927E+03  0.12507809355E+03 0.  0.
         23    2    1    2    0    0 -0.60062255108E+02 -0.11757517408E+02 -0.40965759315E+03  0.42353116252E+03  0.88394503764E+02 0.  0.
          5    1    3    3  502    0  0.23482679395E+02  0.48618589270E+02 -0.26419364866E+01  0.54218591668E+02  0.41800000000E+01 0.  1.
         -5    1    3    3    0  502  0.36579575713E+02 -0.36861071861E+02 -0.12202975223E+03  0.13268585760E+03  0.41800000000E+01 0.  1.
        -11    1    4    4    0    0 -0.12454815660E+02  0.32246678905E+02 -0.74075547120E+02  0.81744464122E+02  0.00000000000E+00 0. -1.
         11    1    4    4    0    0 -0.47607439447E+02 -0.44004196313E+02 -0.33558204603E+03  0.34178669840E+03  0.00000000000E+00 0.  1.
</event>
<event>
 8    1  0.6832629E-009  0.7139046E+02  0.7561462E-02  0.1355428E+00
          3   -1    0    0  501    0  0.00000000000E+00  0.00000000000E+00  0.16450299823E+03  0.16450299823E+03  0.00000000000E+00 0. -1.
         -3   -1    0    0    0  501 -0.00000000000E+00 -0.00000000000E+00 -0.86912225503E+02  0.86912225503E+02  0.00000000000E+00 0.  1.
         25    2    1    2    0    0  0.19555503025E+02 -0.48821861968E+02  0.40416583549E+02  0.14158938405E+03  0.12509221217E+03 0.  0.
         23    2    1    2    0    0 -0.19555503025E+02  0.48821861968E+02  0.37174189174E+02  0.10982583968E+03  0.88959557191E+02 0.  0.
          5    1    3    3  502    0 -0.26899144563E+01 -0.11042695565E+02 -0.44399173655E+02  0.46021036346E+02  0.41800000000E+01 0.  1.
         -5    1    3    3    0  502  0.22245417481E+02 -0.37779166402E+02  0.84815757203E+02  0.95568347704E+02  0.41800000000E+01 0.  1.
        -11    1    4    4    0    0 -0.34341888184E+02  0.59287031555E+02  0.52324791659E+02  0.86210215270E+02  0.00000000000E+00 0. -1.
         11    1    4    4    0    0  0.14786385159E+02 -0.10465169588E+02 -0.15150602485E+02  0.23615624408E+02  0.00000000000E+00 0.  1.
</event>
<event>
 8    1  0.6832629E-009  0.9365719E+02  0.7561462E-02  0.1294229E+00
          3   -1    0    0  501    0  0.00000000000E+00  0.00000000000E+00  0.23063920045E+03  0.23063920045E+03  0.00000000000E+00 0. -1.
         -3   -1    0    0    0  501 -0.00000000000E+00 -0.00000000000E+00 -0.83801574517E+02  0.83801574517E+02  0.00000000000E+00 0.  1.
         25    2    1    2    0    0 -0.54671826596E+02  0.68700095588E+02  0.78157393315E+02  0.17165429282E+03  0.12509159188E+03 0.  0.
         23    2    1    2    0    0  0.54671826596E+02 -0.68700095588E+02  0.68680232615E+02  0.14278648214E+03  0.89231683683E+02 0.  0.
          5    1    3    3  502    0 -0.61435683660E+02  0.51117642297E+02 -0.10685079213E+02  0.80740323870E+02  0.41800000000E+01 0.  1.
         -5    1    3    3    0  502  0.67638570649E+01  0.17582453291E+02  0.88842472528E+02  0.90913968954E+02  0.41800000000E+01 0.  1.
        -11    1    4    4    0    0  0.31558874908E+02 -0.44146488491E+02 -0.11793427188E+02  0.55533412972E+02  0.00000000000E+00 0.  1.
         11    1    4    4    0    0  0.23112951688E+02 -0.24553607097E+02  0.80473659802E+02  0.87253069168E+02  0.00000000000E+00 0. -1.
</event>
<event>
 8    1  0.6832629E-009  0.1010902E+03  0.7561462E-02  0.1278020E+00
          3   -1    0    0  501    0  0.00000000000E+00  0.00000000000E+00  0.61580302765E+02  0.61580302765E+02  0.00000000000E+00 0. -1.
         -3   -1    0    0    0  501 -0.00000000000E+00 -0.00000000000E+00 -0.28261316882E+03  0.28261316882E+03  0.00000000000E+00 0.  1.
         25    2    1    2    0    0 -0.40676501932E+02  0.45743112121E+02 -0.67741315158E+02  0.15486878421E+03  0.12509374256E+03 0.  0.
         23    2    1    2    0    0  0.40676501932E+02 -0.45743112121E+02 -0.15329155090E+03  0.18932468738E+03  0.92728245742E+02 0.  0.
          5    1    3    3  502    0  0.21866497343E+02 -0.18897279943E+02 -0.57186482106E+02  0.64210723645E+02  0.41800000000E+01 0. -1.
         -5    1    3    3    0  502 -0.62542999275E+02  0.64640392064E+02 -0.10554833052E+02  0.90658060564E+02  0.41800000000E+01 0. -1.
        -11    1    4    4    0    0  0.28570466981E+02  0.65079214397E+01 -0.12558071243E+03  0.12895402266E+03  0.00000000000E+00 0.  1.
         11    1    4    4    0    0  0.12106034951E+02 -0.52251033561E+02 -0.27710838470E+02  0.60370664723E+02  0.00000000000E+00 0. -1.
</event>
<event>
 8    1  0.6832629E-009  0.6231615E+02  0.7561462E-02  0.1388361E+00
          1   -1    0    0  501    0  0.00000000000E+00  0.00000000000E+00  0.19747158115E+03  0.19747158115E+03  0.00000000000E+00 0. -1.
         -1   -1    0    0    0  501 -0.00000000000E+00 -0.00000000000E+00 -0.64560792091E+02  0.64560792091E+02  0.00000000000E+00 0.  1.
         25    2    1    2    0    0  0.17202120927E+02  0.52684948509E+01  0.48674238170E+02  0.13543230119E+03  0.12509618996E+03 0.  0.
         23    2    1    2    0    0 -0.17202120927E+02 -0.52684948509E+01  0.84236550891E+02  0.12660007205E+03  0.92779910192E+02 0.  0.
          5    1    3    3  502    0 -0.29784277491E+02  0.81347030923E+01  0.75086025992E+02  0.81293666908E+02  0.41800000000E+01 0. -1.
         -5    1    3    3    0  502  0.46986398418E+02 -0.28662082414E+01 -0.26411787822E+02  0.54138634282E+02  0.41800000000E+01 0. -1.
        -11    1    4    4    0    0 -0.21699277348E+02 -0.20793197663E+02  0.99760728345E+02  0.10418934027E+03  0.00000000000E+00 0. -1.
         11    1    4    4    0    0  0.44971564211E+01  0.15524702813E+02 -0.15524177454E+02  0.22410731780E+02  0.00000000000E+00 0.  1.
</event>
<event>
 8    1  0.6832629E-009  0.1624537E+03  0.7561462E-02  0.1185954E+00
         -2   -1    0    0    0  501 -0.00000000000E+00  0.00000000000E+00  0.43608519472E+02  0.43608519472E+02  0.00000000000E+00 0.  1.
          2   -1    0    0  501    0  0.00000000000E+00 -0.00000000000E+00 -0.79457853335E+03  0.79457853335E+03  0.00000000000E+00 0. -1.
         25    2    1    2    0    0 -0.34805484309E+02 -0.12421176768E+03 -0.57204343411E+03  0.59960141553E+03  0.12509269373E+03 0.  0.
         23    2    1    2    0    0  0.34805484309E+02  0.12421176768E+03 -0.17892657976E+03  0.23858563729E+03  0.90930745115E+02 0.  0.
          5    1    3    3  502    0  0.22547409221E+02  0.77135974602E+01 -0.18670335085E+03  0.18826443867E+03  0.41800000000E+01 0.  1.
         -5    1    3    3    0  502 -0.57352893530E+02 -0.13192536514E+03 -0.38534008326E+03  0.41133697686E+03  0.41800000000E+01 0.  1.
        -11    1    4    4    0    0 -0.12218364169E+02 -0.92313265057E+01 -0.26557237882E+02  0.30656038491E+02  0.00000000000E+00 0. -1.
         11    1    4    4    0    0  0.47023848478E+02  0.13344309419E+03 -0.15236934188E+03  0.20792959880E+03  0.00000000000E+00 0.  1.
</event>
<event>
 8    1  0.6832629E-009  0.1176411E+03  0.7561462E-02  0.1247040E+00
         -2   -1    0    0    0  501 -0.00000000000E+00  0.00000000000E+00  0.81748253633E+02  0.81748253633E+02  0.00000000000E+00 0. -1.
          2   -1    0    0  501    0  0.00000000000E+00 -0.00000000000E+00 -0.20366092652E+03  0.20366092652E+03  0.00000000000E+00 0.  1.
         25    2    1    2    0    0 -0.44133625866E+02 -0.40662361934E+02 -0.10609538443E+03  0.17465721641E+03  0.12509079917E+03 0.  0.
         23    2    1    2    0    0  0.44133625866E+02  0.40662361934E+02 -0.15817288461E+02  0.11075196375E+03  0.91731162913E+02 0.  0.
          5    1    3    3  502    0  0.29968700780E+02 -0.45108424817E+02 -0.13622205241E+02  0.55999374028E+02  0.41800000000E+01 0.  1.
         -5    1    3    3    0  502 -0.74102326645E+02  0.44460628828E+01 -0.92473179185E+02  0.11865784238E+03  0.41800000000E+01 0.  1.
        -11    1    4    4    0    0  0.60984417918E+02 -0.17133488819E+01 -0.21739079189E+02  0.64765904280E+02  0.00000000000E+00 0.  1.
         11    1    4    4    0    0 -0.16850792052E+02  0.42375710816E+02  0.59217907278E+01  0.45986059468E+02  0.00000000000E+00 0. -1.
</event>
<event>
 8    1  0.6832629E-009  0.7405758E+02  0.7561462E-02  0.1346814E+00
          4   -1    0    0  501    0  0.00000000000E+00  0.00000000000E+00  0.41467125561E+02  0.41467125561E+02  0.00000000000E+00 0. -1.
         -4   -1    0    0    0  501 -0.00000000000E+00 -0.00000000000E+00 -0.33470687389E+03  0.33470687389E+03  0.00000000000E+00 0.  1.
         25    2    1    2    0    0 -0.22867741551E+02  0.47774550184E+02 -0.16270269325E+03  0.21195676684E+03  0.12509261917E+03 0.  0.
         23    2    1    2    0    0  0.22867741551E+02 -0.47774550184E+02 -0.13053705508E+03  0.16421723261E+03  0.84392152998E+02 0.  0.
          5    1    3    3  502    0 -0.14685514005E+02  0.21091256711E+02 -0.17797417646E+03  0.17986880029E+03  0.41800000000E+01 0.  1.
         -5    1    3    3    0  502 -0.81822275458E+01  0.26683293473E+02  0.15271483209E+02  0.32087966554E+02  0.41800000000E+01 0.  1.
        -11    1    4    4    0    0  0.30259676686E+02 -0.66860314293E+02 -0.74574561679E+02  0.10462941704E+03  0.00000000000E+00 0. -1.
         11    1    4    4    0    0 -0.73919351351E+01  0.19085764109E+02 -0.55962493397E+02  0.59587815566E+02  0.00000000000E+00 0.  1.
</event>
<event>
 8    1  0.6832629E-009  0.2604130E+03  0.7561462E-02  0.1106895E+00
          2   -1    0    0  501    0  0.00000000000E+00  0.00000000000E+00  0.15870200943E+04  0.15870200943E+04  0.00000000000E+00 0. -1.
         -2   -1    0    0    0  501 -0.00000000000E+00 -0.00000000000E+00 -0.46258467553E+02  0.46258467553E+02  0.00000000000E+00 0.  1.
         25    2    1    2    0    0  0.24121814892E+03  0.36589681582E+02  0.88513728134E+03  0.92662830460E+03  0.12508800063E+03 0.  0.
         23    2    1    2    0    0 -0.24121814892E+03 -0.36589681582E+02  0.65562434541E+03  0.70665025726E+03  0.99931494632E+02 0.  0.
          5    1    3    3  502    0  0.44892226427E+02  0.41645412714E+02  0.37477633016E+03  0.37976890663E+03  0.41800000000E+01 0. -1.
         -5    1    3    3    0  502  0.19632592249E+03 -0.50557311328E+01  0.51036095118E+03  0.54685939797E+03  0.41800000000E+01 0. -1.
        -11    1    4    4    0    0 -0.16673893699E+03  0.22089616683E+02  0.39526241325E+03  0.42956047258E+03  0.00000000000E+00 0. -1.
         11    1    4    4    0    0 -0.74479211928E+02 -0.58679298264E+02  0.26036193215E+03  0.27708978467E+03  0.00000000000E+00 0.  1.
</event>
<event>
 8    1  0.6832629E-009  0.7122623E+02  0.7561462E-02  0.1355972E+00
         -1   -1    0    0    0  501 -0.00000000000E+00  0.00000000000E+00  0.16044091974E+03  0.16044091974E+03  0.00000000000E+00 0.  1.
          1   -1    0    0  501    0  0.00000000000E+00 -0.00000000000E+00 -0.12311617550E+03  0.12311617550E+03  0.00000000000E+00 0. -1.
         25    2    1    2    0    0  0.60378757853E+02 -0.25025123337E+02 -0.40881473409E+02  0.14693843541E+03  0.12509099781E+03 0.  0.
         23    2    1    2    0    0 -0.60378757853E+02  0.25025123337E+02  0.78206217644E+02  0.13661865983E+03  0.90975790946E+02 0.  0.
          5    1    3    3  502    0  0.21222582271E+02 -0.10427195192E+02 -0.83631581772E+02  0.87010564115E+02  0.41800000000E+01 0.  1.
         -5    1    3    3    0  502  0.39156175582E+02 -0.14597928145E+02  0.42750108363E+02  0.59927871290E+02  0.41800000000E+01 0.  1.
        -11    1    4    4    0    0 -0.32322722225E+02  0.34071651443E+02 -0.60520685424E+01  0.47352543097E+02  0.00000000000E+00 0. -1.
         11    1    4    4    0    0 -0.28056035628E+02 -0.90465281059E+01  0.84258286186E+02  0.89266116735E+02  0.00000000000E+00 0.  1.
</event>
<event>
 8    1  0.6832629E-009  0.6844317E+02  0.7561462E-02  0.1365469E+00
          3   -1    0    0  501    0  0.00000000000E+00  0.00000000000E+00  0.53272674131E+02  0.53272674131E+02  0.00000000000E+00 0. -1.
         -3   -1    0    0    0  501 -0.00000000000E+00 -0.00000000000E+00 -0.23828370067E+03  0.23828370067E+03  0.00000000000E+00 0.  1.
         25    2    1    2    0    0  0.94578851171E+01  0.26065140926E+02 -0.85303026878E+02  0.15392561495E+03  0.12509054873E+03 0.  0.
         23    2    1    2    0    0 -0.94578851171E+01 -0.26065140926E+02 -0.99707999663E+02  0.13763075985E+03  0.90728703822E+02 0.  0.
          5    1    3    3  502    0 -0.17309782508E+02 -0.35915252240E+01 -0.10682245334E+03  0.10835606380E+03  0.41800000000E+01 0.  1.
         -5    1    3    3    0  502  0.26767667625E+02  0.29656666150E+02  0.21519426464E+02  0.45569551156E+02  0.41800000000E+01 0.  1.
        -11    1    4    4    0    0  0.14549176331E+02  0.21099300262E+02 -0.74935283837E+02  0.79196942916E+02  0.00000000000E+00 0. -1.
         11    1    4    4    0    0 -0.24007061448E+02 -0.47164441188E+02 -0.24772715826E+02  0.58433816933E+02  0.00000000000E+00 0.  1.
</event>
<event>
 8    1  0.6832629E-009  0.1139508E+03  0.7561462E-02  0.1253424E+00
          4   -1    0    0  501    0  0.00000000000E+00  0.00000000000E+00  0.47195701952E+02  0.47195701952E+02  0.00000000000E+00 0.  1.
         -4   -1    0    0    0  501 -0.00000000000E+00 -0.00000000000E+00 -0.45835021995E+03  0.45835021995E+03  0.00000000000E+00 0. -1.
         25    2    1    2    0    0  0.30193376594E+02  0.92018370650E+02 -0.19024560004E+03  0.24742840914E+03  0.12509360011E+03 0.  0.
         23    2    1    2    0    0 -0.30193376594E+02 -0.92018370650E+02 -0.22090891796E+03  0.25811751276E+03  0.91896027290E+02 0.  0.
          5    1    3    3  502    0 -0.84762891798E+01  0.16265241304E+02  0.15744509193E+02  0.24530950301E+02  0.41800000000E+01 0.  1.
         -5    1    3    3    0  502  0.38669665774E+02  0.75753129345E+02 -0.20599010923E+03  0.22289745884E+03  0.41800000000E+01 0.  1.
        -11    1    4    4    0    0 -0.34865515229E+02 -0.32200126538E+01 -0.25152954744E+02  0.43111990977E+02  0.00000000000E+00 0.  1.
         11    1    4    4    0    0  0.46721386345E+01 -0.88798357996E+02 -0.19575596322E+03  0.21500552178E+03  0.00000000000E+00 0. -1.
</event>
<event>
 8    1  0.6832629E-009  0.4882506E+02  0.7561462E-02  0.1451784E+00
          1   -1    0    0  501    0  0.00000000000E+00  0.00000000000E+00  0.90436117898E+02  0.90436117898E+02  0.00000000000E+00 0. -1.
         -1   -1    0    0    0  501 -0.00000000000E+00 -0.00000000000E+00 -0.14977434367E+03  0.14977434367E+03  0.00000000000E+00 0.  1.
         25    2    1    2    0    0 -0.15105937358E+01  0.29893661059E+02 -0.42722219727E+00  0.12861558860E+03  0.12508346912E+03 0.  0.
         23    2    1    2    0    0  0.15105937358E+01 -0.29893661059E+02 -0.58911003579E+02  0.11159487297E+03  0.89927729126E+02 0.  0.
          5    1    3    3  502    0  0.28287035205E+02  0.18246911024E+02 -0.55349983338E+02  0.64916863588E+02  0.41800000000E+01 0. -1.
         -5    1    3    3    0  502 -0.29797628941E+02  0.11646750036E+02  0.54922761141E+02  0.63698725013E+02  0.41800000000E+01 0. -1.
        -11    1    4    4    0    0 -0.37060860936E+01 -0.19347843745E+02 -0.82722191238E+02  0.85035492913E+02  0.00000000000E+00 0.  1.
         11    1    4    4    0    0  0.52166798295E+01 -0.10545817314E+02  0.23811187660E+02  0.26559380057E+02  0.00000000000E+00 0. -1.
</event>
<event>
 8    1  0.6832629E-009  0.1073552E+03  0.7561462E-02  0.1265548E+00
         -2   -1    0    0    0  501 -0.00000000000E+00  0.00000000000E+00  0.14478801623E+03  0.14478801623E+03  0.00000000000E+00 0. -1.
          2   -1    0    0  501    0  0.00000000000E+00 -0.00000000000E+00 -0.25791949837E+03  0.25791949837E+03  0.00000000000E+00 0.  1.
         25    2    1    2    0    0  0.41552055294E+02 -0.35086270770E+02 -0.21618992403E+03  0.25562301348E+03  0.12508965615E+03 0.  0.
         23    2    1    2    0    0 -0.41552055294E+02  0.35086270770E+02  0.10305844189E+03  0.14708450112E+03  0.89750700994E+02 0.  0.
          5    1    3    3  502    0  0.80455374854E+02 -0.42393765156E+02 -0.18051466738E+03  0.20217150197E+03  0.41800000000E+01 0.  1.
         -5    1    3    3    0  502 -0.38903319560E+02  0.73074943858E+01 -0.35675256646E+02  0.53451511519E+02  0.41800000000E+01 0.  1.
        -11    1    4    4    0    0 -0.50308197322E+02  0.27661928011E+01  0.14533856553E+02  0.52438530936E+02  0.00000000000E+00 0.  1.
         11    1    4    4    0    0  0.87561420273E+01  0.32320077969E+02  0.88524585332E+02  0.94645970180E+02  0.00000000000E+00 0. -1.
</event>
<event>
 8    1  0.6832629E-009  0.1696641E+03  0.7561462E-02  0.1178199E+00
         -2   -1    0    0    0  501 -0.00000000000E+00  0.00000000000E+00  0.20179187626E+03  0.20179187626E+03  0.00000000000E+00 0.  1.
          2   -1    0    0  501    0  0.00000000000E+00 -0.00000000000E+00 -0.15817811794E+03  0.15817811794E+03  0.00000000000E+00 0. -1.
         25    2    1    2    0    0  0.13184383431E+03  0.22819984567E+01  0.74493367588E+02  0.19642901034E+03  0.12508832930E+03 0.  0.
         23    2    1    2    0    0 -0.13184383431E+03 -0.22819984567E+01 -0.30879609267E+02  0.16354098387E+03  0.91673872913E+02 0.  0.
          5    1    3    3  502    0  0.14410592983E+03  0.33418804328E+02  0.62299526808E+02  0.16056786396E+03  0.41800000000E+01 0. -1.
         -5    1    3    3    0  502 -0.12262095529E+02 -0.31136805871E+02  0.12193840780E+02  0.35861146378E+02  0.41800000000E+01 0. -1.
        -11    1    4    4    0    0 -0.24500189171E+02  0.36088412340E+02  0.53048097477E+01  0.43940571014E+02  0.00000000000E+00 0.  1.
         11    1    4    4    0    0 -0.10734364513E+03 -0.38370410796E+02 -0.36184419014E+02  0.11960041285E+03  0.00000000000E+00 0. -1.
</event>
<event>
 8    1  0.6832629E-009  0.7611873E+02  0.7561462E-02  0.1340441E+00
          2   -1    0    0  501    0  0.00000000000E+00  0.00000000000E+00  0.22758039670E+03  0.22758039670E+03  0.00000000000E+00 0. -1.
         -2   -1    0    0    0  501 -0.00000000000E+00 -0.00000000000E+00 -0.77419815750E+02  0.77419815750E+02  0.00000000000E+00 0.  1.
         25    2    1    2    0    0 -0.16665491662E+02  0.62477102310E+02  0.36950839163E+02  0.14557874886E+03  0.12508669266E+03 0.  0.
         23    2    1    2    0    0  0.16665491662E+02 -0.62477102310E+02  0.11320974178E+03  0.15942146358E+03  0.91747645694E+02 0.  0.
          5    1    3    3  502    0 -0.14921220572E+02  0.51768034633E+02 -0.40329964391E+02  0.67428114766E+02  0.41800000000E+01 0. -1.
         -5    1    3    3    0  502 -0.17442710900E+01  0.10709067677E+02  0.77280803554E+02  0.78150634099E+02  0.41800000000E+01 0. -1.
        -11    1    4    4    0    0 -0.67833606257E+01  0.90441846861E+01 -0.99652566543E+01  0.15070421301E+02  0.00000000000E+00 0.  1.
         11    1    4    4    0    0  0.23448852288E+02 -0.71521286996E+02  0.12317499844E+03  0.14435104228E+03  0.00000000000E+00 0. -1.
</event>
<event>
 8    1  0.6832629E-009  0.6152741E+02  0.7561462E-02  0.1391531E+00
         -2   -1    0    0    0  501 -0.00000000000E+00  0.00000000000E+00  0.71154631067E+02  0.71154631067E+02  0.00000000000E+00 0.  1.
          2   -1    0    0  501    0  0.00000000000E+00 -0.00000000000E+00 -0.30028423105E+03  0.30028423105E+03  0.00000000000E+00 0. -1.
         25    2    1    2    0    0  0.74165763279E+01 -0.37365963156E+02 -0.23924836911E+03  0.27265178504E+03  0.12509193802E+03 0.  0.
         23    2    1    2    0    0 -0.74165763279E+01  0.37365963156E+02  0.10118769125E+02  0.98787077080E+02  0.90582980202E+02 0.  0.
          5    1    3    3  502    0  0.11271354344E+02 -0.36191339071E+00  0.12959479857E+02  0.17680354301E+02  0.41800000000E+01 0.  1.
         -5    1    3    3    0  502 -0.38547780158E+01 -0.37004049766E+02 -0.25220784897E+03  0.25497143074E+03  0.41800000000E+01 0.  1.
        -11    1    4    4    0    0  0.26981059305E+02  0.74193943646E+01  0.36583029397E+02  0.46058039622E+02  0.00000000000E+00 0.  1.
         11    1    4    4    0    0 -0.34397635633E+02  0.29946568792E+02 -0.26464260271E+02  0.52729037458E+02  0.00000000000E+00 0. -1.
</event>
<event>
 8    1  0.6832629E-009  0.1081125E+03  0.7561462E-02  0.1264106E+00
         -2   -1    0    0    0  501 -0.00000000000E+00  0.00000000000E+00  0.20510588892E+02  0.20510588892E+02  0.00000000000E+00 0.  1.
          2   -1    0    0  501    0  0.00000000000E+00 -0.00000000000E+00 -0.64839820405E+03  0.64839820405E+03  0.00000000000E+00 0. -1.
         25    2    1    2    0    0 -0.38058671898E+02 -0.15477024947E+02 -0.34055688293E+03  0.36512289003E+03  0.12509090096E+03 0.  0.
         23    2    1    2    0    0  0.38058671898E+02  0.15477024947E+02 -0.28733073222E+03  0.30378590291E+03  0.89660048619E+02 0.  0.
          5    1    3    3  502    0  0.42591036009E+02 -0.22011037939E+02 -0.94134438288E+02  0.10572250002E+03  0.41800000000E+01 0. -1.
         -5    1    3    3    0  502 -0.80649707907E+02  0.65340129925E+01 -0.24642244465E+03  0.25940039001E+03  0.41800000000E+01 0. -1.
        -11    1    4    4    0    0 -0.22511593835E+02  0.13961372578E+02 -0.32890884824E+02  0.42231529522E+02  0.00000000000E+00 0.  1.
         11    1    4    4    0    0  0.60570265733E+02  0.15156523682E+01 -0.25443984740E+03  0.26155437338E+03  0.00000000000E+00 0. -1.
</event>
<event>
 8    1  0.6832629E-009  0.2086046E+03  0.7561462E-02  0.1142676E+00
         -2   -1    0    0    0  501 -0.00000000000E+00  0.00000000000E+00  0.92773698636E+02  0.92773698636E+02  0.00000000000E+00 0.  1.
          2   -1    0    0  501    0  0.00000000000E+00 -0.00000000000E+00 -0.57298273627E+03  0.57298273627E+03  0.00000000000E+00 0. -1.
         25    2    1    2    0    0  0.18538988226E+03  0.53829884233E+02 -0.33897737143E+03  0.40965848010E+03  0.12508935644E+03 0.  0.
         23    2    1    2    0    0 -0.18538988226E+03 -0.53829884233E+02 -0.14123166620E+03  0.25609795481E+03  0.91502535687E+02 0.  0.
          5    1    3    3  502    0  0.34806753519E+02  0.44572990056E+02 -0.18725638439E+03  0.19565451037E+03  0.41800000000E+01 0.  1.
         -5    1    3    3    0  502  0.15058312874E+03  0.92568941769E+01 -0.15172098704E+03  0.21400396973E+03  0.41800000000E+01 0.  1.
        -11    1    4    4    0    0 -0.14793650299E+03 -0.75726587993E+02 -0.13076371542E+03  0.21146837664E+03  0.00000000000E+00 0. -1.
         11    1    4    4    0    0 -0.37453379271E+02  0.21896703760E+02 -0.10467950783E+02  0.44629578173E+02  0.00000000000E+00 0.  1.
</event>
<event>
 8    1  0.6832629E-009  0.9196730E+02  0.7561462E-02  0.1298156E+00
          1   -1    0    0  501    0  0.00000000000E+00  0.00000000000E+00  0.32140031847E+02  0.32140031847E+02  0.00000000000E+00 0. -1.
         -1   -1    0    0    0  501 -0.00000000000E+00 -0.00000000000E+00 -0.41257009083E+03  0.41257009083E+03  0.00000000000E+00 0.  1.
         25    2    1    2    0    0 -0.17297584355E+02 -0.38284450891E+02 -0.24420400900E+03  0.27757547409E+03  0.12509052803E+03 0.  0.
         23    2    1    2    0    0  0.17297584355E+02  0.38284450891E+02 -0.13622604999E+03  0.16713464858E+03  0.87244188674E+02 0.  0.
          5    1    3    3  502    0  0.39369411080E+02 -0.72038517087E+01 -0.18662905466E+03  0.19091810405E+03  0.41800000000E+01 0. -1.
         -5    1    3    3    0  502 -0.56666995434E+02 -0.31080599183E+02 -0.57574954335E+02  0.86657370049E+02  0.41800000000E+01 0. -1.
        -11    1    4    4    0    0  0.28097775188E+02  0.53405502265E+02 -0.13573629903E+03  0.14854620667E+03  0.00000000000E+00 0.  1.
         11    1    4    4    0    0 -0.10800190834E+02 -0.15121051373E+02 -0.48975095774E+00  0.18588441911E+02  0.00000000000E+00 0. -1.
</event>
<event>
 8    1  0.6832629E-009  0.1174163E+03  0.7561462E-02  0.1247421E+00
          2   -1    0    0  501    0  0.00000000000E+00  0.00000000000E+00  0.35053401927E+03  0.35053401927E+03  0.00000000000E+00 0. -1.
         -2   -1    0    0    0  501 -0.00000000000E+00 -0.00000000000E+00 -0.68678691854E+02  0.68678691854E+02  0.00000000000E+00 0.  1.
         25    2    1    2    0    0  0.20426275695E+02  0.82547688503E+02  0.55041850422E+02  0.16096024820E+03  0.12508893870E+03 0.  0.
         23    2    1    2    0    0 -0.20426275695E+02 -0.82547688503E+02  0.22681347699E+03  0.25825246292E+03  0.89546790257E+02 0.  0.
          5    1    3    3  502    0  0.26157659031E+02 -0.28064138976E+02  0.35799310120E+01  0.38757029407E+02  0.41800000000E+01 0.  1.
         -5    1    3    3    0  502 -0.57313833352E+01  0.11061182748E+03  0.51461919410E+02  0.12220321879E+03  0.41800000000E+01 0.  1.
        -11    1    4    4    0    0 -0.13990584409E+02 -0.40127053504E+02  0.20641537829E+03  0.21074445490E+03  0.00000000000E+00 0. -1.
         11    1    4    4    0    0 -0.64356912864E+01 -0.42420634999E+02  0.20398098701E+02  0.47508008027E+02  0.00000000000E+00 0.  1.
</event>
<event>
 8    1  0.6832629E-009  0.3165376E+03  0.7561462E-02  0.1077254E+00
          2   -1    0    0  501    0  0.00000000000E+00  0.00000000000E+00  0.79273457299E+03  0.79273457299E+03  0.00000000000E+00 0. -1.
         -2   -1    0    0    0  501 -0.00000000000E+00 -0.00000000000E+00 -0.13537068569E+03  0.13537068569E+03  0.00000000000E+00 0.  1.
         25    2    1    2    0    0  0.21651509249E+03 -0.21304806713E+03  0.25508667699E+03  0.41591044444E+03  0.12507606019E+03 0.  0.
         23    2    1    2    0    0 -0.21651509249E+03  0.21304806713E+03  0.40227721030E+03  0.51219481424E+03  0.90820204926E+02 0.  0.
          5    1    3    3  502    0  0.10719437807E+03 -0.26723686897E+02  0.65783018970E+02  0.12864551339E+03  0.41800000000E+01 0.  1.
         -5    1    3    3    0  502  0.10932071443E+03 -0.18632438023E+03  0.18930365802E+03  0.28726493105E+03  0.41800000000E+01 0.  1.
        -11    1    4    4    0    0 -0.75435277176E+02  0.10225546363E+03  0.23379657389E+03  0.26609678474E+03  0.00000000000E+00 0. -1.
         11    1    4    4    0    0 -0.14107981532E+03  0.11079260350E+03  0.16848063641E+03  0.24609802950E+03  0.00000000000E+00 0.  1.
</event>
<event>
 8    1  0.6832629E-009  0.1171376E+03  0.7561462E-02  0.1247895E+00
          1   -1    0    0  501    0  0.00000000000E+00  0.00000000000E+00  0.14568814612E+04  0.14568814612E+04  0.00000000000E+00 0. -1.
         -1   -1    0    0    0  501 -0.00000000000E+00 -0.00000000000E+00 -0.14903546892E+02  0.14903546892E+02  0.00000000000E+00 0.  1.
         25    2    1    2    0    0  0.73823438774E+02  0.59883839824E+02  0.92450282367E+03  0.93775730768E+03  0.12508925912E+03 0.  0.
         23    2    1    2    0    0 -0.73823438774E+02 -0.59883839824E+02  0.51747509059E+03  0.53402770037E+03  0.91483009302E+02 0.  0.
          5    1    3    3  502    0  0.81311525984E+02  0.38548349629E+02  0.30997664482E+03  0.32280107226E+03  0.41800000000E+01 0. -1.
         -5    1    3    3    0  502 -0.74880872107E+01  0.21335490196E+02  0.61452617885E+03  0.61495623542E+03  0.41800000000E+01 0. -1.
        -11    1    4    4    0    0 -0.64270785942E+02 -0.38833983694E+01  0.37770133579E+03  0.38315024960E+03  0.00000000000E+00 0. -1.
         11    1    4    4    0    0 -0.95526528315E+01 -0.56000441455E+02  0.13977375480E+03  0.15087745077E+03  0.00000000000E+00 0.  1.
</event>
<event>
 8    1  0.6832629E-009  0.1001875E+03  0.7561462E-02  0.1279902E+00
          1   -1    0    0  501    0  0.00000000000E+00  0.00000000000E+00  0.25002845211E+03  0.25002845211E+03  0.00000000000E+00 0. -1.
         -1   -1    0    0    0  501 -0.00000000000E+00 -0.00000000000E+00 -0.57603472842E+02  0.57603472842E+02  0.00000000000E+00 0.  1.
         25    2    1    2    0    0 -0.47432976037E+01 -0.29141061848E+02  0.15966995442E+03  0.20497381220E+03  0.12509224191E+03 0.  0.
         23    2    1    2    0    0  0.47432976037E+01  0.29141061848E+02  0.32755024846E+02  0.10265811275E+03  0.92704347806E+02 0.  0.
          5    1    3    3  502    0 -0.21114390879E+02  0.34291613064E+02  0.12362171276E+03  0.13008279092E+03  0.41800000000E+01 0.  1.
         -5    1    3    3    0  502  0.16371093275E+02 -0.63432674912E+02  0.36048241659E+02  0.74891021279E+02  0.41800000000E+01 0.  1.
        -11    1    4    4    0    0 -0.40683733175E+02  0.78202344927E+00  0.26917401401E+02  0.48788566324E+02  0.00000000000E+00 0. -1.
         11    1    4    4    0    0  0.45427030779E+02  0.28359038398E+02  0.58376234451E+01  0.53869546422E+02  0.00000000000E+00 0.  1.
</event>
<event>
 8    1  0.6832629E-009  0.1466637E+03  0.7561462E-02  0.1204634E+00
         -2   -1    0    0    0  501 -0.00000000000E+00  0.00000000000E+00  0.28282140400E+02  0.28282140400E+02  0.00000000000E+00 0. -1.
          2   -1    0    0  501    0  0.00000000000E+00 -0.00000000000E+00 -0.95269816436E+03  0.95269816436E+03  0.00000000000E+00 0.  1.
         25    2    1    2    0    0 -0.73574081803E+02  0.91317121488E+02 -0.60179026891E+03  0.62573999620E+03  0.12508818051E+03 0.  0.
         23    2    1    2    0    0  0.73574081803E+02 -0.91317121488E+02 -0.32262575505E+03  0.35524030856E+03  0.91413001332E+02 0.  0.
          5    1    3    3  502    0 -0.23930405507E+02 -0.20005368316E+02 -0.40167726908E+02  0.51027421591E+02  0.41800000000E+01 0. -1.
         -5    1    3    3    0  502 -0.49643676296E+02  0.11132248980E+03 -0.56162254200E+03  0.57471257461E+03  0.41800000000E+01 0. -1.
        -11    1    4    4    0    0  0.55081809459E+02 -0.93515159896E+01 -0.73486693724E+02  0.92313329152E+02  0.00000000000E+00 0. -1.
         11    1    4    4    0    0  0.18492272344E+02 -0.81965605498E+02 -0.24913906133E+03  0.26292697941E+03  0.00000000000E+00 0.  1.
</event>
<event>
 8    1  0.6832629E-009  0.9784531E+02  0.7561462E-02  0.1284893E+00
         -2   -1    0    0    0  501 -0.00000000000E+00  0.00000000000E+00  0.23304214041E+02  0.23304214041E+02  0.00000000000E+00 0.  1.
          2   -1    0    0  501    0  0.00000000000E+00 -0.00000000000E+00 -0.82595854743E+03  0.82595854743E+03  0.00000000000E+00 0. -1.
         25    2    1    2    0    0  0.48499393117E+01 -0.31272873698E+02 -0.68611702850E+03  0.69814430929E+03  0.12508950900E+03 0.  0.
         23    2    1    2    0    0 -0.48499393117E+01  0.31272873698E+02 -0.11653730489E+03  0.15111845218E+03  0.90853335749E+02 0.  0.
          5    1    3    3  502    0 -0.50862038194E+02 -0.45575233288E+02 -0.29717414711E+03  0.30494916778E+03  0.41800000000E+01 0. -1.
         -5    1    3    3    0  502  0.55711977505E+02  0.14302359590E+02 -0.38894288139E+03  0.39319514152E+03  0.41800000000E+01 0. -1.
        -11    1    4    4    0    0 -0.27160209289E+02  0.37623125515E+02 -0.11906230523E+03  0.12778501112E+03  0.00000000000E+00 0. -1.
         11    1    4    4    0    0  0.22310269977E+02 -0.63502518164E+01  0.25250003384E+01  0.23333441051E+02  0.00000000000E+00 0.  1.
</event>
<event>
 8    1  0.6832629E-009  0.8125561E+02  0.7561462E-02  0.1325526E+00
         -1   -1    0    0    0  501 -0.00000000000E+00  0.00000000000E+00  0.16996738119E+02  0.16996738119E+02  0.00000000000E+00 0.  1.
          1   -1    0    0  501    0  0.00000000000E+00 -0.00000000000E+00 -0.99490099216E+03  0.99490099216E+03  0.00000000000E+00 0. -1.
         25    2    1    2    0    0  0.69878981767E+01 -0.96017043277E+01 -0.81429474851E+03  0.82393206957E+03  0.12508834626E+03 0.  0.
         23    2    1    2    0    0 -0.69878981767E+01  0.96017043277E+01 -0.16360950553E+03  0.18796566070E+03  0.91771432692E+02 0.  0.
          5    1    3    3  502    0 -0.27547421615E+02  0.18680144836E+02 -0.70502195994E+03  0.70581955530E+03  0.41800000000E+01 0.  1.
         -5    1    3    3    0  502  0.34535319792E+02 -0.28281849163E+02 -0.10927278857E+03  0.11811251427E+03  0.41800000000E+01 0.  1.
        -11    1    4    4    0    0 -0.42423132194E+02 -0.10071968327E+02 -0.12338637270E+03  0.13086391274E+03  0.00000000000E+00 0. -1.
         11    1    4    4    0    0  0.35435234017E+02  0.19673672655E+02 -0.40223132830E+02  0.57101747961E+02  0.00000000000E+00 0.  1.
</event>
<event>
 8    1  0.6832629E-009  0.1202946E+03  0.7561462E-02  0.1242612E+00
         -2   -1    0    0    0  501 -0.00000000000E+00  0.00000000000E+00  0.10279970467E+02  0.10279970467E+02  0.00000000000E+00 0.  1.
          2   -1    0    0  501    0  0.00000000000E+00 -0.00000000000E+00 -0.18254716773E+04  0.18254716773E+04  0.00000000000E+00 0. -1.
         25    2    1    2    0    0  0.13562333509E+02  0.65476462184E+02 -0.13894792107E+04  0.13967000959E+04  0.12509027581E+03 0.  0.
         23    2    1    2    0    0 -0.13562333509E+02 -0.65476462184E+02 -0.42571249616E+03  0.43905155183E+03  0.84047794667E+02 0.  0.
          5    1    3    3  502    0 -0.39862558421E+02  0.68715403179E+02 -0.10492467518E+04  0.10522580714E+04  0.41800000000E+01 0.  1.
         -5    1    3    3    0  502  0.53424891930E+02 -0.32389409954E+01 -0.34023245887E+03  0.34444202457E+03  0.41800000000E+01 0.  1.
        -11    1    4    4    0    0 -0.46998190557E+02 -0.54931772076E+02 -0.29284756641E+03  0.30163890109E+03  0.00000000000E+00 0. -1.
         11    1    4    4    0    0  0.33435857048E+02 -0.10544690108E+02 -0.13286492975E+03  0.13741265074E+03  0.00000000000E+00 0.  1.
</event>
<event>
 8    1  0.6832629E-009  0.1096770E+03  0.7561462E-02  0.1261169E+00
          3   -1    0    0  501    0  0.00000000000E+00  0.00000000000E+00  0.56699886348E+03  0.56699886348E+03  0.00000000000E+00 0. -1.
         -3   -1    0    0    0  501 -0.00000000000E+00 -0.00000000000E+00 -0.37322075080E+02  0.37322075080E+02  0.00000000000E+00 0.  1.
         25    2    1    2    0    0  0.13447459268E+02 -0.31899834865E+02  0.47389705740E+03  0.49134783938E+03  0.12508335074E+03 0.  0.
         23    2    1    2    0    0 -0.13447459268E+02  0.31899834865E+02  0.55779730999E+02  0.11297309917E+03  0.91940791389E+02 0.  0.
          5    1    3    3  502    0  0.52440696075E+02  0.26540680023E+02  0.23721139437E+03  0.24442003257E+03  0.41800000000E+01 0. -1.
         -5    1    3    3    0  502 -0.38993236808E+02 -0.58440514888E+02  0.23668566303E+03  0.24692780682E+03  0.41800000000E+01 0. -1.
        -11    1    4    4    0    0  0.19662693439E+02  0.48991878334E+02  0.96350511720E+01  0.53662462365E+02  0.00000000000E+00 0.  1.
         11    1    4    4    0    0 -0.33110152707E+02 -0.17092043469E+02  0.46144679827E+02  0.59310636808E+02  0.00000000000E+00 0. -1.
</event>
<event>
 8    1  0.6832629E-009  0.1091260E+03  0.7561462E-02  0.1262197E+00
          1   -1    0    0  501    0  0.00000000000E+00  0.00000000000E+00  0.71143989457E+02  0.71143989457E+02  0.00000000000E+00 0. -1.
         -1   -1    0    0    0  501 -0.00000000000E+00 -0.00000000000E+00 -0.26474693607E+03  0.26474693607E+03  0.00000000000E+00 0.  1.
         25    2    1    2    0    0  0.66310300642E+02  0.49197562577E+02 -0.11468313607E+03  0.18873110241E+03  0.12509896556E+03 0.  0.
         23    2    1    2    0    0 -0.66310300642E+02 -0.49197562577E+02 -0.78919810538E+02  0.14715982311E+03  0.92791276036E+02 0.  0.
          5    1    3    3  502    0  0.67049326976E+02  0.28580679384E+02 -0.89449217297E+00  0.73011916824E+02  0.41800000000E+01 0.  1.
         -5    1    3    3    0  502 -0.73902633444E+00  0.20616883194E+02 -0.11378864390E+03  0.11571918559E+03  0.41800000000E+01 0.  1.
        -11    1    4    4    0    0 -0.71301189671E+02  0.33810993547E+01 -0.44351242598E+02  0.84037635625E+02  0.00000000000E+00 0.  1.
         11    1    4    4    0    0  0.49908890294E+01 -0.52578661932E+02 -0.34568567940E+02  0.63122187488E+02  0.00000000000E+00 0. -1.
</event>
<event>
 8    1  0.6832629E-009  0.1077522E+03  0.7561462E-02  0.1264790E+00
         -1   -1    0    0    0  501 -0.00000000000E+00  0.00000000000E+00  0.59712967391E+02  0.59712967391E+02  0.00000000000E+00 0.  1.
          1   -1    0    0  501    0  0.00000000000E+00 -0.00000000000E+00 -0.25116145469E+03  0.25116145469E+03  0.00000000000E+00 0. -1.
         25    2    1    2    0    0 -0.13015497270E+02  0.22431241756E+02 -0.39330150236E+02  0.13366595716E+03  0.12508862303E+03 0.  0.
         23    2    1    2    0    0  0.13015497270E+02 -0.22431241756E+02 -0.15211833707E+03  0.17720846492E+03  0.87122257731E+02 0.  0.
          5    1    3    3  502    0  0.46264049434E+02  0.44405199449E+02 -0.16824025972E+02  0.66428188731E+02  0.41800000000E+01 0. -1.
         -5    1    3    3    0  502 -0.59279546704E+02 -0.21973957694E+02 -0.22506124264E+02  0.67237768431E+02  0.41800000000E+01 0. -1.
        -11    1    4    4    0    0  0.18124361966E+02  0.30082794182E+02 -0.39578590267E+02  0.52914381882E+02  0.00000000000E+00 0.  1.
         11    1    4    4    0    0 -0.51088646957E+01 -0.52514035937E+02 -0.11253974680E+03  0.12429408304E+03  0.00000000000E+00 0. -1.
</event>
<event>
 8    1  0.6832629E-009  0.9193410E+02  0.7561462E-02  0.1298234E+00
         -1   -1    0    0    0  501 -0.00000000000E+00  0.00000000000E+00  0.93860437920E+02  0.93860437920E+02  0.00000000000E+00 0.  1.
          1   -1    0    0  501    0  0.00000000000E+00 -0.00000000000E+00 -0.18043854924E+03  0.18043854924E+03  0.00000000000E+00 0. -1.
         25    2    1    2    0    0 -0.68827231553E+02 -0.68313319702E+00 -0.23793970494E+02  0.14474560859E+03  0.12508990246E+03 0.  0.
         23    2    1    2    0    0  0.68827231553E+02  0.68313319702E+00 -0.62784140826E+02  0.12955337857E+03  0.90025413559E+02 0.  0.
          5    1    3    3  502    0  0.12789383317E+02  0.25825335865E+02  0.31246187275E+02  0.42711976276E+02  0.41800000000E+01 0. -1.
         -5    1    3    3    0  502 -0.81616614871E+02 -0.26508469062E+02 -0.55040157769E+02  0.10203363231E+03  0.41800000000E+01 0. -1.
        -11    1    4    4    0    0  0.12342623555E+02 -0.79355338191E-01 -0.71357169175E+02  0.72416795333E+02  0.00000000000E+00 0. -1.
         11    1    4    4    0    0  0.56484607998E+02  0.76248853521E+00  0.85730283497E+01  0.57136583242E+02  0.00000000000E+00 0.  1.
</event>
<event>
 8    1  0.6832629E-009  0.3647959E+03  0.7561462E-02  0.1056701E+00
         -1   -1    0    0    0  501 -0.00000000000E+00  0.00000000000E+00  0.10608802164E+04  0.10608802164E+04  0.00000000000E+00 0.  1.
          1   -1    0    0  501    0  0.00000000000E+00 -0.00000000000E+00 -0.13962110212E+03  0.13962110212E+03  0.00000000000E+00 0. -1.
         25    2    1    2    0    0 -0.23200388284E+03  0.26728248591E+03  0.62890032765E+03  0.73241297128E+03  0.12508960572E+03 0.  0.
         23    2    1    2    0    0  0.23200388284E+03 -0.26728248591E+03  0.29235878662E+03  0.46808834723E+03  0.91473011195E+02 0.  0.
          5    1    3    3  502    0 -0.68580797466E+02  0.17329938114E+03  0.29587286542E+03  0.34970591384E+03  0.41800000000E+01 0. -1.
         -5    1    3    3    0  502 -0.16342308537E+03  0.93983104766E+02  0.33302746223E+03  0.38270705744E+03  0.41800000000E+01 0. -1.
        -11    1    4    4    0    0  0.16373919311E+03 -0.17299484439E+03  0.13980031423E+03  0.27619172218E+03  0.00000000000E+00 0. -1.
         11    1    4    4    0    0  0.68264689730E+02 -0.94287641524E+02  0.15255847239E+03  0.19189662505E+03  0.00000000000E+00 0.  1.
</event>
<event>
 8    1  0.6832629E-009  0.9117949E+02  0.7561462E-02  0.1300020E+00
         -1   -1    0    0    0  501 -0.00000000000E+00  0.00000000000E+00  0.33960556514E+03  0.33960556514E+03  0.00000000000E+00 0.  1.
          1   -1    0    0  501    0  0.00000000000E+00 -0.00000000000E+00 -0.40778577029E+02  0.40778577029E+02  0.00000000000E+00 0. -1.
         25    2    1    2    0    0 -0.42273321072E+01  0.36007262498E+02  0.21445756133E+03  0.25090278143E+03  0.12508303972E+03 0.  0.
         23    2    1    2    0    0  0.42273321072E+01 -0.36007262498E+02  0.84369426782E+02  0.12948136074E+03  0.91284332255E+02 0.  0.
          5    1    3    3  502    0 -0.27058912940E+02 -0.41253935459E+02  0.84806676867E+02  0.98202427677E+02  0.41800000000E+01 0. -1.
         -5    1    3    3    0  502  0.22831580833E+02  0.77261197957E+02  0.12965088446E+03  0.15270035375E+03  0.41800000000E+01 0. -1.
        -11    1    4    4    0    0  0.15146118794E+02 -0.38149769099E+02  0.10125552986E+03  0.10925883087E+03  0.00000000000E+00 0.  1.
         11    1    4    4    0    0 -0.10918786686E+02  0.21425066013E+01 -0.16886103077E+02  0.20222529870E+02  0.00000000000E+00 0. -1.
</event>
<event>
 8    1  0.6832629E-009  0.9780729E+02  0.7561462E-02  0.1284976E+00
          2   -1    0    0  501    0  0.00000000000E+00  0.00000000000E+00  0.58849074201E+03  0.58849074201E+03  0.00000000000E+00 0. -1.
         -2   -1    0    0    0  501 -0.00000000000E+00 -0.00000000000E+00 -0.21409430578E+02  0.21409430578E+02  0.00000000000E+00 0.  1.
         25    2    1    2    0    0  0.20900995460E+02  0.14601607116E+02  0.38759050159E+03  0.40807270912E+03  0.12508749121E+03 0.  0.
         23    2    1    2    0    0 -0.20900995460E+02 -0.14601607116E+02  0.17949080984E+03  0.20182746347E+03  0.88697889792E+02 0.  0.
          5    1    3    3  502    0 -0.49212316040E+02  0.24931883844E+02  0.14099299787E+03  0.15145939631E+03  0.41800000000E+01 0. -1.
         -5    1    3    3    0  502  0.70113311499E+02 -0.10330276728E+02  0.24659750372E+03  0.25661331281E+03  0.41800000000E+01 0. -1.
        -11    1    4    4    0    0  0.18415078857E+02 -0.22622091937E+02  0.14792538584E+03  0.15077398300E+03  0.00000000000E+00 0. -1.
         11    1    4    4    0    0 -0.39316074317E+02  0.80204848206E+01  0.31565423999E+02  0.51053480476E+02  0.00000000000E+00 0.  1.
</event>
<event>
 8    1  0.6832629E-009  0.8015541E+02  0.7561462E-02  0.1328611E+00
          2   -1    0    0  501    0  0.00000000000E+00  0.00000000000E+00  0.27141025174E+03  0.27141025174E+03  0.00000000000E+00 0. -1.
         -2   -1    0    0    0  501 -0.00000000000E+00 -0.00000000000E+00 -0.47436590473E+02  0.47436590473E+02  0.00000000000E+00 0.  1.
         25    2    1    2    0    0  0.37315151326E+01  0.17014642604E+02  0.16847250888E+03  0.21055260491E+03  0.12508393548E+03 0.  0.
         23    2    1    2    0    0 -0.37315151326E+01 -0.17014642604E+02  0.55501152387E+02  0.10829423731E+03  0.91344631209E+02 0.  0.
          5    1    3    3  502    0 -0.70948683887E+01  0.61656223875E+02  0.14710976537E+03  0.15972032610E+03  0.41800000000E+01 0.  1.
         -5    1    3    3    0  502  0.10826383521E+02 -0.44641581271E+02  0.21362743510E+02  0.50832278808E+02  0.41800000000E+01 0.  1.
        -11    1    4    4    0    0 -0.15437681884E+02 -0.30463478388E+02 -0.13726697877E+02  0.36807170117E+02  0.00000000000E+00 0.  1.
         11    1    4    4    0    0  0.11706166752E+02  0.13448835783E+02  0.69227850264E+02  0.71487067195E+02  0.00000000000E+00 0. -1.
</event>
<event>
 8    1  0.6832629E-009  0.1249295E+03  0.7561462E-02  0.1235179E+00
          1   -1    0    0  501    0  0.00000000000E+00  0.00000000000E+00  0.56970762098E+03  0.56970762098E+03  0.00000000000E+00 0. -1.
         -1   -1    0    0    0  501 -0.00000000000E+00 -0.00000000000E+00 -0.32648393645E+02  0.32648393645E+02  0.00000000000E+00 0.  1.
         25    2    1    2    0    0  0.70847468893E+02  0.36795797019E+02  0.27412817239E+03  0.31171454281E+03  0.12508559779E+03 0.  0.
         23    2    1    2    0    0 -0.70847468893E+02 -0.36795797019E+02  0.26293105495E+03  0.29064147182E+03  0.94691240133E+02 0.  0.
          5    1    3    3  502    0  0.11876318948E+02  0.72548468833E+02  0.98455123589E+02  0.12294393455E+03  0.41800000000E+01 0. -1.
         -5    1    3    3    0  502  0.58971149946E+02 -0.35752671814E+02  0.17567304880E+03  0.18877060826E+03  0.41800000000E+01 0. -1.
        -11    1    4    4    0    0 -0.29888083480E+02 -0.54780109501E+02  0.75524528623E+02  0.97969956388E+02  0.00000000000E+00 0.  1.
         11    1    4    4    0    0 -0.40959385414E+02  0.17984312482E+02  0.18740652632E+03  0.19267151543E+03  0.00000000000E+00 0. -1.
</event>
<event>
 8    1  0.6832629E-009  0.1032369E+03  0.7561462E-02  0.1273633E+00
          2   -1    0    0  501    0  0.00000000000E+00  0.00000000000E+00  0.18504941118E+02  0.18504941118E+02  0.00000000000E+00 0.  1.
         -2   -1    0    0    0  501 -0.00000000000E+00 -0.00000000000E+00 -0.74648668024E+03  0.74648668024E+03  0.00000000000E+00 0. -1.
         25    2    1    2    0    0 -0.11865871942E+02 -0.41865636678E+02 -0.43951535668E+03  0.45903631884E+03  0.12508822010E+03 0.  0.
         23    2    1    2    0    0  0.11865871942E+02  0.41865636678E+02 -0.28846638245E+03  0.30595530252E+03  0.92207715979E+02 0.  0.
          5    1    3    3  502    0 -0.45209109224E+02  0.17110237617E+02 -0.29985009603E+03  0.30375018728E+03  0.41800000000E+01 0. -1.
         -5    1    3    3    0  502  0.33343237282E+02 -0.58975874295E+02 -0.13966526065E+03  0.15528613156E+03  0.41800000000E+01 0. -1.
        -11    1    4    4    0    0 -0.23363680732E+02  0.48861078274E+02 -0.23754696259E+03  0.24364282461E+03  0.00000000000E+00 0.  1.
         11    1    4    4    0    0  0.35229552673E+02 -0.69954415963E+01 -0.50919419853E+02  0.62312477906E+02  0.00000000000E+00 0. -1.
</event>
<event>
 8    1  0.6832629E-009  0.1703660E+03  0.7561462E-02  0.1177467E+00
         -2   -1    0    0    0  501 -0.00000000000E+00  0.00000000000E+00  0.22522848171E+02  0.22522848171E+02  0.00000000000E+00 0.  1.
          2   -1    0    0  501    0  0.00000000000E+00 -0.00000000000E+00 -0.15031504817E+04  0.15031504817E+04  0.00000000000E+00 0. -1.
         25    2    1    2    0    0  0.13370194063E+03  0.64604868553E+02 -0.75976339674E+03  0.78418011119E+03  0.12509208525E+03 0.  0.
         23    2    1    2    0    0 -0.13370194063E+03 -0.64604868553E+02 -0.72086423682E+03  0.74149321871E+03  0.90094103567E+02 0.  0.
          5    1    3    3  502    0  0.89506538804E+02  0.98596653236E+02 -0.60848747378E+03  0.62290223845E+03  0.41800000000E+01 0. -1.
         -5    1    3    3    0  502  0.44195401828E+02 -0.33991784683E+02 -0.15127592295E+03  0.16127787274E+03  0.41800000000E+01 0. -1.
        -11    1    4    4    0    0 -0.43503975099E+01 -0.10524951616E+02 -0.57365781695E+01  0.12751819247E+02  0.00000000000E+00 0.  1.
         11    1    4    4    0    0 -0.12935154312E+03 -0.54079916936E+02 -0.71512765865E+03  0.72874139946E+03  0.00000000000E+00 0. -1.
</event>
<event>
 8    1  0.6832629E-009  0.9422601E+02  0.7561462E-02  0.1292929E+00
         -3   -1    0    0    0  501 -0.00000000000E+00  0.00000000000E+00  0.22750955443E+03  0.22750955443E+03  0.00000000000E+00 0.  1.
          3   -1    0    0  501    0  0.00000000000E+00 -0.00000000000E+00 -0.69650034796E+02  0.69650034796E+02  0.00000000000E+00 0. -1.
         25    2    1    2    0    0  0.11966267868E+01  0.25602352752E+02  0.16504494462E+02  0.12873491263E+03  0.12507344646E+03 0.  0.
         23    2    1    2    0    0 -0.11966267868E+01 -0.25602352752E+02  0.14135502517E+03  0.16842467660E+03  0.87913117133E+02 0.  0.
          5    1    3    3  502    0  0.28647237047E+02 -0.42709044350E+02  0.18920596288E+02  0.54956237350E+02  0.41800000000E+01 0. -1.
         -5    1    3    3    0  502 -0.27450610260E+02  0.68311397103E+02 -0.24161018261E+01  0.73778675278E+02  0.41800000000E+01 0. -1.
        -11    1    4    4    0    0 -0.29377530764E+02 -0.10931913313E+02  0.94378438825E+01  0.32735591328E+02  0.00000000000E+00 0. -1.
         11    1    4    4    0    0  0.28180903977E+02 -0.14670439439E+02  0.13191718129E+03  0.13568908527E+03  0.00000000000E+00 0.  1.
</event>
<event>
 8    1  0.6832629E-009  0.1459746E+03  0.7561462E-02  0.1205508E+00
         -1   -1    0    0    0  501 -0.00000000000E+00  0.00000000000E+00  0.98175419459E+02  0.98175419459E+02  0.00000000000E+00 0.  1.
          1   -1    0    0  501    0  0.00000000000E+00 -0.00000000000E+00 -0.30664427331E+03  0.30664427331E+03  0.00000000000E+00 0. -1.
         25    2    1    2    0    0  0.94867913171E+02  0.47976727473E+02 -0.21071881948E+03  0.26711746713E+03  0.12509049937E+03 0.  0.
         23    2    1    2    0    0 -0.94867913171E+02 -0.47976727473E+02  0.22499656284E+01  0.13770222564E+03  0.87493732768E+02 0.  0.
          5    1    3    3  502    0  0.10431588980E+03 -0.41860416414E+01 -0.17233832159E+03  0.20153733475E+03  0.41800000000E+01 0. -1.
         -5    1    3    3    0  502 -0.94479766311E+01  0.52162769115E+02 -0.38380497896E+02  0.65580132380E+02  0.41800000000E+01 0. -1.
        -11    1    4    4    0    0 -0.10858332417E+03 -0.51428327272E+02  0.11665607519E+02  0.12071162965E+03  0.00000000000E+00 0.  1.
         11    1    4    4    0    0  0.13715410999E+02  0.34515997987E+01 -0.94156418906E+01  0.16990595995E+02  0.00000000000E+00 0. -1.
</event>
<event>
 8    1  0.6832629E-009  0.1306221E+03  0.7561462E-02  0.1226536E+00
          1   -1    0    0  501    0  0.00000000000E+00  0.00000000000E+00  0.10888755789E+03  0.10888755789E+03  0.00000000000E+00 0. -1.
         -1   -1    0    0    0  501 -0.00000000000E+00 -0.00000000000E+00 -0.28451589283E+03  0.28451589283E+03  0.00000000000E+00 0.  1.
         25    2    1    2    0    0  0.30949088518E+02  0.97358193090E+02 -0.19856008025E+03  0.25594910520E+03  0.12508946856E+03 0.  0.
         23    2    1    2    0    0 -0.30949088518E+02 -0.97358193090E+02  0.22931745310E+02  0.13745434552E+03  0.89058229927E+02 0.  0.
          5    1    3    3  502    0 -0.13098971314E+02  0.92036808600E+02 -0.60798948397E+02  0.11115908291E+03  0.41800000000E+01 0. -1.
         -5    1    3    3    0  502  0.44048059832E+02  0.53213844899E+01 -0.13776113185E+03  0.14479002230E+03  0.41800000000E+01 0. -1.
        -11    1    4    4    0    0 -0.46628566507E+02 -0.32356855693E+02  0.38776191737E+02  0.68737052384E+02  0.00000000000E+00 0.  1.
         11    1    4    4    0    0  0.15679477989E+02 -0.65001337397E+02 -0.15844446427E+02  0.68717293137E+02  0.00000000000E+00 0. -1.
</event>
<event>
 8    1  0.6832629E-009  0.1491924E+03  0.7561462E-02  0.1201469E+00
         -2   -1    0    0    0  501 -0.00000000000E+00  0.00000000000E+00  0.87515126534E+02  0.87515126534E+02  0.00000000000E+00 0.  1.
          2   -1    0    0  501    0  0.00000000000E+00 -0.00000000000E+00 -0.27385848386E+03  0.27385848386E+03  0.00000000000E+00 0. -1.
         25    2    1    2    0    0  0.35714014641E+02 -0.10110099763E+03 -0.69182111534E+02  0.17868924862E+03  0.12508709147E+03 0.  0.
         23    2    1    2    0    0 -0.35714014641E+02  0.10110099763E+03 -0.11716124579E+03  0.18268436178E+03  0.90276884968E+02 0.  0.
          5    1    3    3  502    0 -0.31410074547E+02 -0.89703001620E+02 -0.51682696686E+02  0.10826723798E+03  0.41800000000E+01 0. -1.
         -5    1    3    3    0  502  0.67124089188E+02 -0.11397996008E+02 -0.17499414848E+02  0.70422010638E+02  0.41800000000E+01 0. -1.
        -11    1    4    4    0    0  0.26502773300E+02  0.38813155208E+02 -0.65470384891E+02  0.80592985474E+02  0.00000000000E+00 0. -1.
         11    1    4    4    0    0 -0.62216787941E+02  0.62287842420E+02 -0.51690860903E+02  0.10209137631E+03  0.00000000000E+00 0.  1.
</event>
<event>
 8    1  0.6832629E-009  0.1346015E+03  0.7561462E-02  0.1220783E+00
          1   -1    0    0  501    0  0.00000000000E+00  0.00000000000E+00  0.94085993052E+02  0.94085993052E+02  0.00000000000E+00 0. -1.
         -1   -1    0    0    0  501 -0.00000000000E+00 -0.00000000000E+00 -0.22780446940E+03  0.22780446940E+03  0.00000000000E+00 0.  1.
         25    2    1    2    0    0  0.95188666996E+02 -0.20885590774E+02 -0.60753863913E+02  0.16981138297E+03  0.12509110113E+03 0.  0.
         23    2    1    2    0    0 -0.95188666996E+02  0.20885590774E+02 -0.72964612439E+02  0.15207907948E+03  0.91143411836E+02 0.  0.
          5    1    3    3  502    0  0.50541071643E+02 -0.58406447907E+02 -0.76983281525E+02  0.10913116473E+03  0.41800000000E+01 0.  1.
         -5    1    3    3    0  502  0.44647595352E+02  0.37520857132E+02  0.16229417612E+02  0.60680218249E+02  0.41800000000E+01 0.  1.
        -11    1    4    4    0    0 -0.41597421743E+02  0.55668136202E+02 -0.40093888374E+02  0.80229712507E+02  0.00000000000E+00 0.  1.
         11    1    4    4    0    0 -0.53591245253E+02 -0.34782545428E+02 -0.32870724065E+02  0.71849366975E+02  0.00000000000E+00 0. -1.
</event>
<event>
 8    1  0.6832629E-009  0.9059973E+02  0.7561462E-02  0.1301406E+00
          2   -1    0    0  501    0  0.00000000000E+00  0.00000000000E+00  0.75175232646E+03  0.75175232646E+03  0.00000000000E+00 0. -1.
         -2   -1    0    0    0  501 -0.00000000000E+00 -0.00000000000E+00 -0.18853679586E+02  0.18853679586E+02  0.00000000000E+00 0.  1.
         25    2    1    2    0    0 -0.75626609351E+00 -0.16884856100E+02  0.26104003707E+03  0.28995762918E+03  0.12509138843E+03 0.  0.
         23    2    1    2    0    0  0.75626609351E+00  0.16884856100E+02  0.47185860980E+03  0.48064837687E+03  0.89925770725E+02 0.  0.
          5    1    3    3  502    0 -0.33142192874E+02 -0.38514579284E+02  0.38212477075E+02  0.63713762800E+02  0.41800000000E+01 0.  1.
         -5    1    3    3    0  502  0.32385926781E+02  0.21629723184E+02  0.22282756000E+03  0.22624386638E+03  0.41800000000E+01 0.  1.
        -11    1    4    4    0    0 -0.27313705128E+01 -0.36974891590E+02  0.21602863434E+03  0.21918707500E+03  0.00000000000E+00 0.  1.
         11    1    4    4    0    0  0.34876366064E+01  0.53859747690E+02  0.25582997546E+03  0.26146130186E+03  0.00000000000E+00 0. -1.
</event>
<event>
 8    1  0.6832629E-009  0.1388150E+03  0.7561462E-02  0.1214932E+00
         -2   -1    0    0    0  501 -0.00000000000E+00  0.00000000000E+00  0.80332104862E+02  0.80332104862E+02  0.00000000000E+00 0.  1.
          2   -1    0    0  501    0  0.00000000000E+00 -0.00000000000E+00 -0.29923876721E+03  0.29923876721E+03  0.00000000000E+00 0. -1.
         25    2    1    2    0    0  0.99050653501E+02  0.44332077406E+02 -0.95464570351E+02  0.19114252160E+03  0.12508243013E+03 0.  0.
         23    2    1    2    0    0 -0.99050653501E+02 -0.44332077406E+02 -0.12344209200E+03  0.18842835047E+03  0.92146232356E+02 0.  0.
          5    1    3    3  502    0  0.85427957101E+02 -0.25674634632E+02 -0.29895219570E+02  0.94171754104E+02  0.41800000000E+01 0.  1.
         -5    1    3    3    0  502  0.13622696400E+02  0.70006712038E+02 -0.65569350780E+02  0.96970767499E+02  0.41800000000E+01 0.  1.
        -11    1    4    4    0    0 -0.97680127272E+02 -0.29564488183E+02 -0.13527561630E+03  0.16945488660E+03  0.00000000000E+00 0. -1.
         11    1    4    4    0    0 -0.13705262286E+01 -0.14767589223E+02  0.11833524309E+02  0.18973463869E+02  0.00000000000E+00 0.  1.
</event>
<event>
 8    1  0.6832629E-009  0.9475410E+02  0.7561462E-02  0.1291731E+00
          2   -1    0    0  501    0  0.00000000000E+00  0.00000000000E+00  0.96005115228E+03  0.96005115228E+03  0.00000000000E+00 0.  1.
         -2   -1    0    0    0  501 -0.00000000000E+00 -0.00000000000E+00 -0.14917504160E+02  0.14917504160E+02  0.00000000000E+00 0. -1.
         25    2    1    2    0    0  0.57692732777E+01 -0.36430190156E+02  0.63628903255E+03  0.64951748585E+03  0.12509511666E+03 0.  0.
         23    2    1    2    0    0 -0.57692732777E+01  0.36430190156E+02  0.30884461556E+03  0.32545117059E+03  0.95775908264E+02 0.  0.
          5    1    3    3  502    0 -0.38520849163E+02 -0.11066841865E+02  0.68872975298E+02  0.79795300210E+02  0.41800000000E+01 0. -1.
         -5    1    3    3    0  502  0.44290122441E+02 -0.25363348291E+02  0.56741605726E+03  0.56972218564E+03  0.41800000000E+01 0. -1.
        -11    1    4    4    0    0  0.42373599539E+02  0.21995220826E+02  0.10249375025E+03  0.11306759269E+03  0.00000000000E+00 0. -1.
         11    1    4    4    0    0 -0.48142872817E+02  0.14434969330E+02  0.20635086532E+03  0.21238357790E+03  0.00000000000E+00 0.  1.
</event>
<event>
 8    1  0.6832629E-009  0.1057288E+03  0.7561462E-02  0.1268690E+00
         -3   -1    0    0    0  501 -0.00000000000E+00  0.00000000000E+00  0.43914784184E+02  0.43914784184E+02  0.00000000000E+00 0.  1.
          3   -1    0    0  501    0  0.00000000000E+00 -0.00000000000E+00 -0.47804451261E+03  0.47804451261E+03  0.00000000000E+00 0. -1.
         25    2    1    2    0    0  0.73366698193E+02  0.24877322457E+00 -0.12160816541E+03  0.18925863914E+03  0.12509017669E+03 0.  0.
         23    2    1    2    0    0 -0.73366698193E+02 -0.24877322457E+00 -0.31252156302E+03  0.33270065765E+03  0.87391452433E+02 0.  0.
          5    1    3    3  502    0 -0.20967041953E+02 -0.11840911394E+01  0.12833182706E+02  0.24963611487E+02  0.41800000000E+01 0. -1.
         -5    1    3    3    0  502  0.94333740146E+02  0.14328643640E+01 -0.13444134811E+03  0.16429502766E+03  0.41800000000E+01 0. -1.
        -11    1    4    4    0    0 -0.37508303866E+02  0.30521486736E+02 -0.66735402671E+02  0.82413882211E+02  0.00000000000E+00 0.  1.
         11    1    4    4    0    0 -0.35858394326E+02 -0.30770259961E+02 -0.24578616035E+03  0.25028677544E+03  0.00000000000E+00 0. -1.
</event>
<event>
 8    1  0.6832629E-009  0.1481476E+03  0.7561462E-02  0.1202768E+00
          1   -1    0    0  501    0  0.00000000000E+00  0.00000000000E+00  0.37401536894E+03  0.37401536894E+03  0.00000000000E+00 0. -1.
         -1   -1    0    0    0  501 -0.00000000000E+00 -0.00000000000E+00 -0.69524719265E+02  0.69524719265E+02  0.00000000000E+00 0.  1.
         25    2    1    2    0    0 -0.48190364970E+02  0.10181888751E+03  0.11264068899E+03  0.20254539758E+03  0.12508923269E+03 0.  0.
         23    2    1    2    0    0  0.48190364970E+02 -0.10181888751E+03  0.19184996069E+03  0.24099469063E+03  0.92642519197E+02 0.  0.
          5    1    3    3  502    0 -0.71451235876E+02  0.10557067763E+03  0.52699432830E+02  0.13800416553E+03  0.41800000000E+01 0. -1.
         -5    1    3    3    0  502  0.23260870905E+02 -0.37517901198E+01  0.59941256157E+02  0.64541232047E+02  0.41800000000E+01 0. -1.
        -11    1    4    4    0    0  0.13629804699E+02 -0.10872516713E+03  0.15676367992E+03  0.19126365280E+03  0.00000000000E+00 0.  1.
         11    1    4    4    0    0  0.34560560272E+02  0.69062796135E+01  0.35086280771E+02  0.49731037821E+02  0.00000000000E+00 0. -1.
</event>
<event>
 8    1  0.6832629E-009  0.9251316E+02  0.7561462E-02  0.1296877E+00
          3   -1    0    0  501    0  0.00000000000E+00  0.00000000000E+00  0.40723965368E+02  0.40723965368E+02  0.00000000000E+00 0. -1.
         -3   -1    0    0    0  501 -0.00000000000E+00 -0.00000000000E+00 -0.31136505253E+03  0.31136505253E+03  0.00000000000E+00 0.  1.
         25    2    1    2    0    0 -0.26847841685E+02 -0.42663035492E+01 -0.17788359620E+03  0.21915700105E+03  0.12509280301E+03 0.  0.
         23    2    1    2    0    0  0.26847841685E+02  0.42663035492E+01 -0.92757490969E+02  0.13293201685E+03  0.91257662817E+02 0.  0.
          5    1    3    3  502    0 -0.73664585051E+02  0.17983269813E+02 -0.10209857796E+03  0.12724567225E+03  0.41800000000E+01 0.  1.
         -5    1    3    3    0  502  0.46816743366E+02 -0.22249573362E+02 -0.75785018234E+02  0.91911328806E+02  0.41800000000E+01 0.  1.
        -11    1    4    4    0    0  0.18515130184E+02 -0.22446832209E+02 -0.99900754836E+02  0.10405205975E+03  0.00000000000E+00 0.  1.
         11    1    4    4    0    0  0.83327115014E+01  0.26713135758E+02  0.71432638676E+01  0.28879957093E+02  0.00000000000E+00 0. -1.
</event>
<event>
 8    1  0.6832629E-009  0.1257381E+03  0.7561462E-02  0.1233920E+00
         -1   -1    0    0    0  501 -0.00000000000E+00  0.00000000000E+00  0.11847006995E+03  0.11847006995E+03  0.00000000000E+00 0.  1.
          1   -1    0    0  501    0  0.00000000000E+00 -0.00000000000E+00 -0.21263023936E+03  0.21263023936E+03  0.00000000000E+00 0. -1.
         25    2    1    2    0    0  0.99509059563E+02  0.57174426991E+02 -0.59152643311E+02  0.17977158389E+03  0.12509124320E+03 0.  0.
         23    2    1    2    0    0 -0.99509059563E+02 -0.57174426991E+02 -0.35007526100E+02  0.15132872542E+03  0.92216528974E+02 0.  0.
          5    1    3    3  502    0  0.18089526158E+02 -0.12223189214E+02  0.32134441269E+02  0.39073418418E+02  0.41800000000E+01 0.  1.
         -5    1    3    3    0  502  0.81419533404E+02  0.69397616205E+02 -0.91287084580E+02  0.14069816547E+03  0.41800000000E+01 0.  1.
        -11    1    4    4    0    0 -0.52616277339E+02 -0.53671535498E+02  0.21153675811E+02  0.78080627329E+02  0.00000000000E+00 0.  1.
         11    1    4    4    0    0 -0.46892782224E+02 -0.35028914930E+01 -0.56161201911E+02  0.73248098088E+02  0.00000000000E+00 0. -1.
</event>
<event>
 8    1  0.6832629E-009  0.1100241E+03  0.7561462E-02  0.1260525E+00
          2   -1    0    0  501    0  0.00000000000E+00  0.00000000000E+00  0.81687510290E+02  0.81687510290E+02  0.00000000000E+00 0. -1.
         -2   -1    0    0    0  501 -0.00000000000E+00 -0.00000000000E+00 -0.24136435373E+03  0.24136435373E+03  0.00000000000E+00 0.  1.
         25    2    1    2    0    0  0.71136924687E+01 -0.20330821725E+02 -0.18663162567E+03  0.22570435106E+03  0.12508854245E+03 0.  0.
         23    2    1    2    0    0 -0.71136924687E+01  0.20330821725E+02  0.26954782230E+02  0.97347512964E+02  0.91027639005E+02 0.  0.
          5    1    3    3  502    0 -0.20965139507E+02  0.48150863614E+02 -0.82269082335E+02  0.97691949768E+02  0.41800000000E+01 0.  1.
         -5    1    3    3    0  502  0.28078831975E+02 -0.68481685339E+02 -0.10436254333E+03  0.12801240129E+03  0.41800000000E+01 0.  1.
        -11    1    4    4    0    0  0.21234471641E+02 -0.29234866721E+02  0.14317665648E+02  0.38866126224E+02  0.00000000000E+00 0.  1.
         11    1    4    4    0    0 -0.28348164110E+02  0.49565688446E+02  0.12637116581E+02  0.58481386740E+02  0.00000000000E+00 0. -1.
</event>
<event>
 8    1  0.6832629E-009  0.9881076E+02  0.7561462E-02  0.1282817E+00
          2   -1    0    0  501    0  0.00000000000E+00  0.00000000000E+00  0.12058784289E+03  0.12058784289E+03  0.00000000000E+00 0. -1.
         -2   -1    0    0    0  501 -0.00000000000E+00 -0.00000000000E+00 -0.13084822202E+03  0.13084822202E+03  0.00000000000E+00 0.  1.
         25    2    1    2    0    0  0.18612703967E+02  0.48969548784E+02  0.29034965186E+02  0.13869063695E+03  0.12509042376E+03 0.  0.
         23    2    1    2    0    0 -0.18612703967E+02 -0.48969548784E+02 -0.39295344318E+02  0.11274542797E+03  0.91776674516E+02 0.  0.
          5    1    3    3  502    0  0.54571951660E+02 -0.73408877652E+01  0.43385462675E+02  0.70226471595E+02  0.41800000000E+01 0.  1.
         -5    1    3    3    0  502 -0.35959247693E+02  0.56310436549E+02 -0.14350497489E+02  0.68464165351E+02  0.41800000000E+01 0.  1.
        -11    1    4    4    0    0 -0.31644889906E+02 -0.82506789638E+01 -0.57601571407E+02  0.66237555730E+02  0.00000000000E+00 0.  1.
         11    1    4    4    0    0  0.13032185939E+02 -0.40718869820E+02  0.18306227089E+02  0.46507872237E+02  0.00000000000E+00 0. -1.
</event>
<event>
 8    1  0.6832629E-009  0.1067359E+03  0.7561462E-02  0.1266737E+00
         -2   -1    0    0    0  501 -0.00000000000E+00  0.00000000000E+00  0.11087351546E+03  0.11087351546E+03  0.00000000000E+00 0.  1.
          2   -1    0    0  501    0  0.00000000000E+00 -0.00000000000E+00 -0.19482594358E+03  0.19482594358E+03  0.00000000000E+00 0. -1.
         25    2    1    2    0    0 -0.28048920946E+02 -0.29629286520E+02 -0.13817582101E+03  0.19079979899E+03  0.12508944479E+03 0.  0.
         23    2    1    2    0    0  0.28048920946E+02  0.29629286520E+02  0.54223392888E+02  0.11489966005E+03  0.92720650110E+02 0.  0.
          5    1    3    3  502    0 -0.25154925825E+02 -0.69983423857E+02 -0.12922355202E+03  0.14915310491E+03  0.41800000000E+01 0. -1.
         -5    1    3    3    0  502 -0.28939951213E+01  0.40354137337E+02 -0.89522689926E+01  0.41646694084E+02  0.41800000000E+01 0. -1.
        -11    1    4    4    0    0  0.51113312660E+02 -0.10357881556E+02  0.42489173146E+02  0.67269504801E+02  0.00000000000E+00 0. -1.
         11    1    4    4    0    0 -0.23064391714E+02  0.39987168076E+02  0.11734219741E+02  0.47630155247E+02  0.00000000000E+00 0.  1.
</event>
<event>
 8    1  0.6832629E-009  0.1051939E+03  0.7561462E-02  0.1269738E+00
          1   -1    0    0  501    0  0.00000000000E+00  0.00000000000E+00  0.33036277229E+03  0.33036277229E+03  0.00000000000E+00 0. -1.
         -1   -1    0    0    0  501 -0.00000000000E+00 -0.00000000000E+00 -0.54481418025E+02  0.54481418025E+02  0.00000000000E+00 0.  1.
         25    2    1    2    0    0 -0.64631169196E+02  0.40552065027E+02  0.12379845131E+03  0.19182221866E+03  0.12509216209E+03 0.  0.
         23    2    1    2    0    0  0.64631169196E+02 -0.40552065027E+02  0.15208290296E+03  0.19302197166E+03  0.91140628480E+02 0.  0.
          5    1    3    3  502    0  0.19414846589E+01  0.23697999655E+02 -0.20686768459E+02  0.31792756087E+02  0.41800000000E+01 0. -1.
         -5    1    3    3    0  502 -0.66572653855E+02  0.16854065372E+02  0.14448521977E+03  0.16002946257E+03  0.41800000000E+01 0. -1.
        -11    1    4    4    0    0  0.56648455456E+02 -0.68205892340E+02  0.12672587316E+03  0.15466265931E+03  0.00000000000E+00 0.  1.
         11    1    4    4    0    0  0.79827137404E+01  0.27653827313E+02  0.25357029798E+02  0.38359312349E+02  0.00000000000E+00 0. -1.
</event>
<event>
 8    1  0.6832629E-009  0.6880056E+02  0.7561462E-02  0.1364220E+00
          1   -1    0    0  501    0  0.00000000000E+00  0.00000000000E+00  0.56557333169E+02  0.56557333169E+02  0.00000000000E+00 0. -1.
         -1   -1    0    0    0  501 -0.00000000000E+00 -0.00000000000E+00 -0.26695239657E+03  0.26695239657E+03  0.00000000000E+00 0.  1.
         25    2    1    2    0    0 -0.13955919417E+01 -0.28692500671E+02 -0.51982803896E+02  0.13847258409E+03  0.12508891786E+03 0.  0.
         23    2    1    2    0    0  0.13955919417E+01  0.28692500671E+02 -0.15841225951E+03  0.18503714565E+03  0.91209067737E+02 0.  0.
          5    1    3    3  502    0 -0.17459416617E+02 -0.38640873215E+02  0.31365260871E+02  0.52907469236E+02  0.41800000000E+01 0.  1.
         -5    1    3    3    0  502  0.16063824675E+02  0.99483725444E+01 -0.83348064767E+02  0.85565114854E+02  0.41800000000E+01 0.  1.
        -11    1    4    4    0    0  0.27227037546E+02  0.39222522125E+02 -0.14758176040E+03  0.15511316456E+03  0.00000000000E+00 0.  1.
         11    1    4    4    0    0 -0.25831445604E+02 -0.10530021454E+02 -0.10830499107E+02  0.29923981098E+02  0.00000000000E+00 0. -1.
</event>
<event>
 8    1  0.6832629E-009  0.1445001E+03  0.7561462E-02  0.1207399E+00
          1   -1    0    0  501    0  0.00000000000E+00  0.00000000000E+00  0.57466770601E+03  0.57466770601E+03  0.00000000000E+00 0. -1.
         -1   -1    0    0    0  501 -0.00000000000E+00 -0.00000000000E+00 -0.48161324131E+02  0.48161324131E+02  0.00000000000E+00 0.  1.
         25    2    1    2    0    0 -0.93419279345E+02  0.29598781758E+02  0.42890074269E+03  0.45738992019E+03  0.12508574009E+03 0.  0.
         23    2    1    2    0    0  0.93419279345E+02 -0.29598781758E+02  0.97605639183E+02  0.16543910995E+03  0.90774383308E+02 0.  0.
          5    1    3    3  502    0 -0.92390084466E+02 -0.31337354327E+02  0.27385068308E+03  0.29073979175E+03  0.41800000000E+01 0.  1.
         -5    1    3    3    0  502 -0.10291948793E+01  0.60936136086E+02  0.15505005961E+03  0.16665012844E+03  0.41800000000E+01 0.  1.
        -11    1    4    4    0    0  0.37255463767E+02 -0.56745317012E+02  0.32461833281E+02  0.75244742030E+02  0.00000000000E+00 0.  1.
         11    1    4    4    0    0  0.56163815578E+02  0.27146535253E+02  0.65143805902E+02  0.90194367917E+02  0.00000000000E+00 0. -1.
</event>
<event>
 8    1  0.6832629E-009  0.8265992E+02  0.7561462E-02  0.1321668E+00
         -1   -1    0    0    0  501 -0.00000000000E+00  0.00000000000E+00  0.59474364401E+02  0.59474364401E+02  0.00000000000E+00 0.  1.
          1   -1    0    0  501    0  0.00000000000E+00 -0.00000000000E+00 -0.28094729343E+03  0.28094729343E+03  0.00000000000E+00 0. -1.
         25    2    1    2    0    0 -0.11853925312E+02 -0.53174276507E+02 -0.18362819887E+03  0.22876708852E+03  0.12508815348E+03 0.  0.
         23    2    1    2    0    0  0.11853925312E+02  0.53174276507E+02 -0.37844730152E+02  0.11165456931E+03  0.89813696169E+02 0.  0.
          5    1    3    3  502    0 -0.35460516364E+02 -0.54387052506E+02 -0.27215994684E+02  0.70523630563E+02  0.41800000000E+01 0. -1.
         -5    1    3    3    0  502  0.23606591052E+02  0.12127759989E+01 -0.15641220419E+03  0.15824345796E+03  0.41800000000E+01 0. -1.
        -11    1    4    4    0    0  0.28835541012E+02  0.11127079933E+02 -0.55066453118E+02  0.63147562046E+02  0.00000000000E+00 0.  1.
         11    1    4    4    0    0 -0.16981615700E+02  0.42047196574E+02  0.17221722967E+02  0.48507007261E+02  0.00000000000E+00 0. -1.
</event>
<event>
 8    1  0.6832629E-009  0.1626176E+03  0.7561462E-02  0.1185773E+00
          1   -1    0    0  501    0  0.00000000000E+00  0.00000000000E+00  0.62252131001E+02  0.62252131001E+02  0.00000000000E+00 0. -1.
         -1   -1    0    0    0  501 -0.00000000000E+00 -0.00000000000E+00 -0.49524343920E+03  0.49524343920E+03  0.00000000000E+00 0.  1.
         25    2    1    2    0    0 -0.13172876520E+03 -0.12799564159E+02 -0.16781357622E+03  0.24764076481E+03  0.12509298784E+03 0.  0.
         23    2    1    2    0    0  0.13172876520E+03  0.12799564159E+02 -0.26517773197E+03  0.30985480539E+03  0.90412800349E+02 0.  0.
          5    1    3    3  502    0 -0.98569401533E+02 -0.61830331347E+02 -0.78539404191E+02  0.14044510388E+03  0.41800000000E+01 0. -1.
         -5    1    3    3    0  502 -0.33159363665E+02  0.49030767188E+02 -0.89274172034E+02  0.10719566093E+03  0.41800000000E+01 0. -1.
        -11    1    4    4    0    0  0.48233499539E+01  0.21717372232E+02 -0.93899855683E+02  0.96499180612E+02  0.00000000000E+00 0. -1.
         11    1    4    4    0    0  0.12690541524E+03 -0.89178080725E+01 -0.17127787629E+03  0.21335562478E+03  0.00000000000E+00 0.  1.
</event>
<event>
 8    1  0.6832629E-009  0.1895113E+03  0.7561462E-02  0.1158903E+00
          1   -1    0    0  501    0  0.00000000000E+00  0.00000000000E+00  0.76690023997E+02  0.76690023997E+02  0.00000000000E+00 0. -1.
         -1   -1    0    0    0  501 -0.00000000000E+00 -0.00000000000E+00 -0.55580585760E+03  0.55580585760E+03  0.00000000000E+00 0.  1.
         25    2    1    2    0    0  0.40900728554E+02  0.15989937433E+03 -0.15858403050E+03  0.26083994622E+03  0.12509157969E+03 0.  0.
         23    2    1    2    0    0 -0.40900728554E+02 -0.15989937433E+03 -0.32053180310E+03  0.37165593537E+03  0.90259725187E+02 0.  0.
          5    1    3    3  502    0  0.39233710594E+02  0.81028916305E+01 -0.80645149285E+02  0.90144624925E+02  0.41800000000E+01 0. -1.
         -5    1    3    3    0  502  0.16670179597E+01  0.15179648270E+03 -0.77938881215E+02  0.17069532130E+03  0.41800000000E+01 0. -1.
        -11    1    4    4    0    0 -0.23846989758E+01 -0.14586865468E+03 -0.23139551733E+03  0.27354567562E+03  0.00000000000E+00 0. -1.
         11    1    4    4    0    0 -0.38516029578E+02 -0.14030719647E+02 -0.89136285767E+02  0.98110259752E+02  0.00000000000E+00 0.  1.
</event>
<event>
 8    1  0.6832629E-009  0.1034962E+03  0.7561462E-02  0.1273111E+00
          3   -1    0    0  501    0  0.00000000000E+00  0.00000000000E+00  0.35509756838E+03  0.35509756838E+03  0.00000000000E+00 0. -1.
         -3   -1    0    0    0  501 -0.00000000000E+00 -0.00000000000E+00 -0.41782850689E+02  0.41782850689E+02  0.00000000000E+00 0.  1.
         25    2    1    2    0    0  0.48129864471E+02 -0.25577743546E+01  0.13504558593E+03  0.19028361689E+03  0.12509004162E+03 0.  0.
         23    2    1    2    0    0 -0.48129864471E+02  0.25577743546E+01  0.17826913176E+03  0.20659680218E+03  0.92624668795E+02 0.  0.
          5    1    3    3  502    0 -0.11426190511E+02 -0.43347386466E+02  0.10437705259E+02  0.46216575318E+02  0.41800000000E+01 0. -1.
         -5    1    3    3    0  502  0.59556054982E+02  0.40789612112E+02  0.12460788067E+03  0.14406704157E+03  0.41800000000E+01 0. -1.
        -11    1    4    4    0    0 -0.68157993231E+02 -0.48001478952E+01  0.17085101526E+03  0.18400712724E+03  0.00000000000E+00 0.  1.
         11    1    4    4    0    0  0.20028128760E+02  0.73579222498E+01  0.74181165019E+01  0.22589674940E+02  0.00000000000E+00 0. -1.
</event>
<event>
 8    1  0.6832629E-009  0.6076247E+02  0.7561462E-02  0.1394660E+00
         -1   -1    0    0    0  501 -0.00000000000E+00  0.00000000000E+00  0.58618247633E+02  0.58618247633E+02  0.00000000000E+00 0.  1.
          1   -1    0    0  501    0  0.00000000000E+00 -0.00000000000E+00 -0.21241274978E+03  0.21241274978E+03  0.00000000000E+00 0. -1.
         25    2    1    2    0    0 -0.14204026704E+02  0.23614383986E+02 -0.70461995046E+02  0.14618966573E+03  0.12508849713E+03 0.  0.
         23    2    1    2    0    0  0.14204026704E+02 -0.23614383986E+02 -0.83332507098E+02  0.12484133168E+03  0.88778701559E+02 0.  0.
          5    1    3    3  502    0  0.28734028919E+02  0.37108303543E+02 -0.86273511669E+02  0.98301891260E+02  0.41800000000E+01 0. -1.
         -5    1    3    3    0  502 -0.42938055623E+02 -0.13493919557E+02  0.15811516623E+02  0.47887774469E+02  0.41800000000E+01 0. -1.
        -11    1    4    4    0    0  0.13470014072E+01 -0.11370740700E+02  0.18345143944E+02  0.21625273714E+02  0.00000000000E+00 0.  1.
         11    1    4    4    0    0  0.12857025297E+02 -0.12243643285E+02 -0.10167765104E+03  0.10321605797E+03  0.00000000000E+00 0. -1.
</event>
<event>
 8    1  0.6832629E-009  0.1659436E+03  0.7561462E-02  0.1182145E+00
         -4   -1    0    0    0  501 -0.00000000000E+00  0.00000000000E+00  0.52579330538E+03  0.52579330538E+03  0.00000000000E+00 0.  1.
          4   -1    0    0  501    0  0.00000000000E+00 -0.00000000000E+00 -0.63499593920E+02  0.63499593920E+02  0.00000000000E+00 0. -1.
         25    2    1    2    0    0 -0.14070878808E+03 -0.19952058554E+02  0.29748665630E+03  0.35262230169E+03  0.12508848585E+03 0.  0.
         23    2    1    2    0    0  0.14070878808E+03  0.19952058554E+02  0.16480705515E+03  0.23667059760E+03  0.93029880455E+02 0.  0.
          5    1    3    3  502    0 -0.15501547607E+03  0.10456492099E+02  0.24156655920E+03  0.28724729933E+03  0.41800000000E+01 0. -1.
         -5    1    3    3    0  502  0.14306687995E+02 -0.30408550653E+02  0.55920097098E+02  0.65375002361E+02  0.41800000000E+01 0. -1.
        -11    1    4    4    0    0  0.12552708870E+03  0.14054927784E+02  0.78230103476E+02  0.14857503183E+03  0.00000000000E+00 0. -1.
         11    1    4    4    0    0  0.15181699379E+02  0.58971307701E+01  0.86576951678E+02  0.88095565775E+02  0.00000000000E+00 0.  1.
</event>
<event>
 8    1  0.6832629E-009  0.2751196E+03  0.7561462E-02  0.1098385E+00
          1   -1    0    0  501    0  0.00000000000E+00  0.00000000000E+00  0.73027548895E+03  0.73027548895E+03  0.00000000000E+00 0. -1.
         -1   -1    0    0    0  501 -0.00000000000E+00 -0.00000000000E+00 -0.10740857550E+03  0.10740857550E+03  0.00000000000E+00 0.  1.
         25    2    1    2    0    0 -0.10069967636E+03  0.23660816220E+03  0.32477714050E+03  0.43272656825E+03  0.12509294401E+03 0.  0.
         23    2    1    2    0    0  0.10069967636E+03 -0.23660816220E+03  0.29808977295E+03  0.40495749620E+03  0.94916878138E+02 0.  0.
          5    1    3    3  502    0 -0.10317683636E+03  0.24893182738E+03  0.32062510060E+03  0.41884417363E+03  0.41800000000E+01 0.  1.
         -5    1    3    3    0  502  0.24771600044E+01 -0.12323665181E+02  0.41520398976E+01  0.13882394624E+02  0.41800000000E+01 0.  1.
        -11    1    4    4    0    0  0.42337545568E+02 -0.27720637678E+02  0.25669299400E+02  0.56743408866E+02  0.00000000000E+00 0.  1.
         11    1    4    4    0    0  0.58362130791E+02 -0.20888752452E+03  0.27242047355E+03  0.34821408733E+03  0.00000000000E+00 0. -1.
</event>
<event>
 8    1  0.6832629E-009  0.1113283E+03  0.7561462E-02  0.1258130E+00
          1   -1    0    0  501    0  0.00000000000E+00  0.00000000000E+00  0.43567377546E+03  0.43567377546E+03  0.00000000000E+00 0. -1.
         -1   -1    0    0    0  501 -0.00000000000E+00 -0.00000000000E+00 -0.58334418844E+02  0.58334418844E+02  0.00000000000E+00 0.  1.
         25    2    1    2    0    0  0.22928253757E+02  0.10706499408E+03  0.26608230310E+03  0.31374522532E+03  0.12509059361E+03 0.  0.
         23    2    1    2    0    0 -0.22928253757E+02 -0.10706499408E+03  0.11125705352E+03  0.18026296898E+03  0.90155356201E+02 0.  0.
          5    1    3    3  502    0  0.47682252128E+01  0.33482572928E+02 -0.29544880369E+01  0.34205555998E+02  0.41800000000E+01 0. -1.
         -5    1    3    3    0  502  0.18160028544E+02  0.73582421154E+02  0.26903679114E+03  0.27953966932E+03  0.41800000000E+01 0. -1.
        -11    1    4    4    0    0 -0.15954276088E+02 -0.21234640155E+02 -0.12611549412E+02  0.29402381649E+02  0.00000000000E+00 0.  1.
         11    1    4    4    0    0 -0.69739776688E+01 -0.85830353926E+02  0.12386860293E+03  0.15086058734E+03  0.00000000000E+00 0. -1.
</event>
<event>
 8    1  0.6832629E-009  0.9880080E+02  0.7561462E-02  0.1282838E+00
         -1   -1    0    0    0  501 -0.00000000000E+00  0.00000000000E+00  0.85278501052E+02  0.85278501052E+02  0.00000000000E+00 0.  1.
          1   -1    0    0  501    0  0.00000000000E+00 -0.00000000000E+00 -0.40442501490E+03  0.40442501490E+03  0.00000000000E+00 0. -1.
         25    2    1    2    0    0  0.79688346041E+02 -0.84937184890E+01 -0.33742982226E+03  0.36868477486E+03  0.12508877852E+03 0.  0.
         23    2    1    2    0    0 -0.79688346041E+02  0.84937184890E+01  0.18283308415E+02  0.12101874109E+03  0.88819370528E+02 0.  0.
          5    1    3    3  502    0  0.36484563754E+02  0.30138035952E+02 -0.28946760456E+03  0.29334006049E+03  0.41800000000E+01 0.  1.
         -5    1    3    3    0  502  0.43203782287E+02 -0.38631754441E+02 -0.47962217705E+02  0.75344714362E+02  0.41800000000E+01 0.  1.
        -11    1    4    4    0    0 -0.27965107071E+02 -0.18611764223E+02  0.45528868788E+02  0.56580233952E+02  0.00000000000E+00 0.  1.
         11    1    4    4    0    0 -0.51723238970E+02  0.27105482712E+02 -0.27245560373E+02  0.64438507142E+02  0.00000000000E+00 0. -1.
</event>
<event>
 8    1  0.6832629E-009  0.1579320E+03  0.7561462E-02  0.1191052E+00
          2   -1    0    0  501    0  0.00000000000E+00  0.00000000000E+00  0.13419639467E+04  0.13419639467E+04  0.00000000000E+00 0. -1.
         -2   -1    0    0    0  501 -0.00000000000E+00 -0.00000000000E+00 -0.24353118371E+02  0.24353118371E+02  0.00000000000E+00 0.  1.
         25    2    1    2    0    0 -0.12935536678E+03  0.63938340372E+02  0.71398983831E+03  0.73908720861E+03  0.12508992939E+03 0.  0.
         23    2    1    2    0    0  0.12935536678E+03 -0.63938340372E+02  0.60362098999E+03  0.62722985644E+03  0.90763819670E+02 0.  0.
          5    1    3    3  502    0 -0.85460234834E+02  0.61907866119E+02  0.66421948953E+03  0.67256303667E+03  0.41800000000E+01 0.  1.
         -5    1    3    3    0  502 -0.43895131947E+02  0.20304742528E+01  0.49770348785E+02  0.66524171941E+02  0.41800000000E+01 0.  1.
        -11    1    4    4    0    0  0.49053012764E+02 -0.70118679765E+02  0.38088925907E+03  0.39038372787E+03  0.00000000000E+00 0.  1.
         11    1    4    4    0    0  0.80302354017E+02  0.61803393935E+01  0.22273173092E+03  0.23684612856E+03  0.00000000000E+00 0. -1.
</event>
<event>
 8    1  0.6832629E-009  0.1787732E+03  0.7561462E-02  0.1168996E+00
          2   -1    0    0  501    0  0.00000000000E+00  0.00000000000E+00  0.10625291523E+04  0.10625291523E+04  0.00000000000E+00 0. -1.
         -2   -1    0    0    0  501 -0.00000000000E+00 -0.00000000000E+00 -0.39421338740E+02  0.39421338740E+02  0.00000000000E+00 0.  1.
         25    2    1    2    0    0 -0.14767100831E+03 -0.47125349289E+02  0.74833562882E+03  0.77439098202E+03  0.12509058490E+03 0.  0.
         23    2    1    2    0    0  0.14767100831E+03  0.47125349289E+02  0.27477218478E+03  0.32755950907E+03  0.88135992696E+02 0.  0.
          5    1    3    3  502    0 -0.11681914630E+03 -0.75699200874E+02  0.40100726394E+03  0.42450133108E+03  0.41800000000E+01 0. -1.
         -5    1    3    3    0  502 -0.30851862001E+02  0.28573851586E+02  0.34732836488E+03  0.34988965094E+03  0.41800000000E+01 0. -1.
        -11    1    4    4    0    0  0.61843141850E+02 -0.22187385736E+02  0.78122514153E+02  0.10207831061E+03  0.00000000000E+00 0.  1.
         11    1    4    4    0    0  0.85827866456E+02  0.69312735024E+02  0.19664967063E+03  0.22548119845E+03  0.00000000000E+00 0. -1.
</event>
<event>
 8    1  0.6832629E-009  0.1568803E+03  0.7561462E-02  0.1192265E+00
         -2   -1    0    0    0  501 -0.00000000000E+00  0.00000000000E+00  0.28541660565E+03  0.28541660565E+03  0.00000000000E+00 0.  1.
          2   -1    0    0  501    0  0.00000000000E+00 -0.00000000000E+00 -0.11646831908E+03  0.11646831908E+03  0.00000000000E+00 0. -1.
         25    2    1    2    0    0  0.12721048271E+03  0.70197972520E+02  0.92153785564E+02  0.21271399905E+03  0.12507862702E+03 0.  0.
         23    2    1    2    0    0 -0.12721048271E+03 -0.70197972520E+02  0.76794501001E+02  0.18917092569E+03  0.93690882605E+02 0.  0.
          5    1    3    3  502    0  0.57898067108E+01  0.37614584388E+02  0.77032357595E+02  0.86022295582E+02  0.41800000000E+01 0. -1.
         -5    1    3    3    0  502  0.12142067600E+03  0.32583388131E+02  0.15121427969E+02  0.12669170346E+03  0.41800000000E+01 0. -1.
        -11    1    4    4    0    0 -0.63188470575E+02 -0.55267683692E+02 -0.51613254875E+01  0.84106711713E+02  0.00000000000E+00 0. -1.
         11    1    4    4    0    0 -0.64022012137E+02 -0.14930288828E+02  0.81955826489E+02  0.10506421397E+03  0.00000000000E+00 0.  1.
</event>
<event>
 8    1  0.6832629E-009  0.1207197E+03  0.7561462E-02  0.1241914E+00
         -2   -1    0    0    0  501 -0.00000000000E+00  0.00000000000E+00  0.10077599483E+03  0.10077599483E+03  0.00000000000E+00 0.  1.
          2   -1    0    0  501    0  0.00000000000E+00 -0.00000000000E+00 -0.18628675391E+03  0.18628675391E+03  0.00000000000E+00 0. -1.
         25    2    1    2    0    0 -0.71245978651E+02 -0.42279476187E+02 -0.45858768847E+02  0.15688971705E+03  0.12509121894E+03 0.  0.
         23    2    1    2    0    0  0.71245978651E+02  0.42279476187E+02 -0.39651990231E+02  0.13017303169E+03  0.92245294024E+02 0.  0.
          5    1    3    3  502    0 -0.90846885794E+02 -0.31480262647E+02 -0.73489532172E+02  0.12108817999E+03  0.41800000000E+01 0.  1.
         -5    1    3    3    0  502  0.19600907143E+02 -0.10799213540E+02  0.27630763325E+02  0.35801537060E+02  0.41800000000E+01 0.  1.
        -11    1    4    4    0    0  0.97808540948E+01 -0.27652674500E+02 -0.95555774438E+00  0.29347037405E+02  0.00000000000E+00 0.  1.
         11    1    4    4    0    0  0.61465124556E+02  0.69932150687E+02 -0.38696432487E+02  0.10082599429E+03  0.00000000000E+00 0. -1.
</event>
<event>
 8    1  0.6832629E-009  0.7958399E+02  0.7561462E-02  0.1330236E+00
         -4   -1    0    0    0  501 -0.00000000000E+00  0.00000000000E+00  0.17949155006E+02  0.17949155006E+02  0.00000000000E+00 0.  1.
          4   -1    0    0  501    0  0.00000000000E+00 -0.00000000000E+00 -0.76885441551E+03  0.76885441551E+03  0.00000000000E+00 0. -1.
         25    2    1    2    0    0 -0.21486941080E+02  0.41352466143E+02 -0.34888516652E+03  0.37354677459E+03  0.12507844855E+03 0.  0.
         23    2    1    2    0    0  0.21486941080E+02 -0.41352466143E+02 -0.40202009398E+03  0.41325679593E+03  0.83602083246E+02 0.  0.
          5    1    3    3  502    0 -0.33884194010E+02  0.19173171484E+02 -0.34534076270E+03  0.34755354104E+03  0.41800000000E+01 0.  1.
         -5    1    3    3    0  502  0.12397252930E+02  0.22179294659E+02 -0.35444038235E+01  0.25993233547E+02  0.41800000000E+01 0.  1.
        -11    1    4    4    0    0  0.52162777959E+02 -0.35325729912E+02 -0.30047726041E+03  0.30701049920E+03  0.00000000000E+00 0.  1.
         11    1    4    4    0    0 -0.30675836879E+02 -0.60267362310E+01 -0.10154283357E+03  0.10624629673E+03  0.00000000000E+00 0. -1.
</event>
<event>
 8    1  0.6832629E-009  0.8957477E+02  0.7561462E-02  0.1303885E+00
         -2   -1    0    0    0  501 -0.00000000000E+00  0.00000000000E+00  0.16093804967E+03  0.16093804967E+03  0.00000000000E+00 0.  1.
          2   -1    0    0  501    0  0.00000000000E+00 -0.00000000000E+00 -0.12052490162E+03  0.12052490162E+03  0.00000000000E+00 0. -1.
         25    2    1    2    0    0 -0.39573932769E+02  0.58344159262E+02 -0.35468302456E+02  0.14790461935E+03  0.12509052270E+03 0.  0.
         23    2    1    2    0    0  0.39573932769E+02 -0.58344159262E+02  0.75881450497E+02  0.13355833194E+03  0.84319015808E+02 0.  0.
          5    1    3    3  502    0  0.39994818148E+01 -0.17678468306E+02  0.32150909497E+02  0.37144009987E+02  0.41800000000E+01 0.  1.
         -5    1    3    3    0  502 -0.43573414584E+02  0.76022627567E+02 -0.67619211954E+02  0.11076060936E+03  0.41800000000E+01 0.  1.
        -11    1    4    4    0    0  0.12053081646E+02 -0.55115664400E+01  0.72704768934E+02  0.73902892822E+02  0.00000000000E+00 0.  1.
         11    1    4    4    0    0  0.27520851123E+02 -0.52832592822E+02  0.31766815630E+01  0.59655439119E+02  0.00000000000E+00 0. -1.
</event>
<event>
 8    1  0.6832629E-009  0.1051999E+03  0.7561462E-02  0.1269726E+00
          2   -1    0    0  501    0  0.00000000000E+00  0.00000000000E+00  0.89127431114E+03  0.89127431114E+03  0.00000000000E+00 0. -1.
         -2   -1    0    0    0  501 -0.00000000000E+00 -0.00000000000E+00 -0.13761941603E+02  0.13761941603E+02  0.00000000000E+00 0.  1.
         25    2    1    2    0    0 -0.14726466460E+02  0.15584358296E+01  0.59562979080E+03  0.60880525885E+03  0.12509875289E+03 0.  0.
         23    2    1    2    0    0  0.14726466460E+02 -0.15584358296E+01  0.28188257874E+03  0.29623099390E+03  0.89864987688E+02 0.  0.
          5    1    3    3  502    0  0.26299602488E+02  0.50111904477E+02  0.19309727737E+03  0.20126326786E+03  0.41800000000E+01 0.  1.
         -5    1    3    3    0  502 -0.41026068947E+02 -0.48553468647E+02  0.40253251343E+03  0.40754199098E+03  0.41800000000E+01 0.  1.
        -11    1    4    4    0    0  0.15078153982E+02  0.42908440767E+02  0.11924993694E+03  0.12762849399E+03  0.00000000000E+00 0.  1.
         11    1    4    4    0    0 -0.35168752194E+00 -0.44466876597E+02  0.16263264180E+03  0.16860249991E+03  0.00000000000E+00 0. -1.
</event>
<event>
 8    1  0.6832629E-009  0.1200172E+03  0.7561462E-02  0.1243069E+00
         -1   -1    0    0    0  501 -0.00000000000E+00  0.00000000000E+00  0.25523067123E+02  0.25523067123E+02  0.00000000000E+00 0.  1.
          1   -1    0    0  501    0  0.00000000000E+00 -0.00000000000E+00 -0.90248252595E+03  0.90248252595E+03  0.00000000000E+00 0. -1.
         25    2    1    2    0    0 -0.91183772338E+02 -0.19261849526E+02 -0.59032959895E+03  0.61059156815E+03  0.12509008161E+03 0.  0.
         23    2    1    2    0    0  0.91183772338E+02  0.19261849526E+02 -0.28662985988E+03  0.31741402493E+03  0.99546408569E+02 0.  0.
          5    1    3    3  502    0 -0.67378644984E+02  0.26694146327E+02 -0.14411707684E+03  0.16136809934E+03  0.41800000000E+01 0. -1.
         -5    1    3    3    0  502 -0.23805127354E+02 -0.45955995853E+02 -0.44621252211E+03  0.44922346881E+03  0.41800000000E+01 0. -1.
        -11    1    4    4    0    0  0.46119958379E+02  0.44311875169E+02 -0.70366055788E+02  0.95089298289E+02  0.00000000000E+00 0.  1.
         11    1    4    4    0    0  0.45063813959E+02 -0.25050025643E+02 -0.21626380409E+03  0.22232472664E+03  0.00000000000E+00 0. -1.
</event>
<event>
 8    1  0.6832629E-009  0.2188142E+03  0.7561462E-02  0.1134770E+00
         -2   -1    0    0    0  501 -0.00000000000E+00  0.00000000000E+00  0.17087672909E+03  0.17087672909E+03  0.00000000000E+00 0.  1.
          2   -1    0    0  501    0  0.00000000000E+00 -0.00000000000E+00 -0.35552798401E+03  0.35552798401E+03  0.00000000000E+00 0. -1.
         25    2    1    2    0    0 -0.19593630350E+03  0.90959335847E+02 -0.13948124790E+03  0.28595088312E+03  0.12509297836E+03 0.  0.
         23    2    1    2    0    0  0.19593630350E+03 -0.90959335847E+02 -0.45170007016E+02  0.24045382998E+03  0.95462448172E+02 0.  0.
          5    1    3    3  502    0 -0.17741262264E+03  0.90545552078E+02 -0.65724619158E+02  0.20978783005E+03  0.41800000000E+01 0. -1.
         -5    1    3    3    0  502 -0.18523680859E+02  0.41378376848E+00 -0.73756628740E+02  0.76163053068E+02  0.41800000000E+01 0. -1.
        -11    1    4    4    0    0  0.28751940335E+02  0.67090909197E+00 -0.40595816887E+02  0.49750824524E+02  0.00000000000E+00 0. -1.
         11    1    4    4    0    0  0.16718436316E+03 -0.91630244939E+02 -0.45741901285E+01  0.19070300546E+03  0.00000000000E+00 0.  1.
</event>
<event>
 8    1  0.6832629E-009  0.1116210E+03  0.7561462E-02  0.1257597E+00
         -2   -1    0    0    0  501 -0.00000000000E+00  0.00000000000E+00  0.67161409723E+02  0.67161409723E+02  0.00000000000E+00 0.  1.
          2   -1    0    0  501    0  0.00000000000E+00 -0.00000000000E+00 -0.26281370993E+03  0.26281370993E+03  0.00000000000E+00 0. -1.
         25    2    1    2    0    0 -0.58502041775E+02  0.38188219085E+02 -0.70502847890E+02  0.15968396682E+03  0.12508992257E+03 0.  0.
         23    2    1    2    0    0  0.58502041775E+02 -0.38188219085E+02 -0.12514945232E+03  0.17029115284E+03  0.91955763006E+02 0.  0.
          5    1    3    3  502    0 -0.53444347430E+02 -0.14147125563E+02 -0.88088896850E+02  0.10408441566E+03  0.41800000000E+01 0. -1.
         -5    1    3    3    0  502 -0.50576943449E+01  0.52335344649E+02  0.17586048960E+02  0.55599551164E+02  0.41800000000E+01 0. -1.
        -11    1    4    4    0    0  0.83142428017E+02 -0.23634049170E+02 -0.10014565572E+03  0.13228901684E+03  0.00000000000E+00 0. -1.
         11    1    4    4    0    0 -0.24640386241E+02 -0.14554169915E+02 -0.25003796600E+02  0.38002135999E+02  0.00000000000E+00 0.  1.
</event>
<event>
 8    1  0.6832629E-009  0.1956523E+03  0.7561462E-02  0.1153460E+00
          2   -1    0    0  501    0  0.00000000000E+00  0.00000000000E+00  0.58148434685E+02  0.58148434685E+02  0.00000000000E+00 0. -1.
         -2   -1    0    0    0  501 -0.00000000000E+00 -0.00000000000E+00 -0.76799794463E+03  0.76799794463E+03  0.00000000000E+00 0.  1.
         25    2    1    2    0    0  0.49244329869E+02  0.16589983900E+03 -0.26577477735E+03  0.34092763215E+03  0.12509059711E+03 0.  0.
         23    2    1    2    0    0 -0.49244329869E+02 -0.16589983900E+03 -0.44407473259E+03  0.48521874716E+03  0.91033531546E+02 0.  0.
          5    1    3    3  502    0  0.13342592868E+02 -0.19245105356E+02 -0.19827363506E+02  0.30967654225E+02  0.41800000000E+01 0.  1.
         -5    1    3    3    0  502  0.35901737001E+02  0.18514494435E+03 -0.24594741385E+03  0.30995997793E+03  0.41800000000E+01 0.  1.
        -11    1    4    4    0    0 -0.45052374689E+02 -0.72334043755E+02 -0.11536432628E+03  0.14342544450E+03  0.00000000000E+00 0. -1.
         11    1    4    4    0    0 -0.41919551797E+01 -0.93565795243E+02 -0.32871040632E+03  0.34179330267E+03  0.00000000000E+00 0.  1.
</event>
<event>
 8    1  0.6832629E-009  0.9375517E+02  0.7561462E-02  0.1294005E+00
          2   -1    0    0  501    0  0.00000000000E+00  0.00000000000E+00  0.99153263698E+03  0.99153263698E+03  0.00000000000E+00 0. -1.
         -2   -1    0    0    0  501 -0.00000000000E+00 -0.00000000000E+00 -0.13327567923E+02  0.13327567923E+02  0.00000000000E+00 0.  1.
         25    2    1    2    0    0  0.24205662722E+02  0.26184943022E+02  0.64881404996E+03  0.66172428974E+03  0.12509116216E+03 0.  0.
         23    2    1    2    0    0 -0.24205662722E+02 -0.26184943022E+02  0.32939101909E+03  0.34313591517E+03  0.89287442950E+02 0.  0.
          5    1    3    3  502    0  0.53018359886E+02 -0.78938272543E+01  0.12599088983E+03  0.13698334101E+03  0.41800000000E+01 0. -1.
         -5    1    3    3    0  502 -0.28812697164E+02  0.34078770276E+02  0.52282316013E+03  0.52474094873E+03  0.41800000000E+01 0. -1.
        -11    1    4    4    0    0  0.16546430822E+00 -0.52820165934E+02  0.12693800324E+03  0.13748910493E+03  0.00000000000E+00 0.  1.
         11    1    4    4    0    0 -0.24371127030E+02  0.26635222912E+02  0.20245301586E+03  0.20564681024E+03  0.00000000000E+00 0. -1.
</event>
<event>
 8    1  0.6832629E-009  0.1715857E+03  0.7561462E-02  0.1176204E+00
         -1   -1    0    0    0  501 -0.00000000000E+00  0.00000000000E+00  0.13318210386E+03  0.13318210386E+03  0.00000000000E+00 0.  1.
          1   -1    0    0  501    0  0.00000000000E+00 -0.00000000000E+00 -0.47090709130E+03  0.47090709130E+03  0.00000000000E+00 0. -1.
         25    2    1    2    0    0  0.43500899069E+01  0.15822609329E+03 -0.37028156797E+03  0.42167911012E+03  0.12510160852E+03 0.  0.
         23    2    1    2    0    0 -0.43500899069E+01 -0.15822609329E+03  0.32556580518E+02  0.18241008504E+03  0.84611395847E+02 0.  0.
          5    1    3    3  502    0 -0.28130882207E+02  0.87875342761E+02 -0.30985279074E+03  0.32332591410E+03  0.41800000000E+01 0.  1.
         -5    1    3    3    0  502  0.32480972114E+02  0.70350750534E+02 -0.60428777223E+02  0.98353196018E+02  0.41800000000E+01 0.  1.
        -11    1    4    4    0    0 -0.19573939334E+02 -0.63593718917E+01  0.20908364130E+02  0.29338377639E+02  0.00000000000E+00 0.  1.
         11    1    4    4    0    0  0.15223849427E+02 -0.15186672140E+03  0.11648216388E+02  0.15307170740E+03  0.00000000000E+00 0. -1.
</event>
<event>
 8    1  0.6832629E-009  0.1919023E+03  0.7561462E-02  0.1156757E+00
         -2   -1    0    0    0  501 -0.00000000000E+00  0.00000000000E+00  0.52862561105E+02  0.52862561105E+02  0.00000000000E+00 0.  1.
          2   -1    0    0  501    0  0.00000000000E+00 -0.00000000000E+00 -0.85701349361E+03  0.85701349361E+03  0.00000000000E+00 0. -1.
         25    2    1    2    0    0  0.15308814786E+03 -0.64194057205E+02 -0.25650114095E+03  0.33014736479E+03  0.12509032405E+03 0.  0.
         23    2    1    2    0    0 -0.15308814786E+03  0.64194057205E+02 -0.54764979156E+03  0.57972868993E+03  0.92780395217E+02 0.  0.
          5    1    3    3  502    0  0.10031185101E+03  0.12212805307E+02 -0.19198562584E+03  0.21699671195E+03  0.41800000000E+01 0.  1.
         -5    1    3    3    0  502  0.52776296850E+02 -0.76406862511E+02 -0.64515515109E+02  0.11315065284E+03  0.41800000000E+01 0.  1.
        -11    1    4    4    0    0 -0.64076247730E+02  0.76567652365E+02 -0.26799540651E+03  0.28598935089E+03  0.00000000000E+00 0.  1.
         11    1    4    4    0    0 -0.89011900135E+02 -0.12373595161E+02 -0.27965438505E+03  0.29373933904E+03  0.00000000000E+00 0. -1.
</event>
<event>
 8    1  0.6832629E-009  0.1174482E+03  0.7561462E-02  0.1247367E+00
         -2   -1    0    0    0  501 -0.00000000000E+00  0.00000000000E+00  0.49192448647E+02  0.49192448647E+02  0.00000000000E+00 0.  1.
          2   -1    0    0  501    0  0.00000000000E+00 -0.00000000000E+00 -0.34443092124E+03  0.34443092124E+03  0.00000000000E+00 0. -1.
         25    2    1    2    0    0  0.21440980025E+02  0.66213402482E+02 -0.18504666554E+03  0.23395150768E+03  0.12508840563E+03 0.  0.
         23    2    1    2    0    0 -0.21440980025E+02 -0.66213402482E+02 -0.11019180705E+03  0.15967186221E+03  0.92243910085E+02 0.  0.
          5    1    3    3  502    0 -0.34820663864E+02  0.49940952127E+02 -0.29679892543E+02  0.67859750609E+02  0.41800000000E+01 0. -1.
         -5    1    3    3    0  502  0.56261643889E+02  0.16272450355E+02 -0.15536677300E+03  0.16609175707E+03  0.41800000000E+01 0. -1.
        -11    1    4    4    0    0  0.54891713299E+01 -0.83156976483E+02 -0.73637114364E+02  0.11120988423E+03  0.00000000000E+00 0.  1.
         11    1    4    4    0    0 -0.26930151355E+02  0.16943574000E+02 -0.36554692687E+02  0.48461977976E+02  0.00000000000E+00 0. -1.
</event>
<event>
 8    1  0.6832629E-009  0.1102719E+03  0.7561462E-02  0.1260067E+00
          2   -1    0    0  501    0  0.00000000000E+00  0.00000000000E+00  0.56000925297E+02  0.56000925297E+02  0.00000000000E+00 0.  1.
         -2   -1    0    0    0  501 -0.00000000000E+00 -0.00000000000E+00 -0.28705495080E+03  0.28705495080E+03  0.00000000000E+00 0. -1.
         25    2    1    2    0    0  0.46830859450E+02  0.39420931135E+02 -0.16785285643E+03  0.21810315303E+03  0.12508902726E+03 0.  0.
         23    2    1    2    0    0 -0.46830859450E+02 -0.39420931135E+02 -0.63201169066E+02  0.12495272306E+03  0.88722353557E+02 0.  0.
          5    1    3    3  502    0 -0.28465030012E+02 -0.25383725102E+02 -0.61692494724E+02  0.72650036055E+02  0.41800000000E+01 0. -1.
         -5    1    3    3    0  502  0.75295889462E+02  0.64804656237E+02 -0.10616036171E+03  0.14545311698E+03  0.41800000000E+01 0. -1.
        -11    1    4    4    0    0 -0.34485428030E+02  0.65874824794E+01  0.10986789093E+02  0.36787894835E+02  0.00000000000E+00 0.  1.
         11    1    4    4    0    0 -0.12345431421E+02 -0.46008413614E+02 -0.74187958159E+02  0.88164828226E+02  0.00000000000E+00 0. -1.
</event>
<event>
 8    1  0.6832629E-009  0.3142688E+03  0.7561462E-02  0.1078318E+00
         -2   -1    0    0    0  501 -0.00000000000E+00  0.00000000000E+00  0.33326930151E+03  0.33326930151E+03  0.00000000000E+00 0.  1.
          2   -1    0    0  501    0  0.00000000000E+00 -0.00000000000E+00 -0.37368987359E+03  0.37368987359E+03  0.00000000000E+00 0. -1.
         25    2    1    2    0    0  0.19773934219E+03  0.22195441263E+03  0.13406553879E+03  0.34926469593E+03  0.12509056879E+03 0.  0.
         23    2    1    2    0    0 -0.19773934219E+03 -0.22195441263E+03 -0.17448611086E+03  0.35769447917E+03  0.95578914077E+02 0.  0.
          5    1    3    3  502    0  0.18930805086E+03  0.12965517994E+03  0.10155258310E+03  0.25095498270E+03  0.41800000000E+01 0. -1.
         -5    1    3    3    0  502  0.84312913233E+01  0.92299232687E+02  0.32512955685E+02  0.98309713230E+02  0.41800000000E+01 0. -1.
        -11    1    4    4    0    0 -0.19705021852E+03 -0.18812242933E+03 -0.17509977162E+03  0.32384991440E+03  0.00000000000E+00 0. -1.
         11    1    4    4    0    0 -0.68912366468E+00 -0.33831983300E+02  0.61366075576E+00  0.33844564777E+02  0.00000000000E+00 0.  1.
</event>
<event>
 8    1  0.6832629E-009  0.1248538E+03  0.7561462E-02  0.1235298E+00
          1   -1    0    0  501    0  0.00000000000E+00  0.00000000000E+00  0.42372429627E+03  0.42372429627E+03  0.00000000000E+00 0. -1.
         -1   -1    0    0    0  501 -0.00000000000E+00 -0.00000000000E+00 -0.42752321914E+02  0.42752321914E+02  0.00000000000E+00 0.  1.
         25    2    1    2    0    0  0.56654465645E+02 -0.38978695777E+02  0.14118632267E+03  0.20077516659E+03  0.12509205653E+03 0.  0.
         23    2    1    2    0    0 -0.56654465645E+02  0.38978695777E+02  0.23978565168E+03  0.26570145160E+03  0.91493362740E+02 0.  0.
          5    1    3    3  502    0 -0.23295861189E+02 -0.51265606538E+02  0.85573963191E+02  0.10252431486E+03  0.41800000000E+01 0.  1.
         -5    1    3    3    0  502  0.79950326835E+02  0.12286910761E+02  0.55612359480E+02  0.98250851721E+02  0.41800000000E+01 0.  1.
        -11    1    4    4    0    0 -0.10130492294E+02 -0.28520394931E+02  0.89947847207E+02  0.94903398349E+02  0.00000000000E+00 0.  1.
         11    1    4    4    0    0 -0.46523973351E+02  0.67499090708E+02  0.14983780448E+03  0.17079805325E+03  0.00000000000E+00 0. -1.
</event>
<event>
 8    1  0.6832629E-009  0.1409668E+03  0.7561462E-02  0.1212034E+00
          1   -1    0    0  501    0  0.00000000000E+00  0.00000000000E+00  0.29201381407E+03  0.29201381407E+03  0.00000000000E+00 0. -1.
         -1   -1    0    0    0  501 -0.00000000000E+00 -0.00000000000E+00 -0.82659115408E+02  0.82659115408E+02  0.00000000000E+00 0.  1.
         25    2    1    2    0    0 -0.91471891206E+02  0.33948705304E+02  0.46405884325E+02  0.16528524643E+03  0.12508431202E+03 0.  0.
         23    2    1    2    0    0  0.91471891206E+02 -0.33948705304E+02  0.16294881434E+03  0.20938768305E+03  0.88154774384E+02 0.  0.
          5    1    3    3  502    0 -0.11159143524E+02  0.67034671418E+02  0.31466436970E+01  0.68158252786E+02  0.41800000000E+01 0. -1.
         -5    1    3    3    0  502 -0.80312747683E+02 -0.33085966114E+02  0.43259240628E+02  0.97126993641E+02  0.41800000000E+01 0. -1.
        -11    1    4    4    0    0  0.10021017928E+03 -0.91896079962E+01  0.10328556889E+03  0.14420276581E+03  0.00000000000E+00 0.  1.
         11    1    4    4    0    0 -0.87382880765E+01 -0.24759097308E+02  0.59663245447E+02  0.65184917238E+02  0.00000000000E+00 0. -1.
</event>
<event>
 8    1  0.6832629E-009  0.1310618E+03  0.7561462E-02  0.1225889E+00
          1   -1    0    0  501    0  0.00000000000E+00  0.00000000000E+00  0.61093417086E+03  0.61093417086E+03  0.00000000000E+00 0. -1.
         -1   -1    0    0    0  501 -0.00000000000E+00 -0.00000000000E+00 -0.32901111980E+02  0.32901111980E+02  0.00000000000E+00 0.  1.
         25    2    1    2    0    0 -0.76928645433E+02 -0.35890317389E+02  0.37857418394E+03  0.40764172809E+03  0.12508890584E+03 0.  0.
         23    2    1    2    0    0  0.76928645433E+02  0.35890317389E+02  0.19945887494E+03  0.23619355475E+03  0.93794568838E+02 0.  0.
          5    1    3    3  502    0 -0.10315939281E+03 -0.35670213599E+02  0.20728188286E+03  0.23430210376E+03  0.41800000000E+01 0. -1.
         -5    1    3    3    0  502  0.26230747381E+02 -0.22010379042E+00  0.17129230107E+03  0.17333962432E+03  0.41800000000E+01 0. -1.
        -11    1    4    4    0    0 -0.48825090622E+01 -0.24284463746E+02  0.44234951258E+02  0.50698175381E+02  0.00000000000E+00 0.  1.
         11    1    4    4    0    0  0.81811154495E+02  0.60174781136E+02  0.15522392368E+03  0.18549537937E+03  0.00000000000E+00 0. -1.
</event>
<event>
 8    1  0.6832629E-009  0.1116198E+03  0.7561462E-02  0.1257599E+00
          2   -1    0    0  501    0  0.00000000000E+00  0.00000000000E+00  0.61556766876E+03  0.61556766876E+03  0.00000000000E+00 0. -1.
         -2   -1    0    0    0  501 -0.00000000000E+00 -0.00000000000E+00 -0.23335400609E+02  0.23335400609E+02  0.00000000000E+00 0.  1.
         25    2    1    2    0    0 -0.37799989202E+02  0.30626785796E+02  0.38730280441E+03  0.40990006116E+03  0.12509100145E+03 0.  0.
         23    2    1    2    0    0  0.37799989202E+02 -0.30626785796E+02  0.20492946374E+03  0.22900300821E+03  0.89885780112E+02 0.  0.
          5    1    3    3  502    0  0.17614159672E+02 -0.39396635662E+02  0.99572643631E+02  0.10860265780E+03  0.41800000000E+01 0. -1.
         -5    1    3    3    0  502 -0.55414148874E+02  0.70023421459E+02  0.28773016078E+03  0.30129740336E+03  0.41800000000E+01 0. -1.
        -11    1    4    4    0    0  0.57030355291E+02 -0.33700400148E+01  0.71786266401E+02  0.91744681798E+02  0.00000000000E+00 0.  1.
         11    1    4    4    0    0 -0.19230366090E+02 -0.27256745782E+02  0.13314319734E+03  0.13725832641E+03  0.00000000000E+00 0. -1.
</event>
<event>
 8    1  0.6832629E-009  0.1267576E+03  0.7561462E-02  0.1232348E+00
         -1   -1    0    0    0  501 -0.00000000000E+00  0.00000000000E+00  0.17975182452E+03  0.17975182452E+03  0.00000000000E+00 0.  1.
          1   -1    0    0  501    0  0.00000000000E+00 -0.00000000000E+00 -0.15822270640E+03  0.15822270640E+03  0.00000000000E+00 0. -1.
         25    2    1    2    0    0  0.10481557622E+03  0.11037403681E+02 -0.63706767403E+02  0.17553930513E+03  0.12508943255E+03 0.  0.
         23    2    1    2    0    0 -0.10481557622E+03 -0.11037403681E+02  0.85235885522E+02  0.16243522578E+03  0.89509312897E+02 0.  0.
          5    1    3    3  502    0 -0.65339998568E+01  0.66544819961E+01  0.28857186424E+02  0.30613475678E+02  0.41800000000E+01 0. -1.
         -5    1    3    3    0  502  0.11134957608E+03  0.43829216849E+01 -0.92563953826E+02  0.14492582945E+03  0.41800000000E+01 0. -1.
        -11    1    4    4    0    0 -0.57945036321E+02  0.33662065033E+02  0.18683017159E+02  0.69568793195E+02  0.00000000000E+00 0.  1.
         11    1    4    4    0    0 -0.46870539899E+02 -0.44699468714E+02  0.66552868363E+02  0.92866432585E+02  0.00000000000E+00 0. -1.
</event>
<event>
 8    1  0.6832629E-009  0.1463199E+03  0.7561462E-02  0.1205069E+00
         -1   -1    0    0    0  501 -0.00000000000E+00  0.00000000000E+00  0.50027077673E+02  0.50027077673E+02  0.00000000000E+00 0.  1.
          1   -1    0    0  501    0  0.00000000000E+00 -0.00000000000E+00 -0.44700359834E+03  0.44700359834E+03  0.00000000000E+00 0. -1.
         25    2    1    2    0    0 -0.84200527876E+02  0.56306926614E+02 -0.24890084583E+03  0.29641174503E+03  0.12509233651E+03 0.  0.
         23    2    1    2    0    0  0.84200527876E+02 -0.56306926614E+02 -0.14807567483E+03  0.20061893098E+03  0.89785027222E+02 0.  0.
          5    1    3    3  502    0 -0.73605366471E+02  0.94585730566E+02 -0.17086461434E+03  0.20874960894E+03  0.41800000000E+01 0. -1.
         -5    1    3    3    0  502 -0.10595161405E+02 -0.38278803952E+02 -0.78036231494E+02  0.87662136085E+02  0.41800000000E+01 0. -1.
        -11    1    4    4    0    0  0.20735600109E+02  0.23155480393E+02 -0.52773201475E+02  0.61246650341E+02  0.00000000000E+00 0. -1.
         11    1    4    4    0    0  0.63464927766E+02 -0.79462407007E+02 -0.95302473354E+02  0.13937228064E+03  0.00000000000E+00 0.  1.
</event>
<event>
 8    1  0.6832629E-009  0.9123819E+02  0.7561462E-02  0.1299881E+00
         -1   -1    0    0    0  501 -0.00000000000E+00  0.00000000000E+00  0.55822592606E+02  0.55822592606E+02  0.00000000000E+00 0.  1.
          1   -1    0    0  501    0  0.00000000000E+00 -0.00000000000E+00 -0.26678587180E+03  0.26678587180E+03  0.00000000000E+00 0. -1.
         25    2    1    2    0    0 -0.49172621261E+02  0.30857663827E+02 -0.12056824065E+03  0.18317803893E+03  0.12508937283E+03 0.  0.
         23    2    1    2    0    0  0.49172621261E+02 -0.30857663827E+02 -0.90395038549E+02  0.13943042548E+03  0.88878785185E+02 0.  0.
          5    1    3    3  502    0 -0.62188024874E+02 -0.11188840821E+02 -0.10015073277E+02  0.64111735973E+02  0.41800000000E+01 0.  1.
         -5    1    3    3    0  502  0.13015403614E+02  0.42046504648E+02 -0.11055316737E+03  0.11906630296E+03  0.41800000000E+01 0.  1.
        -11    1    4    4    0    0  0.38764633527E+02 -0.43695298110E+02 -0.12413137833E+02  0.59716512626E+02  0.00000000000E+00 0.  1.
         11    1    4    4    0    0  0.10407987733E+02  0.12837634283E+02 -0.77981900716E+02  0.79713912850E+02  0.00000000000E+00 0. -1.
</event>
<event>
 8    1  0.6832629E-009  0.1835039E+03  0.7561462E-02  0.1164454E+00
          2   -1    0    0  501    0  0.00000000000E+00  0.00000000000E+00  0.59413708158E+03  0.59413708158E+03  0.00000000000E+00 0. -1.
         -2   -1    0    0    0  501 -0.00000000000E+00 -0.00000000000E+00 -0.93959796344E+02  0.93959796344E+02  0.00000000000E+00 0.  1.
         25    2    1    2    0    0 -0.17362361271E+03 -0.53434342138E+02  0.40925485614E+03  0.46490847389E+03  0.12509981617E+03 0.  0.
         23    2    1    2    0    0  0.17362361271E+03  0.53434342138E+02  0.90922429091E+02  0.22318840403E+03  0.92443430119E+02 0.  0.
          5    1    3    3  502    0 -0.51888209071E+02 -0.43079584931E+00  0.25974160638E+03  0.26490705221E+03  0.41800000000E+01 0. -1.
         -5    1    3    3    0  502 -0.12173540364E+03 -0.53003546289E+02  0.14951324976E+03  0.20000142168E+03  0.41800000000E+01 0. -1.
        -11    1    4    4    0    0  0.74135505035E+02  0.29456965998E+02 -0.88517651910E+01  0.80262941010E+02  0.00000000000E+00 0.  1.
         11    1    4    4    0    0  0.99488107678E+02  0.23977376140E+02  0.99774194282E+02  0.14292546302E+03  0.00000000000E+00 0. -1.
</event>
<event>
 8    1  0.6832629E-009  0.2024333E+03  0.7561462E-02  0.1147702E+00
          1   -1    0    0  501    0  0.00000000000E+00  0.00000000000E+00  0.18065303570E+03  0.18065303570E+03  0.00000000000E+00 0. -1.
         -1   -1    0    0    0  501 -0.00000000000E+00 -0.00000000000E+00 -0.31993508381E+03  0.31993508381E+03  0.00000000000E+00 0.  1.
         25    2    1    2    0    0  0.16720952191E+03  0.64240847719E+02 -0.19335556995E+03  0.29175348992E+03  0.12509121359E+03 0.  0.
         23    2    1    2    0    0 -0.16720952191E+03 -0.64240847719E+02  0.54073521847E+02  0.20883462959E+03  0.92747215689E+02 0.  0.
          5    1    3    3  502    0  0.14149356689E+02  0.63484250978E+02 -0.63294051298E+02  0.90851878058E+02  0.41800000000E+01 0.  1.
         -5    1    3    3    0  502  0.15306016522E+03  0.75659674109E+00 -0.13006151865E+03  0.20090161186E+03  0.41800000000E+01 0.  1.
        -11    1    4    4    0    0 -0.80989306718E+01 -0.19767501782E+02 -0.18621488170E+02  0.28339135950E+02  0.00000000000E+00 0.  1.
         11    1    4    4    0    0 -0.15911059123E+03 -0.44473345937E+02  0.72695010017E+02  0.18049549364E+03  0.00000000000E+00 0. -1.
</event>
<event>
 8    1  0.6832629E-009  0.9258321E+02  0.7561462E-02  0.1296714E+00
         -2   -1    0    0    0  501 -0.00000000000E+00  0.00000000000E+00  0.39652763354E+02  0.39652763354E+02  0.00000000000E+00 0.  1.
          2   -1    0    0  501    0  0.00000000000E+00 -0.00000000000E+00 -0.35511723541E+03  0.35511723541E+03  0.00000000000E+00 0. -1.
         25    2    1    2    0    0  0.24561380015E+02 -0.44997035454E+02 -0.18842645268E+03  0.23190603665E+03  0.12509151521E+03 0.  0.
         23    2    1    2    0    0 -0.24561380015E+02  0.44997035454E+02 -0.12703801938E+03  0.16286396211E+03  0.88079607171E+02 0.  0.
          5    1    3    3  502    0 -0.23673343974E+02  0.42258106256E+01 -0.15179941666E+03  0.15374921135E+03  0.41800000000E+01 0.  1.
         -5    1    3    3    0  502  0.48234723989E+02 -0.49222846080E+02 -0.36627036014E+02  0.78156825304E+02  0.41800000000E+01 0.  1.
        -11    1    4    4    0    0 -0.17092317723E+02 -0.19989573099E+02 -0.74364898348E+02  0.78878821392E+02  0.00000000000E+00 0. -1.
         11    1    4    4    0    0 -0.74690622923E+01  0.64986608553E+02 -0.52673121030E+02  0.83985140720E+02  0.00000000000E+00 0.  1.
</event>
<event>
 8    1  0.6832629E-009  0.1227437E+03  0.7561462E-02  0.1238638E+00
          2   -1    0    0  501    0  0.00000000000E+00  0.00000000000E+00  0.81738460618E+03  0.81738460618E+03  0.00000000000E+00 0.  1.
         -2   -1    0    0    0  501 -0.00000000000E+00 -0.00000000000E+00 -0.23210979668E+02  0.23210979668E+02  0.00000000000E+00 0. -1.
         25    2    1    2    0    0  0.84969734722E+02 -0.18348328098E+01  0.41543129653E+03  0.44210372116E+03  0.12509722496E+03 0.  0.
         23    2    1    2    0    0 -0.84969734722E+02  0.18348328098E+01  0.37874232998E+03  0.39849186469E+03  0.90148717549E+02 0.  0.
          5    1    3    3  502    0  0.88941734501E+01 -0.54933173414E+02  0.11838180798E+03  0.13087583705E+03  0.41800000000E+01 0.  1.
         -5    1    3    3    0  502  0.76075561272E+02  0.53098340604E+02  0.29704948855E+03  0.31122788411E+03  0.41800000000E+01 0.  1.
        -11    1    4    4    0    0 -0.63815628950E+02  0.22086078020E+02  0.35330820744E+03  0.35970393212E+03  0.00000000000E+00 0.  1.
         11    1    4    4    0    0 -0.21154105771E+02 -0.20251245210E+02  0.25434122544E+02  0.38787932571E+02  0.00000000000E+00 0. -1.
</event>
<event>
 8    1  0.6832629E-009  0.2800308E+03  0.7561462E-02  0.1095672E+00
         -1   -1    0    0    0  501 -0.00000000000E+00  0.00000000000E+00  0.51221293579E+03  0.51221293579E+03  0.00000000000E+00 0.  1.
          1   -1    0    0  501    0  0.00000000000E+00 -0.00000000000E+00 -0.15779561127E+03  0.15779561127E+03  0.00000000000E+00 0. -1.
         25    2    1    2    0    0 -0.89697955190E+02  0.24396256524E+03  0.21958338523E+03  0.36252837210E+03  0.12508597487E+03 0.  0.
         23    2    1    2    0    0  0.89697955190E+02 -0.24396256524E+03  0.13483393929E+03  0.30748017496E+03  0.93810502632E+02 0.  0.
          5    1    3    3  502    0 -0.10815258953E+02  0.18474476213E+03  0.11128824944E+03  0.21598644362E+03  0.41800000000E+01 0.  1.
         -5    1    3    3    0  502 -0.78882696237E+02  0.59217803105E+02  0.10829513578E+03  0.14654192849E+03  0.41800000000E+01 0.  1.
        -11    1    4    4    0    0 -0.43571174193E+01 -0.12263992745E+03  0.64259163973E+02  0.13852355912E+03  0.00000000000E+00 0. -1.
         11    1    4    4    0    0  0.94055072609E+02 -0.12132263779E+03  0.70574775316E+02  0.16895661583E+03  0.00000000000E+00 0.  1.
</event>
<event>
 8    1  0.6832629E-009  0.9581998E+02  0.7561462E-02  0.1289340E+00
         -1   -1    0    0    0  501 -0.00000000000E+00  0.00000000000E+00  0.11488291004E+03  0.11488291004E+03  0.00000000000E+00 0.  1.
          1   -1    0    0  501    0  0.00000000000E+00 -0.00000000000E+00 -0.13664409150E+03  0.13664409150E+03  0.00000000000E+00 0. -1.
         25    2    1    2    0    0 -0.86751731247E+01  0.65557027629E+02  0.12327358027E+02  0.14202486555E+03  0.12508443619E+03 0.  0.
         23    2    1    2    0    0  0.86751731247E+01 -0.65557027629E+02 -0.34088539485E+02  0.10950213599E+03  0.80347412919E+02 0.  0.
          5    1    3    3  502    0 -0.37065517765E+02  0.39031665269E+01  0.51374206344E+02  0.63607144203E+02  0.41800000000E+01 0.  1.
         -5    1    3    3    0  502  0.28390344640E+02  0.61653861102E+02 -0.39046848318E+02  0.78417721346E+02  0.41800000000E+01 0.  1.
        -11    1    4    4    0    0  0.53404035381E+01 -0.75476810898E+02 -0.49829758131E+02  0.90599523667E+02  0.00000000000E+00 0. -1.
         11    1    4    4    0    0  0.33347695866E+01  0.99197832689E+01  0.15741218647E+02  0.18902612327E+02  0.00000000000E+00 0.  1.
</event>
<event>
 8    1  0.6832629E-009  0.1331937E+03  0.7561462E-02  0.1222792E+00
          2   -1    0    0  501    0  0.00000000000E+00  0.00000000000E+00  0.49844913148E+03  0.49844913148E+03  0.00000000000E+00 0. -1.
         -2   -1    0    0    0  501 -0.00000000000E+00 -0.00000000000E+00 -0.50072397873E+02  0.50072397873E+02  0.00000000000E+00 0.  1.
         25    2    1    2    0    0  0.61784255061E+02  0.96687628226E+02  0.27196824260E+03  0.32059053405E+03  0.12508306805E+03 0.  0.
         23    2    1    2    0    0 -0.61784255061E+02 -0.96687628226E+02  0.17640849101E+03  0.22793099531E+03  0.87560215265E+02 0.  0.
          5    1    3    3  502    0 -0.14177939197E+01  0.74866723679E+02  0.53613003498E+02  0.92189278108E+02  0.41800000000E+01 0. -1.
         -5    1    3    3    0  502  0.63202048981E+02  0.21820904547E+02  0.21835523910E+03  0.22840125594E+03  0.41800000000E+01 0. -1.
        -11    1    4    4    0    0  0.75100984179E+01 -0.18251374581E+02 -0.32579025477E+01  0.20003204277E+02  0.00000000000E+00 0.  1.
         11    1    4    4    0    0 -0.69294353479E+02 -0.78436253645E+02  0.17966639356E+03  0.20792779103E+03  0.00000000000E+00 0. -1.
</event>
<event>
 8    1  0.6832629E-009  0.1133499E+03  0.7561462E-02  0.1254489E+00
         -1   -1    0    0    0  501 -0.00000000000E+00  0.00000000000E+00  0.15909986684E+02  0.15909986684E+02  0.00000000000E+00 0.  1.
          1   -1    0    0  501    0  0.00000000000E+00 -0.00000000000E+00 -0.93247568905E+03  0.93247568905E+03  0.00000000000E+00 0. -1.
         25    2    1    2    0    0 -0.25010151923E+02 -0.50378075760E+02 -0.54061004360E+03  0.55773638326E+03  0.12508875154E+03 0.  0.
         23    2    1    2    0    0  0.25010151923E+02  0.50378075760E+02 -0.37595565877E+03  0.39064929247E+03  0.90004189518E+02 0.  0.
          5    1    3    3  502    0  0.35239846659E+02  0.82316469409E+01 -0.31214907756E+03  0.31426760225E+03  0.41800000000E+01 0. -1.
         -5    1    3    3    0  502 -0.60249998582E+02 -0.58609722701E+02 -0.22846096604E+03  0.24346878102E+03  0.41800000000E+01 0. -1.
        -11    1    4    4    0    0 -0.28603733993E+02  0.43496185692E+02 -0.18058874174E+03  0.18794250560E+03  0.00000000000E+00 0.  1.
         11    1    4    4    0    0  0.53613885916E+02  0.68818900687E+01 -0.19536691703E+03  0.20270678688E+03  0.00000000000E+00 0. -1.
</event>
<event>
 8    1  0.6832629E-009  0.1393666E+03  0.7561462E-02  0.1214184E+00
          2   -1    0    0  501    0  0.00000000000E+00  0.00000000000E+00  0.38108912981E+03  0.38108912981E+03  0.00000000000E+00 0.  1.
         -2   -1    0    0    0  501 -0.00000000000E+00 -0.00000000000E+00 -0.61931589788E+02  0.61931589788E+02  0.00000000000E+00 0. -1.
         25    2    1    2    0    0  0.26860996212E+01 -0.10219201109E+03  0.22247102221E+03  0.27493591714E+03  0.12508389403E+03 0.  0.
         23    2    1    2    0    0 -0.26860996212E+01  0.10219201109E+03  0.96686517807E+02  0.16808480246E+03  0.91944525824E+02 0.  0.
          5    1    3    3  502    0 -0.44274067015E+02 -0.79882984222E+02  0.19637302384E+03  0.21661329846E+03  0.41800000000E+01 0. -1.
         -5    1    3    3    0  502  0.46960166636E+02 -0.22309026871E+02  0.26097998378E+02  0.58322618681E+02  0.41800000000E+01 0. -1.
        -11    1    4    4    0    0 -0.31252020769E+02  0.23955021131E+01  0.10166409184E+02  0.32951223167E+02  0.00000000000E+00 0.  1.
         11    1    4    4    0    0  0.28565921148E+02  0.99796508981E+02  0.86520108622E+02  0.13513357929E+03  0.00000000000E+00 0. -1.
</event>
<event>
 8    1  0.6832629E-009  0.1680206E+03  0.7561462E-02  0.1179928E+00
          1   -1    0    0  501    0  0.00000000000E+00  0.00000000000E+00  0.99238191906E+03  0.99238191906E+03  0.00000000000E+00 0. -1.
         -1   -1    0    0    0  501 -0.00000000000E+00 -0.00000000000E+00 -0.33038953404E+02  0.33038953404E+02  0.00000000000E+00 0.  1.
         25    2    1    2    0    0 -0.61591857488E+02 -0.12064504151E+03  0.64148602049E+03  0.66745816069E+03  0.12508916355E+03 0.  0.
         23    2    1    2    0    0  0.61591857488E+02  0.12064504151E+03  0.31785694516E+03  0.35796271177E+03  0.93570735176E+02 0.  0.
          5    1    3    3  502    0  0.17142037842E+01  0.19988123744E+02  0.26976442878E+02  0.33877196693E+02  0.41800000000E+01 0.  1.
         -5    1    3    3    0  502 -0.63306061272E+02 -0.14063316525E+03  0.61450957762E+03  0.63358096400E+03  0.41800000000E+01 0.  1.
        -11    1    4    4    0    0  0.55462182654E+02  0.17812905111E+02  0.15125476356E+03  0.16208441256E+03  0.00000000000E+00 0.  1.
         11    1    4    4    0    0  0.61296748335E+01  0.10283213640E+03  0.16660218160E+03  0.19587829921E+03  0.00000000000E+00 0. -1.
</event>
<event>
 8    1  0.6832629E-009  0.1232487E+03  0.7561462E-02  0.1237832E+00
         -1   -1    0    0    0  501 -0.00000000000E+00  0.00000000000E+00  0.46609571120E+02  0.46609571120E+02  0.00000000000E+00 0.  1.
          1   -1    0    0  501    0  0.00000000000E+00 -0.00000000000E+00 -0.46554099852E+03  0.46554099852E+03  0.00000000000E+00 0. -1.
         25    2    1    2    0    0  0.48677146835E+02 -0.35829955238E+02 -0.90224399372E+02  0.16565252031E+03  0.12508822857E+03 0.  0.
         23    2    1    2    0    0 -0.48677146835E+02  0.35829955238E+02 -0.32870702803E+03  0.34649804933E+03  0.91429413200E+02 0.  0.
          5    1    3    3  502    0  0.28131777578E+02 -0.81865873551E+02 -0.69068743714E+02  0.11082139649E+03  0.41800000000E+01 0.  1.
         -5    1    3    3    0  502  0.20545369257E+02  0.46035918313E+02 -0.21155655658E+02  0.54831123818E+02  0.41800000000E+01 0.  1.
        -11    1    4    4    0    0 -0.33218339867E+02  0.66816209151E+02 -0.21114456774E+03  0.22394171651E+03  0.00000000000E+00 0.  1.
         11    1    4    4    0    0 -0.15458806969E+02 -0.30986253913E+02 -0.11756246029E+03  0.12255633282E+03  0.00000000000E+00 0. -1.
</event>
<event>
 8    1  0.6832629E-009  0.1283648E+03  0.7561462E-02  0.1229902E+00
          1   -1    0    0  501    0  0.00000000000E+00  0.00000000000E+00  0.31634753947E+03  0.31634753947E+03  0.00000000000E+00 0. -1.
         -1   -1    0    0    0  501 -0.00000000000E+00 -0.00000000000E+00 -0.72522948533E+02  0.72522948533E+02  0.00000000000E+00 0.  1.
         25    2    1    2    0    0 -0.72907879118E+02  0.62344382368E+02  0.73862861130E+02  0.17408534807E+03  0.12509038855E+03 0.  0.
         23    2    1    2    0    0  0.72907879118E+02 -0.62344382368E+02  0.16996172981E+03  0.21478513994E+03  0.89684368132E+02 0.  0.
          5    1    3    3  502    0 -0.89925452647E+02 -0.20566577743E+01  0.51290398502E+02  0.10362911875E+03  0.41800000000E+01 0. -1.
         -5    1    3    3    0  502  0.17017573529E+02  0.64401040143E+02  0.22572462628E+02  0.70456229316E+02  0.41800000000E+01 0. -1.
        -11    1    4    4    0    0  0.55705499996E+02 -0.29910747212E+02  0.16627076211E+03  0.17788682318E+03  0.00000000000E+00 0. -1.
         11    1    4    4    0    0  0.17202379122E+02 -0.32433635157E+02  0.36909677011E+01  0.36898316757E+02  0.00000000000E+00 0.  1.
</event>
<event>
 8    1  0.6832629E-009  0.1616324E+03  0.7561462E-02  0.1186866E+00
         -2   -1    0    0    0  501 -0.00000000000E+00  0.00000000000E+00  0.23640149794E+02  0.23640149794E+02  0.00000000000E+00 0.  1.
          2   -1    0    0  501    0  0.00000000000E+00 -0.00000000000E+00 -0.11377426636E+04  0.11377426636E+04  0.00000000000E+00 0. -1.
         25    2    1    2    0    0 -0.67979002384E+02 -0.10395697637E+03 -0.57845527402E+03  0.60471965021E+03  0.12508858305E+03 0.  0.
         23    2    1    2    0    0  0.67979002384E+02  0.10395697637E+03 -0.53564723974E+03  0.55666316314E+03  0.86762399995E+02 0.  0.
          5    1    3    3  502    0 -0.84397926432E+01 -0.11382093099E+03 -0.33813827374E+03  0.35690530817E+03  0.41800000000E+01 0.  1.
         -5    1    3    3    0  502 -0.59539209741E+02  0.98639546263E+01 -0.24031700028E+03  0.24781434204E+03  0.41800000000E+01 0.  1.
        -11    1    4    4    0    0  0.53013616130E+02  0.10666199409E+02 -0.25048811036E+03  0.25625866763E+03  0.00000000000E+00 0.  1.
         11    1    4    4    0    0  0.14965386254E+02  0.93290776957E+02 -0.28515912939E+03  0.30040449551E+03  0.00000000000E+00 0. -1.
</event>
<event>
 8    1  0.6832629E-009  0.1106872E+03  0.7561462E-02  0.1259303E+00
         -2   -1    0    0    0  501 -0.00000000000E+00  0.00000000000E+00  0.17553989176E+03  0.17553989176E+03  0.00000000000E+00 0.  1.
          2   -1    0    0  501    0  0.00000000000E+00 -0.00000000000E+00 -0.11765755066E+03  0.11765755066E+03  0.00000000000E+00 0. -1.
         25    2    1    2    0    0 -0.77435987838E+02 -0.30131389567E+01  0.85577304404E+02  0.17022531713E+03  0.12509105621E+03 0.  0.
         23    2    1    2    0    0  0.77435987838E+02  0.30131389567E+01 -0.27694963313E+02  0.12297212529E+03  0.91376809899E+02 0.  0.
          5    1    3    3  502    0 -0.72787934864E+02  0.22909266474E+02 -0.42334054596E+01  0.76539611143E+02  0.41800000000E+01 0.  1.
         -5    1    3    3    0  502 -0.46480529741E+01 -0.25922405430E+02  0.89810709864E+02  0.93685705986E+02  0.41800000000E+01 0.  1.
        -11    1    4    4    0    0  0.36706745610E+02  0.46144575332E+02 -0.23590165076E+02  0.63507502660E+02  0.00000000000E+00 0.  1.
         11    1    4    4    0    0  0.40729242228E+02 -0.43131436375E+02 -0.41047982367E+01  0.59464622632E+02  0.00000000000E+00 0. -1.
</event>
<event>
 8    1  0.6832629E-009  0.1035916E+03  0.7561462E-02  0.1272919E+00
         -1   -1    0    0    0  501 -0.00000000000E+00  0.00000000000E+00  0.10735787763E+02  0.10735787763E+02  0.00000000000E+00 0.  1.
          1   -1    0    0  501    0  0.00000000000E+00 -0.00000000000E+00 -0.12764896029E+04  0.12764896029E+04  0.00000000000E+00 0. -1.
         25    2    1    2    0    0  0.29932966207E+02  0.11804809114E+02 -0.90393167845E+03  0.91311313786E+03  0.12509111581E+03 0.  0.
         23    2    1    2    0    0 -0.29932966207E+02 -0.11804809114E+02 -0.36182213673E+03  0.37411225284E+03  0.89495156921E+02 0.  0.
          5    1    3    3  502    0  0.50711179451E+02 -0.36392622135E+02 -0.68868342141E+03  0.69151888911E+03  0.41800000000E+01 0.  1.
         -5    1    3    3    0  502 -0.20778213245E+02  0.48197431249E+02 -0.21524825704E+03  0.22159424876E+03  0.41800000000E+01 0.  1.
        -11    1    4    4    0    0 -0.60478990264E+02 -0.10621242604E+02 -0.19261244814E+03  0.20216348394E+03  0.00000000000E+00 0. -1.
         11    1    4    4    0    0  0.30546024057E+02 -0.11835665100E+01 -0.16920968858E+03  0.17194876890E+03  0.00000000000E+00 0.  1.
</event>
<event>
 8    1  0.6832629E-009  0.9567823E+02  0.7561462E-02  0.1289656E+00
          2   -1    0    0  501    0  0.00000000000E+00  0.00000000000E+00  0.43521294845E+03  0.43521294845E+03  0.00000000000E+00 0. -1.
         -2   -1    0    0    0  501 -0.00000000000E+00 -0.00000000000E+00 -0.37399997444E+02  0.37399997444E+02  0.00000000000E+00 0.  1.
         25    2    1    2    0    0  0.23360350656E+02 -0.67061308169E+00  0.33995071506E+03  0.36298705264E+03  0.12508779322E+03 0.  0.
         23    2    1    2    0    0 -0.23360350656E+02  0.67061308169E+00  0.57862235950E+02  0.10962589325E+03  0.90131251061E+02 0.  0.
          5    1    3    3  502    0  0.17212093944E+02 -0.62031208560E+02  0.19548176316E+03  0.20585120631E+03  0.41800000000E+01 0.  1.
         -5    1    3    3    0  502  0.61482567121E+01  0.61360595478E+02  0.14446895190E+03  0.15713584633E+03  0.41800000000E+01 0.  1.
        -11    1    4    4    0    0 -0.14995421676E+02  0.30537434032E+02  0.68788526386E+02  0.76741507093E+02  0.00000000000E+00 0. -1.
         11    1    4    4    0    0 -0.83649289796E+01 -0.29866820950E+02 -0.10926290436E+02  0.32884386161E+02  0.00000000000E+00 0.  1.
</event>
<event>
 8    1  0.6832629E-009  0.8624636E+02  0.7561462E-02  0.1312205E+00
          2   -1    0    0  501    0  0.00000000000E+00  0.00000000000E+00  0.63336565855E+02  0.63336565855E+02  0.00000000000E+00 0.  1.
         -2   -1    0    0    0  501 -0.00000000000E+00 -0.00000000000E+00 -0.21716530661E+03  0.21716530661E+03  0.00000000000E+00 0. -1.
         25    2    1    2    0    0 -0.14789155161E+01 -0.32240334296E+02 -0.12503183552E+03  0.17978913477E+03  0.12509814844E+03 0.  0.
         23    2    1    2    0    0  0.14789155161E+01  0.32240334296E+02 -0.28796905234E+02  0.10071273769E+03  0.90951456479E+02 0.  0.
          5    1    3    3  502    0 -0.39148905529E+02 -0.12084239507E+02 -0.13019378770E+03  0.13655240901E+03  0.41800000000E+01 0.  1.
         -5    1    3    3    0  502  0.37669990013E+02 -0.20156094789E+02  0.51619521830E+01  0.43236725767E+02  0.41800000000E+01 0.  1.
        -11    1    4    4    0    0  0.17906758841E+02  0.56394833927E+02 -0.37718497206E+02  0.70169183673E+02  0.00000000000E+00 0.  1.
         11    1    4    4    0    0 -0.16427843325E+02 -0.24154499631E+02  0.89215919726E+01  0.30543554018E+02  0.00000000000E+00 0. -1.
</event>
<event>
 8    1  0.6832629E-009  0.1026359E+03  0.7561462E-02  0.1274849E+00
          2   -1    0    0  501    0  0.00000000000E+00  0.00000000000E+00  0.10886447504E+04  0.10886447504E+04  0.00000000000E+00 0. -1.
         -2   -1    0    0    0  501 -0.00000000000E+00 -0.00000000000E+00 -0.30710027625E+02  0.30710027625E+02  0.00000000000E+00 0.  1.
         25    2    1    2    0    0  0.27241003990E+02  0.32741689663E+02  0.99074014596E+03  0.99951365547E+03  0.12508964826E+03 0.  0.
         23    2    1    2    0    0 -0.27241003990E+02 -0.32741689663E+02  0.67194576832E+02  0.11984112258E+03  0.89625291991E+02 0.  0.
          5    1    3    3  502    0  0.25247923096E+02  0.72158339859E+02  0.84515703803E+03  0.84861780264E+03  0.41800000000E+01 0. -1.
         -5    1    3    3    0  502  0.19930808944E+01 -0.39416650196E+02  0.14558310793E+03  0.15089585283E+03  0.41800000000E+01 0. -1.
        -11    1    4    4    0    0  0.84122304250E+01 -0.49085477075E+02  0.63132393782E+02  0.80410501958E+02  0.00000000000E+00 0.  1.
         11    1    4    4    0    0 -0.35653234415E+02  0.16343787413E+02  0.40621830499E+01  0.39430620619E+02  0.00000000000E+00 0. -1.
</event>
<event>
 8    1  0.6832629E-009  0.9965338E+02  0.7561462E-02  0.1281027E+00
         -2   -1    0    0    0  501 -0.00000000000E+00  0.00000000000E+00  0.22418679209E+02  0.22418679209E+02  0.00000000000E+00 0.  1.
          2   -1    0    0  501    0  0.00000000000E+00 -0.00000000000E+00 -0.55952773432E+03  0.55952773432E+03  0.00000000000E+00 0. -1.
         25    2    1    2    0    0 -0.24138225384E+02  0.15713345173E+02 -0.28538702442E+03  0.31292523559E+03  0.12508751424E+03 0.  0.
         23    2    1    2    0    0  0.24138225384E+02 -0.15713345173E+02 -0.25172203069E+03  0.26902117795E+03  0.90436996334E+02 0.  0.
          5    1    3    3  502    0 -0.65164349053E+02  0.37538620625E+02 -0.12547458625E+03  0.14634508745E+03  0.41800000000E+01 0. -1.
         -5    1    3    3    0  502  0.41026123668E+02 -0.21825275451E+02 -0.15991243817E+03  0.16658014814E+03  0.41800000000E+01 0. -1.
        -11    1    4    4    0    0  0.40454432698E+02  0.14514299795E+02 -0.57515006050E+02  0.71799734988E+02  0.00000000000E+00 0.  1.
         11    1    4    4    0    0 -0.16316207314E+02 -0.30227644969E+02 -0.19420702464E+03  0.19722144296E+03  0.00000000000E+00 0. -1.
</event>
<event>
 8    1  0.6832629E-009  0.1293669E+03  0.7561462E-02  0.1228398E+00
          2   -1    0    0  501    0  0.00000000000E+00  0.00000000000E+00  0.63146244989E+03  0.63146244989E+03  0.00000000000E+00 0.  1.
         -2   -1    0    0    0  501 -0.00000000000E+00 -0.00000000000E+00 -0.41229083994E+02  0.41229083994E+02  0.00000000000E+00 0. -1.
         25    2    1    2    0    0 -0.98634154298E+02  0.34635486947E+01  0.17704247948E+03  0.23818065720E+03  0.12508114709E+03 0.  0.
         23    2    1    2    0    0  0.98634154298E+02 -0.34635486947E+01  0.41319088641E+03  0.43451087669E+03  0.91281437215E+02 0.  0.
          5    1    3    3  502    0 -0.43175121036E+02  0.53324378820E+02  0.33725293436E+02  0.76566626348E+02  0.41800000000E+01 0.  1.
         -5    1    3    3    0  502 -0.55459033262E+02 -0.49860830125E+02  0.14331718605E+03  0.16161403085E+03  0.41800000000E+01 0.  1.
        -11    1    4    4    0    0  0.61627121852E+02  0.27082104127E+02  0.34262869552E+03  0.34917870139E+03  0.00000000000E+00 0.  1.
         11    1    4    4    0    0  0.37007032446E+02 -0.30545652822E+02  0.70562190889E+02  0.85332175290E+02  0.00000000000E+00 0. -1.
</event>
<event>
 8    1  0.6832629E-009  0.1686081E+03  0.7561462E-02  0.1179307E+00
         -2   -1    0    0    0  501 -0.00000000000E+00  0.00000000000E+00  0.59243693692E+02  0.59243693692E+02  0.00000000000E+00 0.  1.
          2   -1    0    0  501    0  0.00000000000E+00 -0.00000000000E+00 -0.56254170293E+03  0.56254170293E+03  0.00000000000E+00 0. -1.
         25    2    1    2    0    0 -0.12071418138E+03  0.72496708076E+02 -0.18141988357E+03  0.26151124877E+03  0.12508905953E+03 0.  0.
         23    2    1    2    0    0  0.12071418138E+03 -0.72496708076E+02 -0.32187812567E+03  0.36027414785E+03  0.79776234278E+02 0.  0.
          5    1    3    3  502    0 -0.11627251963E+03  0.10116900007E+03 -0.12722044906E+03  0.19989242220E+03  0.41800000000E+01 0. -1.
         -5    1    3    3    0  502 -0.44416617483E+01 -0.28672291990E+02 -0.54199434504E+02  0.61618826568E+02  0.41800000000E+01 0. -1.
        -11    1    4    4    0    0  0.87396981448E+02 -0.17065754306E+02 -0.12826728991E+03  0.15614727022E+03  0.00000000000E+00 0.  1.
         11    1    4    4    0    0  0.33317199929E+02 -0.55430953771E+02 -0.19361083575E+03  0.20412687762E+03  0.00000000000E+00 0. -1.
</event>
<event>
 8    1  0.6832629E-009  0.1091989E+03  0.7561462E-02  0.1262061E+00
         -3   -1    0    0    0  501 -0.00000000000E+00  0.00000000000E+00  0.17165275047E+03  0.17165275047E+03  0.00000000000E+00 0. -1.
          3   -1    0    0  501    0  0.00000000000E+00 -0.00000000000E+00 -0.73857969234E+02  0.73857969234E+02  0.00000000000E+00 0.  1.
         25    2    1    2    0    0  0.50882540728E+01  0.23508825895E+02  0.65862752597E+02  0.14340292141E+03  0.12509172821E+03 0.  0.
         23    2    1    2    0    0 -0.50882540728E+01 -0.23508825895E+02  0.31932028639E+02  0.10210779829E+03  0.93956334509E+02 0.  0.
          5    1    3    3  502    0 -0.13748377768E+02 -0.47227969780E+02  0.45912511579E+02  0.67416097041E+02  0.41800000000E+01 0.  1.
         -5    1    3    3    0  502  0.18836631841E+02  0.70736795675E+02  0.19950241017E+02  0.75986824372E+02  0.41800000000E+01 0.  1.
        -11    1    4    4    0    0 -0.47363937480E+02 -0.52288269079E-01  0.75547954384E+01  0.47962696357E+02  0.00000000000E+00 0.  1.
         11    1    4    4    0    0  0.42275683407E+02 -0.23456537626E+02  0.24377233200E+02  0.54145101934E+02  0.00000000000E+00 0. -1.
</event>
<event>
 8    1  0.6832629E-009  0.1126865E+03  0.7561462E-02  0.1255674E+00
         -1   -1    0    0    0  501 -0.00000000000E+00  0.00000000000E+00  0.71855494473E+02  0.71855494473E+02  0.00000000000E+00 0.  1.
          1   -1    0    0  501    0  0.00000000000E+00 -0.00000000000E+00 -0.25846700150E+03  0.25846700150E+03  0.00000000000E+00 0. -1.
         25    2    1    2    0    0 -0.36381097698E+02  0.73867033508E+02 -0.10250014245E+03  0.18147808073E+03  0.12509233260E+03 0.  0.
         23    2    1    2    0    0  0.36381097698E+02 -0.73867033508E+02 -0.84111364576E+02  0.14884441523E+03  0.91104420238E+02 0.  0.
          5    1    3    3  502    0  0.97262005453E+01  0.90550579236E+02 -0.95054288448E+02  0.13170723795E+03  0.41800000000E+01 0. -1.
         -5    1    3    3    0  502 -0.46107298243E+02 -0.16683545728E+02 -0.74458539989E+01  0.49770842781E+02  0.41800000000E+01 0. -1.
        -11    1    4    4    0    0  0.23236919899E+02 -0.65285166181E+02 -0.10308929329E+03  0.12421557777E+03  0.00000000000E+00 0. -1.
         11    1    4    4    0    0  0.13144177799E+02 -0.85818673264E+01  0.18977928711E+02  0.24628837467E+02  0.00000000000E+00 0.  1.
</event>
<event>
 8    1  0.6832629E-009  0.1307491E+03  0.7561462E-02  0.1226348E+00
         -1   -1    0    0    0  501 -0.00000000000E+00  0.00000000000E+00  0.51565534526E+02  0.51565534526E+02  0.00000000000E+00 0.  1.
          1   -1    0    0  501    0  0.00000000000E+00 -0.00000000000E+00 -0.75331014979E+03  0.75331014979E+03  0.00000000000E+00 0. -1.
         25    2    1    2    0    0  0.52582985321E+02  0.99903258765E+02 -0.61545529346E+03  0.63810512677E+03  0.12508918063E+03 0.  0.
         23    2    1    2    0    0 -0.52582985321E+02 -0.99903258765E+02 -0.86289321808E+02  0.16677055755E+03  0.87297997395E+02 0.  0.
          5    1    3    3  502    0  0.64139845015E+02  0.60532921442E+02 -0.17784908866E+03  0.19855962590E+03  0.41800000000E+01 0. -1.
         -5    1    3    3    0  502 -0.11556859695E+02  0.39370337322E+02 -0.43760620480E+03  0.43954550088E+03  0.41800000000E+01 0. -1.
        -11    1    4    4    0    0 -0.60437263050E+02 -0.42166879050E+02 -0.15892836571E+02  0.75387603146E+02  0.00000000000E+00 0.  1.
         11    1    4    4    0    0  0.78542777299E+01 -0.57736379714E+02 -0.70396485237E+02  0.91382954400E+02  0.00000000000E+00 0. -1.
</event>
<event>
 8    1  0.6832629E-009  0.1009065E+03  0.7561462E-02  0.1278401E+00
         -4   -1    0    0    0  501 -0.00000000000E+00  0.00000000000E+00  0.28600071748E+03  0.28600071748E+03  0.00000000000E+00 0.  1.
          4   -1    0    0  501    0  0.00000000000E+00 -0.00000000000E+00 -0.72074349307E+02  0.72074349307E+02  0.00000000000E+00 0. -1.
         25    2    1    2    0    0 -0.54131049235E+01 -0.68337982907E+02  0.32843718619E+02  0.14637700672E+03  0.12509251229E+03 0.  0.
         23    2    1    2    0    0  0.54131049235E+01  0.68337982907E+02  0.18108264956E+03  0.21169806007E+03  0.85590659857E+02 0.  0.
          5    1    3    3  502    0 -0.56947505478E+02 -0.30910572146E+02 -0.14960559580E+02  0.66631618571E+02  0.41800000000E+01 0. -1.
         -5    1    3    3    0  502  0.51534400554E+02 -0.37427410761E+02  0.47804278199E+02  0.79745388148E+02  0.41800000000E+01 0. -1.
        -11    1    4    4    0    0  0.14564229628E+02  0.26613894827E+02  0.16216866227E+03  0.16498209359E+03  0.00000000000E+00 0.  1.
         11    1    4    4    0    0 -0.91511247045E+01  0.41724088080E+02  0.18913987290E+02  0.46715966486E+02  0.00000000000E+00 0. -1.
</event>
<event>
 8    1  0.6832629E-009  0.9373663E+02  0.7561462E-02  0.1294047E+00
         -1   -1    0    0    0  501 -0.00000000000E+00  0.00000000000E+00  0.40179368819E+02  0.40179368819E+02  0.00000000000E+00 0.  1.
          1   -1    0    0  501    0  0.00000000000E+00 -0.00000000000E+00 -0.34330505033E+03  0.34330505033E+03  0.00000000000E+00 0. -1.
         25    2    1    2    0    0  0.10188981919E+02 -0.38256664505E+02 -0.20570073030E+03  0.24398261482E+03  0.12508932072E+03 0.  0.
         23    2    1    2    0    0 -0.10188981919E+02  0.38256664505E+02 -0.97424951207E+02  0.13950180432E+03  0.91661030762E+02 0.  0.
          5    1    3    3  502    0  0.59288027770E+02 -0.30387145314E+02 -0.59219715762E+02  0.89235060218E+02  0.41800000000E+01 0. -1.
         -5    1    3    3    0  502 -0.49099045851E+02 -0.78695191914E+01 -0.14648101454E+03  0.15474755460E+03  0.41800000000E+01 0. -1.
        -11    1    4    4    0    0 -0.12238343724E+02  0.53783326941E+02 -0.17222298246E+02  0.57784347974E+02  0.00000000000E+00 0.  1.
         11    1    4    4    0    0  0.20493618049E+01 -0.15526662436E+02 -0.80202652962E+02  0.81717456350E+02  0.00000000000E+00 0. -1.
</event>
<event>
 8    1  0.6832629E-009  0.1472287E+03  0.7561462E-02  0.1203920E+00
          4   -1    0    0  501    0  0.00000000000E+00  0.00000000000E+00  0.33957586725E+03  0.33957586725E+03  0.00000000000E+00 0. -1.
         -4   -1    0    0    0  501 -0.00000000000E+00 -0.00000000000E+00 -0.83095234371E+02  0.83095234371E+02  0.00000000000E+00 0.  1.
         25    2    1    2    0    0 -0.12198819446E+03  0.36863703720E+02  0.15275023396E+03  0.23498936578E+03  0.12508923141E+03 0.  0.
         23    2    1    2    0    0  0.12198819446E+03 -0.36863703720E+02  0.10373039891E+03  0.18768173584E+03  0.90688400950E+02 0.  0.
          5    1    3    3  502    0 -0.11277342684E+02 -0.23865299595E+02 -0.10367346703E+02  0.28665052947E+02  0.41800000000E+01 0.  1.
         -5    1    3    3    0  502 -0.11071085178E+03  0.60729003316E+02  0.16311758067E+03  0.20632431284E+03  0.41800000000E+01 0.  1.
        -11    1    4    4    0    0  0.68031467786E+02  0.11421238076E+02  0.90956031420E+02  0.11415658080E+03  0.00000000000E+00 0.  1.
         11    1    4    4    0    0  0.53956726677E+02 -0.48284941797E+02  0.12774367494E+02  0.73525155034E+02  0.00000000000E+00 0. -1.
</event>
<event>
 8    1  0.6832629E-009  0.9651930E+02  0.7561462E-02  0.1287790E+00
          1   -1    0    0  501    0  0.00000000000E+00  0.00000000000E+00  0.11871129472E+03  0.11871129472E+03  0.00000000000E+00 0. -1.
         -1   -1    0    0    0  501 -0.00000000000E+00 -0.00000000000E+00 -0.10856066209E+03  0.10856066209E+03  0.00000000000E+00 0.  1.
         25    2    1    2    0    0  0.29247390318E+02  0.10324348545E+02 -0.22610591606E+01  0.12889505318E+03  0.12508725088E+03 0.  0.
         23    2    1    2    0    0 -0.29247390318E+02 -0.10324348545E+02  0.12411691793E+02  0.98376903636E+02  0.92530876266E+02 0.  0.
          5    1    3    3  502    0  0.29181474341E+02 -0.45316747875E+02 -0.34808481440E+02  0.64298280403E+02  0.41800000000E+01 0. -1.
         -5    1    3    3    0  502  0.65915976884E-01  0.55641096420E+02  0.32547422279E+02  0.64596772774E+02  0.41800000000E+01 0. -1.
        -11    1    4    4    0    0  0.20612425399E+02  0.16644026474E+02  0.29033298780E+02  0.39304301752E+02  0.00000000000E+00 0. -1.
         11    1    4    4    0    0 -0.49859815717E+02 -0.26968375020E+02 -0.16621606987E+02  0.59072601884E+02  0.00000000000E+00 0.  1.
</event>
<event>
 8    1  0.6832629E-009  0.1444326E+03  0.7561462E-02  0.1207486E+00
          2   -1    0    0  501    0  0.00000000000E+00  0.00000000000E+00  0.52852892586E+03  0.52852892586E+03  0.00000000000E+00 0.  1.
         -2   -1    0    0    0  501 -0.00000000000E+00 -0.00000000000E+00 -0.50624852099E+02  0.50624852099E+02  0.00000000000E+00 0. -1.
         25    2    1    2    0    0  0.10855452506E+03  0.37385449677E+02  0.21164099795E+03  0.27133118404E+03  0.12508773985E+03 0.  0.
         23    2    1    2    0    0 -0.10855452506E+03 -0.37385449677E+02  0.26626307581E+03  0.30782259392E+03  0.10332941028E+03 0.  0.
          5    1    3    3  502    0 -0.96136795106E+01  0.83659951976E+01 -0.11151029112E+02  0.17442206272E+02  0.41800000000E+01 0. -1.
         -5    1    3    3    0  502  0.11816820457E+03  0.29019454479E+02  0.22279202707E+03  0.25388897777E+03  0.41800000000E+01 0. -1.
        -11    1    4    4    0    0 -0.41570684497E+02  0.35532813640E+02  0.80499543214E+02  0.97318441790E+02  0.00000000000E+00 0.  1.
         11    1    4    4    0    0 -0.66983840559E+02 -0.72918263317E+02  0.18576353259E+03  0.21050415213E+03  0.00000000000E+00 0. -1.
</event>
<event>
 8    1  0.6832629E-009  0.9493197E+02  0.7561462E-02  0.1291329E+00
         -4   -1    0    0    0  501 -0.00000000000E+00  0.00000000000E+00  0.38084813429E+02  0.38084813429E+02  0.00000000000E+00 0.  1.
          4   -1    0    0  501    0  0.00000000000E+00 -0.00000000000E+00 -0.35846845952E+03  0.35846845952E+03  0.00000000000E+00 0. -1.
         25    2    1    2    0    0  0.20186176849E+02 -0.11815206539E+02 -0.22167440986E+03  0.25560635844E+03  0.12509190880E+03 0.  0.
         23    2    1    2    0    0 -0.20186176849E+02  0.11815206539E+02 -0.98709236236E+02  0.14094691451E+03  0.97854169822E+02 0.  0.
          5    1    3    3  502    0  0.32295539673E+02  0.31047741908E+02 -0.20162213928E+03  0.20658151807E+03  0.41800000000E+01 0. -1.
         -5    1    3    3    0  502 -0.12109362824E+02 -0.42862948446E+02 -0.20052270574E+02  0.49024840364E+02  0.41800000000E+01 0. -1.
        -11    1    4    4    0    0 -0.53587042560E+02  0.30705864527E+02 -0.54107542303E+02  0.82109971263E+02  0.00000000000E+00 0. -1.
         11    1    4    4    0    0  0.33400865712E+02 -0.18890657988E+02 -0.44601693933E+02  0.58836943252E+02  0.00000000000E+00 0.  1.
</event>
<event>
 8    1  0.6832629E-009  0.1197362E+03  0.7561462E-02  0.1243533E+00
          2   -1    0    0  501    0  0.00000000000E+00  0.00000000000E+00  0.16802362233E+03  0.16802362233E+03  0.00000000000E+00 0. -1.
         -2   -1    0    0    0  501 -0.00000000000E+00 -0.00000000000E+00 -0.13991558335E+03  0.13991558335E+03  0.00000000000E+00 0.  1.
         25    2    1    2    0    0 -0.69786104931E+02  0.10763511923E+02 -0.66274085298E+02  0.15819573938E+03  0.12509070287E+03 0.  0.
         23    2    1    2    0    0  0.69786104931E+02 -0.10763511923E+02  0.94382124283E+02  0.14974346630E+03  0.92353487673E+02 0.  0.
          5    1    3    3  502    0 -0.35461526279E+02  0.57084062880E+02 -0.73804981065E+02  0.99903742227E+02  0.41800000000E+01 0. -1.
         -5    1    3    3    0  502 -0.34324578652E+02 -0.46320550957E+02  0.75308957670E+01  0.58291997150E+02  0.41800000000E+01 0. -1.
        -11    1    4    4    0    0  0.66151677714E+02 -0.44936859304E+02  0.52941316806E+02  0.95906980005E+02  0.00000000000E+00 0.  1.
         11    1    4    4    0    0  0.36344272173E+01  0.34173347381E+02  0.41440807477E+02  0.53836486296E+02  0.00000000000E+00 0. -1.
</event>
<event>
 8    1  0.6832629E-009  0.2156933E+03  0.7561462E-02  0.1137135E+00
          1   -1    0    0  501    0  0.00000000000E+00  0.00000000000E+00  0.17816921971E+03  0.17816921971E+03  0.00000000000E+00 0. -1.
         -1   -1    0    0    0  501 -0.00000000000E+00 -0.00000000000E+00 -0.33168018305E+03  0.33168018305E+03  0.00000000000E+00 0.  1.
         25    2    1    2    0    0 -0.16041252377E+03  0.14092175886E+03 -0.12532592111E+03  0.27739041782E+03  0.12509091692E+03 0.  0.
         23    2    1    2    0    0  0.16041252377E+03 -0.14092175886E+03 -0.28185042232E+02  0.23245898494E+03  0.87473785626E+02 0.  0.
          5    1    3    3  502    0 -0.19714926306E+02  0.38750914250E+02  0.22493777964E+02  0.49129971724E+02  0.41800000000E+01 0.  1.
         -5    1    3    3    0  502 -0.14069759746E+03  0.10217084461E+03 -0.14781969907E+03  0.22826044610E+03  0.41800000000E+01 0.  1.
        -11    1    4    4    0    0  0.50606439336E+02 -0.51034516647E+02 -0.51811951175E+02  0.88600292755E+02  0.00000000000E+00 0.  1.
         11    1    4    4    0    0  0.10980608443E+03 -0.89887242210E+02  0.23626908943E+02  0.14385869219E+03  0.00000000000E+00 0. -1.
</event>
<event>
 8    1  0.6832629E-009  0.1336042E+03  0.7561462E-02  0.1222204E+00
         -2   -1    0    0    0  501 -0.00000000000E+00  0.00000000000E+00  0.11777585163E+03  0.11777585163E+03  0.00000000000E+00 0.  1.
          2   -1    0    0  501    0  0.00000000000E+00 -0.00000000000E+00 -0.19296115500E+03  0.19296115500E+03  0.00000000000E+00 0. -1.
         25    2    1    2    0    0  0.10306052973E+03  0.13499587380E+02 -0.36035350334E+02  0.16658141364E+03  0.12508840574E+03 0.  0.
         23    2    1    2    0    0 -0.10306052973E+03 -0.13499587380E+02 -0.39149953042E+02  0.14415559298E+03  0.91893441099E+02 0.  0.
          5    1    3    3  502    0  0.27216854788E+01 -0.21556541317E+02  0.33031020931E+02  0.39756921274E+02  0.41800000000E+01 0. -1.
         -5    1    3    3    0  502  0.10033884425E+03  0.35056128697E+02 -0.69066371265E+02  0.12682449237E+03  0.41800000000E+01 0. -1.
        -11    1    4    4    0    0 -0.90093184122E+02 -0.47839577720E+02 -0.27606121039E+02  0.10567641620E+03  0.00000000000E+00 0. -1.
         11    1    4    4    0    0 -0.12967345610E+02  0.34339990340E+02 -0.11543832003E+02  0.38479176785E+02  0.00000000000E+00 0.  1.
</event>
<event>
 8    1  0.6832629E-009  0.9629064E+02  0.7561462E-02  0.1288295E+00
          2   -1    0    0  501    0  0.00000000000E+00  0.00000000000E+00  0.88819980662E+03  0.88819980662E+03  0.00000000000E+00 0. -1.
         -2   -1    0    0    0  501 -0.00000000000E+00 -0.00000000000E+00 -0.17343374148E+02  0.17343374148E+02  0.00000000000E+00 0.  1.
         25    2    1    2    0    0  0.39931451869E+01  0.59259170467E+02  0.52493832470E+03  0.54289469595E+03  0.12508721624E+03 0.  0.
         23    2    1    2    0    0 -0.39931451869E+01 -0.59259170467E+02  0.34591810777E+03  0.36264848481E+03  0.91252352070E+02 0.  0.
          5    1    3    3  502    0 -0.10784573671E+02  0.80968397528E+02  0.49930444949E+03  0.50595908343E+03  0.41800000000E+01 0.  1.
         -5    1    3    3    0  502  0.14777718858E+02 -0.21709227061E+02  0.25633875207E+02  0.36935612522E+02  0.41800000000E+01 0.  1.
        -11    1    4    4    0    0 -0.29796511678E+02 -0.46956829456E+02  0.31752347730E+03  0.32235684354E+03  0.00000000000E+00 0. -1.
         11    1    4    4    0    0  0.25803366491E+02 -0.12302341011E+02  0.28394630472E+02  0.40291641270E+02  0.00000000000E+00 0.  1.
</event>
<event>
 8    1  0.6832629E-009  0.1216796E+03  0.7561462E-02  0.1240352E+00
         -1   -1    0    0    0  501 -0.00000000000E+00  0.00000000000E+00  0.19752216466E+02  0.19752216466E+02  0.00000000000E+00 0.  1.
          1   -1    0    0  501    0  0.00000000000E+00 -0.00000000000E+00 -0.10404488546E+04  0.10404488546E+04  0.00000000000E+00 0. -1.
         25    2    1    2    0    0  0.15064637995E+01  0.90089599002E+02 -0.46761726598E+03  0.49237592209E+03  0.12509890459E+03 0.  0.
         23    2    1    2    0    0 -0.15064637995E+01 -0.90089599002E+02 -0.55307937210E+03  0.56782514893E+03  0.91707156897E+02 0.  0.
          5    1    3    3  502    0  0.46258498758E+01  0.10710552246E+03 -0.22673461011E+03  0.25083669439E+03  0.41800000000E+01 0.  1.
         -5    1    3    3    0  502 -0.31193860763E+01 -0.17015923458E+02 -0.24088265587E+03  0.24153922771E+03  0.41800000000E+01 0.  1.
        -11    1    4    4    0    0 -0.13175300205E+02  0.10600909517E+02 -0.25508625546E+02  0.30604865550E+02  0.00000000000E+00 0.  1.
         11    1    4    4    0    0  0.11668836405E+02 -0.10069050852E+03 -0.52757074656E+03  0.53722028338E+03  0.00000000000E+00 0. -1.
</event>
<event>
 8    1  0.6832629E-009  0.9809176E+02  0.7561462E-02  0.1284361E+00
         -2   -1    0    0    0  501 -0.00000000000E+00  0.00000000000E+00  0.48189822862E+02  0.48189822862E+02  0.00000000000E+00 0. -1.
          2   -1    0    0  501    0  0.00000000000E+00 -0.00000000000E+00 -0.38301882987E+03  0.38301882987E+03  0.00000000000E+00 0.  1.
         25    2    1    2    0    0  0.75264134777E+01 -0.28151490017E+02 -0.30772143637E+03  0.33345049188E+03  0.12509034674E+03 0.  0.
         23    2    1    2    0    0 -0.75264134777E+01  0.28151490017E+02 -0.27107570638E+02  0.97758160848E+02  0.89289889330E+02 0.  0.
          5    1    3    3  502    0 -0.43661940393E+02 -0.37264150737E+02 -0.72771414054E+02  0.92780025181E+02  0.41800000000E+01 0.  1.
         -5    1    3    3    0  502  0.51188353871E+02  0.91126607203E+01 -0.23495002232E+03  0.24067046670E+03  0.41800000000E+01 0.  1.
        -11    1    4    4    0    0 -0.41890142563E+02 -0.24421934161E+00 -0.32274599741E+02  0.52881882299E+02  0.00000000000E+00 0.  1.
         11    1    4    4    0    0  0.34363729086E+02  0.28395709358E+02  0.51670291032E+01  0.44876278549E+02  0.00000000000E+00 0. -1.
</event>
<event>
 8    1  0.6832629E-009  0.1256254E+03  0.7561462E-02  0.1234095E+00
          2   -1    0    0  501    0  0.00000000000E+00  0.00000000000E+00  0.57423569703E+03  0.57423569703E+03  0.00000000000E+00 0. -1.
         -2   -1    0    0    0  501 -0.00000000000E+00 -0.00000000000E+00 -0.34261417680E+02  0.34261417680E+02  0.00000000000E+00 0.  1.
         25    2    1    2    0    0 -0.62627074886E+02  0.20006877225E+02  0.16717819694E+03  0.21890166821E+03  0.12508782983E+03 0.  0.
         23    2    1    2    0    0  0.62627074886E+02 -0.20006877225E+02  0.37279608242E+03  0.38959544650E+03  0.92115510212E+02 0.  0.
          5    1    3    3  502    0 -0.57570825882E+02  0.70043373484E+02  0.10376894122E+03  0.13786203148E+03  0.41800000000E+01 0.  1.
         -5    1    3    3    0  502 -0.50562490046E+01 -0.50036496259E+02  0.63409255712E+02  0.81039636733E+02  0.41800000000E+01 0.  1.
        -11    1    4    4    0    0 -0.14034994045E+02  0.19306160602E+02  0.12475801686E+03  0.12702075289E+03  0.00000000000E+00 0. -1.
         11    1    4    4    0    0  0.76662068931E+02 -0.39313037827E+02  0.24803806556E+03  0.26257469361E+03  0.00000000000E+00 0.  1.
</event>
<event>
 8    1  0.6832629E-009  0.1058060E+03  0.7561462E-02  0.1268540E+00
         -1   -1    0    0    0  501 -0.00000000000E+00  0.00000000000E+00  0.16778086056E+03  0.16778086056E+03  0.00000000000E+00 0.  1.
          1   -1    0    0  501    0  0.00000000000E+00 -0.00000000000E+00 -0.13391616807E+03  0.13391616807E+03  0.00000000000E+00 0. -1.
         25    2    1    2    0    0  0.64279058246E+02  0.71160098429E+02 -0.31299672564E+02  0.16069282445E+03  0.12508779873E+03 0.  0.
         23    2    1    2    0    0 -0.64279058246E+02 -0.71160098429E+02  0.65164365056E+02  0.14100420417E+03  0.80251069667E+02 0.  0.
          5    1    3    3  502    0  0.50564465601E+02  0.76978473946E+02 -0.72111057241E+02  0.11704668987E+03  0.41800000000E+01 0.  1.
         -5    1    3    3    0  502  0.13714592645E+02 -0.58183755173E+01  0.40811384677E+02  0.43646134587E+02  0.41800000000E+01 0.  1.
        -11    1    4    4    0    0 -0.67966602846E+02 -0.55186044891E+02  0.15767982263E+02  0.88958349342E+02  0.00000000000E+00 0. -1.
         11    1    4    4    0    0  0.36875445996E+01 -0.15974053538E+02  0.49396382793E+02  0.52045854827E+02  0.00000000000E+00 0.  1.
</event>
<event>
 8    1  0.6832629E-009  0.1717164E+03  0.7561462E-02  0.1176070E+00
          2   -1    0    0  501    0  0.00000000000E+00  0.00000000000E+00  0.90798416242E+03  0.90798416242E+03  0.00000000000E+00 0.  1.
         -2   -1    0    0    0  501 -0.00000000000E+00 -0.00000000000E+00 -0.36663849723E+02  0.36663849723E+02  0.00000000000E+00 0. -1.
         25    2    1    2    0    0 -0.13429209957E+03 -0.27082747533E+01  0.61840588690E+03  0.64506831956E+03  0.12508234564E+03 0.  0.
         23    2    1    2    0    0  0.13429209957E+03  0.27082747533E+01  0.25291442580E+03  0.29957969258E+03  0.87980581219E+02 0.  0.
          5    1    3    3  502    0 -0.15828182827E+03 -0.67056751722E+01  0.54843163488E+03  0.57087024250E+03  0.41800000000E+01 0.  1.
         -5    1    3    3    0  502  0.23989728699E+02  0.39974004190E+01  0.69974252017E+02  0.74198077054E+02  0.41800000000E+01 0.  1.
        -11    1    4    4    0    0  0.71256435208E+02  0.45084496868E+02  0.14204740004E+03  0.16518945267E+03  0.00000000000E+00 0.  1.
         11    1    4    4    0    0  0.63035664363E+02 -0.42376222115E+02  0.11086702576E+03  0.13439023991E+03  0.00000000000E+00 0. -1.
</event>
<event>
 8    1  0.6832629E-009  0.8076569E+02  0.7561462E-02  0.1326892E+00
         -1   -1    0    0    0  501 -0.00000000000E+00  0.00000000000E+00  0.19256168510E+03  0.19256168510E+03  0.00000000000E+00 0.  1.
          1   -1    0    0  501    0  0.00000000000E+00 -0.00000000000E+00 -0.73088866518E+02  0.73088866518E+02  0.00000000000E+00 0. -1.
         25    2    1    2    0    0 -0.15870103860E+02 -0.36072855852E+02  0.35399267715E+02  0.13584309672E+03  0.12508847927E+03 0.  0.
         23    2    1    2    0    0  0.15870103860E+02  0.36072855852E+02  0.84073550869E+02  0.12980745490E+03  0.90711092298E+02 0.  0.
          5    1    3    3  502    0  0.12887873672E+02 -0.45578777156E+02  0.73160665918E+02  0.87255244269E+02  0.41800000000E+01 0.  1.
         -5    1    3    3    0  502 -0.28757977531E+02  0.95059213048E+01 -0.37761398204E+02  0.48587852452E+02  0.41800000000E+01 0.  1.
        -11    1    4    4    0    0  0.45357432962E+02  0.17856913012E+02  0.12561213241E+02  0.50338356602E+02  0.00000000000E+00 0. -1.
         11    1    4    4    0    0 -0.29487329103E+02  0.18215942839E+02  0.71512337628E+02  0.79469098298E+02  0.00000000000E+00 0.  1.
</event>
<event>
 8    1  0.6832629E-009  0.2343292E+03  0.7561462E-02  0.1123629E+00
         -2   -1    0    0    0  501 -0.00000000000E+00  0.00000000000E+00  0.13914781725E+03  0.13914781725E+03  0.00000000000E+00 0.  1.
          2   -1    0    0  501    0  0.00000000000E+00 -0.00000000000E+00 -0.51583472365E+03  0.51583472365E+03  0.00000000000E+00 0. -1.
         25    2    1    2    0    0  0.66944077348E+00 -0.21805229606E+03 -0.32786953847E+03  0.41314954604E+03  0.12508741413E+03 0.  0.
         23    2    1    2    0    0 -0.66944077348E+00  0.21805229606E+03 -0.48817367931E+02  0.24183299485E+03  0.92481403643E+02 0.  0.
          5    1    3    3  502    0  0.53660621904E+02 -0.17216126294E+03 -0.22092041811E+03  0.28520565622E+03  0.41800000000E+01 0.  1.
         -5    1    3    3    0  502 -0.52991181131E+02 -0.45891033116E+02 -0.10694912035E+03  0.12794388982E+03  0.41800000000E+01 0.  1.
        -11    1    4    4    0    0 -0.79052451183E+00  0.11895456340E+03  0.20751562268E+02  0.12075363522E+03  0.00000000000E+00 0.  1.
         11    1    4    4    0    0  0.12108373834E+00  0.99097732660E+02 -0.69568930199E+02  0.12107935963E+03  0.00000000000E+00 0. -1.
</event>
<event>
 8    1  0.6832629E-009  0.1738272E+03  0.7561462E-02  0.1173914E+00
         -2   -1    0    0    0  501 -0.00000000000E+00  0.00000000000E+00  0.16308760072E+03  0.16308760072E+03  0.00000000000E+00 0.  1.
          2   -1    0    0  501    0  0.00000000000E+00 -0.00000000000E+00 -0.22404071429E+03  0.22404071429E+03  0.00000000000E+00 0. -1.
         25    2    1    2    0    0  0.14656112496E+03 -0.49071583506E+02 -0.17460961528E+01  0.19884858369E+03  0.12509806844E+03 0.  0.
         23    2    1    2    0    0 -0.14656112496E+03  0.49071583506E+02 -0.59207017419E+02  0.18827973133E+03  0.89753009201E+02 0.  0.
          5    1    3    3  502    0  0.42158229596E+02  0.18866804326E+02  0.46060088981E+02  0.65362656197E+02  0.41800000000E+01 0. -1.
         -5    1    3    3    0  502  0.10440289536E+03 -0.67938387833E+02 -0.47806185134E+02  0.13348592749E+03  0.41800000000E+01 0. -1.
        -11    1    4    4    0    0  0.18104879793E+01  0.26507295519E+02 -0.19739541708E+02  0.33099306478E+02  0.00000000000E+00 0.  1.
         11    1    4    4    0    0 -0.14837161294E+03  0.22564287988E+02 -0.39467475710E+02  0.15518042485E+03  0.00000000000E+00 0. -1.
</event>
<event>
 8    1  0.6832629E-009  0.1102021E+03  0.7561462E-02  0.1260196E+00
          2   -1    0    0  501    0  0.00000000000E+00  0.00000000000E+00  0.59486478711E+03  0.59486478711E+03  0.00000000000E+00 0. -1.
         -2   -1    0    0    0  501 -0.00000000000E+00 -0.00000000000E+00 -0.38436360345E+02  0.38436360345E+02  0.00000000000E+00 0.  1.
         25    2    1    2    0    0 -0.57324740224E+02 -0.62814269922E+02  0.17267327675E+03  0.22955554683E+03  0.12509168730E+03 0.  0.
         23    2    1    2    0    0  0.57324740224E+02  0.62814269922E+02  0.38375515002E+03  0.40374560062E+03  0.92253653104E+02 0.  0.
          5    1    3    3  502    0  0.11264224146E+02 -0.32811321414E+02 -0.63045924607E+01  0.35506138126E+02  0.41800000000E+01 0. -1.
         -5    1    3    3    0  502 -0.68588964370E+02 -0.30002948507E+02  0.17897786921E+03  0.19404940871E+03  0.41800000000E+01 0. -1.
        -11    1    4    4    0    0  0.25491021300E+02  0.72787567701E+02  0.34047903037E+03  0.34910427138E+03  0.00000000000E+00 0. -1.
         11    1    4    4    0    0  0.31833718924E+02 -0.99732977794E+01  0.43276119648E+02  0.54641329238E+02  0.00000000000E+00 0.  1.
</event>
<event>
 8    1  0.6832629E-009  0.1111202E+03  0.7561462E-02  0.1258509E+00
         -1   -1    0    0    0  501 -0.00000000000E+00  0.00000000000E+00  0.47092772105E+02  0.47092772105E+02  0.00000000000E+00 0.  1.
          1   -1    0    0  501    0  0.00000000000E+00 -0.00000000000E+00 -0.49126150543E+03  0.49126150543E+03  0.00000000000E+00 0. -1.
         25    2    1    2    0    0 -0.14429297932E+02 -0.10435080620E+03 -0.22475152469E+03  0.27795634758E+03  0.12509671424E+03 0.  0.
         23    2    1    2    0    0  0.14429297932E+02  0.10435080620E+03 -0.21941720863E+03  0.26039792995E+03  0.92552012883E+02 0.  0.
          5    1    3    3  502    0 -0.73022760678E+01 -0.31678362185E+02 -0.19703129738E+03  0.19973894566E+03  0.41800000000E+01 0. -1.
         -5    1    3    3    0  502 -0.71270218646E+01 -0.72672444016E+02 -0.27720227311E+02  0.78217401913E+02  0.41800000000E+01 0. -1.
        -11    1    4    4    0    0 -0.11265768887E+02  0.28504619665E+01  0.50820344233E+01  0.12683444166E+02  0.00000000000E+00 0.  1.
         11    1    4    4    0    0  0.25695066819E+02  0.10150034423E+03 -0.22449924305E+03  0.24771448579E+03  0.00000000000E+00 0. -1.
</event>
<event>
 8    1  0.6832629E-009  0.1016032E+03  0.7561462E-02  0.1276960E+00
         -1   -1    0    0    0  501 -0.00000000000E+00  0.00000000000E+00  0.21928674194E+03  0.21928674194E+03  0.00000000000E+00 0.  1.
          1   -1    0    0  501    0  0.00000000000E+00 -0.00000000000E+00 -0.57817700900E+02  0.57817700900E+02  0.00000000000E+00 0. -1.
         25    2    1    2    0    0 -0.86459781703E+01  0.55657602771E+01  0.13649755139E+03  0.18542651284E+03  0.12508269065E+03 0.  0.
         23    2    1    2    0    0  0.86459781703E+01 -0.55657602771E+01  0.24971489653E+02  0.91677930008E+02  0.87610141702E+02 0.  0.
          5    1    3    3  502    0 -0.32729748849E+02 -0.52193837150E+02  0.55832700244E+02  0.83247798245E+02  0.41800000000E+01 0.  1.
         -5    1    3    3    0  502  0.24083770679E+02  0.57759597427E+02  0.80664851145E+02  0.10217871459E+03  0.41800000000E+01 0.  1.
        -11    1    4    4    0    0 -0.30960474306E+02  0.14672237537E+02  0.31721299997E+02  0.46691181149E+02  0.00000000000E+00 0.  1.
         11    1    4    4    0    0  0.39606452476E+02 -0.20237997814E+02 -0.67498103433E+01  0.44986748859E+02  0.00000000000E+00 0. -1.
</event>
<event>
 8    1  0.6832629E-009  0.5501475E+02  0.7561462E-02  0.1420029E+00
         -2   -1    0    0    0  501 -0.00000000000E+00  0.00000000000E+00  0.20364382795E+03  0.20364382795E+03  0.00000000000E+00 0.  1.
          2   -1    0    0  501    0  0.00000000000E+00 -0.00000000000E+00 -0.64836234090E+02  0.64836234090E+02  0.00000000000E+00 0. -1.
         25    2    1    2    0    0  0.21311881257E+02  0.64311840844E+00  0.35006353550E+02  0.13163274193E+03  0.12508846500E+03 0.  0.
         23    2    1    2    0    0 -0.21311881257E+02 -0.64311840844E+00  0.10380124031E+03  0.13684732011E+03  0.86590309201E+02 0.  0.
          5    1    3    3  502    0  0.36564545696E+02  0.23849840991E+02 -0.35060741294E+02  0.56147207386E+02  0.41800000000E+01 0. -1.
         -5    1    3    3    0  502 -0.15252664439E+02 -0.23206722582E+02  0.70067094844E+02  0.75485534544E+02  0.41800000000E+01 0. -1.
        -11    1    4    4    0    0  0.12461647020E+01 -0.12530850863E+02 -0.12523975465E+02  0.17760211465E+02  0.00000000000E+00 0. -1.
         11    1    4    4    0    0 -0.22558045959E+02  0.11887732455E+02  0.11632521578E+03  0.11908710865E+03  0.00000000000E+00 0.  1.
</event>
<event>
 8    1  0.6832629E-009  0.1043807E+03  0.7561462E-02  0.1271345E+00
          1   -1    0    0  501    0  0.00000000000E+00  0.00000000000E+00  0.13591279096E+03  0.13591279096E+03  0.00000000000E+00 0. -1.
         -1   -1    0    0    0  501 -0.00000000000E+00 -0.00000000000E+00 -0.92485009224E+02  0.92485009224E+02  0.00000000000E+00 0.  1.
         25    2    1    2    0    0 -0.52357638247E+00 -0.32079667643E+02  0.12653198090E+02  0.12976115750E+03  0.12509386622E+03 0.  0.
         23    2    1    2    0    0  0.52357638247E+00  0.32079667643E+02  0.30774583645E+02  0.98636642684E+02  0.88049605752E+02 0.  0.
          5    1    3    3  502    0 -0.53276258031E+02  0.44051690092E+01  0.32239292306E+02  0.62566840676E+02  0.41800000000E+01 0.  1.
         -5    1    3    3    0  502  0.52752681648E+02 -0.36484836652E+02 -0.19586094216E+02  0.67194316823E+02  0.41800000000E+01 0.  1.
        -11    1    4    4    0    0 -0.35759889335E+02 -0.81624599057E+01  0.24456696898E+02  0.44085433650E+02  0.00000000000E+00 0.  1.
         11    1    4    4    0    0  0.36283465717E+02  0.40242127549E+02  0.63178867468E+01  0.54551209034E+02  0.00000000000E+00 0. -1.
</event>
<event>
 8    1  0.6832629E-009  0.1582209E+03  0.7561462E-02  0.1190720E+00
          1   -1    0    0  501    0  0.00000000000E+00  0.00000000000E+00  0.99278845864E+03  0.99278845864E+03  0.00000000000E+00 0. -1.
         -1   -1    0    0    0  501 -0.00000000000E+00 -0.00000000000E+00 -0.26810377796E+02  0.26810377796E+02  0.00000000000E+00 0.  1.
         25    2    1    2    0    0  0.11005917673E+03  0.50900292995E+02  0.49534378138E+03  0.52508760663E+03  0.12509064983E+03 0.  0.
         23    2    1    2    0    0 -0.11005917673E+03 -0.50900292995E+02  0.47063429946E+03  0.49451122981E+03  0.91328256104E+02 0.  0.
          5    1    3    3  502    0  0.11612165946E+03  0.28903924088E+01  0.26021691276E+03  0.28499633024E+03  0.41800000000E+01 0.  1.
         -5    1    3    3    0  502 -0.60624827307E+01  0.48009900586E+02  0.23512686862E+03  0.24009127639E+03  0.41800000000E+01 0.  1.
        -11    1    4    4    0    0 -0.12500426491E+03 -0.34989956348E+02  0.41066934689E+03  0.43069673294E+03  0.00000000000E+00 0.  1.
         11    1    4    4    0    0  0.14945088181E+02 -0.15910336647E+02  0.59964952578E+02  0.63814496869E+02  0.00000000000E+00 0. -1.
</event>
<event>
 8    1  0.6832629E-009  0.7696995E+02  0.7561462E-02  0.1337877E+00
         -2   -1    0    0    0  501 -0.00000000000E+00  0.00000000000E+00  0.35762695524E+02  0.35762695524E+02  0.00000000000E+00 0. -1.
          2   -1    0    0  501    0  0.00000000000E+00 -0.00000000000E+00 -0.39330137705E+03  0.39330137705E+03  0.00000000000E+00 0.  1.
         25    2    1    2    0    0  0.43511843890E+02  0.18362639172E+02 -0.22922275477E+03  0.26536904587E+03  0.12508873700E+03 0.  0.
         23    2    1    2    0    0 -0.43511843890E+02 -0.18362639172E+02 -0.12831592676E+03  0.16369502671E+03  0.90003431233E+02 0.  0.
          5    1    3    3  502    0 -0.31182364005E+01 -0.26978881992E+01  0.14843360265E+02  0.15962447899E+02  0.41800000000E+01 0.  1.
         -5    1    3    3    0  502  0.46630080291E+02  0.21060527371E+02 -0.24406611504E+03  0.24940659797E+03  0.41800000000E+01 0.  1.
        -11    1    4    4    0    0 -0.27454241050E+02  0.32994867156E+02 -0.32632825567E+02  0.53919364932E+02  0.00000000000E+00 0.  1.
         11    1    4    4    0    0 -0.16057602841E+02 -0.51357506328E+02 -0.95683101189E+02  0.10977566178E+03  0.00000000000E+00 0. -1.
</event>
<event>
 8    1  0.6832629E-009  0.1083516E+03  0.7561462E-02  0.1263653E+00
         -1   -1    0    0    0  501 -0.00000000000E+00  0.00000000000E+00  0.16896482911E+03  0.16896482911E+03  0.00000000000E+00 0.  1.
          1   -1    0    0  501    0  0.00000000000E+00 -0.00000000000E+00 -0.75818415770E+02  0.75818415770E+02  0.00000000000E+00 0. -1.
         25    2    1    2    0    0  0.39137422110E+01  0.15129959444E+02  0.39407795902E+02  0.13207172611E+03  0.12508290615E+03 0.  0.
         23    2    1    2    0    0 -0.39137422110E+01 -0.15129959444E+02  0.53738617438E+02  0.11271151877E+03  0.97835649982E+02 0.  0.
          5    1    3    3  502    0 -0.36573359424E+02 -0.40354631166E+02  0.30841118272E+02  0.62727616345E+02  0.41800000000E+01 0.  1.
         -5    1    3    3    0  502  0.40487101635E+02  0.55484590611E+02  0.85666776306E+01  0.69344109769E+02  0.41800000000E+01 0.  1.
        -11    1    4    4    0    0  0.41585162534E+02  0.78118876056E+01  0.57237837725E+01  0.42697927721E+02  0.00000000000E+00 0. -1.
         11    1    4    4    0    0 -0.45498904745E+02 -0.22941847050E+02  0.48014833665E+02  0.70013591045E+02  0.00000000000E+00 0.  1.
</event>
<event>
 8    1  0.6832629E-009  0.1329638E+03  0.7561462E-02  0.1223123E+00
         -1   -1    0    0    0  501 -0.00000000000E+00  0.00000000000E+00  0.19260223740E+02  0.19260223740E+02  0.00000000000E+00 0.  1.
          1   -1    0    0  501    0  0.00000000000E+00 -0.00000000000E+00 -0.12776392975E+04  0.12776392975E+04  0.00000000000E+00 0. -1.
         25    2    1    2    0    0  0.41947125095E+02 -0.87702932116E+02 -0.91878558036E+03  0.93234414718E+03  0.12508917020E+03 0.  0.
         23    2    1    2    0    0 -0.41947125095E+02  0.87702932116E+02 -0.33959349345E+03  0.36455537411E+03  0.90141635178E+02 0.  0.
          5    1    3    3  502    0  0.24535709900E+02 -0.11029687353E+03 -0.85375411300E+03  0.86120901019E+03  0.41800000000E+01 0. -1.
         -5    1    3    3    0  502  0.17411415194E+02  0.22593941411E+02 -0.65031467356E+02  0.71135136986E+02  0.41800000000E+01 0. -1.
        -11    1    4    4    0    0 -0.17451704941E+02 -0.12117675746E+02 -0.21326443698E+02  0.30103442853E+02  0.00000000000E+00 0.  1.
         11    1    4    4    0    0 -0.24495420153E+02  0.99820607861E+02 -0.31826704975E+03  0.33445193125E+03  0.00000000000E+00 0. -1.
</event>
<event>
 8    1  0.6832629E-009  0.1190532E+03  0.7561462E-02  0.1244667E+00
          2   -1    0    0  501    0  0.00000000000E+00  0.00000000000E+00  0.88277232742E+03  0.88277232742E+03  0.00000000000E+00 0. -1.
         -2   -1    0    0    0  501 -0.00000000000E+00 -0.00000000000E+00 -0.16710109992E+02  0.16710109992E+02  0.00000000000E+00 0.  1.
         25    2    1    2    0    0 -0.49466764595E+02  0.22612008556E+00  0.55875406878E+03  0.57472106765E+03  0.12510469333E+03 0.  0.
         23    2    1    2    0    0  0.49466764595E+02 -0.22612008556E+00  0.30730814864E+03  0.32476136976E+03  0.92653316911E+02 0.  0.
          5    1    3    3  502    0  0.20051705528E+02  0.45576270169E+02  0.25213750369E+03  0.25704097040E+03  0.41800000000E+01 0. -1.
         -5    1    3    3    0  502 -0.69518470123E+02 -0.45350150084E+02  0.30661656509E+03  0.31768009725E+03  0.41800000000E+01 0. -1.
        -11    1    4    4    0    0  0.33851142235E+02 -0.45745222226E+02  0.16699434898E+03  0.17642459516E+03  0.00000000000E+00 0. -1.
         11    1    4    4    0    0  0.15615622360E+02  0.45519102140E+02  0.14031379966E+03  0.14833677459E+03  0.00000000000E+00 0.  1.
</event>
<event>
 8    1  0.6832629E-009  0.1172435E+03  0.7561462E-02  0.1247715E+00
         -2   -1    0    0    0  501 -0.00000000000E+00  0.00000000000E+00  0.11101865372E+03  0.11101865372E+03  0.00000000000E+00 0.  1.
          2   -1    0    0  501    0  0.00000000000E+00 -0.00000000000E+00 -0.14456616348E+03  0.14456616348E+03  0.00000000000E+00 0. -1.
         25    2    1    2    0    0  0.27506886001E+02  0.56918586853E+02 -0.39386319078E+02  0.14558446348E+03  0.12508876676E+03 0.  0.
         23    2    1    2    0    0 -0.27506886001E+02 -0.56918586853E+02  0.58388093184E+01  0.11000035372E+03  0.89831129451E+02 0.  0.
          5    1    3    3  502    0  0.23670446006E+01 -0.37845273091E+02  0.38661357347E+01  0.38344321626E+02  0.41800000000E+01 0.  1.
         -5    1    3    3    0  502  0.25139841400E+02  0.94763859944E+02 -0.43252454812E+02  0.10724014185E+03  0.41800000000E+01 0.  1.
        -11    1    4    4    0    0 -0.49969722929E+02 -0.17701479949E+02 -0.21470699875E+02  0.57195336830E+02  0.00000000000E+00 0. -1.
         11    1    4    4    0    0  0.22462836929E+02 -0.39217106904E+02  0.27309509194E+02  0.52805016894E+02  0.00000000000E+00 0.  1.
</event>
<event>
 8    1  0.6832629E-009  0.1109475E+03  0.7561462E-02  0.1258825E+00
         -2   -1    0    0    0  501 -0.00000000000E+00  0.00000000000E+00  0.27352473456E+03  0.27352473456E+03  0.00000000000E+00 0.  1.
          2   -1    0    0  501    0  0.00000000000E+00 -0.00000000000E+00 -0.64594321034E+02  0.64594321034E+02  0.00000000000E+00 0. -1.
         25    2    1    2    0    0  0.34042493124E+02  0.67380577733E+02  0.10926507641E+03  0.18244239815E+03  0.12508932059E+03 0.  0.
         23    2    1    2    0    0 -0.34042493124E+02 -0.67380577733E+02  0.99665337114E+02  0.15567665744E+03  0.92752405129E+02 0.  0.
          5    1    3    3  502    0  0.41046489546E+00  0.86219296573E+02  0.25293813239E+02  0.89951014286E+02  0.41800000000E+01 0. -1.
         -5    1    3    3    0  502  0.33632028229E+02 -0.18838718839E+02  0.83971263174E+02  0.92491383866E+02  0.41800000000E+01 0. -1.
        -11    1    4    4    0    0 -0.29556311145E+02 -0.28941665427E+00  0.80504164452E+02  0.85758846684E+02  0.00000000000E+00 0.  1.
         11    1    4    4    0    0 -0.44861819795E+01 -0.67091161079E+02  0.19161172661E+02  0.69917810760E+02  0.00000000000E+00 0. -1.
</event>
<event>
 8    1  0.6832629E-009  0.7268597E+02  0.7561462E-02  0.1351190E+00
         -2   -1    0    0    0  501 -0.00000000000E+00  0.00000000000E+00  0.46732786041E+02  0.46732786041E+02  0.00000000000E+00 0.  1.
          2   -1    0    0  501    0  0.00000000000E+00 -0.00000000000E+00 -0.28841040158E+03  0.28841040158E+03  0.00000000000E+00 0. -1.
         25    2    1    2    0    0 -0.33623138281E+02 -0.57775183584E+01 -0.17013788339E+03  0.21390689450E+03  0.12508143350E+03 0.  0.
         23    2    1    2    0    0  0.33623138281E+02  0.57775183584E+01 -0.71539732151E+02  0.12123629312E+03  0.91740995994E+02 0.  0.
          5    1    3    3  502    0  0.18699112778E+02 -0.30417814692E+02 -0.19481117015E+01  0.36002330598E+02  0.41800000000E+01 0.  1.
         -5    1    3    3    0  502 -0.52322251059E+02  0.24640296333E+02 -0.16818977169E+03  0.17790456391E+03  0.41800000000E+01 0.  1.
        -11    1    4    4    0    0  0.68082087701E+01 -0.15679967654E+02  0.18308415179E+02  0.25048176753E+02  0.00000000000E+00 0.  1.
         11    1    4    4    0    0  0.26814929510E+02  0.21457486012E+02 -0.89848147330E+02  0.96188116362E+02  0.00000000000E+00 0. -1.
</event>
<event>
 8    1  0.6832629E-009  0.1315068E+03  0.7561462E-02  0.1225237E+00
         -1   -1    0    0    0  501 -0.00000000000E+00  0.00000000000E+00  0.29418657358E+02  0.29418657358E+02  0.00000000000E+00 0.  1.
          1   -1    0    0  501    0  0.00000000000E+00 -0.00000000000E+00 -0.64560747851E+03  0.64560747851E+03  0.00000000000E+00 0. -1.
         25    2    1    2    0    0  0.32351162978E+02  0.77096318957E+02 -0.35869505101E+03  0.38897223627E+03  0.12508725285E+03 0.  0.
         23    2    1    2    0    0 -0.32351162978E+02 -0.77096318957E+02 -0.25749377014E+03  0.28605389960E+03  0.92376142325E+02 0.  0.
          5    1    3    3  502    0  0.68472192233E+02  0.19508892452E+02 -0.10981905197E+03  0.13094554047E+03  0.41800000000E+01 0. -1.
         -5    1    3    3    0  502 -0.36121029255E+02  0.57587426505E+02 -0.24887599904E+03  0.25802669580E+03  0.41800000000E+01 0. -1.
        -11    1    4    4    0    0 -0.57137635380E+02 -0.18653356389E+02 -0.10714293367E+03  0.12285058127E+03  0.00000000000E+00 0. -1.
         11    1    4    4    0    0  0.24786472402E+02 -0.58442962568E+02 -0.15035083647E+03  0.16320331833E+03  0.00000000000E+00 0.  1.
</event>
<event>
 8    1  0.6832629E-009  0.6033517E+02  0.7561462E-02  0.1396431E+00
          2   -1    0    0  501    0  0.00000000000E+00  0.00000000000E+00  0.83827417891E+03  0.83827417891E+03  0.00000000000E+00 0.  1.
         -2   -1    0    0    0  501 -0.00000000000E+00 -0.00000000000E+00 -0.14552933615E+02  0.14552933615E+02  0.00000000000E+00 0. -1.
         25    2    1    2    0    0  0.22047344165E+02 -0.82518237147E+00  0.51719211823E+03  0.53256491598E+03  0.12510370203E+03 0.  0.
         23    2    1    2    0    0 -0.22047344165E+02  0.82518237147E+00  0.30652912706E+03  0.32026219655E+03  0.90116604943E+02 0.  0.
          5    1    3    3  502    0  0.16643150375E+02 -0.10295285093E+02  0.52013711444E+03  0.52052192803E+03  0.41800000000E+01 0. -1.
         -5    1    3    3    0  502  0.54041937896E+01  0.94701027215E+01 -0.29449962043E+01  0.12042987948E+02  0.41800000000E+01 0. -1.
        -11    1    4    4    0    0 -0.83874002937E-01  0.42167280298E+02  0.19118481698E+03  0.19577977629E+03  0.00000000000E+00 0.  1.
         11    1    4    4    0    0 -0.21963470162E+02 -0.41342097926E+02  0.11534431009E+03  0.12448242025E+03  0.00000000000E+00 0. -1.
</event>
<event>
 8    1  0.6832629E-009  0.1105854E+03  0.7561462E-02  0.1259490E+00
          2   -1    0    0  501    0  0.00000000000E+00  0.00000000000E+00  0.77633808746E+03  0.77633808746E+03  0.00000000000E+00 0.  1.
         -2   -1    0    0    0  501 -0.00000000000E+00 -0.00000000000E+00 -0.28641070905E+02  0.28641070905E+02  0.00000000000E+00 0. -1.
         25    2    1    2    0    0 -0.92174745638E+02  0.16884374514E+02  0.51042976150E+03  0.53382329274E+03  0.12508997006E+03 0.  0.
         23    2    1    2    0    0  0.92174745638E+02 -0.16884374514E+02  0.23726725506E+03  0.27115586563E+03  0.91915653218E+02 0.  0.
          5    1    3    3  502    0 -0.86950193545E+02  0.47293645122E+01  0.15276938481E+03  0.17589388955E+03  0.41800000000E+01 0. -1.
         -5    1    3    3    0  502 -0.52245520921E+01  0.12155010002E+02  0.35766037669E+03  0.35792940319E+03  0.41800000000E+01 0. -1.
        -11    1    4    4    0    0  0.14689429931E+02  0.27240512890E+02  0.21483781551E+02  0.37674630243E+02  0.00000000000E+00 0. -1.
         11    1    4    4    0    0  0.77485315706E+02 -0.44124887404E+02  0.21578347351E+03  0.23348123539E+03  0.00000000000E+00 0.  1.
</event>
<event>
 8    1  0.6832629E-009  0.1202364E+03  0.7561462E-02  0.1242708E+00
         -1   -1    0    0    0  501 -0.00000000000E+00  0.00000000000E+00  0.26838837901E+03  0.26838837901E+03  0.00000000000E+00 0.  1.
          1   -1    0    0  501    0  0.00000000000E+00 -0.00000000000E+00 -0.60934147333E+02  0.60934147333E+02  0.00000000000E+00 0. -1.
         25    2    1    2    0    0  0.16120542740E+02  0.64694125910E+02  0.97434060031E+02  0.17200873728E+03  0.12509359624E+03 0.  0.
         23    2    1    2    0    0 -0.16120542740E+02 -0.64694125910E+02  0.11002017165E+03  0.15731378907E+03  0.90542742594E+02 0.  0.
          5    1    3    3  502    0 -0.45517667514E+02  0.38766648437E+01  0.64765214872E+02  0.79365559556E+02  0.41800000000E+01 0. -1.
         -5    1    3    3    0  502  0.61638210255E+02  0.60817461066E+02  0.32668845159E+02  0.92643177720E+02  0.41800000000E+01 0. -1.
        -11    1    4    4    0    0  0.35095375880E+02 -0.24467307606E+02  0.22849023679E+02  0.48501674535E+02  0.00000000000E+00 0. -1.
         11    1    4    4    0    0 -0.51215918621E+02 -0.40226818304E+02  0.87171147972E+02  0.10881211454E+03  0.00000000000E+00 0.  1.
</event>
<event>
 8    1  0.6832629E-009  0.1701150E+03  0.7561462E-02  0.1177728E+00
         -2   -1    0    0    0  501 -0.00000000000E+00  0.00000000000E+00  0.54156269478E+03  0.54156269478E+03  0.00000000000E+00 0. -1.
          2   -1    0    0  501    0  0.00000000000E+00 -0.00000000000E+00 -0.64605249471E+02  0.64605249471E+02  0.00000000000E+00 0.  1.
         25    2    1    2    0    0  0.30673334489E+02  0.14664529277E+03  0.20883533870E+03  0.28584298327E+03  0.12509323345E+03 0.  0.
         23    2    1    2    0    0 -0.30673334489E+02 -0.14664529277E+03  0.26812210661E+03  0.32032496098E+03  0.90955600358E+02 0.  0.
          5    1    3    3  502    0  0.75726363448E+02  0.87328144124E+02  0.94692604202E+02  0.14948193392E+03  0.41800000000E+01 0. -1.
         -5    1    3    3    0  502 -0.45053028959E+02  0.59317148644E+02  0.11414273450E+03  0.13636104935E+03  0.41800000000E+01 0. -1.
        -11    1    4    4    0    0 -0.51097617717E+01 -0.14691577950E+02 -0.46511313568E+01  0.16235305692E+02  0.00000000000E+00 0.  1.
         11    1    4    4    0    0 -0.25563572718E+02 -0.13195371482E+03  0.27277323797E+03  0.30408965529E+03  0.00000000000E+00 0. -1.
</event>
<event>
 8    1  0.6832629E-009  0.1189251E+03  0.7561462E-02  0.1244881E+00
          2   -1    0    0  501    0  0.00000000000E+00  0.00000000000E+00  0.69887478001E+03  0.69887478001E+03  0.00000000000E+00 0. -1.
         -2   -1    0    0    0  501 -0.00000000000E+00 -0.00000000000E+00 -0.22269049045E+02  0.22269049045E+02  0.00000000000E+00 0.  1.
         25    2    1    2    0    0  0.24560297276E+02  0.47761814798E+02  0.46633347642E+03  0.48579706331E+03  0.12508987305E+03 0.  0.
         23    2    1    2    0    0 -0.24560297276E+02 -0.47761814798E+02  0.21027225455E+03  0.23534676574E+03  0.91045482912E+02 0.  0.
          5    1    3    3  502    0 -0.27287716419E+02 -0.29626348426E+02  0.18619852204E+03  0.19055104827E+03  0.41800000000E+01 0. -1.
         -5    1    3    3    0  502  0.51848013695E+02  0.77388163224E+02  0.28013495438E+03  0.29524601504E+03  0.41800000000E+01 0. -1.
        -11    1    4    4    0    0  0.25970249562E+02 -0.46856290784E+02  0.87751872690E+02  0.10281224153E+03  0.00000000000E+00 0.  1.
         11    1    4    4    0    0 -0.50530546838E+02 -0.90552401425E+00  0.12252038186E+03  0.13253452421E+03  0.00000000000E+00 0. -1.
</event>
<event>
 8    1  0.6832629E-009  0.1081251E+03  0.7561462E-02  0.1264082E+00
          2   -1    0    0  501    0  0.00000000000E+00  0.00000000000E+00  0.20212917700E+03  0.20212917700E+03  0.00000000000E+00 0. -1.
         -2   -1    0    0    0  501 -0.00000000000E+00 -0.00000000000E+00 -0.10895254981E+03  0.10895254981E+03  0.00000000000E+00 0.  1.
         25    2    1    2    0    0  0.47692115578E+02  0.76915887987E+01  0.14174043301E+03  0.19511588385E+03  0.12508460879E+03 0.  0.
         23    2    1    2    0    0 -0.47692115578E+02 -0.76915887987E+01 -0.48563805830E+02  0.11596584296E+03  0.93573153572E+02 0.  0.
          5    1    3    3  502    0  0.84335373620E+01 -0.55784281415E+02  0.80983886115E+02  0.98787007323E+02  0.41800000000E+01 0. -1.
         -5    1    3    3    0  502  0.39258578216E+02  0.63475870214E+02  0.60756546898E+02  0.96328876532E+02  0.41800000000E+01 0. -1.
        -11    1    4    4    0    0 -0.46401798512E+02 -0.34665229851E+02  0.27437281332E+01  0.57985628477E+02  0.00000000000E+00 0. -1.
         11    1    4    4    0    0 -0.12903170655E+01  0.26973641052E+02 -0.51307533964E+02  0.57980214480E+02  0.00000000000E+00 0.  1.
</event>
<event>
 8    1  0.6832629E-009  0.9637057E+02  0.7561462E-02  0.1288119E+00
         -2   -1    0    0    0  501 -0.00000000000E+00  0.00000000000E+00  0.13929713561E+03  0.13929713561E+03  0.00000000000E+00 0.  1.
          2   -1    0    0  501    0  0.00000000000E+00 -0.00000000000E+00 -0.13956077978E+03  0.13956077978E+03  0.00000000000E+00 0. -1.
         25    2    1    2    0    0  0.91874770588E+01 -0.54562260087E+02 -0.68993070543E+02  0.15319032791E+03  0.12508310366E+03 0.  0.
         23    2    1    2    0    0 -0.91874770588E+01  0.54562260087E+02  0.68729426377E+02  0.12566758748E+03  0.89482727566E+02 0.  0.
          5    1    3    3  502    0  0.25400524087E+01 -0.84425511226E+02 -0.83703599372E+02  0.11898690583E+03  0.41800000000E+01 0.  1.
         -5    1    3    3    0  502  0.66474246500E+01  0.29863251139E+02  0.14710528830E+02  0.34203422073E+02  0.41800000000E+01 0.  1.
        -11    1    4    4    0    0  0.19226820144E+02  0.42072375298E+02  0.80194776646E+02  0.92579466284E+02  0.00000000000E+00 0. -1.
         11    1    4    4    0    0 -0.28414297203E+02  0.12489884789E+02 -0.11465350269E+02  0.33088121197E+02  0.00000000000E+00 0.  1.
</event>
<event>
 8    1  0.6832629E-009  0.2360871E+03  0.7561462E-02  0.1122427E+00
          1   -1    0    0  501    0  0.00000000000E+00  0.00000000000E+00  0.20426380179E+03  0.20426380179E+03  0.00000000000E+00 0. -1.
         -1   -1    0    0    0  501 -0.00000000000E+00 -0.00000000000E+00 -0.37163365395E+03  0.37163365395E+03  0.00000000000E+00 0.  1.
         25    2    1    2    0    0 -0.90899096778E+02 -0.18947018483E+03  0.61628524377E+02  0.25220414574E+03  0.12508900582E+03 0.  0.
         23    2    1    2    0    0  0.90899096778E+02  0.18947018483E+03 -0.22899837654E+03  0.32369331000E+03  0.90418503340E+02 0.  0.
          5    1    3    3  502    0  0.24863506036E+02 -0.48404540775E+01  0.13450349041E+02  0.28982895256E+02  0.41800000000E+01 0. -1.
         -5    1    3    3    0  502 -0.11576260281E+03 -0.18462973076E+03  0.48178175336E+02  0.22322125049E+03  0.41800000000E+01 0. -1.
        -11    1    4    4    0    0  0.10868641814E+03  0.14989052627E+03 -0.17965701963E+03  0.25798556560E+03  0.00000000000E+00 0.  1.
         11    1    4    4    0    0 -0.17787321362E+02  0.39579658565E+02 -0.49341356906E+02  0.65707744404E+02  0.00000000000E+00 0. -1.
</event>
<event>
 8    1  0.6832629E-009  0.1615828E+03  0.7561462E-02  0.1186921E+00
          2   -1    0    0  501    0  0.00000000000E+00  0.00000000000E+00  0.93017686925E+03  0.93017686925E+03  0.00000000000E+00 0. -1.
         -2   -1    0    0    0  501 -0.00000000000E+00 -0.00000000000E+00 -0.33646457844E+02  0.33646457844E+02  0.00000000000E+00 0.  1.
         25    2    1    2    0    0 -0.10733549548E+03  0.89668985901E+02  0.48975575378E+03  0.52446809924E+03  0.12507858788E+03 0.  0.
         23    2    1    2    0    0  0.10733549548E+03 -0.89668985901E+02  0.40677465763E+03  0.43935522785E+03  0.89476022073E+02 0.  0.
          5    1    3    3  502    0 -0.12427500281E+03  0.42411841611E+02  0.40602739754E+03  0.42675374701E+03  0.41800000000E+01 0.  1.
         -5    1    3    3    0  502  0.16939507329E+02  0.47257144290E+02  0.83728356234E+02  0.97714352235E+02  0.41800000000E+01 0.  1.
        -11    1    4    4    0    0  0.30794440923E+02 -0.38680993836E+02  0.47740581467E+02  0.68729033128E+02  0.00000000000E+00 0.  1.
         11    1    4    4    0    0  0.76541054558E+02 -0.50987992065E+02  0.35903407616E+03  0.37062619472E+03  0.00000000000E+00 0. -1.
</event>
<event>
 8    1  0.6832629E-009  0.1010451E+03  0.7561462E-02  0.1278114E+00
         -1   -1    0    0    0  501 -0.00000000000E+00  0.00000000000E+00  0.23078419066E+03  0.23078419066E+03  0.00000000000E+00 0.  1.
          1   -1    0    0  501    0  0.00000000000E+00 -0.00000000000E+00 -0.72908663050E+02  0.72908663050E+02  0.00000000000E+00 0. -1.
         25    2    1    2    0    0  0.63898369212E+02 -0.16936587921E+02  0.12405881921E+03  0.18817268032E+03  0.12509403422E+03 0.  0.
         23    2    1    2    0    0 -0.63898369212E+02  0.16936587921E+02  0.33816708404E+02  0.11552017339E+03  0.88495712300E+02 0.  0.
          5    1    3    3  502    0 -0.41343400771E+01  0.43872361329E+02  0.67555330490E+02  0.80765536797E+02  0.41800000000E+01 0. -1.
         -5    1    3    3    0  502  0.68032709289E+02 -0.60808949250E+02  0.56503488720E+02  0.10740714352E+03  0.41800000000E+01 0. -1.
        -11    1    4    4    0    0 -0.47990880118E+02  0.15837557132E+02 -0.23711634628E+02  0.55822884261E+02  0.00000000000E+00 0. -1.
         11    1    4    4    0    0 -0.15907489094E+02  0.10990307893E+01  0.57528343032E+02  0.59697289134E+02  0.00000000000E+00 0.  1.
</event>
<event>
 8    1  0.6832629E-009  0.1740369E+03  0.7561462E-02  0.1173702E+00
          2   -1    0    0  501    0  0.00000000000E+00  0.00000000000E+00  0.40004453021E+03  0.40004453021E+03  0.00000000000E+00 0. -1.
         -2   -1    0    0    0  501 -0.00000000000E+00 -0.00000000000E+00 -0.86097866584E+02  0.86097866584E+02  0.00000000000E+00 0.  1.
         25    2    1    2    0    0  0.13767510279E+03 -0.60226271656E+02  0.16080220760E+03  0.25315039277E+03  0.12508450609E+03 0.  0.
         23    2    1    2    0    0 -0.13767510279E+03  0.60226271656E+02  0.15314445602E+03  0.23299200403E+03  0.90831777505E+02 0.  0.
          5    1    3    3  502    0  0.15311805936E+03 -0.77745842730E+02  0.14016195978E+03  0.22170341345E+03  0.41800000000E+01 0.  1.
         -5    1    3    3    0  502 -0.15442956574E+02  0.17519571074E+02  0.20640247821E+02  0.31446979322E+02  0.41800000000E+01 0.  1.
        -11    1    4    4    0    0 -0.78289199933E+01  0.11442298266E+02  0.69814766200E+02  0.71178084812E+02  0.00000000000E+00 0. -1.
         11    1    4    4    0    0 -0.12984618279E+03  0.48783973390E+02  0.83329689823E+02  0.16181391921E+03  0.00000000000E+00 0.  1.
</event>
<event>
 8    1  0.6832629E-009  0.1643139E+03  0.7561462E-02  0.1183911E+00
         -3   -1    0    0    0  501 -0.00000000000E+00  0.00000000000E+00  0.84723724060E+02  0.84723724060E+02  0.00000000000E+00 0.  1.
          3   -1    0    0  501    0  0.00000000000E+00 -0.00000000000E+00 -0.37892505625E+03  0.37892505625E+03  0.00000000000E+00 0. -1.
         25    2    1    2    0    0 -0.41662179938E+02 -0.13486986698E+03 -0.13942972553E+03  0.23455733127E+03  0.12510345733E+03 0.  0.
         23    2    1    2    0    0  0.41662179938E+02  0.13486986698E+03 -0.15477160666E+03  0.22909144904E+03  0.92752485354E+02 0.  0.
          5    1    3    3  502    0 -0.23687161171E+02  0.75243177539E+01  0.10191511039E+02  0.27185221339E+02  0.41800000000E+01 0. -1.
         -5    1    3    3    0  502 -0.17975018767E+02 -0.14239418473E+03 -0.14962123657E+03  0.20737210993E+03  0.41800000000E+01 0. -1.
        -11    1    4    4    0    0  0.33743729554E+01  0.11792013630E+03 -0.14342888115E+03  0.18571049751E+03  0.00000000000E+00 0. -1.
         11    1    4    4    0    0  0.38287806983E+02  0.16949730678E+02 -0.11342725510E+02  0.43380951529E+02  0.00000000000E+00 0.  1.
</event>
<event>
 8    1  0.6832629E-009  0.2345797E+03  0.7561462E-02  0.1123457E+00
         -2   -1    0    0    0  501 -0.00000000000E+00  0.00000000000E+00  0.75444281649E+02  0.75444281649E+02  0.00000000000E+00 0.  1.
          2   -1    0    0  501    0  0.00000000000E+00 -0.00000000000E+00 -0.75278679830E+03  0.75278679830E+03  0.00000000000E+00 0. -1.
         25    2    1    2    0    0  0.59702560505E+02 -0.20062461414E+03 -0.29328812086E+03  0.38142364145E+03  0.12510571884E+03 0.  0.
         23    2    1    2    0    0 -0.59702560505E+02  0.20062461414E+03 -0.38405439580E+03  0.44680743851E+03  0.91238569934E+02 0.  0.
          5    1    3    3  502    0  0.96981358497E+02 -0.14622582605E+03 -0.18866803880E+03  0.25768290080E+03  0.41800000000E+01 0. -1.
         -5    1    3    3    0  502 -0.37278797992E+02 -0.54398788089E+02 -0.10462008206E+03  0.12374074065E+03  0.41800000000E+01 0. -1.
        -11    1    4    4    0    0 -0.11427775908E+02  0.17003157811E+03 -0.30289762400E+03  0.34754611527E+03  0.00000000000E+00 0.  1.
         11    1    4    4    0    0 -0.48274784597E+02  0.30593036033E+02 -0.81156771794E+02  0.99261323232E+02  0.00000000000E+00 0. -1.
</event>
<event>
 8    1  0.6832629E-009  0.1406505E+03  0.7561462E-02  0.1212456E+00
         -2   -1    0    0    0  501 -0.00000000000E+00  0.00000000000E+00  0.20868557632E+02  0.20868557632E+02  0.00000000000E+00 0.  1.
          2   -1    0    0  501    0  0.00000000000E+00 -0.00000000000E+00 -0.13020928108E+04  0.13020928108E+04  0.00000000000E+00 0. -1.
         25    2    1    2    0    0  0.90216973963E+01 -0.12103794606E+03 -0.68424899039E+03  0.70609867542E+03  0.12508830151E+03 0.  0.
         23    2    1    2    0    0 -0.90216973963E+01  0.12103794606E+03 -0.59697526275E+03  0.61686269298E+03  0.96997640420E+02 0.  0.
          5    1    3    3  502    0 -0.16569762144E+02 -0.10928252528E+03 -0.65845566221E+03  0.66768148008E+03  0.41800000000E+01 0. -1.
         -5    1    3    3    0  502  0.25591459541E+02 -0.11755420776E+02 -0.25793328174E+02  0.38417195334E+02  0.41800000000E+01 0. -1.
        -11    1    4    4    0    0 -0.41426603874E+02  0.57173338710E+02 -0.17252321679E+03  0.18641141194E+03  0.00000000000E+00 0.  1.
         11    1    4    4    0    0  0.32404906478E+02  0.63864607345E+02 -0.42445204595E+03  0.43045128104E+03  0.00000000000E+00 0. -1.
</event>
<event>
 8    1  0.6832629E-009  0.1358489E+03  0.7561462E-02  0.1219026E+00
         -2   -1    0    0    0  501 -0.00000000000E+00  0.00000000000E+00  0.10442672485E+03  0.10442672485E+03  0.00000000000E+00 0.  1.
          2   -1    0    0  501    0  0.00000000000E+00 -0.00000000000E+00 -0.45476822922E+03  0.45476822922E+03  0.00000000000E+00 0. -1.
         25    2    1    2    0    0 -0.69327592687E+02  0.10359337802E+03 -0.36643741811E+03  0.40676702004E+03  0.12508047058E+03 0.  0.
         23    2    1    2    0    0  0.69327592687E+02 -0.10359337802E+03  0.16095913744E+02  0.15242793404E+03  0.86239744661E+02 0.  0.
          5    1    3    3  502    0  0.11640220861E+02  0.12718390821E+02 -0.19865142433E+03  0.19944200409E+03  0.41800000000E+01 0.  1.
         -5    1    3    3    0  502 -0.80967813548E+02  0.90874987196E+02 -0.16778599379E+03  0.20732501595E+03  0.41800000000E+01 0.  1.
        -11    1    4    4    0    0  0.75680116791E+02 -0.94245782472E+02  0.38900520636E+02  0.12697636826E+03  0.00000000000E+00 0.  1.
         11    1    4    4    0    0 -0.63525241041E+01 -0.93475955444E+01 -0.22804606892E+02  0.25451565776E+02  0.00000000000E+00 0. -1.
</event>
<event>
 8    1  0.6832629E-009  0.1045179E+03  0.7561462E-02  0.1271072E+00
         -2   -1    0    0    0  501 -0.00000000000E+00  0.00000000000E+00  0.29532102745E+02  0.29532102745E+02  0.00000000000E+00 0. -1.
          2   -1    0    0  501    0  0.00000000000E+00 -0.00000000000E+00 -0.43265537554E+03  0.43265537554E+03  0.00000000000E+00 0.  1.
         25    2    1    2    0    0  0.21846854980E+02 -0.32949888788E+02 -0.18394614713E+03  0.22593592153E+03  0.12509146794E+03 0.  0.
         23    2    1    2    0    0 -0.21846854980E+02  0.32949888788E+02 -0.21917712566E+03  0.23625155675E+03  0.78823888566E+02 0.  0.
          5    1    3    3  502    0  0.52573399533E+02  0.22675794686E+02 -0.13132217620E+03  0.14332180701E+03  0.41800000000E+01 0.  1.
         -5    1    3    3    0  502 -0.30726544553E+02 -0.55625683474E+02 -0.52623970931E+02  0.82614114524E+02  0.41800000000E+01 0.  1.
        -11    1    4    4    0    0  0.13822923698E+02  0.47462093222E+02 -0.11449156997E+03  0.12470783098E+03  0.00000000000E+00 0.  1.
         11    1    4    4    0    0 -0.35669778678E+02 -0.14512204434E+02 -0.10468555569E+03  0.11154372577E+03  0.00000000000E+00 0. -1.
</event>
<event>
 8    1  0.6832629E-009  0.7288572E+02  0.7561462E-02  0.1350546E+00
         -2   -1    0    0    0  501 -0.00000000000E+00  0.00000000000E+00  0.63792442947E+02  0.63792442947E+02  0.00000000000E+00 0.  1.
          2   -1    0    0  501    0  0.00000000000E+00 -0.00000000000E+00 -0.21812211796E+03  0.21812211796E+03  0.00000000000E+00 0. -1.
         25    2    1    2    0    0 -0.39924431725E+02  0.18577384728E+00 -0.96616712165E+02  0.16302127277E+03  0.12508857479E+03 0.  0.
         23    2    1    2    0    0  0.39924431725E+02 -0.18577384728E+00 -0.57712962848E+02  0.11889328814E+03  0.95973085412E+02 0.  0.
          5    1    3    3  502    0  0.84911186965E+01 -0.26136525740E+02 -0.10364653549E+03  0.10730933693E+03  0.41800000000E+01 0. -1.
         -5    1    3    3    0  502 -0.48415550422E+02  0.26322299587E+02  0.70298233233E+01  0.55711935832E+02  0.41800000000E+01 0. -1.
        -11    1    4    4    0    0 -0.52842265961E+01 -0.14382235996E+02  0.21612327847E+02  0.26492725000E+02  0.00000000000E+00 0.  1.
         11    1    4    4    0    0  0.45208658321E+02  0.14196462149E+02 -0.79325290694E+02  0.92400563140E+02  0.00000000000E+00 0. -1.
</event>
<event>
 8    1  0.6832629E-009  0.1230616E+03  0.7561462E-02  0.1238130E+00
          1   -1    0    0  501    0  0.00000000000E+00  0.00000000000E+00  0.46478295154E+03  0.46478295154E+03  0.00000000000E+00 0. -1.
         -1   -1    0    0    0  501 -0.00000000000E+00 -0.00000000000E+00 -0.51757403609E+02  0.51757403609E+02  0.00000000000E+00 0.  1.
         25    2    1    2    0    0 -0.83492707266E+02  0.45954657111E+02  0.31733989692E+03  0.35417203471E+03  0.12510138814E+03 0.  0.
         23    2    1    2    0    0  0.83492707266E+02 -0.45954657111E+02  0.95685651003E+02  0.16236832043E+03  0.90138033012E+02 0.  0.
          5    1    3    3  502    0 -0.91556289375E+02 -0.80000098994E+01  0.25572462150E+03  0.27177032348E+03  0.41800000000E+01 0. -1.
         -5    1    3    3    0  502  0.80635821083E+01  0.53954667011E+02  0.61615275427E+02  0.82401711236E+02  0.41800000000E+01 0.  1.
        -11    1    4    4    0    0  0.22036504775E+02 -0.27503906295E+02 -0.11817511866E+02  0.37171575039E+02  0.00000000000E+00 0. -1.
         11    1    4    4    0    0  0.61456202492E+02 -0.18450750816E+02  0.10750316287E+03  0.12519674539E+03  0.00000000000E+00 0.  1.
</event>
<event>
 8    1  0.6832629E-009  0.1050270E+03  0.7561462E-02  0.1270066E+00
          1   -1    0    0  501    0  0.00000000000E+00  0.00000000000E+00  0.28997561782E+03  0.28997561782E+03  0.00000000000E+00 0. -1.
         -1   -1    0    0    0  501 -0.00000000000E+00 -0.00000000000E+00 -0.73435778325E+02  0.73435778325E+02  0.00000000000E+00 0.  1.
         25    2    1    2    0    0  0.38187814156E+02 -0.94942202871E+02  0.11984825857E+03  0.20120433171E+03  0.12508895626E+03 0.  0.
         23    2    1    2    0    0 -0.38187814156E+02  0.94942202871E+02  0.96691580927E+02  0.16220706444E+03  0.80557674345E+02 0.  0.
          5    1    3    3  502    0  0.37484642517E+02 -0.76428145665E+02  0.14589687718E+03  0.16896665660E+03  0.41800000000E+01 0. -1.
         -5    1    3    3    0  502  0.70317163843E+00 -0.18514057206E+02 -0.26048618607E+02  0.32237675101E+02  0.41800000000E+01 0. -1.
        -11    1    4    4    0    0 -0.12600014559E+02  0.66040341201E+02  0.10309342722E+03  0.12307859996E+03  0.00000000000E+00 0. -1.
         11    1    4    4    0    0 -0.25587799597E+02  0.28901861671E+02 -0.64018462946E+01  0.39128464475E+02  0.00000000000E+00 0.  1.
</event>
<event>
 8    1  0.6832629E-009  0.9298985E+02  0.7561462E-02  0.1295769E+00
          1   -1    0    0  501    0  0.00000000000E+00  0.00000000000E+00  0.75603727966E+03  0.75603727966E+03  0.00000000000E+00 0. -1.
         -1   -1    0    0    0  501 -0.00000000000E+00 -0.00000000000E+00 -0.19554991525E+02  0.19554991525E+02  0.00000000000E+00 0.  1.
         25    2    1    2    0    0 -0.36443575757E+02 -0.23725237456E+02  0.51552237747E+03  0.53226091350E+03  0.12508931714E+03 0.  0.
         23    2    1    2    0    0  0.36443575757E+02  0.23725237456E+02  0.22095991067E+03  0.24333135769E+03  0.92172915789E+02 0.  0.
          5    1    3    3  502    0  0.20322832198E+02  0.40757068011E+02  0.15397985357E+03  0.16062821610E+03  0.41800000000E+01 0. -1.
         -5    1    3    3    0  502 -0.56766407955E+02 -0.64482305467E+02  0.36154252390E+03  0.37163269740E+03  0.41800000000E+01 0. -1.
        -11    1    4    4    0    0  0.15188279159E+02 -0.71205299962E+01 -0.23170338719E+01  0.16933824647E+02  0.00000000000E+00 0.  1.
         11    1    4    4    0    0  0.21255296599E+02  0.30845767452E+02  0.22327694454E+03  0.22639753304E+03  0.00000000000E+00 0. -1.
</event>
<event>
 8    1  0.6832629E-009  0.1068264E+03  0.7561462E-02  0.1266562E+00
          1   -1    0    0  501    0  0.00000000000E+00  0.00000000000E+00  0.51353922419E+03  0.51353922419E+03  0.00000000000E+00 0. -1.
         -1   -1    0    0    0  501 -0.00000000000E+00 -0.00000000000E+00 -0.27108454585E+02  0.27108454585E+02  0.00000000000E+00 0.  1.
         25    2    1    2    0    0  0.41405819874E+02  0.91931286203E+01  0.24283015887E+03  0.27642797776E+03  0.12508791029E+03 0.  0.
         23    2    1    2    0    0 -0.41405819874E+02 -0.91931286203E+01  0.24360061074E+03  0.26421970102E+03  0.93122700347E+02 0.  0.
          5    1    3    3  502    0  0.79717734605E+02 -0.90539337675E+00  0.21046804956E+03  0.22509999830E+03  0.41800000000E+01 0. -1.
         -5    1    3    3    0  502 -0.38311914731E+02  0.10098521997E+02  0.32362109307E+02  0.51327979462E+02  0.41800000000E+01 0. -1.
        -11    1    4    4    0    0 -0.30900347639E+02 -0.46160794696E+02  0.19203729917E+03  0.19990991652E+03  0.00000000000E+00 0. -1.
         11    1    4    4    0    0 -0.10505472235E+02  0.36967666076E+02  0.51563311572E+02  0.64309784498E+02  0.00000000000E+00 0.  1.
</event>
<event>
 8    1  0.6832629E-009  0.1237868E+03  0.7561462E-02  0.1236978E+00
          3   -1    0    0  501    0  0.00000000000E+00  0.00000000000E+00  0.43947942180E+02  0.43947942180E+02  0.00000000000E+00 0. -1.
         -3   -1    0    0    0  501 -0.00000000000E+00 -0.00000000000E+00 -0.39685148688E+03  0.39685148688E+03  0.00000000000E+00 0.  1.
         25    2    1    2    0    0 -0.73267797423E+02  0.19691484916E+02 -0.20268469794E+03  0.24996771448E+03  0.12508735663E+03 0.  0.
         23    2    1    2    0    0  0.73267797423E+02 -0.19691484916E+02 -0.15021884676E+03  0.19083171457E+03  0.89972866182E+02 0.  0.
          5    1    3    3  502    0 -0.94450225887E+02 -0.15466299800E+02 -0.96177014191E+02  0.13574808307E+03  0.41800000000E+01 0. -1.
         -5    1    3    3    0  502  0.21182428464E+02  0.35157784716E+02 -0.10650768375E+03  0.11421963141E+03  0.41800000000E+01 0. -1.
        -11    1    4    4    0    0  0.74141670734E+02 -0.43984768403E+02 -0.14010551395E+03  0.16450289429E+03  0.00000000000E+00 0.  1.
         11    1    4    4    0    0 -0.87387331081E+00  0.24293283487E+02 -0.10113332809E+02  0.26328820286E+02  0.00000000000E+00 0. -1.
</event>
<event>
 8    1  0.6832629E-009  0.6848781E+02  0.7561462E-02  0.1365312E+00
          1   -1    0    0  501    0  0.00000000000E+00  0.00000000000E+00  0.43646108966E+03  0.43646108966E+03  0.00000000000E+00 0. -1.
         -1   -1    0    0    0  501 -0.00000000000E+00 -0.00000000000E+00 -0.32433308071E+02  0.32433308071E+02  0.00000000000E+00 0.  1.
         25    2    1    2    0    0 -0.24310450883E+02  0.38648042304E+02  0.20639735014E+03  0.24562490605E+03  0.12508820541E+03 0.  0.
         23    2    1    2    0    0  0.24310450883E+02 -0.38648042304E+02  0.19763043145E+03  0.22326949168E+03  0.93310284983E+02 0.  0.
          5    1    3    3  502    0 -0.12660976941E+02 -0.69848324380E+01 -0.13792705628E+02  0.20415664325E+02  0.41800000000E+01 0.  1.
         -5    1    3    3    0  502 -0.11649473942E+02  0.45632874742E+02  0.22019005576E+03  0.22520924172E+03  0.41800000000E+01 0.  1.
        -11    1    4    4    0    0 -0.15728397169E+02 -0.29712039040E+02  0.17119776305E+03  0.17446736605E+03  0.00000000000E+00 0. -1.
         11    1    4    4    0    0  0.40038848052E+02 -0.89360032639E+01  0.26432668401E+02  0.48802125634E+02  0.00000000000E+00 0.  1.
</event>
<event>
 8    1  0.6832629E-009  0.1230128E+03  0.7561462E-02  0.1238208E+00
          2   -1    0    0  501    0  0.00000000000E+00  0.00000000000E+00  0.18684662086E+03  0.18684662086E+03  0.00000000000E+00 0. -1.
         -2   -1    0    0    0  501 -0.00000000000E+00 -0.00000000000E+00 -0.10630400198E+03  0.10630400198E+03  0.00000000000E+00 0.  1.
         25    2    1    2    0    0  0.59784301181E+02 -0.33224535461E+02 -0.21416146987E+02  0.14416623860E+03  0.12508885073E+03 0.  0.
         23    2    1    2    0    0 -0.59784301181E+02  0.33224535461E+02  0.10195876587E+03  0.14898438423E+03  0.84396234415E+02 0.  0.
          5    1    3    3  502    0 -0.36003293457E+02 -0.22168597954E+02  0.80735320736E+01  0.43247406802E+02  0.41800000000E+01 0.  1.
         -5    1    3    3    0  502  0.95787594638E+02 -0.11055937508E+02 -0.29489679060E+02  0.10091883180E+03  0.41800000000E+01 0.  1.
        -11    1    4    4    0    0 -0.46052544406E+02  0.60768491111E+02  0.60409108094E+02  0.97277472721E+02  0.00000000000E+00 0.  1.
         11    1    4    4    0    0 -0.13731756775E+02 -0.27543955650E+02  0.41549657774E+02  0.51706911512E+02  0.00000000000E+00 0. -1.
</event>
<event>
 8    1  0.6832629E-009  0.1044711E+03  0.7561462E-02  0.1271165E+00
         -1   -1    0    0    0  501 -0.00000000000E+00  0.00000000000E+00  0.22442276359E+02  0.22442276359E+02  0.00000000000E+00 0.  1.
          1   -1    0    0  501    0  0.00000000000E+00 -0.00000000000E+00 -0.64336656811E+03  0.64336656811E+03  0.00000000000E+00 0. -1.
         25    2    1    2    0    0  0.30427333555E+02  0.15151375745E+02 -0.45320092096E+03  0.47137351347E+03  0.12508608088E+03 0.  0.
         23    2    1    2    0    0 -0.30427333555E+02 -0.15151375745E+02 -0.16772337080E+03  0.19443533100E+03  0.92296164691E+02 0.  0.
          5    1    3    3  502    0  0.43971223676E-01  0.58386376124E+02 -0.35486405261E+03  0.35965947656E+03  0.41800000000E+01 0.  1.
         -5    1    3    3    0  502  0.30383362331E+02 -0.43235000379E+02 -0.98336868352E+02  0.11171403691E+03  0.41800000000E+01 0.  1.
        -11    1    4    4    0    0  0.32666697464E+02 -0.96616732692E+01 -0.72076215808E+02  0.79721025701E+02  0.00000000000E+00 0.  1.
         11    1    4    4    0    0 -0.63094031019E+02 -0.54897024761E+01 -0.95647154989E+02  0.11471430530E+03  0.00000000000E+00 0. -1.
</event>
<event>
 8    1  0.6832629E-009  0.1240381E+03  0.7561462E-02  0.1236580E+00
         -1   -1    0    0    0  501 -0.00000000000E+00  0.00000000000E+00  0.36095204403E+03  0.36095204403E+03  0.00000000000E+00 0.  1.
          1   -1    0    0  501    0  0.00000000000E+00 -0.00000000000E+00 -0.58563242820E+02  0.58563242820E+02  0.00000000000E+00 0. -1.
         25    2    1    2    0    0 -0.50750543654E+02 -0.36244926974E+02  0.66084017905E+02  0.15460862175E+03  0.12508963220E+03 0.  0.
         23    2    1    2    0    0  0.50750543654E+02  0.36244926974E+02  0.23630478331E+03  0.26490666510E+03  0.10220703592E+03 0.  0.
          5    1    3    3  502    0 -0.77517200978E+02  0.14458335834E+02  0.21443521156E+02  0.81824549630E+02  0.41800000000E+01 0. -1.
         -5    1    3    3    0  502  0.26766657324E+02 -0.50703262809E+02  0.44640496749E+02  0.72784072116E+02  0.41800000000E+01 0. -1.
        -11    1    4    4    0    0 -0.23198093399E+02  0.29269280559E+02  0.12975109782E+03  0.13501921977E+03  0.00000000000E+00 0.  1.
         11    1    4    4    0    0  0.73948637053E+02  0.69756464156E+01  0.10655368548E+03  0.12988744533E+03  0.00000000000E+00 0. -1.
</event>
<event>
 8    1  0.6832629E-009  0.1447145E+03  0.7561462E-02  0.1207122E+00
         -2   -1    0    0    0  501 -0.00000000000E+00  0.00000000000E+00  0.16314257802E+03  0.16314257802E+03  0.00000000000E+00 0.  1.
          2   -1    0    0  501    0  0.00000000000E+00 -0.00000000000E+00 -0.16945691069E+03  0.16945691069E+03  0.00000000000E+00 0. -1.
         25    2    1    2    0    0  0.10104862435E+03  0.65526999845E+02  0.32621941702E+02  0.17668373369E+03  0.12509331908E+03 0.  0.
         23    2    1    2    0    0 -0.10104862435E+03 -0.65526999845E+02 -0.38936274368E+02  0.15591575503E+03  0.91044368374E+02 0.  0.
          5    1    3    3  502    0  0.52969035943E+02 -0.20053339833E+02  0.51466180061E+02  0.76642646726E+02  0.41800000000E+01 0.  1.
         -5    1    3    3    0  502  0.48079588406E+02  0.85580339679E+02 -0.18844238359E+02  0.10004108696E+03  0.41800000000E+01 0.  1.
        -11    1    4    4    0    0 -0.28088223936E+02  0.95792574542E+01  0.19973259268E+02  0.35772078260E+02  0.00000000000E+00 0.  1.
         11    1    4    4    0    0 -0.72960400412E+02 -0.75106257300E+02 -0.58909533636E+02  0.12014367677E+03  0.00000000000E+00 0. -1.
</event>
<event>
 8    1  0.6832629E-009  0.1103073E+03  0.7561462E-02  0.1260002E+00
         -3   -1    0    0    0  501 -0.00000000000E+00  0.00000000000E+00  0.58058494108E+03  0.58058494108E+03  0.00000000000E+00 0.  1.
          3   -1    0    0  501    0  0.00000000000E+00 -0.00000000000E+00 -0.22706682717E+02  0.22706682717E+02  0.00000000000E+00 0. -1.
         25    2    1    2    0    0 -0.10425237618E+02 -0.32355477278E+02  0.27605533312E+03  0.30497748410E+03  0.12509658818E+03 0.  0.
         23    2    1    2    0    0  0.10425237618E+02  0.32355477278E+02  0.28182292524E+03  0.29831413969E+03  0.91714787584E+02 0.  0.
          5    1    3    3  502    0 -0.58855594335E+02 -0.46386907919E+02  0.20010824792E+03  0.21372063423E+03  0.41800000000E+01 0.  1.
         -5    1    3    3    0  502  0.48430356717E+02  0.14031430641E+02  0.75947085203E+02  0.91256849871E+02  0.41800000000E+01 0.  1.
        -11    1    4    4    0    0  0.39604148064E+01  0.63263828698E+02  0.15162188539E+03  0.16433865351E+03  0.00000000000E+00 0.  1.
         11    1    4    4    0    0  0.64648228114E+01 -0.30908351420E+02  0.13020103985E+03  0.13397548619E+03  0.00000000000E+00 0. -1.
</event>
<event>
 8    1  0.6832629E-009  0.1731082E+03  0.7561462E-02  0.1174645E+00
          1   -1    0    0  501    0  0.00000000000E+00  0.00000000000E+00  0.14855123330E+03  0.14855123330E+03  0.00000000000E+00 0. -1.
         -1   -1    0    0    0  501 -0.00000000000E+00 -0.00000000000E+00 -0.25985828823E+03  0.25985828823E+03  0.00000000000E+00 0.  1.
         25    2    1    2    0    0 -0.15341090028E+03  0.57932832264E+02 -0.54864963114E+02  0.21342291987E+03  0.12509221066E+03 0.  0.
         23    2    1    2    0    0  0.15341090028E+03 -0.57932832264E+02 -0.56442091818E+02  0.19498660167E+03  0.89123216516E+02 0.  0.
          5    1    3    3  502    0 -0.14740420895E+03  0.63323199122E+02 -0.85239977262E+02  0.18171723772E+03  0.41800000000E+01 0. -1.
         -5    1    3    3    0  502 -0.60066913330E+01 -0.53903668575E+01  0.30375014149E+02  0.31705682143E+02  0.41800000000E+01 0. -1.
        -11    1    4    4    0    0  0.31834694324E+02 -0.43945526579E+02  0.10833477221E+02  0.55335533771E+02  0.00000000000E+00 0. -1.
         11    1    4    4    0    0  0.12157620596E+03 -0.13987305685E+02 -0.67275569040E+02  0.13965106790E+03  0.00000000000E+00 0.  1.
</event>
<event>
 8    1  0.6832629E-009  0.1372853E+03  0.7561462E-02  0.1217029E+00
         -2   -1    0    0    0  501 -0.00000000000E+00  0.00000000000E+00  0.30735247908E+02  0.30735247908E+02  0.00000000000E+00 0.  1.
          2   -1    0    0  501    0  0.00000000000E+00 -0.00000000000E+00 -0.88267780496E+03  0.88267780496E+03  0.00000000000E+00 0. -1.
         25    2    1    2    0    0  0.54501707481E+01 -0.11868512418E+03 -0.36273338060E+03  0.40167254624E+03  0.12509782548E+03 0.  0.
         23    2    1    2    0    0 -0.54501707481E+01  0.11868512418E+03 -0.48920917645E+03  0.51174050663E+03  0.91852407353E+02 0.  0.
          5    1    3    3  502    0  0.18342566745E+02 -0.10016622358E+03 -0.36466833945E+03  0.37864256535E+03  0.41800000000E+01 0.  1.
         -5    1    3    3    0  502 -0.12892395997E+02 -0.18518900593E+02  0.19349588507E+01  0.23029980883E+02  0.41800000000E+01 0.  1.
        -11    1    4    4    0    0 -0.45433722475E+02  0.88931292203E+02 -0.34492773423E+03  0.35909349717E+03  0.00000000000E+00 0.  1.
         11    1    4    4    0    0  0.39983551727E+02  0.29753831974E+02 -0.14428144222E+03  0.15264700946E+03  0.00000000000E+00 0. -1.
</event>
<event>
 8    1  0.6832629E-009  0.1497512E+03  0.7561462E-02  0.1200779E+00
          1   -1    0    0  501    0  0.00000000000E+00  0.00000000000E+00  0.99222818337E+03  0.99222818337E+03  0.00000000000E+00 0. -1.
         -1   -1    0    0    0  501 -0.00000000000E+00 -0.00000000000E+00 -0.24332892122E+02  0.24332892122E+02  0.00000000000E+00 0.  1.
         25    2    1    2    0    0  0.24755723052E+02 -0.10521092603E+03  0.58986769467E+03  0.61259576050E+03  0.12508990282E+03 0.  0.
         23    2    1    2    0    0 -0.24755723052E+02  0.10521092603E+03  0.37802759657E+03  0.40396531499E+03  0.92741183744E+02 0.  0.
          5    1    3    3  502    0  0.47633595400E+02  0.51131242621E+01  0.24787731397E+03  0.25249898739E+03  0.41800000000E+01 0. -1.
         -5    1    3    3    0  502 -0.22877872347E+02 -0.11032405029E+03  0.34199038070E+03  0.36009677311E+03  0.41800000000E+01 0. -1.
        -11    1    4    4    0    0 -0.53231823791E+02  0.94069124420E+02  0.25051712552E+03  0.27283961848E+03  0.00000000000E+00 0.  1.
         11    1    4    4    0    0  0.28476100738E+02  0.11141801606E+02  0.12751047105E+03  0.13112569651E+03  0.00000000000E+00 0. -1.
</event>
<event>
 8    1  0.6832629E-009  0.1043285E+03  0.7561462E-02  0.1271448E+00
         -1   -1    0    0    0  501 -0.00000000000E+00  0.00000000000E+00  0.16826836705E+03  0.16826836705E+03  0.00000000000E+00 0.  1.
          1   -1    0    0  501    0  0.00000000000E+00 -0.00000000000E+00 -0.11315779435E+03  0.11315779435E+03  0.00000000000E+00 0. -1.
         25    2    1    2    0    0  0.17224166765E+01  0.38740195211E+02  0.10773088361E+03  0.16958071476E+03  0.12509159081E+03 0.  0.
         23    2    1    2    0    0 -0.17224166765E+01 -0.38740195211E+02 -0.52620310909E+02  0.11184544664E+03  0.90756472887E+02 0.  0.
          5    1    3    3  502    0 -0.41563549682E+02  0.54635927380E+02  0.10186562429E+03  0.12290927969E+03  0.41800000000E+01 0. -1.
         -5    1    3    3    0  502  0.43285966359E+02 -0.15895732169E+02  0.58652593219E+01  0.46671435072E+02  0.41800000000E+01 0. -1.
        -11    1    4    4    0    0 -0.21676453526E+02  0.21251855288E+02 -0.12483655346E+01  0.30382040866E+02  0.00000000000E+00 0.  1.
         11    1    4    4    0    0  0.19954036850E+02 -0.59992050499E+02 -0.51371945374E+02  0.81463405779E+02  0.00000000000E+00 0. -1.
</event>
<event>
 8    1  0.6832629E-009  0.1589921E+03  0.7561462E-02  0.1189839E+00
          4   -1    0    0  501    0  0.00000000000E+00  0.00000000000E+00  0.86202588549E+02  0.86202588549E+02  0.00000000000E+00 0. -1.
         -4   -1    0    0    0  501 -0.00000000000E+00 -0.00000000000E+00 -0.30982260519E+03  0.30982260519E+03  0.00000000000E+00 0.  1.
         25    2    1    2    0    0 -0.67245924807E+00 -0.12153066273E+03 -0.11137774869E+03  0.20693648028E+03  0.12509016660E+03 0.  0.
         23    2    1    2    0    0  0.67245924807E+00  0.12153066273E+03 -0.11224226795E+03  0.18908871346E+03  0.91575436974E+02 0.  0.
          5    1    3    3  502    0  0.18777389688E+02 -0.14212897829E+03 -0.79116945201E+02  0.16379926816E+03  0.41800000000E+01 0. -1.
         -5    1    3    3    0  502 -0.19449848936E+02  0.20598315555E+02 -0.32260803488E+02  0.43137212115E+02  0.41800000000E+01 0. -1.
        -11    1    4    4    0    0  0.16278895040E+02  0.12799805213E+03 -0.11390598309E+03  0.17211355774E+03  0.00000000000E+00 0.  1.
         11    1    4    4    0    0 -0.15606435792E+02 -0.64673893991E+01  0.16637151367E+01  0.16975155723E+02  0.00000000000E+00 0. -1.
</event>
<event>
 8    1  0.6832629E-009  0.1228966E+03  0.7561462E-02  0.1238394E+00
         -1   -1    0    0    0  501 -0.00000000000E+00  0.00000000000E+00  0.29820529342E+02  0.29820529342E+02  0.00000000000E+00 0.  1.
          1   -1    0    0  501    0  0.00000000000E+00 -0.00000000000E+00 -0.67426970543E+03  0.67426970543E+03  0.00000000000E+00 0. -1.
         25    2    1    2    0    0 -0.80920402730E+02 -0.44659185016E+02 -0.33614759578E+03  0.37038462538E+03  0.12508800973E+03 0.  0.
         23    2    1    2    0    0  0.80920402730E+02  0.44659185016E+02 -0.30830158030E+03  0.33370560940E+03  0.88130669695E+02 0.  0.
          5    1    3    3  502    0  0.19187261024E+02 -0.29172580743E+02 -0.25029676497E+02  0.43164193012E+02  0.41800000000E+01 0.  1.
         -5    1    3    3    0  502 -0.10010766375E+03 -0.15486604273E+02 -0.31111791929E+03  0.32722043236E+03  0.41800000000E+01 0.  1.
        -11    1    4    4    0    0  0.24819039130E+02  0.46936782376E+02 -0.64599060370E+02  0.83618687169E+02  0.00000000000E+00 0.  1.
         11    1    4    4    0    0  0.56101363599E+02 -0.22775973599E+01 -0.24370251993E+03  0.25008692223E+03  0.00000000000E+00 0. -1.
</event>
<event>
 8    1  0.6832629E-009  0.7715180E+02  0.7561462E-02  0.1337334E+00
          2   -1    0    0  501    0  0.00000000000E+00  0.00000000000E+00  0.19612909135E+03  0.19612909135E+03  0.00000000000E+00 0. -1.
         -2   -1    0    0    0  501 -0.00000000000E+00 -0.00000000000E+00 -0.68005639439E+02  0.68005639439E+02  0.00000000000E+00 0.  1.
         25    2    1    2    0    0 -0.17576472030E+02 -0.36639679531E+02  0.65611359695E+02  0.14698169407E+03  0.12508944554E+03 0.  0.
         23    2    1    2    0    0  0.17576472030E+02  0.36639679531E+02  0.62512092214E+02  0.11715303672E+03  0.90364118178E+02 0.  0.
          5    1    3    3  502    0  0.14571767888E+02  0.15073854563E+02 -0.28001297077E+02  0.35229285386E+02  0.41800000000E+01 0. -1.
         -5    1    3    3    0  502 -0.32148239918E+02 -0.51713534095E+02  0.93612656773E+02  0.11175240868E+03  0.41800000000E+01 0. -1.
        -11    1    4    4    0    0 -0.21699707853E+02  0.74054520336E+01 -0.13595681822E+02  0.26656342677E+02  0.00000000000E+00 0.  1.
         11    1    4    4    0    0  0.39276179883E+02  0.29234227498E+02  0.76107774036E+02  0.90496694041E+02  0.00000000000E+00 0. -1.
</event>
<event>
 8    1  0.6832629E-009  0.5985163E+02  0.7561462E-02  0.1398455E+00
         -1   -1    0    0    0  501 -0.00000000000E+00  0.00000000000E+00  0.13971283271E+02  0.13971283271E+02  0.00000000000E+00 0.  1.
          1   -1    0    0  501    0  0.00000000000E+00 -0.00000000000E+00 -0.10386445323E+04  0.10386445323E+04  0.00000000000E+00 0. -1.
         25    2    1    2    0    0  0.32384546774E+01  0.33759523586E+02 -0.75185973624E+03  0.76294881909E+03  0.12509054536E+03 0.  0.
         23    2    1    2    0    0 -0.32384546774E+01 -0.33759523586E+02 -0.27281351279E+03  0.28966699649E+03  0.91266440017E+02 0.  0.
          5    1    3    3  502    0  0.17883292340E+01  0.37661790139E+02 -0.59502710201E+02  0.70566659827E+02  0.41800000000E+01 0.  1.
         -5    1    3    3    0  502  0.14501254434E+01 -0.39022665530E+01 -0.69235702604E+03  0.69238215926E+03  0.41800000000E+01 0.  1.
        -11    1    4    4    0    0  0.32127700173E+02 -0.11727587796E+02 -0.37749991037E+02  0.50939054342E+02  0.00000000000E+00 0.  1.
         11    1    4    4    0    0 -0.35366154851E+02 -0.22031935790E+02 -0.23506352175E+03  0.23872794215E+03  0.00000000000E+00 0. -1.
</event>
<event>
 8    1  0.6832629E-009  0.1003461E+03  0.7561462E-02  0.1279570E+00
         -2   -1    0    0    0  501 -0.00000000000E+00  0.00000000000E+00  0.16542959744E+02  0.16542959744E+02  0.00000000000E+00 0.  1.
          2   -1    0    0  501    0  0.00000000000E+00 -0.00000000000E+00 -0.75680285668E+03  0.75680285668E+03  0.00000000000E+00 0. -1.
         25    2    1    2    0    0 -0.23584654238E+02  0.15721881712E+02 -0.44057924396E+03  0.45887008159E+03  0.12509303774E+03 0.  0.
         23    2    1    2    0    0  0.23584654238E+02 -0.15721881712E+02 -0.29968065297E+03  0.31447573483E+03  0.91011430877E+02 0.  0.
          5    1    3    3  502    0  0.40148760862E+02  0.20450716368E+01 -0.57630462603E+02  0.70390680751E+02  0.41800000000E+01 0. -1.
         -5    1    3    3    0  502 -0.63733415101E+02  0.13676810075E+02 -0.38294878136E+03  0.38847940084E+03  0.41800000000E+01 0. -1.
        -11    1    4    4    0    0 -0.29913788974E+02 -0.26983140669E+02 -0.14093644558E+03  0.14658105725E+03  0.00000000000E+00 0. -1.
         11    1    4    4    0    0  0.53498443213E+02  0.11261258957E+02 -0.15874420739E+03  0.16789467758E+03  0.00000000000E+00 0.  1.
</event>
<event>
 8    1  0.6832629E-009  0.1209034E+03  0.7561462E-02  0.1241614E+00
          1   -1    0    0  501    0  0.00000000000E+00  0.00000000000E+00  0.58959438941E+02  0.58959438941E+02  0.00000000000E+00 0. -1.
         -1   -1    0    0    0  501 -0.00000000000E+00 -0.00000000000E+00 -0.31117327825E+03  0.31117327825E+03  0.00000000000E+00 0.  1.
         25    2    1    2    0    0  0.53405646976E+02  0.51551799704E+02 -0.18268735109E+03  0.23352113005E+03  0.12509076206E+03 0.  0.
         23    2    1    2    0    0 -0.53405646976E+02 -0.51551799704E+02 -0.69526488222E+02  0.13661158714E+03  0.91208782443E+02 0.  0.
          5    1    3    3  502    0 -0.26517055482E+02 -0.19463257156E+02 -0.19752353019E+02  0.38595342469E+02  0.41800000000E+01 0. -1.
         -5    1    3    3    0  502  0.79922702458E+02  0.71015056860E+02 -0.16293499807E+03  0.19492578759E+03  0.41800000000E+01 0. -1.
        -11    1    4    4    0    0  0.43481126802E+00 -0.47670247511E+02  0.11411756282E+01  0.47685887225E+02  0.00000000000E+00 0. -1.
         11    1    4    4    0    0 -0.53840458244E+02 -0.38815521930E+01 -0.70667663850E+02  0.88925699915E+02  0.00000000000E+00 0.  1.
</event>
<event>
 8    1  0.6832629E-009  0.1302534E+03  0.7561462E-02  0.1227080E+00
         -1   -1    0    0    0  501 -0.00000000000E+00  0.00000000000E+00  0.56972051289E+02  0.56972051289E+02  0.00000000000E+00 0.  1.
          1   -1    0    0  501    0  0.00000000000E+00 -0.00000000000E+00 -0.50306129066E+03  0.50306129066E+03  0.00000000000E+00 0. -1.
         25    2    1    2    0    0  0.84188735507E+02  0.74252779091E+02 -0.34369478749E+03  0.38259041674E+03  0.12509237245E+03 0.  0.
         23    2    1    2    0    0 -0.84188735507E+02 -0.74252779091E+02 -0.10239445188E+03  0.17744292521E+03  0.91652329709E+02 0.  0.
          5    1    3    3  502    0  0.85056745819E+02  0.48152789847E+02 -0.10921729333E+03  0.14662615982E+03  0.41800000000E+01 0. -1.
         -5    1    3    3    0  502 -0.86801031221E+00  0.26099989243E+02 -0.23447749416E+03  0.23596425693E+03  0.41800000000E+01 0. -1.
        -11    1    4    4    0    0 -0.48870625300E+02  0.53311835052E+01 -0.94020602405E+01  0.50051556135E+02  0.00000000000E+00 0.  1.
         11    1    4    4    0    0 -0.35318110208E+02 -0.79583962596E+02 -0.92992391642E+02  0.12739136907E+03  0.00000000000E+00 0. -1.
</event>
<event>
 8    1  0.6832629E-009  0.2441128E+03  0.7561462E-02  0.1117083E+00
         -2   -1    0    0    0  501 -0.00000000000E+00  0.00000000000E+00  0.29589712121E+03  0.29589712121E+03  0.00000000000E+00 0.  1.
          2   -1    0    0  501    0  0.00000000000E+00 -0.00000000000E+00 -0.39895650657E+03  0.39895650657E+03  0.00000000000E+00 0. -1.
         25    2    1    2    0    0  0.17302541742E+03  0.13979536968E+03  0.18812009050E+03  0.31705115115E+03  0.12510684850E+03 0.  0.
         23    2    1    2    0    0 -0.17302541742E+03 -0.13979536968E+03 -0.29117947586E+03  0.37780247663E+03  0.92025451526E+02 0.  0.
          5    1    3    3  502    0 -0.17675061478E+02  0.17136250681E+02  0.47667680042E+01  0.25421513780E+02  0.41800000000E+01 0. -1.
         -5    1    3    3    0  502  0.19070047889E+03  0.12265911900E+03  0.18335332250E+03  0.29162963737E+03  0.41800000000E+01 0. -1.
        -11    1    4    4    0    0 -0.10545196647E+03 -0.13124723240E+03 -0.17301361264E+03  0.24141181290E+03  0.00000000000E+00 0.  1.
         11    1    4    4    0    0 -0.67573450943E+02 -0.85481372765E+01 -0.11816586322E+03  0.13639066373E+03  0.00000000000E+00 0. -1.
</event>
<event>
 8    1  0.6832629E-009  0.2193692E+03  0.7561462E-02  0.1134354E+00
         -2   -1    0    0    0  501 -0.00000000000E+00  0.00000000000E+00  0.95717896887E+02  0.95717896887E+02  0.00000000000E+00 0.  1.
          2   -1    0    0  501    0  0.00000000000E+00 -0.00000000000E+00 -0.52960455680E+03  0.52960455680E+03  0.00000000000E+00 0. -1.
         25    2    1    2    0    0  0.19559742147E+03 -0.36944734179E+01 -0.18410738621E+03  0.29633598774E+03  0.12508991787E+03 0.  0.
         23    2    1    2    0    0 -0.19559742147E+03  0.36944734179E+01 -0.24977927371E+03  0.32898646595E+03  0.87008096075E+02 0.  0.
          5    1    3    3  502    0  0.41484072978E+01  0.36052022049E+02 -0.32195057928E+02  0.48692419656E+02  0.41800000000E+01 0. -1.
         -5    1    3    3    0  502  0.19144901418E+03 -0.39746495467E+02 -0.15191232828E+03  0.24764356809E+03  0.41800000000E+01 0. -1.
        -11    1    4    4    0    0 -0.12378225231E+03 -0.29908946462E+02 -0.10995379358E+03  0.16824514194E+03  0.00000000000E+00 0. -1.
         11    1    4    4    0    0 -0.71815169165E+02  0.33603419879E+02 -0.13982548013E+03  0.16074132401E+03  0.00000000000E+00 0.  1.
</event>
<event>
 8    1  0.6832629E-009  0.1274172E+03  0.7561462E-02  0.1231339E+00
          2   -1    0    0  501    0  0.00000000000E+00  0.00000000000E+00  0.82039114809E+03  0.82039114809E+03  0.00000000000E+00 0. -1.
         -2   -1    0    0    0  501 -0.00000000000E+00 -0.00000000000E+00 -0.32171732068E+02  0.32171732068E+02  0.00000000000E+00 0.  1.
         25    2    1    2    0    0 -0.71929308237E+02 -0.18811575743E+02  0.66623201202E+03  0.68194141192E+03  0.12510513457E+03 0.  0.
         23    2    1    2    0    0  0.71929308237E+02  0.18811575743E+02  0.12198740400E+03  0.17062146823E+03  0.93290181270E+02 0.  0.
          5    1    3    3  502    0 -0.10783198614E+03 -0.17790368156E+02  0.50169851426E+03  0.51348135900E+03  0.41800000000E+01 0. -1.
         -5    1    3    3    0  502  0.35902677903E+02 -0.10212075866E+01  0.16453349776E+03  0.16846005292E+03  0.41800000000E+01 0. -1.
        -11    1    4    4    0    0  0.37504340169E+02 -0.31066884715E+02  0.89416946514E+02  0.10181904135E+03  0.00000000000E+00 0.  1.
         11    1    4    4    0    0  0.34424968067E+02  0.49878460458E+02  0.32570457489E+02  0.68802426884E+02  0.00000000000E+00 0. -1.
</event>
<event>
 8    1  0.6832629E-009  0.1154970E+03  0.7561462E-02  0.1250716E+00
          1   -1    0    0  501    0  0.00000000000E+00  0.00000000000E+00  0.30135735052E+03  0.30135735052E+03  0.00000000000E+00 0. -1.
         -1   -1    0    0    0  501 -0.00000000000E+00 -0.00000000000E+00 -0.10159445628E+03  0.10159445628E+03  0.00000000000E+00 0.  1.
         25    2    1    2    0    0  0.77615860467E+01  0.79553556070E+02 -0.21540545488E+02  0.15000319918E+03  0.12509178295E+03 0.  0.
         23    2    1    2    0    0 -0.77615860467E+01 -0.79553556070E+02  0.22130343973E+03  0.25294860762E+03  0.92837358624E+02 0.  0.
          5    1    3    3  502    0 -0.34493731858E+02  0.34162984710E+02  0.39620324683E+02  0.62802624067E+02  0.41800000000E+01 0.  1.
         -5    1    3    3    0  502  0.42255317905E+02  0.45390571360E+02 -0.61160870172E+02  0.87200575111E+02  0.41800000000E+01 0.  1.
        -11    1    4    4    0    0  0.39768135773E+02 -0.21928048199E+02  0.60551476227E+02  0.75689003125E+02  0.00000000000E+00 0.  1.
         11    1    4    4    0    0 -0.47529721820E+02 -0.57625507871E+02  0.16075196351E+03  0.17725960449E+03  0.00000000000E+00 0. -1.
</event>
<event>
 8    1  0.6832629E-009  0.1033488E+03  0.7561462E-02  0.1273407E+00
          2   -1    0    0  501    0  0.00000000000E+00  0.00000000000E+00  0.38931884976E+03  0.38931884976E+03  0.00000000000E+00 0. -1.
         -2   -1    0    0    0  501 -0.00000000000E+00 -0.00000000000E+00 -0.81113064692E+02  0.81113064692E+02  0.00000000000E+00 0.  1.
         25    2    1    2    0    0 -0.41651540225E+02 -0.58146488678E+01  0.34018044870E+03  0.36488194327E+03  0.12508970341E+03 0.  0.
         23    2    1    2    0    0  0.41651540225E+02  0.58146488678E+01 -0.31974663641E+02  0.10554997118E+03  0.91377001242E+02 0.  0.
          5    1    3    3  502    0 -0.20829954586E+02 -0.64599477785E+02  0.15002984736E+03  0.16472221173E+03  0.41800000000E+01 0. -1.
         -5    1    3    3    0  502 -0.20821585639E+02  0.58784828917E+02  0.19015060135E+03  0.20015973154E+03  0.41800000000E+01 0. -1.
        -11    1    4    4    0    0  0.26213527271E+02  0.34670514558E+02 -0.51540385514E+02  0.67421101523E+02  0.00000000000E+00 0.  1.
         11    1    4    4    0    0  0.15438012954E+02 -0.28855865690E+02  0.19565721873E+02  0.38128869654E+02  0.00000000000E+00 0. -1.
</event>
<event>
 8    1  0.6832629E-009  0.1056439E+03  0.7561462E-02  0.1268856E+00
          3   -1    0    0  501    0  0.00000000000E+00  0.00000000000E+00  0.43836037120E+03  0.43836037120E+03  0.00000000000E+00 0. -1.
         -3   -1    0    0    0  501 -0.00000000000E+00 -0.00000000000E+00 -0.33408446168E+02  0.33408446168E+02  0.00000000000E+00 0.  1.
         25    2    1    2    0    0 -0.26685252638E+02 -0.52788150335E+01  0.13951421994E+03  0.18934448105E+03  0.12508855401E+03 0.  0.
         23    2    1    2    0    0  0.26685252638E+02  0.52788150335E+01  0.26543770509E+03  0.28242433631E+03  0.92554642573E+02 0.  0.
          5    1    3    3  502    0 -0.62678287361E+02  0.36365444938E+02  0.73638669927E+02  0.10339796613E+03  0.41800000000E+01 0.  1.
         -5    1    3    3    0  502  0.35993034724E+02 -0.41644259972E+02  0.65875550010E+02  0.85946514917E+02  0.41800000000E+01 0.  1.
        -11    1    4    4    0    0  0.47979799094E+02  0.25327496927E+02  0.94200007629E+02  0.10870687494E+03  0.00000000000E+00 0.  1.
         11    1    4    4    0    0 -0.21294546456E+02 -0.20048681894E+02  0.17123769746E+03  0.17371746138E+03  0.00000000000E+00 0. -1.
</event>
<event>
 8    1  0.6832629E-009  0.7898137E+02  0.7561462E-02  0.1331967E+00
         -1   -1    0    0    0  501 -0.00000000000E+00  0.00000000000E+00  0.46655044649E+02  0.46655044649E+02  0.00000000000E+00 0.  1.
          1   -1    0    0  501    0  0.00000000000E+00 -0.00000000000E+00 -0.35597729316E+03  0.35597729316E+03  0.00000000000E+00 0. -1.
         25    2    1    2    0    0  0.40822779968E+01 -0.53528153026E+02 -0.23994088179E+03  0.27586388891E+03  0.12508928927E+03 0.  0.
         23    2    1    2    0    0 -0.40822779968E+01  0.53528153026E+02 -0.69381366722E+02  0.12676844890E+03  0.91512498755E+02 0.  0.
          5    1    3    3  502    0  0.98305311691E+01 -0.59654657186E+02 -0.25279012287E+03  0.25995314210E+03  0.41800000000E+01 0.  1.
         -5    1    3    3    0  502 -0.57482531723E+01  0.61265041605E+01  0.12849241079E+02  0.15910746811E+02  0.41800000000E+01 0.  1.
        -11    1    4    4    0    0  0.28570916218E+02  0.46497984507E+02 -0.57156423453E+01  0.54872838310E+02  0.00000000000E+00 0.  1.
         11    1    4    4    0    0 -0.32653194214E+02  0.70301685187E+01 -0.63665724377E+02  0.71895610591E+02  0.00000000000E+00 0. -1.
</event>
<event>
 8    1  0.6832629E-009  0.1021788E+03  0.7561462E-02  0.1275780E+00
         -2   -1    0    0    0  501 -0.00000000000E+00  0.00000000000E+00  0.10247282702E+03  0.10247282702E+03  0.00000000000E+00 0.  1.
          2   -1    0    0  501    0  0.00000000000E+00 -0.00000000000E+00 -0.18530647860E+03  0.18530647860E+03  0.00000000000E+00 0. -1.
         25    2    1    2    0    0  0.38965426393E+02 -0.55189435909E+02 -0.46389426680E+01  0.14224165241E+03  0.12508792748E+03 0.  0.
         23    2    1    2    0    0 -0.38965426393E+02  0.55189435909E+02 -0.78194708905E+02  0.14553765321E+03  0.10248227998E+03 0.  0.
          5    1    3    3  502    0  0.19907744419E+02 -0.92362656351E+02  0.15230707574E+02  0.95794704599E+02  0.41800000000E+01 0.  1.
         -5    1    3    3    0  502  0.19057681975E+02  0.37173220442E+02 -0.19869650242E+02  0.46446947812E+02  0.41800000000E+01 0.  1.
        -11    1    4    4    0    0 -0.12673983137E+02  0.13545055685E+02  0.25036877520E+02  0.31159968197E+02  0.00000000000E+00 0.  1.
         11    1    4    4    0    0 -0.26291443257E+02  0.41644380224E+02 -0.10323158643E+03  0.11437768501E+03  0.00000000000E+00 0. -1.
</event>
<event>
 8    1  0.6832629E-009  0.9912093E+02  0.7561462E-02  0.1282155E+00
          2   -1    0    0  501    0  0.00000000000E+00  0.00000000000E+00  0.24054301300E+03  0.24054301300E+03  0.00000000000E+00 0. -1.
         -2   -1    0    0    0  501 -0.00000000000E+00 -0.00000000000E+00 -0.49252716799E+02  0.49252716799E+02  0.00000000000E+00 0.  1.
         25    2    1    2    0    0  0.13130251990E+02 -0.17696754709E+01  0.10057255245E+03  0.16105024586E+03  0.12508720205E+03 0.  0.
         23    2    1    2    0    0 -0.13130251990E+02  0.17696754709E+01  0.90717743748E+02  0.12874548394E+03  0.90388911573E+02 0.  0.
          5    1    3    3  502    0  0.11596369358E+02  0.60368887773E+02  0.63866806851E+02  0.88742998657E+02  0.41800000000E+01 0. -1.
         -5    1    3    3    0  502  0.15338826322E+01 -0.62138563244E+02  0.36705745603E+02  0.72307247204E+02  0.41800000000E+01 0. -1.
        -11    1    4    4    0    0 -0.42743232926E+02  0.93666971379E+01  0.13652706690E+02  0.45837925086E+02  0.00000000000E+00 0.  1.
         11    1    4    4    0    0  0.29612980936E+02 -0.75970216670E+01  0.77065037058E+02  0.82907558853E+02  0.00000000000E+00 0. -1.
</event>
<event>
 8    1  0.6832629E-009  0.1554301E+03  0.7561462E-02  0.1193955E+00
         -1   -1    0    0    0  501 -0.00000000000E+00  0.00000000000E+00  0.36209051762E+03  0.36209051762E+03  0.00000000000E+00 0.  1.
          1   -1    0    0  501    0  0.00000000000E+00 -0.00000000000E+00 -0.13252790035E+03  0.13252790035E+03  0.00000000000E+00 0. -1.
         25    2    1    2    0    0 -0.99449437212E+02  0.10428628251E+03  0.25773700049E+03  0.32068992496E+03  0.12509135570E+03 0.  0.
         23    2    1    2    0    0  0.99449437212E+02 -0.10428628251E+03 -0.28174383222E+02  0.17392849300E+03  0.93228244248E+02 0.  0.
          5    1    3    3  502    0 -0.32060366524E+02  0.71659357892E+02  0.35718483990E+02  0.86349366956E+02  0.41800000000E+01 0.  1.
         -5    1    3    3    0  502 -0.67389070687E+02  0.32626924615E+02  0.22201851650E+03  0.23434055801E+03  0.41800000000E+01 0.  1.
        -11    1    4    4    0    0  0.59151758306E+02 -0.17686121163E+02 -0.45705331982E+02  0.76816057984E+02  0.00000000000E+00 0.  1.
         11    1    4    4    0    0  0.40297678905E+02 -0.86600161343E+02  0.17530948761E+02  0.97112435013E+02  0.00000000000E+00 0. -1.
</event>
<event>
 8    1  0.6832629E-009  0.2791975E+03  0.7561462E-02  0.1096128E+00
          1   -1    0    0  501    0  0.00000000000E+00  0.00000000000E+00  0.67792823288E+03  0.67792823288E+03  0.00000000000E+00 0. -1.
         -1   -1    0    0    0  501 -0.00000000000E+00 -0.00000000000E+00 -0.13803758856E+03  0.13803758856E+03  0.00000000000E+00 0.  1.
         25    2    1    2    0    0 -0.53602575744E+02 -0.27098344627E+03  0.37395986172E+03  0.48145930894E+03  0.12510724882E+03 0.  0.
         23    2    1    2    0    0  0.53602575744E+02  0.27098344627E+03  0.16593078260E+03  0.33450651250E+03  0.89756994210E+02 0.  0.
          5    1    3    3  502    0 -0.24085826719E+02 -0.29639215499E+02  0.38554177137E+01  0.38612780136E+02  0.41800000000E+01 0.  1.
         -5    1    3    3    0  502 -0.29516749025E+02 -0.24134423077E+03  0.37010444401E+03  0.44284652881E+03  0.41800000000E+01 0.  1.
        -11    1    4    4    0    0  0.16300040783E+02  0.47437270148E+02  0.75175987540E+02  0.90373751894E+02  0.00000000000E+00 0.  1.
         11    1    4    4    0    0  0.37302534961E+02  0.22354617612E+03  0.90754795058E+02  0.24413276060E+03  0.00000000000E+00 0. -1.
</event>
<event>
 8    1  0.6832629E-009  0.1648861E+03  0.7561462E-02  0.1183288E+00
          2   -1    0    0  501    0  0.00000000000E+00  0.00000000000E+00  0.35004399813E+03  0.35004399813E+03  0.00000000000E+00 0. -1.
         -2   -1    0    0    0  501 -0.00000000000E+00 -0.00000000000E+00 -0.91763068729E+02  0.91763068729E+02  0.00000000000E+00 0.  1.
         25    2    1    2    0    0 -0.48639491944E+02  0.12016478274E+03  0.63511150983E+02  0.19101620753E+03  0.12509256593E+03 0.  0.
         23    2    1    2    0    0  0.48639491944E+02 -0.12016478274E+03  0.19476977842E+03  0.25079085934E+03  0.90307327239E+02 0.  0.
          5    1    3    3  502    0 -0.17305413806E+01 -0.21811700767E+02 -0.99150824973E+01  0.24382910506E+02  0.41800000000E+01 0.  1.
         -5    1    3    3    0  502 -0.46908950563E+02  0.14197648351E+03  0.73426233480E+02  0.16663329702E+03  0.41800000000E+01 0.  1.
        -11    1    4    4    0    0 -0.14617097616E+02  0.67552711611E+01  0.17562764064E+02  0.23827377379E+02  0.00000000000E+00 0.  1.
         11    1    4    4    0    0  0.63256589560E+02 -0.12692005390E+03  0.17720701436E+03  0.22696348196E+03  0.00000000000E+00 0. -1.
</event>
<event>
 8    1  0.6832629E-009  0.1008451E+03  0.7561462E-02  0.1278529E+00
          2   -1    0    0  501    0  0.00000000000E+00  0.00000000000E+00  0.47034149770E+03  0.47034149770E+03  0.00000000000E+00 0. -1.
         -2   -1    0    0    0  501 -0.00000000000E+00 -0.00000000000E+00 -0.38085083156E+02  0.38085083156E+02  0.00000000000E+00 0.  1.
         25    2    1    2    0    0 -0.74198762690E+02  0.77837262858E+01  0.28936570374E+03  0.32395345838E+03  0.12508912788E+03 0.  0.
         23    2    1    2    0    0  0.74198762690E+02 -0.77837262858E+01  0.14289071080E+03  0.18447312247E+03  0.89702479913E+02 0.  0.
          5    1    3    3  502    0 -0.65182395324E+02 -0.21719741940E+02  0.56600605971E+02  0.89115615053E+02  0.41800000000E+01 0. -1.
         -5    1    3    3    0  502 -0.90163673662E+01  0.29503468225E+02  0.23276509777E+03  0.23483784333E+03  0.41800000000E+01 0. -1.
        -11    1    4    4    0    0  0.56468965932E+02  0.27069103623E+02  0.12824449349E+03  0.14271695973E+03  0.00000000000E+00 0. -1.
         11    1    4    4    0    0  0.17729796758E+02 -0.34852829909E+02  0.14646217315E+02  0.41756162747E+02  0.00000000000E+00 0.  1.
</event>
<event>
 8    1  0.6832629E-009  0.1070134E+03  0.7561462E-02  0.1266203E+00
          1   -1    0    0  501    0  0.00000000000E+00  0.00000000000E+00  0.20038313072E+03  0.20038313072E+03  0.00000000000E+00 0. -1.
         -1   -1    0    0    0  501 -0.00000000000E+00 -0.00000000000E+00 -0.10814866730E+03  0.10814866730E+03  0.00000000000E+00 0.  1.
         25    2    1    2    0    0 -0.32743304527E+02 -0.33465275827E+02  0.14087334277E+03  0.19412747220E+03  0.12509247813E+03 0.  0.
         23    2    1    2    0    0  0.32743304527E+02  0.33465275827E+02 -0.48638879355E+02  0.11440432581E+03  0.92361033465E+02 0.  0.
          5    1    3    3  502    0 -0.31684486852E+02 -0.74533350655E+02  0.12677323702E+03  0.15049270113E+03  0.41800000000E+01 0.  1.
         -5    1    3    3    0  502 -0.10588176751E+01  0.41068074829E+02  0.14100105745E+02  0.43634771078E+02  0.41800000000E+01 0.  1.
        -11    1    4    4    0    0  0.57096036363E+02  0.35445233211E+02 -0.57468427370E+02  0.88424781991E+02  0.00000000000E+00 0.  1.
         11    1    4    4    0    0 -0.24352731836E+02 -0.19799573847E+01  0.88295480149E+01  0.25979543824E+02  0.00000000000E+00 0. -1.
</event>
<event>
 8    1  0.6832629E-009  0.9842509E+02  0.7561462E-02  0.1283643E+00
         -2   -1    0    0    0  501 -0.00000000000E+00  0.00000000000E+00  0.18191968991E+03  0.18191968991E+03  0.00000000000E+00 0.  1.
          2   -1    0    0  501    0  0.00000000000E+00 -0.00000000000E+00 -0.11091429885E+03  0.11091429885E+03  0.00000000000E+00 0. -1.
         25    2    1    2    0    0 -0.70445234298E+02 -0.17128648833E+02 -0.17746898830E+02  0.14566652179E+03  0.12509141260E+03 0.  0.
         23    2    1    2    0    0  0.70445234298E+02  0.17128648833E+02  0.88752289893E+02  0.14716746697E+03  0.92332944970E+02 0.  0.
          5    1    3    3  502    0 -0.26995363623E+01 -0.28589029977E+02  0.44324005347E+02  0.52978391648E+02  0.41800000000E+01 0. -1.
         -5    1    3    3    0  502 -0.67745697936E+02  0.11460381144E+02 -0.62070904177E+02  0.92688130147E+02  0.41800000000E+01 0. -1.
        -11    1    4    4    0    0  0.71041721320E+02  0.36325383836E+02  0.29813052510E+02  0.85177918377E+02  0.00000000000E+00 0. -1.
         11    1    4    4    0    0 -0.59648702244E+00 -0.19196735003E+02  0.58939237383E+02  0.61989548593E+02  0.00000000000E+00 0.  1.
</event>
<event>
 8    1  0.6832629E-009  0.1830084E+03  0.7561462E-02  0.1164923E+00
         -1   -1    0    0    0  501 -0.00000000000E+00  0.00000000000E+00  0.22551216902E+03  0.22551216902E+03  0.00000000000E+00 0.  1.
          1   -1    0    0  501    0  0.00000000000E+00 -0.00000000000E+00 -0.19248304661E+03  0.19248304661E+03  0.00000000000E+00 0. -1.
         25    2    1    2    0    0 -0.16240470091E+03 -0.55713481805E+02  0.60380746535E+02  0.22084545583E+03  0.12509037484E+03 0.  0.
         23    2    1    2    0    0  0.16240470091E+03  0.55713481805E+02 -0.27351624126E+02  0.19714975980E+03  0.92955029519E+02 0.  0.
          5    1    3    3  502    0 -0.20022058480E+02 -0.81650806801E+01 -0.36146726618E+02  0.42327409719E+02  0.41800000000E+01 0.  1.
         -5    1    3    3    0  502 -0.14238264243E+03 -0.47548401125E+02  0.96527473153E+02  0.17851804611E+03  0.41800000000E+01 0.  1.
        -11    1    4    4    0    0  0.10655553671E+03 -0.10650161787E+02 -0.32882049344E+01  0.10713692474E+03  0.00000000000E+00 0.  1.
         11    1    4    4    0    0  0.55849164198E+02  0.66363643592E+02 -0.24063419192E+02  0.90012835061E+02  0.00000000000E+00 0. -1.
</event>
<event>
 8    1  0.6832629E-009  0.4359174E+03  0.7561462E-02  0.1032007E+00
          2   -1    0    0  501    0  0.00000000000E+00  0.00000000000E+00  0.42747498869E+03  0.42747498869E+03  0.00000000000E+00 0. -1.
         -2   -1    0    0    0  501 -0.00000000000E+00 -0.00000000000E+00 -0.45616481764E+03  0.45616481764E+03  0.00000000000E+00 0.  1.
         25    2    1    2    0    0 -0.41597549263E+03  0.74890899974E+02 -0.78887587826E+02  0.44778841609E+03  0.12508779598E+03 0.  0.
         23    2    1    2    0    0  0.41597549263E+03 -0.74890899974E+02  0.50197758875E+02  0.43585139025E+03  0.93820903950E+02 0.  0.
          5    1    3    3  502    0 -0.31999547077E+03  0.10837455800E+03 -0.74288586297E+02  0.34594567867E+03  0.41800000000E+01 0. -1.
         -5    1    3    3    0  502 -0.95980021857E+02 -0.33483658022E+02 -0.45990015291E+01  0.10184273742E+03  0.41800000000E+01 0. -1.
        -11    1    4    4    0    0  0.34783813976E+03 -0.96081819391E+02  0.32447041321E+02  0.36232015950E+03  0.00000000000E+00 0.  1.
         11    1    4    4    0    0  0.68137352873E+02  0.21190919417E+02  0.17750717554E+02  0.73531230752E+02  0.00000000000E+00 0. -1.
</event>
<event>
 8    1  0.6832629E-009  0.1449479E+03  0.7561462E-02  0.1206822E+00
          1   -1    0    0  501    0  0.00000000000E+00  0.00000000000E+00  0.16525481246E+04  0.16525481246E+04  0.00000000000E+00 0. -1.
         -1   -1    0    0    0  501 -0.00000000000E+00 -0.00000000000E+00 -0.14419739891E+02  0.14419739891E+02  0.00000000000E+00 0.  1.
         25    2    1    2    0    0  0.91650561319E+02 -0.41062419097E+02  0.11053340543E+04  0.11169141421E+04  0.12509149322E+03 0.  0.
         23    2    1    2    0    0 -0.91650561319E+02  0.41062419097E+02  0.53279433043E+03  0.55005372236E+03  0.92754252179E+02 0.  0.
          5    1    3    3  502    0  0.98682486974E+02  0.15485742964E+02  0.58856961492E+03  0.59700059085E+03  0.41800000000E+01 0. -1.
         -5    1    3    3    0  502 -0.70319256559E+01 -0.56548162061E+02  0.51676443934E+03  0.51991355126E+03  0.41800000000E+01 0. -1.
        -11    1    4    4    0    0 -0.65184779134E+02 -0.18368982403E+02  0.20600578465E+03  0.21685215760E+03  0.00000000000E+00 0. -1.
         11    1    4    4    0    0 -0.26465782184E+02  0.59431401500E+02  0.32678854578E+03  0.33320156476E+03  0.00000000000E+00 0.  1.
</event>
<event>
 8    1  0.6832629E-009  0.1059994E+03  0.7561462E-02  0.1268163E+00
         -2   -1    0    0    0  501 -0.00000000000E+00  0.00000000000E+00  0.87733309778E+02  0.87733309778E+02  0.00000000000E+00 0.  1.
          2   -1    0    0  501    0  0.00000000000E+00 -0.00000000000E+00 -0.15200679243E+03  0.15200679243E+03  0.00000000000E+00 0. -1.
         25    2    1    2    0    0  0.23876909030E+02  0.33303938317E+00 -0.59526898964E+00  0.12734969239E+03  0.12508945642E+03 0.  0.
         23    2    1    2    0    0 -0.23876909030E+02 -0.33303938317E+00 -0.63678213657E+02  0.11239040981E+03  0.89478889255E+02 0.  0.
          5    1    3    3  502    0  0.77922472669E+01 -0.62017378391E+02 -0.36438032530E+01  0.62750490373E+02  0.41800000000E+01 0. -1.
         -5    1    3    3    0  502  0.16084661763E+02  0.62350417774E+02  0.30485342634E+01  0.64599202021E+02  0.41800000000E+01 0. -1.
        -11    1    4    4    0    0  0.13658014966E+02 -0.32589625164E+02 -0.49666886021E+02  0.60954282935E+02  0.00000000000E+00 0.  1.
         11    1    4    4    0    0 -0.37534923996E+02  0.32256585781E+02 -0.14011327637E+02  0.51436126874E+02  0.00000000000E+00 0. -1.
</event>
<event>
 8    1  0.6832629E-009  0.1173170E+03  0.7561462E-02  0.1247590E+00
          1   -1    0    0  501    0  0.00000000000E+00  0.00000000000E+00  0.10244808755E+03  0.10244808755E+03  0.00000000000E+00 0. -1.
         -1   -1    0    0    0  501 -0.00000000000E+00 -0.00000000000E+00 -0.20386276895E+03  0.20386276895E+03  0.00000000000E+00 0.  1.
         25    2    1    2    0    0 -0.57767957789E+02  0.58653694719E+02 -0.58208616242E+01  0.14986187917E+03  0.12508919836E+03 0.  0.
         23    2    1    2    0    0  0.57767957789E+02 -0.58653694719E+02 -0.95593819782E+02  0.15644897733E+03  0.92524111856E+02 0.  0.
          5    1    3    3  502    0  0.20457010977E+02 -0.94602141346E+01  0.32013432290E+02  0.39374067564E+02  0.41800000000E+01 0.  1.
         -5    1    3    3    0  502 -0.78224968766E+02  0.68113908854E+02 -0.37834293914E+02  0.11048781161E+03  0.41800000000E+01 0.  1.
        -11    1    4    4    0    0  0.39136750677E+02  0.69113503428E+01 -0.87150585000E+00  0.39751874667E+02  0.00000000000E+00 0. -1.
         11    1    4    4    0    0  0.18631207112E+02 -0.65565045062E+02 -0.94722313932E+02  0.11669710266E+03  0.00000000000E+00 0.  1.
</event>
<event>
 8    1  0.6832629E-009  0.1688008E+03  0.7561462E-02  0.1179104E+00
          2   -1    0    0  501    0  0.00000000000E+00  0.00000000000E+00  0.60012728677E+03  0.60012728677E+03  0.00000000000E+00 0. -1.
         -2   -1    0    0    0  501 -0.00000000000E+00 -0.00000000000E+00 -0.51658432146E+02  0.51658432146E+02  0.00000000000E+00 0.  1.
         25    2    1    2    0    0 -0.83800248316E+02 -0.10971832389E+03  0.26919675642E+03  0.32737477137E+03  0.12508698992E+03 0.  0.
         23    2    1    2    0    0  0.83800248316E+02  0.10971832389E+03  0.27927209820E+03  0.32441094755E+03  0.90492904919E+02 0.  0.
          5    1    3    3  502    0 -0.79740305416E+02 -0.15418795856E+02  0.17965836793E+03  0.19720764981E+03  0.41800000000E+01 0.  1.
         -5    1    3    3    0  502 -0.40599429003E+01 -0.94299528029E+02  0.89538388489E+02  0.13016712156E+03  0.41800000000E+01 0.  1.
        -11    1    4    4    0    0 -0.14269033231E+02  0.37156803272E+02  0.43599770741E+02  0.59035356756E+02  0.00000000000E+00 0.  1.
         11    1    4    4    0    0  0.98069281547E+02  0.72561520614E+02  0.23567232746E+03  0.26537559079E+03  0.00000000000E+00 0. -1.
</event>
<event>
 8    1  0.6832629E-009  0.9586052E+02  0.7561462E-02  0.1289250E+00
          4   -1    0    0  501    0  0.00000000000E+00  0.00000000000E+00  0.40888569044E+03  0.40888569044E+03  0.00000000000E+00 0. -1.
         -4   -1    0    0    0  501 -0.00000000000E+00 -0.00000000000E+00 -0.32577340685E+02  0.32577340685E+02  0.00000000000E+00 0.  1.
         25    2    1    2    0    0  0.29761733436E+02  0.25824615747E+02  0.23704719396E+03  0.27090834820E+03  0.12508912585E+03 0.  0.
         23    2    1    2    0    0 -0.29761733436E+02 -0.25824615747E+02  0.13926115579E+03  0.17055468292E+03  0.90236128011E+02 0.  0.
          5    1    3    3  502    0 -0.88028820163E+00  0.60719079706E+02  0.20621220858E+03  0.21500820662E+03  0.41800000000E+01 0.  1.
         -5    1    3    3    0  502  0.30642021638E+02 -0.34894463960E+02  0.30834985379E+02  0.55900141578E+02  0.41800000000E+01 0.  1.
        -11    1    4    4    0    0  0.57320930946E+01 -0.43983988068E+02  0.28217928014E+02  0.52570900306E+02  0.00000000000E+00 0.  1.
         11    1    4    4    0    0 -0.35493826530E+02  0.18159372321E+02  0.11104322778E+03  0.11798378262E+03  0.00000000000E+00 0. -1.
</event>
<event>
 8    1  0.6832629E-009  0.8313748E+02  0.7561462E-02  0.1320376E+00
         -1   -1    0    0    0  501 -0.00000000000E+00  0.00000000000E+00  0.17753072286E+03  0.17753072286E+03  0.00000000000E+00 0.  1.
          1   -1    0    0  501    0  0.00000000000E+00 -0.00000000000E+00 -0.88155063950E+02  0.88155063950E+02  0.00000000000E+00 0. -1.
         25    2    1    2    0    0  0.54475788730E+02  0.76982804561E+01  0.98234319757E+02  0.16830044796E+03  0.12509270213E+03 0.  0.
         23    2    1    2    0    0 -0.54475788730E+02 -0.76982804561E+01 -0.88586608445E+01  0.97385338852E+02  0.79865845464E+02 0.  0.
          5    1    3    3  502    0  0.65505722735E+02  0.32992948027E+02  0.11446686466E+03  0.13601349137E+03  0.41800000000E+01 0. -1.
         -5    1    3    3    0  502 -0.11029934005E+02 -0.25294667571E+02 -0.16232544901E+02  0.32286956587E+02  0.41800000000E+01 0. -1.
        -11    1    4    4    0    0 -0.50542819802E+02  0.57691044089E+01  0.27914603713E+02  0.58026582699E+02  0.00000000000E+00 0.  1.
         11    1    4    4    0    0 -0.39329689280E+01 -0.13467384865E+02 -0.36773264558E+02  0.39358756153E+02  0.00000000000E+00 0. -1.
</event>
<event>
 8    1  0.6832629E-009  0.1393918E+03  0.7561462E-02  0.1214150E+00
          2   -1    0    0  501    0  0.00000000000E+00  0.00000000000E+00  0.15156371171E+03  0.15156371171E+03  0.00000000000E+00 0. -1.
         -2   -1    0    0    0  501 -0.00000000000E+00 -0.00000000000E+00 -0.16579843788E+03  0.16579843788E+03  0.00000000000E+00 0.  1.
         25    2    1    2    0    0 -0.43872289170E+02  0.81621117474E+02  0.61724155181E+02  0.16746413832E+03  0.12509029425E+03 0.  0.
         23    2    1    2    0    0  0.43872289170E+02 -0.81621117474E+02 -0.75958881348E+02  0.14989801127E+03  0.90071513544E+02 0.  0.
          5    1    3    3  502    0 -0.67357001252E+02 -0.15745953903E+01  0.15164319038E+02  0.69187238276E+02  0.41800000000E+01 0. -1.
         -5    1    3    3    0  502  0.23484712082E+02  0.83195712864E+02  0.46559836143E+02  0.98276900044E+02  0.41800000000E+01 0. -1.
        -11    1    4    4    0    0  0.16478466841E+02 -0.93450311249E+02 -0.73367326639E+02  0.11994692643E+03  0.00000000000E+00 0.  1.
         11    1    4    4    0    0  0.27393822329E+02  0.11829193776E+02 -0.25915547093E+01  0.29951084839E+02  0.00000000000E+00 0. -1.
</event>
<event>
 8    1  0.6832629E-009  0.1051546E+03  0.7561462E-02  0.1269815E+00
          2   -1    0    0  501    0  0.00000000000E+00  0.00000000000E+00  0.96876298275E+02  0.96876298275E+02  0.00000000000E+00 0. -1.
         -2   -1    0    0    0  501 -0.00000000000E+00 -0.00000000000E+00 -0.14879893382E+03  0.14879893382E+03  0.00000000000E+00 0.  1.
         25    2    1    2    0    0  0.85346651240E+01 -0.31766567995E+02  0.12676666050E+02  0.12996277679E+03  0.12509064769E+03 0.  0.
         23    2    1    2    0    0 -0.85346651240E+01  0.31766567995E+02 -0.64599301592E+02  0.11571245530E+03  0.90190615889E+02 0.  0.
          5    1    3    3  502    0  0.56269854591E+02 -0.49624467177E+02  0.21301547934E+02  0.78103217749E+02  0.41800000000E+01 0.  1.
         -5    1    3    3    0  502 -0.47735189467E+02  0.17857899182E+02 -0.86248818837E+01  0.51859559044E+02  0.41800000000E+01 0.  1.
        -11    1    4    4    0    0 -0.42404067457E+02  0.93761547152E+01 -0.61098785617E+02  0.74960515060E+02  0.00000000000E+00 0.  1.
         11    1    4    4    0    0  0.33869402333E+02  0.22390413279E+02 -0.35005159750E+01  0.40751940240E+02  0.00000000000E+00 0. -1.
</event>
<event>
 8    1  0.6832629E-009  0.2116737E+03  0.7561462E-02  0.1140247E+00
         -2   -1    0    0    0  501 -0.00000000000E+00  0.00000000000E+00  0.47984529558E+02  0.47984529558E+02  0.00000000000E+00 0. -1.
          2   -1    0    0  501    0  0.00000000000E+00 -0.00000000000E+00 -0.10708735864E+04  0.10708735864E+04  0.00000000000E+00 0.  1.
         25    2    1    2    0    0 -0.15704983290E+03  0.12040669170E+03 -0.57621360150E+03  0.62196110766E+03  0.12510429034E+03 0.  0.
         23    2    1    2    0    0  0.15704983290E+03 -0.12040669170E+03 -0.44667545532E+03  0.49689700828E+03  0.90693180725E+02 0.  0.
          5    1    3    3  502    0 -0.83518897678E+02  0.25816529111E+02 -0.10992965664E+03  0.14051299319E+03  0.41800000000E+01 0. -1.
         -5    1    3    3    0  502 -0.73530935226E+02  0.94590162592E+02 -0.46628394486E+03  0.48144811447E+03  0.41800000000E+01 0. -1.
        -11    1    4    4    0    0  0.11646708811E+03 -0.35362569691E+02 -0.28240210494E+03  0.30751592287E+03  0.00000000000E+00 0. -1.
         11    1    4    4    0    0  0.40582744798E+02 -0.85044122012E+02 -0.16427335039E+03  0.18938108541E+03  0.00000000000E+00 0.  1.
</event>
<event>
 8    1  0.6832629E-009  0.1374820E+03  0.7561462E-02  0.1216758E+00
         -1   -1    0    0    0  501 -0.00000000000E+00  0.00000000000E+00  0.18122624328E+03  0.18122624328E+03  0.00000000000E+00 0.  1.
          1   -1    0    0  501    0  0.00000000000E+00 -0.00000000000E+00 -0.23814512735E+03  0.23814512735E+03  0.00000000000E+00 0. -1.
         25    2    1    2    0    0  0.89426638638E+02 -0.83160798316E+02 -0.15471491839E+03  0.23344554134E+03  0.12508905917E+03 0.  0.
         23    2    1    2    0    0 -0.89426638638E+02  0.83160798316E+02  0.97796034312E+02  0.18592582930E+03  0.10045649605E+03 0.  0.
          5    1    3    3  502    0  0.33155820376E+02 -0.89678665289E+02 -0.14800254647E+03  0.17624924850E+03  0.41800000000E+01 0.  1.
         -5    1    3    3    0  502  0.56270818262E+02  0.65178669728E+01 -0.67123719135E+01  0.57196292839E+02  0.41800000000E+01 0.  1.
        -11    1    4    4    0    0 -0.26769469852E+02  0.30778029509E+02  0.95922101758E+02  0.10423502877E+03  0.00000000000E+00 0.  1.
         11    1    4    4    0    0 -0.62657168786E+02  0.52382768807E+02  0.18739325550E+01  0.81690800531E+02  0.00000000000E+00 0. -1.
</event>
<event>
 8    1  0.6832629E-009  0.1136356E+03  0.7561462E-02  0.1253982E+00
         -2   -1    0    0    0  501 -0.00000000000E+00  0.00000000000E+00  0.16091558825E+03  0.16091558825E+03  0.00000000000E+00 0.  1.
          2   -1    0    0  501    0  0.00000000000E+00 -0.00000000000E+00 -0.88440709804E+02  0.88440709804E+02  0.00000000000E+00 0. -1.
         25    2    1    2    0    0  0.85675574345E+01 -0.47756701256E+02  0.34603237403E+02  0.13856188996E+03  0.12509159746E+03 0.  0.
         23    2    1    2    0    0 -0.85675574345E+01  0.47756701256E+02  0.37871641041E+02  0.11079440810E+03  0.92125100352E+02 0.  0.
          5    1    3    3  502    0  0.46214129020E+02 -0.73984421094E+02  0.15551167119E+02  0.88705983363E+02  0.41800000000E+01 0. -1.
         -5    1    3    3    0  502 -0.37646571586E+02  0.26227719838E+02  0.19052070283E+02  0.49855906592E+02  0.41800000000E+01 0. -1.
        -11    1    4    4    0    0  0.35007560502E+02  0.32298689015E+02  0.43134946783E+02  0.64260082776E+02  0.00000000000E+00 0.  1.
         11    1    4    4    0    0 -0.43575117937E+02  0.15458012241E+02 -0.52633057417E+01  0.46534325320E+02  0.00000000000E+00 0. -1.
</event>
<event>
 8    1  0.6832629E-009  0.2610270E+03  0.7561462E-02  0.1106528E+00
         -3   -1    0    0    0  501 -0.00000000000E+00  0.00000000000E+00  0.33216254046E+03  0.33216254046E+03  0.00000000000E+00 0.  1.
          3   -1    0    0  501    0  0.00000000000E+00 -0.00000000000E+00 -0.22941099104E+03  0.22941099104E+03  0.00000000000E+00 0. -1.
         25    2    1    2    0    0 -0.81366809394E+02 -0.23896509052E+03  0.55501292855E+02  0.28714399210E+03  0.12508559681E+03 0.  0.
         23    2    1    2    0    0  0.81366809394E+02  0.23896509052E+03  0.47250256561E+02  0.27442953940E+03  0.96716664493E+02 0.  0.
          5    1    3    3  502    0 -0.44977392280E+02 -0.13690553445E+03  0.93972282131E+02  0.17208821397E+03  0.41800000000E+01 0. -1.
         -5    1    3    3    0  502 -0.36389417114E+02 -0.10205955607E+03 -0.38470989276E+02  0.11505577812E+03  0.41800000000E+01 0. -1.
        -11    1    4    4    0    0  0.99450842897E+02  0.15954835641E+03  0.43050244107E+02  0.19287164567E+03  0.00000000000E+00 0.  1.
         11    1    4    4    0    0 -0.18084033503E+02  0.79416734116E+02  0.42000124540E+01  0.81557893732E+02  0.00000000000E+00 0. -1.
</event>
<event>
 8    1  0.6832629E-009  0.9823434E+02  0.7561462E-02  0.1284053E+00
         -2   -1    0    0    0  501 -0.00000000000E+00  0.00000000000E+00  0.66408877044E+02  0.66408877044E+02  0.00000000000E+00 0.  1.
          2   -1    0    0  501    0  0.00000000000E+00 -0.00000000000E+00 -0.27721391872E+03  0.27721391872E+03  0.00000000000E+00 0. -1.
         25    2    1    2    0    0 -0.23029837178E+02 -0.17105278061E+02 -0.21023905966E+03  0.24631465178E+03  0.12508989381E+03 0.  0.
         23    2    1    2    0    0  0.23029837178E+02  0.17105278061E+02 -0.56598201172E+00  0.97308143987E+02  0.92981668153E+02 0.  0.
          5    1    3    3  502    0  0.50660587974E+02  0.22923032944E+00 -0.10444614388E+03  0.11615944685E+03  0.41800000000E+01 0.  1.
         -5    1    3    3    0  502 -0.73690425152E+02 -0.17334508390E+02 -0.10579291578E+03  0.13015520493E+03  0.41800000000E+01 0.  1.
        -11    1    4    4    0    0 -0.18655044447E+02  0.20835835114E+02  0.33289153655E+02  0.43477700713E+02  0.00000000000E+00 0.  1.
         11    1    4    4    0    0  0.41684881625E+02 -0.37305570534E+01 -0.33855135667E+02  0.53830443274E+02  0.00000000000E+00 0. -1.
</event>
<event>
 8    1  0.6832629E-009  0.1173597E+03  0.7561462E-02  0.1247517E+00
         -2   -1    0    0    0  501 -0.00000000000E+00  0.00000000000E+00  0.33149650980E+02  0.33149650980E+02  0.00000000000E+00 0.  1.
          2   -1    0    0  501    0  0.00000000000E+00 -0.00000000000E+00 -0.45352339454E+03  0.45352339454E+03  0.00000000000E+00 0. -1.
         25    2    1    2    0    0  0.39254362331E+02  0.24671290917E+02 -0.16974687968E+03  0.21589786575E+03  0.12509319613E+03 0.  0.
         23    2    1    2    0    0 -0.39254362331E+02 -0.24671290917E+02 -0.25062686388E+03  0.27077517977E+03  0.91410040590E+02 0.  0.
          5    1    3    3  502    0  0.44772528457E+02 -0.44475629201E+02 -0.70130216499E+02  0.94437177867E+02  0.41800000000E+01 0. -1.
         -5    1    3    3    0  502 -0.55181661261E+01  0.69146920117E+02 -0.99616663178E+02  0.12146068789E+03  0.41800000000E+01 0. -1.
        -11    1    4    4    0    0  0.70956926122E+01  0.29698891468E+02 -0.63111906045E+02  0.70110524836E+02  0.00000000000E+00 0.  1.
         11    1    4    4    0    0 -0.46350054943E+02 -0.54370182385E+02 -0.18751495784E+03  0.20066465493E+03  0.00000000000E+00 0. -1.
</event>
<event>
 8    1  0.6832629E-009  0.1237828E+03  0.7561462E-02  0.1236984E+00
          2   -1    0    0  501    0  0.00000000000E+00  0.00000000000E+00  0.64087996718E+02  0.64087996718E+02  0.00000000000E+00 0. -1.
         -2   -1    0    0    0  501 -0.00000000000E+00 -0.00000000000E+00 -0.29362463804E+03  0.29362463804E+03  0.00000000000E+00 0.  1.
         25    2    1    2    0    0  0.53920089776E+00  0.65794084631E+02 -0.57085984511E+02  0.15243596369E+03  0.12509500824E+03 0.  0.
         23    2    1    2    0    0 -0.53920089776E+00 -0.65794084631E+02 -0.17245065681E+03  0.20527667108E+03  0.89833904192E+02 0.  0.
          5    1    3    3  502    0 -0.58304558187E+02  0.10579691598E+02 -0.33802376536E+02  0.68347819565E+02  0.41800000000E+01 0. -1.
         -5    1    3    3    0  502  0.58843759085E+02  0.55214393033E+02 -0.23283607975E+02  0.84088144121E+02  0.41800000000E+01 0. -1.
        -11    1    4    4    0    0  0.20397157840E+02 -0.79673080927E+02 -0.15224880013E+03  0.17304202095E+03  0.00000000000E+00 0.  1.
         11    1    4    4    0    0 -0.20936358737E+02  0.13878996297E+02 -0.20201856680E+02  0.32234650125E+02  0.00000000000E+00 0. -1.
</event>
<event>
 8    1  0.6832629E-009  0.6474499E+02  0.7561462E-02  0.1378933E+00
          2   -1    0    0  501    0  0.00000000000E+00  0.00000000000E+00  0.15065311875E+03  0.15065311875E+03  0.00000000000E+00 0. -1.
         -2   -1    0    0    0  501 -0.00000000000E+00 -0.00000000000E+00 -0.92587983999E+02  0.92587983999E+02  0.00000000000E+00 0.  1.
         25    2    1    2    0    0  0.18243538708E+02  0.77398747370E+01  0.71567283589E+02  0.14548000784E+03  0.12509925753E+03 0.  0.
         23    2    1    2    0    0 -0.18243538708E+02 -0.77398747370E+01 -0.13502148840E+02  0.97761094906E+02  0.94774423176E+02 0.  0.
          5    1    3    3  502    0  0.47284923075E+02 -0.15658596204E+02 -0.14114643576E+02  0.51939880136E+02  0.41800000000E+01 0.  1.
         -5    1    3    3    0  502 -0.29041384367E+02  0.23398470941E+02  0.85681927165E+02  0.93540127705E+02  0.41800000000E+01 0.  1.
        -11    1    4    4    0    0 -0.20491050726E+02 -0.20520647520E+02  0.36205367888E+02  0.46387593152E+02  0.00000000000E+00 0.  1.
         11    1    4    4    0    0  0.22475120183E+01  0.12780772783E+02 -0.49707516728E+02  0.51373501754E+02  0.00000000000E+00 0. -1.
</event>
<event>
 8    1  0.6832629E-009  0.1209581E+03  0.7561462E-02  0.1241525E+00
         -2   -1    0    0    0  501 -0.00000000000E+00  0.00000000000E+00  0.46684045884E+02  0.46684045884E+02  0.00000000000E+00 0.  1.
          2   -1    0    0  501    0  0.00000000000E+00 -0.00000000000E+00 -0.44328129564E+03  0.44328129564E+03  0.00000000000E+00 0. -1.
         25    2    1    2    0    0  0.79496899654E+02  0.33941275227E+02 -0.15216179810E+03  0.21511027935E+03  0.12508977680E+03 0.  0.
         23    2    1    2    0    0 -0.79496899654E+02 -0.33941275227E+02 -0.24443545165E+03  0.27485506217E+03  0.91240604785E+02 0.  0.
          5    1    3    3  502    0  0.26746087141E+01 -0.42446554448E+02 -0.53933750966E+02  0.68812683493E+02  0.41800000000E+01 0. -1.
         -5    1    3    3    0  502  0.76822290940E+02  0.76387829675E+02 -0.98228047139E+02  0.14629759585E+03  0.41800000000E+01 0. -1.
        -11    1    4    4    0    0 -0.29280021933E+02 -0.27439066836E+02 -0.20108117950E+02  0.44883833178E+02  0.00000000000E+00 0.  1.
         11    1    4    4    0    0 -0.50216877721E+02 -0.65022083910E+01 -0.22432733370E+03  0.22997122900E+03  0.00000000000E+00 0. -1.
</event>
<event>
 8    1  0.6832629E-009  0.1374519E+03  0.7561462E-02  0.1216799E+00
         -1   -1    0    0    0  501 -0.00000000000E+00  0.00000000000E+00  0.19993576834E+03  0.19993576834E+03  0.00000000000E+00 0.  1.
          1   -1    0    0  501    0  0.00000000000E+00 -0.00000000000E+00 -0.12314150386E+03  0.12314150386E+03  0.00000000000E+00 0. -1.
         25    2    1    2    0    0  0.44550975961E+02 -0.94045065646E+02  0.88332393176E+02  0.18514730690E+03  0.12509056613E+03 0.  0.
         23    2    1    2    0    0 -0.44550975961E+02  0.94045065646E+02 -0.11538128694E+02  0.13792996530E+03  0.89790217069E+02 0.  0.
          5    1    3    3  502    0  0.26164837224E+02  0.24235841731E+02  0.45459331012E+02  0.57930975371E+02  0.41800000000E+01 0.  1.
         -5    1    3    3    0  502  0.18386138737E+02 -0.11828090738E+03  0.42873062164E+02  0.12721633153E+03  0.41800000000E+01 0.  1.
        -11    1    4    4    0    0 -0.27029686182E+02  0.97658938591E+02 -0.36077678032E+02  0.10756147579E+03  0.00000000000E+00 0. -1.
         11    1    4    4    0    0 -0.17521289778E+02 -0.36138729449E+01  0.24539549339E+02  0.30368489506E+02  0.00000000000E+00 0.  1.
</event>
<event>
 8    1  0.6832629E-009  0.1520574E+03  0.7561462E-02  0.1197967E+00
          1   -1    0    0  501    0  0.00000000000E+00  0.00000000000E+00  0.55808941872E+03  0.55808941872E+03  0.00000000000E+00 0. -1.
         -1   -1    0    0    0  501 -0.00000000000E+00 -0.00000000000E+00 -0.53628334824E+02  0.53628334824E+02  0.00000000000E+00 0.  1.
         25    2    1    2    0    0 -0.12980232340E+03 -0.28436049249E+02  0.29667973451E+03  0.34831561636E+03  0.12509057387E+03 0.  0.
         23    2    1    2    0    0  0.12980232340E+03  0.28436049249E+02  0.20778134939E+03  0.26340213719E+03  0.92468073768E+02 0.  0.
          5    1    3    3  502    0 -0.75232491919E+02 -0.41819818859E+02  0.27459453925E+03  0.28779933717E+03  0.41800000000E+01 0. -1.
         -5    1    3    3    0  502 -0.54569831482E+02  0.13383769610E+02  0.22085195265E+02  0.60516279189E+02  0.41800000000E+01 0. -1.
        -11    1    4    4    0    0 -0.58451711976E+00  0.31175358157E+02  0.46559689855E+02  0.56036143121E+02  0.00000000000E+00 0.  1.
         11    1    4    4    0    0  0.13038684052E+03 -0.27393089079E+01  0.16122165953E+03  0.20736599407E+03  0.00000000000E+00 0. -1.
</event>
<event>
 8    1  0.6832629E-009  0.1182364E+03  0.7561462E-02  0.1246035E+00
          2   -1    0    0  501    0  0.00000000000E+00  0.00000000000E+00  0.55098473108E+03  0.55098473108E+03  0.00000000000E+00 0. -1.
         -2   -1    0    0    0  501 -0.00000000000E+00 -0.00000000000E+00 -0.27795691483E+02  0.27795691483E+02  0.00000000000E+00 0.  1.
         25    2    1    2    0    0 -0.45712782297E+02  0.24546295806E+02  0.35752259665E+03  0.38230912864E+03  0.12508270713E+03 0.  0.
         23    2    1    2    0    0  0.45712782297E+02 -0.24546295806E+02  0.16566644295E+03  0.19647129393E+03  0.91996847309E+02 0.  0.
          5    1    3    3  502    0  0.42301752596E+02  0.51800915543E+01  0.15070765543E+03  0.15667335902E+03  0.41800000000E+01 0. -1.
         -5    1    3    3    0  502 -0.88014534893E+02  0.19366204252E+02  0.20681494121E+03  0.22563576961E+03  0.41800000000E+01 0. -1.
        -11    1    4    4    0    0  0.61711252595E+02 -0.45786816644E+02  0.10393686838E+03  0.12925781943E+03  0.00000000000E+00 0. -1.
         11    1    4    4    0    0 -0.15998470298E+02  0.21240520838E+02  0.61729574569E+02  0.67213474496E+02  0.00000000000E+00 0.  1.
</event>
<event>
 8    1  0.6832629E-009  0.1465786E+03  0.7561462E-02  0.1204741E+00
         -2   -1    0    0    0  501 -0.00000000000E+00  0.00000000000E+00  0.97859399033E+01  0.97859399033E+01  0.00000000000E+00 0.  1.
          2   -1    0    0  501    0  0.00000000000E+00 -0.00000000000E+00 -0.27229224456E+04  0.27229224456E+04  0.00000000000E+00 0. -1.
         25    2    1    2    0    0  0.75769437953E+02  0.61123680541E+02 -0.20225499502E+04  0.20287516037E+04  0.12509059338E+03 0.  0.
         23    2    1    2    0    0 -0.75769437953E+02 -0.61123680541E+02 -0.69058655546E+03  0.70395678173E+03  0.95750968214E+02 0.  0.
          5    1    3    3  502    0  0.51248026709E+02 -0.31915878756E+02 -0.64177762596E+03  0.64462467928E+03  0.41800000000E+01 0.  1.
         -5    1    3    3    0  502  0.24521411244E+02  0.93039559297E+02 -0.13807723243E+04  0.13841269245E+04  0.41800000000E+01 0.  1.
        -11    1    4    4    0    0 -0.50374325984E+02  0.17796949629E+02 -0.29020914009E+03  0.29508583349E+03  0.00000000000E+00 0.  1.
         11    1    4    4    0    0 -0.25395111968E+02 -0.78920630170E+02 -0.40037741537E+03  0.40887094824E+03  0.00000000000E+00 0. -1.
</event>
<event>
 8    1  0.6832629E-009  0.1128052E+03  0.7561462E-02  0.1255461E+00
          1   -1    0    0  501    0  0.00000000000E+00  0.00000000000E+00  0.42830184199E+03  0.42830184199E+03  0.00000000000E+00 0. -1.
         -1   -1    0    0    0  501 -0.00000000000E+00 -0.00000000000E+00 -0.51536573717E+02  0.51536573717E+02  0.00000000000E+00 0.  1.
         25    2    1    2    0    0  0.31787487800E+02  0.81740400014E+02  0.28210048530E+03  0.32080991724E+03  0.12508549803E+03 0.  0.
         23    2    1    2    0    0 -0.31787487800E+02 -0.81740400014E+02  0.94664782969E+02  0.15902849846E+03  0.92933873340E+02 0.  0.
          5    1    3    3  502    0  0.10464192894E+02  0.10159981066E+03  0.12743614730E+03  0.16336910632E+03  0.41800000000E+01 0.  1.
         -5    1    3    3    0  502  0.21323294905E+02 -0.19859410643E+02  0.15466433800E+03  0.15744081093E+03  0.41800000000E+01 0.  1.
        -11    1    4    4    0    0 -0.27362845390E+02 -0.25080704764E+02  0.95214358345E+02  0.10219364508E+03  0.00000000000E+00 0. -1.
         11    1    4    4    0    0 -0.44246424099E+01 -0.56659695250E+02 -0.54957537588E+00  0.56834853386E+02  0.00000000000E+00 0.  1.
</event>
<event>
 8    1  0.6832629E-009  0.9148437E+02  0.7561462E-02  0.1299296E+00
         -1   -1    0    0    0  501 -0.00000000000E+00  0.00000000000E+00  0.67268928407E+02  0.67268928407E+02  0.00000000000E+00 0.  1.
          1   -1    0    0  501    0  0.00000000000E+00 -0.00000000000E+00 -0.32191446385E+03  0.32191446385E+03  0.00000000000E+00 0. -1.
         25    2    1    2    0    0 -0.32892578905E+02 -0.41003736253E+02 -0.24778817802E+03  0.28250616171E+03  0.12509005596E+03 0.  0.
         23    2    1    2    0    0  0.32892578905E+02  0.41003736253E+02 -0.68573574192E+01  0.10667723055E+03  0.92573106426E+02 0.  0.
          5    1    3    3  502    0  0.51869692924E+01 -0.67305889132E+02 -0.64645217776E+02  0.93559948395E+02  0.41800000000E+01 0.  1.
         -5    1    3    3    0  502 -0.38079548198E+02  0.26302152879E+02 -0.18314296025E+03  0.18894621331E+03  0.41800000000E+01 0.  1.
        -11    1    4    4    0    0 -0.96026946851E+01  0.18345866629E+02  0.36442932185E+02  0.41915031597E+02  0.00000000000E+00 0.  1.
         11    1    4    4    0    0  0.42495273591E+02  0.22657869624E+02 -0.43300289604E+02  0.64762198953E+02  0.00000000000E+00 0. -1.
</event>
<event>
 8    1  0.6832629E-009  0.2069675E+03  0.7561462E-02  0.1143990E+00
         -3   -1    0    0    0  501 -0.00000000000E+00  0.00000000000E+00  0.22497368681E+03  0.22497368681E+03  0.00000000000E+00 0.  1.
          3   -1    0    0  501    0  0.00000000000E+00 -0.00000000000E+00 -0.20621966336E+03  0.20621966336E+03  0.00000000000E+00 0. -1.
         25    2    1    2    0    0 -0.89826845328E+02  0.16155078918E+03  0.76216194424E+01  0.22332257084E+03  0.12508941576E+03 0.  0.
         23    2    1    2    0    0  0.89826845328E+02 -0.16155078918E+03  0.11132403999E+02  0.20787077933E+03  0.94439456027E+02 0.  0.
          5    1    3    3  502    0 -0.11702371441E+03  0.12508072934E+03  0.27440738549E+02  0.17352292390E+03  0.41800000000E+01 0. -1.
         -5    1    3    3    0  502  0.27196869085E+02  0.36470059843E+02 -0.19819119107E+02  0.49799646938E+02  0.41800000000E+01 0. -1.
        -11    1    4    4    0    0  0.80785938696E+02 -0.76108714450E+02  0.38846865810E+02  0.11759244572E+03  0.00000000000E+00 0.  1.
         11    1    4    4    0    0  0.90409066327E+01 -0.85442074730E+02 -0.27714461811E+02  0.90278333615E+02  0.00000000000E+00 0. -1.
</event>
<event>
 8    1  0.6832629E-009  0.1088500E+03  0.7561462E-02  0.1262714E+00
          1   -1    0    0  501    0  0.00000000000E+00  0.00000000000E+00  0.35853104285E+03  0.35853104285E+03  0.00000000000E+00 0. -1.
         -1   -1    0    0    0  501 -0.00000000000E+00 -0.00000000000E+00 -0.48320623322E+02  0.48320623322E+02  0.00000000000E+00 0.  1.
         25    2    1    2    0    0  0.15858395070E+02  0.62194613180E+02  0.11196354324E+03  0.17973876155E+03  0.12510207347E+03 0.  0.
         23    2    1    2    0    0 -0.15858395070E+02 -0.62194613180E+02  0.19824687628E+03  0.22711290462E+03  0.90326014446E+02 0.  0.
          5    1    3    3  502    0  0.54477682626E+02  0.79779445190E+02  0.88439414846E+02  0.13104037652E+03  0.41800000000E+01 0. -1.
         -5    1    3    3    0  502 -0.38619287556E+02 -0.17584832010E+02  0.23524128396E+02  0.48698385034E+02  0.41800000000E+01 0. -1.
        -11    1    4    4    0    0 -0.22288087468E+00 -0.62719895982E+02  0.20158456297E+03  0.21111648694E+03  0.00000000000E+00 0. -1.
         11    1    4    4    0    0 -0.15635514196E+02  0.52528280174E+00 -0.33376866904E+01  0.15996417681E+02  0.00000000000E+00 0.  1.
</event>
<event>
 8    1  0.6832629E-009  0.1000491E+03  0.7561462E-02  0.1280193E+00
          1   -1    0    0  501    0  0.00000000000E+00  0.00000000000E+00  0.30250751601E+02  0.30250751601E+02  0.00000000000E+00 0. -1.
         -1   -1    0    0    0  501 -0.00000000000E+00 -0.00000000000E+00 -0.40771949982E+03  0.40771949982E+03  0.00000000000E+00 0.  1.
         25    2    1    2    0    0  0.14026233500E+01  0.22598459830E+02 -0.20118836782E+03  0.23798371774E+03  0.12508730082E+03 0.  0.
         23    2    1    2    0    0 -0.14026233500E+01 -0.22598459830E+02 -0.17628038040E+03  0.19998653368E+03  0.91690694183E+02 0.  0.
          5    1    3    3  502    0  0.45916133367E+02 -0.29698088392E+02 -0.62387459646E+02  0.83065849051E+02  0.41800000000E+01 0. -1.
         -5    1    3    3    0  502 -0.44513510017E+02  0.52296548223E+02 -0.13880090817E+03  0.15491786869E+03  0.41800000000E+01 0. -1.
        -11    1    4    4    0    0  0.30482192828E+02 -0.31003367366E+02 -0.15442066768E+03  0.16042479694E+03  0.00000000000E+00 0.  1.
         11    1    4    4    0    0 -0.31884816178E+02  0.84049075360E+01 -0.21859712725E+02  0.39561736739E+02  0.00000000000E+00 0. -1.
</event>
<event>
 8    1  0.6832629E-009  0.1511645E+03  0.7561462E-02  0.1199049E+00
         -2   -1    0    0    0  501 -0.00000000000E+00  0.00000000000E+00  0.41524771942E+03  0.41524771942E+03  0.00000000000E+00 0.  1.
          2   -1    0    0  501    0  0.00000000000E+00 -0.00000000000E+00 -0.10480914888E+03  0.10480914888E+03  0.00000000000E+00 0. -1.
         25    2    1    2    0    0 -0.14950156946E+03  0.18492584096E+02  0.28181301330E+03  0.34315840189E+03  0.12508564818E+03 0.  0.
         23    2    1    2    0    0  0.14950156946E+03 -0.18492584096E+02  0.28625557241E+02  0.17689846641E+03  0.88209693087E+02 0.  0.
          5    1    3    3  502    0 -0.12449115462E+03  0.10228670532E+02  0.10183681716E+03  0.16121688190E+03  0.41800000000E+01 0. -1.
         -5    1    3    3    0  502 -0.25010414837E+02  0.82639135638E+01  0.17997619614E+03  0.18194151999E+03  0.41800000000E+01 0. -1.
        -11    1    4    4    0    0  0.53721425972E+02 -0.50209106457E+01  0.54586496449E+02  0.76752112328E+02  0.00000000000E+00 0.  1.
         11    1    4    4    0    0  0.95780143487E+02 -0.13471673450E+02 -0.25960939208E+02  0.10014635408E+03  0.00000000000E+00 0. -1.
</event>
<event>
 8    1  0.6832629E-009  0.1075896E+03  0.7561462E-02  0.1265100E+00
          2   -1    0    0  501    0  0.00000000000E+00  0.00000000000E+00  0.46066488832E+03  0.46066488832E+03  0.00000000000E+00 0. -1.
         -2   -1    0    0    0  501 -0.00000000000E+00 -0.00000000000E+00 -0.27775967370E+02  0.27775967370E+02  0.00000000000E+00 0.  1.
         25    2    1    2    0    0 -0.28928643849E+02  0.82551917604E+01  0.23315074095E+03  0.26629197310E+03  0.12508849790E+03 0.  0.
         23    2    1    2    0    0  0.28928643849E+02 -0.82551917604E+01  0.19973818001E+03  0.22214888259E+03  0.92464970988E+02 0.  0.
          5    1    3    3  502    0 -0.61667926503E+02  0.44113109220E+02  0.10832811313E+03  0.13229267576E+03  0.41800000000E+01 0.  1.
         -5    1    3    3    0  502  0.32739282654E+02 -0.35857917460E+02  0.12482262781E+03  0.13399929734E+03  0.41800000000E+01 0.  1.
        -11    1    4    4    0    0  0.38359135633E+02  0.31508466092E+02  0.67823183125E+02  0.84048741163E+02  0.00000000000E+00 0.  1.
         11    1    4    4    0    0 -0.94304917837E+01 -0.39763657852E+02  0.13191499688E+03  0.13810014143E+03  0.00000000000E+00 0. -1.
</event>
<event>
 8    1  0.6832629E-009  0.1052418E+03  0.7561462E-02  0.1269644E+00
          2   -1    0    0  501    0  0.00000000000E+00  0.00000000000E+00  0.49572294562E+03  0.49572294562E+03  0.00000000000E+00 0. -1.
         -2   -1    0    0    0  501 -0.00000000000E+00 -0.00000000000E+00 -0.29183766844E+02  0.29183766844E+02  0.00000000000E+00 0.  1.
         25    2    1    2    0    0  0.13234411551E+02 -0.49243259303E+01  0.15083144533E+03  0.19646352632E+03  0.12509353956E+03 0.  0.
         23    2    1    2    0    0 -0.13234411551E+02  0.49243259303E+01  0.31570773345E+03  0.32844318614E+03  0.89465942854E+02 0.  0.
          5    1    3    3  502    0  0.47232427554E+02 -0.46247426854E+02  0.11234496893E+03  0.13041698949E+03  0.41800000000E+01 0. -1.
         -5    1    3    3    0  502 -0.33998016003E+02  0.41323100924E+02  0.38486476402E+02  0.66046536835E+02  0.41800000000E+01 0. -1.
        -11    1    4    4    0    0 -0.29441527548E+02  0.41317768876E+02  0.17654238849E+03  0.18368771462E+03  0.00000000000E+00 0.  1.
         11    1    4    4    0    0  0.16207115997E+02 -0.36393442946E+02  0.13916534495E+03  0.14475547152E+03  0.00000000000E+00 0. -1.
</event>
<event>
 8    1  0.6832629E-009  0.1698167E+03  0.7561462E-02  0.1178039E+00
          2   -1    0    0  501    0  0.00000000000E+00  0.00000000000E+00  0.52786866176E+03  0.52786866176E+03  0.00000000000E+00 0. -1.
         -2   -1    0    0    0  501 -0.00000000000E+00 -0.00000000000E+00 -0.60182844760E+02  0.60182844760E+02  0.00000000000E+00 0.  1.
         25    2    1    2    0    0  0.13349593166E+03 -0.14877576455E+02  0.32946900254E+03  0.37714729632E+03  0.12509098064E+03 0.  0.
         23    2    1    2    0    0 -0.13349593166E+03  0.14877576455E+02  0.13821681446E+03  0.21090421020E+03  0.85639897412E+02 0.  0.
          5    1    3    3  502    0  0.30106590139E+02 -0.61660745815E+02  0.14605390070E+03  0.16142387882E+03  0.41800000000E+01 0. -1.
         -5    1    3    3    0  502  0.10338934152E+03  0.46783169360E+02  0.18341510183E+03  0.21572341750E+03  0.41800000000E+01 0. -1.
        -11    1    4    4    0    0 -0.36727065265E+02  0.43007200729E+02  0.34275465112E+02  0.66130962084E+02  0.00000000000E+00 0.  1.
         11    1    4    4    0    0 -0.96768866394E+02 -0.28129624274E+02  0.10394134935E+03  0.14477324811E+03  0.00000000000E+00 0. -1.
</event>
<event>
 8    1  0.6832629E-009  0.9585258E+02  0.7561462E-02  0.1289267E+00
          1   -1    0    0  501    0  0.00000000000E+00  0.00000000000E+00  0.87988425056E+02  0.87988425056E+02  0.00000000000E+00 0. -1.
         -1   -1    0    0    0  501 -0.00000000000E+00 -0.00000000000E+00 -0.14955794396E+03  0.14955794396E+03  0.00000000000E+00 0.  1.
         25    2    1    2    0    0 -0.21436312142E+02  0.15964744368E+01 -0.66833633361E+02  0.14344497379E+03  0.12509061415E+03 0.  0.
         23    2    1    2    0    0  0.21436312142E+02 -0.15964744368E+01  0.52641144542E+01  0.94101395226E+02  0.91462000162E+02 0.  0.
          5    1    3    3  502    0 -0.71857933958E+02 -0.15136508063E+02 -0.36226341220E+02  0.81990833312E+02  0.41800000000E+01 0. -1.
         -5    1    3    3    0  502  0.50421621816E+02  0.16732982500E+02 -0.30607292141E+02  0.61454140480E+02  0.41800000000E+01 0. -1.
        -11    1    4    4    0    0  0.39971887442E+02  0.12158202012E+02 -0.30365194010E+02  0.51648994851E+02  0.00000000000E+00 0.  1.
         11    1    4    4    0    0 -0.18535575300E+02 -0.13754676449E+02  0.35629308464E+02  0.42452400375E+02  0.00000000000E+00 0. -1.
</event>
<event>
 8    1  0.6832629E-009  0.1030808E+03  0.7561462E-02  0.1273948E+00
         -2   -1    0    0    0  501 -0.00000000000E+00  0.00000000000E+00  0.19206502111E+02  0.19206502111E+02  0.00000000000E+00 0.  1.
          2   -1    0    0  501    0  0.00000000000E+00 -0.00000000000E+00 -0.74365934538E+03  0.74365934538E+03  0.00000000000E+00 0. -1.
         25    2    1    2    0    0  0.24839162380E+02  0.42753550150E+02 -0.40709665848E+03  0.42874225793E+03  0.12508950535E+03 0.  0.
         23    2    1    2    0    0 -0.24839162380E+02 -0.42753550150E+02 -0.31735618478E+03  0.33412358956E+03  0.92080264122E+02 0.  0.
          5    1    3    3  502    0 -0.23837560644E+02  0.58246387815E+02 -0.10625319969E+03  0.12356409606E+03  0.41800000000E+01 0.  1.
         -5    1    3    3    0  502  0.48676723023E+02 -0.15492837665E+02 -0.30084345879E+03  0.30517816187E+03  0.41800000000E+01 0.  1.
        -11    1    4    4    0    0 -0.50408576855E+02 -0.11959192652E+02 -0.95139032638E+02  0.10833043174E+03  0.00000000000E+00 0.  1.
         11    1    4    4    0    0  0.25569414475E+02 -0.30794357498E+02 -0.22221715215E+03  0.22579315782E+03  0.00000000000E+00 0. -1.
</event>
<event>
 8    1  0.6832629E-009  0.1902995E+03  0.7561462E-02  0.1158191E+00
         -1   -1    0    0    0  501 -0.00000000000E+00  0.00000000000E+00  0.94578065136E+02  0.94578065136E+02  0.00000000000E+00 0.  1.
          1   -1    0    0  501    0  0.00000000000E+00 -0.00000000000E+00 -0.49103847047E+03  0.49103847047E+03  0.00000000000E+00 0. -1.
         25    2    1    2    0    0  0.17615934687E+03  0.55105663011E+02 -0.23373904040E+03  0.32303260365E+03  0.12508946568E+03 0.  0.
         23    2    1    2    0    0 -0.17615934687E+03 -0.55105663011E+02 -0.16272136493E+03  0.26258393196E+03  0.91669673994E+02 0.  0.
          5    1    3    3  502    0  0.11048434647E+03  0.13031455723E+02 -0.21589950926E+03  0.24291290651E+03  0.41800000000E+01 0.  1.
         -5    1    3    3    0  502  0.65675000407E+02  0.42074207287E+02 -0.17839531141E+02  0.80119697132E+02  0.41800000000E+01 0.  1.
        -11    1    4    4    0    0 -0.81749818297E+02  0.19181889762E+00 -0.22619889910E+02  0.84821748424E+02  0.00000000000E+00 0.  1.
         11    1    4    4    0    0 -0.94409528577E+02 -0.55297481908E+02 -0.14010147502E+03  0.17776218353E+03  0.00000000000E+00 0. -1.
</event>
<event>
 8    1  0.6832629E-009  0.1338236E+03  0.7561462E-02  0.1221890E+00
          2   -1    0    0  501    0  0.00000000000E+00  0.00000000000E+00  0.87077276983E+03  0.87077276983E+03  0.00000000000E+00 0. -1.
         -2   -1    0    0    0  501 -0.00000000000E+00 -0.00000000000E+00 -0.23897816141E+02  0.23897816141E+02  0.00000000000E+00 0.  1.
         25    2    1    2    0    0 -0.33641568229E+02  0.75274304152E+02  0.31425279050E+03  0.34813792751E+03  0.12508886542E+03 0.  0.
         23    2    1    2    0    0  0.33641568229E+02 -0.75274304152E+02  0.53262216319E+03  0.54653265846E+03  0.90628925123E+02 0.  0.
          5    1    3    3  502    0 -0.54029984029E+01  0.10424424391E+03  0.26099713561E+03  0.28112814155E+03  0.41800000000E+01 0. -1.
         -5    1    3    3    0  502 -0.28238569827E+02 -0.28969939755E+02  0.53255654899E+02  0.67009785957E+02  0.41800000000E+01 0. -1.
        -11    1    4    4    0    0  0.33160480504E+02  0.11975853673E+02  0.14963434710E+03  0.15373183266E+03  0.00000000000E+00 0.  1.
         11    1    4    4    0    0  0.48108772508E+00 -0.87250157826E+02  0.38298781608E+03  0.39280082581E+03  0.00000000000E+00 0. -1.
</event>
<event>
 8    1  0.6832629E-009  0.7501963E+02  0.7561462E-02  0.1343810E+00
         -1   -1    0    0    0  501 -0.00000000000E+00  0.00000000000E+00  0.98208709477E+03  0.98208709477E+03  0.00000000000E+00 0.  1.
          1   -1    0    0  501    0  0.00000000000E+00 -0.00000000000E+00 -0.12990377964E+02  0.12990377964E+02  0.00000000000E+00 0. -1.
         25    2    1    2    0    0  0.91602924281E+01  0.10875482826E+02  0.56717229866E+03  0.58097881692E+03  0.12509908975E+03 0.  0.
         23    2    1    2    0    0 -0.91602924281E+01 -0.10875482826E+02  0.40192441814E+03  0.41409865581E+03  0.98652277025E+02 0.  0.
          5    1    3    3  502    0  0.24923418171E+02  0.21087539479E+02  0.33513581283E+02  0.46973328869E+02  0.41800000000E+01 0. -1.
         -5    1    3    3    0  502 -0.15763125743E+02 -0.10212056653E+02  0.53365871738E+03  0.53400548805E+03  0.41800000000E+01 0. -1.
        -11    1    4    4    0    0 -0.25416933577E+02  0.38369783638E+02  0.22838420561E+03  0.23297554846E+03  0.00000000000E+00 0. -1.
         11    1    4    4    0    0  0.16256641149E+02 -0.49245266464E+02  0.17354021253E+03  0.18112310735E+03  0.00000000000E+00 0.  1.
</event>
<event>
 8    1  0.6832629E-009  0.8253098E+02  0.7561462E-02  0.1322019E+00
          2   -1    0    0  501    0  0.00000000000E+00  0.00000000000E+00  0.20484324469E+03  0.20484324469E+03  0.00000000000E+00 0. -1.
         -2   -1    0    0    0  501 -0.00000000000E+00 -0.00000000000E+00 -0.95279772761E+02  0.95279772761E+02  0.00000000000E+00 0.  1.
         25    2    1    2    0    0  0.49367777426E+02 -0.21701883232E+02  0.13482421333E+03  0.19165273850E+03  0.12508019224E+03 0.  0.
         23    2    1    2    0    0 -0.49367777426E+02  0.21701883232E+02 -0.25260741398E+02  0.10847027896E+03  0.90661718366E+02 0.  0.
          5    1    3    3  502    0 -0.26444140503E+02 -0.21431835313E+02 -0.28677552292E+01  0.34413842446E+02  0.41800000000E+01 0.  1.
         -5    1    3    3    0  502  0.75811917929E+02 -0.27004791919E+00  0.13769196856E+03  0.15723889605E+03  0.41800000000E+01 0.  1.
        -11    1    4    4    0    0 -0.39564663302E+02  0.12759491997E+02 -0.59023449965E+02  0.72193731473E+02  0.00000000000E+00 0.  1.
         11    1    4    4    0    0 -0.98031141248E+01  0.89423912349E+01  0.33762708567E+02  0.36276547483E+02  0.00000000000E+00 0. -1.
</event>
<event>
 8    1  0.6832629E-009  0.1069407E+03  0.7561462E-02  0.1266342E+00
         -2   -1    0    0    0  501 -0.00000000000E+00  0.00000000000E+00  0.24721616853E+02  0.24721616853E+02  0.00000000000E+00 0.  1.
          2   -1    0    0  501    0  0.00000000000E+00 -0.00000000000E+00 -0.95608971008E+03  0.95608971008E+03  0.00000000000E+00 0. -1.
         25    2    1    2    0    0  0.35776829362E+02  0.17367363226E+02 -0.82387731746E+03  0.83426772362E+03  0.12508874300E+03 0.  0.
         23    2    1    2    0    0 -0.35776829362E+02 -0.17367363226E+02 -0.10749077577E+03  0.14654360331E+03  0.91318968305E+02 0.  0.
          5    1    3    3  502    0  0.13254549905E+01  0.65067261484E+02 -0.29566488251E+03  0.30277169699E+03  0.41800000000E+01 0.  1.
         -5    1    3    3    0  502  0.34451374371E+02 -0.47699898258E+02 -0.52821243495E+03  0.53149602663E+03  0.41800000000E+01 0.  1.
        -11    1    4    4    0    0 -0.29808140431E+02  0.29791319520E+02 -0.19288030731E+02  0.46347341717E+02  0.00000000000E+00 0.  1.
         11    1    4    4    0    0 -0.59686889307E+01 -0.47158682746E+02 -0.88202745037E+02  0.10019626160E+03  0.00000000000E+00 0. -1.
</event>
<event>
 8    1  0.6832629E-009  0.1165708E+03  0.7561462E-02  0.1248864E+00
          1   -1    0    0  501    0  0.00000000000E+00  0.00000000000E+00  0.45575592003E+03  0.45575592003E+03  0.00000000000E+00 0. -1.
         -1   -1    0    0    0  501 -0.00000000000E+00 -0.00000000000E+00 -0.37351029608E+02  0.37351029608E+02  0.00000000000E+00 0.  1.
         25    2    1    2    0    0 -0.53424022608E+02  0.34062097195E+02  0.29364062991E+03  0.32540275444E+03  0.12509108844E+03 0.  0.
         23    2    1    2    0    0  0.53424022608E+02 -0.34062097195E+02  0.12476426051E+03  0.16770419519E+03  0.92434970264E+02 0.  0.
          5    1    3    3  502    0 -0.85171851951E+02  0.28389717079E+02  0.27168419342E+03  0.28616427757E+03  0.41800000000E+01 0.  1.
         -5    1    3    3    0  502  0.31747829343E+02  0.56723801159E+01  0.21956436486E+02  0.39238476873E+02  0.41800000000E+01 0.  1.
        -11    1    4    4    0    0  0.49507466007E+02  0.22263896696E+02  0.74012390014E+02  0.91785097712E+02  0.00000000000E+00 0.  1.
         11    1    4    4    0    0  0.39165566011E+01 -0.56325993891E+02  0.50751870498E+02  0.75919097482E+02  0.00000000000E+00 0. -1.
</event>
<event>
 8    1  0.6832629E-009  0.1006263E+03  0.7561462E-02  0.1278984E+00
          1   -1    0    0  501    0  0.00000000000E+00  0.00000000000E+00  0.74302412627E+03  0.74302412627E+03  0.00000000000E+00 0. -1.
         -1   -1    0    0    0  501 -0.00000000000E+00 -0.00000000000E+00 -0.21337090623E+02  0.21337090623E+02  0.00000000000E+00 0.  1.
         25    2    1    2    0    0  0.50291584215E+02 -0.12526328237E+02  0.49651804421E+03  0.51464706942E+03  0.12508111563E+03 0.  0.
         23    2    1    2    0    0 -0.50291584215E+02  0.12526328237E+02  0.22516899143E+03  0.24971414748E+03  0.94709705970E+02 0.  0.
          5    1    3    3  502    0  0.33504073745E+02  0.35361682627E+02  0.71668355901E+02  0.86757116096E+02  0.41800000000E+01 0. -1.
         -5    1    3    3    0  502  0.16787510469E+02 -0.47888010864E+02  0.42484968831E+03  0.42788995332E+03  0.41800000000E+01 0. -1.
        -11    1    4    4    0    0  0.25157774514E+02  0.16222082683E+01  0.24931361384E+02  0.35455859299E+02  0.00000000000E+00 0.  1.
         11    1    4    4    0    0 -0.75449358729E+02  0.10904119969E+02  0.20023763005E+03  0.21425828818E+03  0.00000000000E+00 0. -1.
</event>
<event>
 8    1  0.6832629E-009  0.1266008E+03  0.7561462E-02  0.1232588E+00
         -1   -1    0    0    0  501 -0.00000000000E+00  0.00000000000E+00  0.36938997130E+02  0.36938997130E+02  0.00000000000E+00 0. -1.
          1   -1    0    0  501    0  0.00000000000E+00 -0.00000000000E+00 -0.61500655353E+03  0.61500655353E+03  0.00000000000E+00 0.  1.
         25    2    1    2    0    0  0.85110859461E+02 -0.44025051895E+02 -0.40301232726E+03  0.43272623868E+03  0.12510394928E+03 0.  0.
         23    2    1    2    0    0 -0.85110859461E+02  0.44025051895E+02 -0.17505522913E+03  0.21921931197E+03  0.90723259988E+02 0.  0.
          5    1    3    3  502    0  0.86966050493E+02  0.23114842051E+02 -0.21963367527E+03  0.23738958186E+03  0.41800000000E+01 0. -1.
         -5    1    3    3    0  502 -0.18551910319E+01 -0.67139893947E+02 -0.18337865199E+03  0.19533665683E+03  0.41800000000E+01 0. -1.
        -11    1    4    4    0    0 -0.51131335168E+02  0.26271151963E+02 -0.17131105868E+03  0.18069882591E+03  0.00000000000E+00 0.  1.
         11    1    4    4    0    0 -0.33979524293E+02  0.17753899932E+02 -0.37441704568E+01  0.38520486061E+02  0.00000000000E+00 0. -1.
</event>
<event>
 8    1  0.6832629E-009  0.1285476E+03  0.7561462E-02  0.1229627E+00
          1   -1    0    0  501    0  0.00000000000E+00  0.00000000000E+00  0.69078222491E+02  0.69078222491E+02  0.00000000000E+00 0. -1.
         -1   -1    0    0    0  501 -0.00000000000E+00 -0.00000000000E+00 -0.27220505658E+03  0.27220505658E+03  0.00000000000E+00 0.  1.
         25    2    1    2    0    0 -0.68247315136E+02 -0.40387894555E+02 -0.74550178645E+02  0.16581433054E+03  0.12509110691E+03 0.  0.
         23    2    1    2    0    0  0.68247315136E+02  0.40387894555E+02 -0.12857665544E+03  0.17546894853E+03  0.89266553216E+02 0.  0.
          5    1    3    3  502    0 -0.49513510567E+02 -0.81940165271E+02 -0.72198084382E+02  0.11998255791E+03  0.41800000000E+01 0. -1.
         -5    1    3    3    0  502 -0.18733804569E+02  0.41552270717E+02 -0.23520942623E+01  0.45831772634E+02  0.41800000000E+01 0. -1.
        -11    1    4    4    0    0  0.82959271418E+02  0.50975309997E+02 -0.88899872327E+02  0.13184805741E+03  0.00000000000E+00 0. -1.
         11    1    4    4    0    0 -0.14711956282E+02 -0.10587415442E+02 -0.39676783116E+02  0.43620891117E+02  0.00000000000E+00 0.  1.
</event>
<event>
 8    1  0.6832629E-009  0.1080442E+03  0.7561462E-02  0.1264235E+00
         -1   -1    0    0    0  501 -0.00000000000E+00  0.00000000000E+00  0.23028999531E+03  0.23028999531E+03  0.00000000000E+00 0.  1.
          1   -1    0    0  501    0  0.00000000000E+00 -0.00000000000E+00 -0.73449051969E+02  0.73449051969E+02  0.00000000000E+00 0. -1.
         25    2    1    2    0    0 -0.14925472894E+02 -0.24156078329E+02  0.12702274993E+02  0.12890807746E+03  0.12509859624E+03 0.  0.
         23    2    1    2    0    0  0.14925472894E+02  0.24156078329E+02  0.14413866835E+03  0.17483096982E+03  0.94781994250E+02 0.  0.
          5    1    3    3  502    0 -0.66130805143E+02 -0.35119085974E+01  0.27135157942E+02  0.71689651187E+02  0.41800000000E+01 0. -1.
         -5    1    3    3    0  502  0.51205332249E+02 -0.20644169732E+02 -0.14432882949E+02  0.57218426270E+02  0.41800000000E+01 0. -1.
        -11    1    4    4    0    0  0.39276339686E+02 -0.19897311285E+02  0.41454656672E+02  0.60473319863E+02  0.00000000000E+00 0. -1.
         11    1    4    4    0    0 -0.24350866791E+02  0.44053389614E+02  0.10268401168E+03  0.11435764996E+03  0.00000000000E+00 0.  1.
</event>
<event>
 8    1  0.6832629E-009  0.1204372E+03  0.7561462E-02  0.1242377E+00
          1   -1    0    0  501    0  0.00000000000E+00  0.00000000000E+00  0.43796339258E+02  0.43796339258E+02  0.00000000000E+00 0.  1.
         -1   -1    0    0    0  501 -0.00000000000E+00 -0.00000000000E+00 -0.44673438774E+03  0.44673438774E+03  0.00000000000E+00 0. -1.
         25    2    1    2    0    0 -0.53075666637E+02  0.37531984733E+02 -0.32430985106E+03  0.35362342752E+03  0.12508786003E+03 0.  0.
         23    2    1    2    0    0  0.53075666637E+02 -0.37531984733E+02 -0.78628197421E+02  0.13690729948E+03  0.91299172799E+02 0.  0.
          5    1    3    3  502    0 -0.50107643379E+02 -0.32403035580E+02 -0.82851687869E+02  0.10218907585E+03  0.41800000000E+01 0.  1.
         -5    1    3    3    0  502 -0.29680232580E+01  0.69935020313E+02 -0.24145816319E+03  0.25143435167E+03  0.41800000000E+01 0.  1.
        -11    1    4    4    0    0  0.54578203629E+02 -0.64176947418E+02 -0.50931107651E+02  0.98445104590E+02  0.00000000000E+00 0.  1.
         11    1    4    4    0    0 -0.15025369911E+01  0.26644962685E+02 -0.27697089770E+02  0.38462194888E+02  0.00000000000E+00 0. -1.
</event>
<event>
 8    1  0.6832629E-009  0.1681592E+03  0.7561462E-02  0.1179781E+00
         -1   -1    0    0    0  501 -0.00000000000E+00  0.00000000000E+00  0.29544062452E+03  0.29544062452E+03  0.00000000000E+00 0.  1.
          1   -1    0    0  501    0  0.00000000000E+00 -0.00000000000E+00 -0.11408904632E+03  0.11408904632E+03  0.00000000000E+00 0. -1.
         25    2    1    2    0    0 -0.13500625791E+03  0.28151478787E+01  0.16337621676E+03  0.24611932050E+03  0.12509323319E+03 0.  0.
         23    2    1    2    0    0  0.13500625791E+03 -0.28151478787E+01  0.17975361442E+02  0.16341035034E+03  0.90250840698E+02 0.  0.
          5    1    3    3  502    0 -0.10763419422E+03 -0.48751370670E+02  0.74655256350E+02  0.13983095368E+03  0.41800000000E+01 0.  1.
         -5    1    3    3    0  502 -0.27372063694E+02  0.51566518549E+02  0.88720960407E+02  0.10628836682E+03  0.41800000000E+01 0.  1.
        -11    1    4    4    0    0  0.18171114016E+02 -0.34067960640E+02  0.17681551477E+02  0.42467076535E+02  0.00000000000E+00 0.  1.
         11    1    4    4    0    0  0.11683514390E+03  0.31252812762E+02  0.29380996438E+00  0.12094327381E+03  0.00000000000E+00 0. -1.
</event>
<event>
 8    1  0.6832629E-009  0.1287711E+03  0.7561462E-02  0.1229291E+00
         -2   -1    0    0    0  501 -0.00000000000E+00  0.00000000000E+00  0.77413179046E+02  0.77413179046E+02  0.00000000000E+00 0. -1.
          2   -1    0    0  501    0  0.00000000000E+00 -0.00000000000E+00 -0.31150628831E+03  0.31150628831E+03  0.00000000000E+00 0.  1.
         25    2    1    2    0    0  0.62738109082E+02 -0.58720544004E+02 -0.40913759082E+02  0.15717755811E+03  0.12508667584E+03 0.  0.
         23    2    1    2    0    0 -0.62738109082E+02  0.58720544004E+02 -0.19317935019E+03  0.23174190925E+03  0.94878230093E+02 0.  0.
          5    1    3    3  502    0  0.91807906142E+02 -0.30212475837E+02  0.34680969960E+01  0.96803850250E+02  0.41800000000E+01 0.  1.
         -5    1    3    3    0  502 -0.29069797060E+02 -0.28508068167E+02 -0.44381856078E+02  0.60373707859E+02  0.41800000000E+01 0.  1.
        -11    1    4    4    0    0 -0.38894102021E+02 -0.15534397404E+02 -0.11007830026E+03  0.11777648689E+03  0.00000000000E+00 0.  1.
         11    1    4    4    0    0 -0.23844007061E+02  0.74254941408E+02 -0.83101049924E+02  0.11396542236E+03  0.00000000000E+00 0. -1.
</event>
<event>
 8    1  0.6832629E-009  0.2227420E+03  0.7561462E-02  0.1131855E+00
         -2   -1    0    0    0  501 -0.00000000000E+00  0.00000000000E+00  0.18550744481E+03  0.18550744481E+03  0.00000000000E+00 0.  1.
          2   -1    0    0  501    0  0.00000000000E+00 -0.00000000000E+00 -0.36598369616E+03  0.36598369616E+03  0.00000000000E+00 0. -1.
         25    2    1    2    0    0 -0.17443564286E+03 -0.12290622187E+03 -0.20006170527E+03  0.31812753455E+03  0.12508680764E+03 0.  0.
         23    2    1    2    0    0  0.17443564286E+03  0.12290622187E+03  0.19585453920E+02  0.23336360643E+03  0.92418882941E+02 0.  0.
          5    1    3    3  502    0 -0.86464919409E+02 -0.73866966871E+02 -0.25606193475E+02  0.11664330511E+03  0.41800000000E+01 0. -1.
         -5    1    3    3    0  502 -0.87970723454E+02 -0.49039254998E+02 -0.17445551179E+03  0.20148422944E+03  0.41800000000E+01 0. -1.
        -11    1    4    4    0    0  0.14159640354E+03  0.48702998423E+02 -0.62492160353E+00  0.14973948737E+03  0.00000000000E+00 0. -1.
         11    1    4    4    0    0  0.32839239322E+02  0.74203223446E+02  0.20210375524E+02  0.83624119056E+02  0.00000000000E+00 0.  1.
</event>
<event>
 8    1  0.6832629E-009  0.1545251E+03  0.7561462E-02  0.1195020E+00
         -2   -1    0    0    0  501 -0.00000000000E+00  0.00000000000E+00  0.53206750254E+02  0.53206750254E+02  0.00000000000E+00 0.  1.
          2   -1    0    0  501    0  0.00000000000E+00 -0.00000000000E+00 -0.56345127448E+03  0.56345127448E+03  0.00000000000E+00 0. -1.
         25    2    1    2    0    0 -0.10944764373E+03 -0.61204479327E+02 -0.18341890579E+03  0.25497955454E+03  0.12508918109E+03 0.  0.
         23    2    1    2    0    0  0.10944764373E+03  0.61204479327E+02 -0.32682561844E+03  0.36167847019E+03  0.90948094657E+02 0.  0.
          5    1    3    3  502    0 -0.11233080248E+03 -0.91843311274E+02 -0.16034036730E+03  0.21628663573E+03  0.41800000000E+01 0. -1.
         -5    1    3    3    0  502  0.28831587437E+01  0.30638831947E+02 -0.23078538490E+02  0.38692918813E+02  0.41800000000E+01 0. -1.
        -11    1    4    4    0    0  0.37992856571E+02  0.46211871662E+02 -0.58787909683E+02  0.83874981716E+02  0.00000000000E+00 0.  1.
         11    1    4    4    0    0  0.71454787163E+02  0.14992607666E+02 -0.26803770875E+03  0.27780348847E+03  0.00000000000E+00 0. -1.
</event>
<event>
 8    1  0.6832629E-009  0.1299874E+03  0.7561462E-02  0.1227474E+00
          2   -1    0    0  501    0  0.00000000000E+00  0.00000000000E+00  0.58131754896E+03  0.58131754896E+03  0.00000000000E+00 0. -1.
         -2   -1    0    0    0  501 -0.00000000000E+00 -0.00000000000E+00 -0.37065115529E+02  0.37065115529E+02  0.00000000000E+00 0.  1.
         25    2    1    2    0    0 -0.25733260829E+02 -0.93511590711E+02  0.33581163335E+03  0.37124596839E+03  0.12508995821E+03 0.  0.
         23    2    1    2    0    0  0.25733260829E+02  0.93511590711E+02  0.20844080008E+03  0.24713669609E+03  0.90677235890E+02 0.  0.
          5    1    3    3  502    0 -0.67364200767E+02 -0.19714327003E+02  0.11618733034E+03  0.13580706302E+03  0.41800000000E+01 0. -1.
         -5    1    3    3    0  502  0.41630939938E+02 -0.73797263708E+02  0.21962430301E+03  0.23543890537E+03  0.41800000000E+01 0. -1.
        -11    1    4    4    0    0  0.26330672815E+02  0.24983981774E+02  0.10676251936E+02  0.37834984228E+02  0.00000000000E+00 0.  1.
         11    1    4    4    0    0 -0.59741198567E+00  0.68527608937E+02  0.19776454814E+03  0.20930171187E+03  0.00000000000E+00 0. -1.
</event>
<event>
 8    1  0.6832629E-009  0.7081160E+02  0.7561462E-02  0.1357355E+00
         -2   -1    0    0    0  501 -0.00000000000E+00  0.00000000000E+00  0.21223187826E+03  0.21223187826E+03  0.00000000000E+00 0.  1.
          2   -1    0    0  501    0  0.00000000000E+00 -0.00000000000E+00 -0.64914535601E+02  0.64914535601E+02  0.00000000000E+00 0. -1.
         25    2    1    2    0    0 -0.13740430321E+02  0.24233039845E+02  0.41209212556E+02  0.13461419151E+03  0.12508693661E+03 0.  0.
         23    2    1    2    0    0  0.13740430321E+02 -0.24233039845E+02  0.10610813010E+03  0.14253222235E+03  0.90997030112E+02 0.  0.
          5    1    3    3  502    0  0.24107857063E+02  0.94739564254E+01  0.76353275092E+02  0.80735615684E+02  0.41800000000E+01 0.  1.
         -5    1    3    3    0  502 -0.37848287384E+02  0.14759083420E+02 -0.35144062536E+02  0.53878575824E+02  0.41800000000E+01 0.  1.
        -11    1    4    4    0    0  0.10937637329E+02  0.23925371228E+02  0.86582026971E+02  0.90490345856E+02  0.00000000000E+00 0.  1.
         11    1    4    4    0    0  0.28027929918E+01 -0.48158411073E+02  0.19526103130E+02  0.52041876495E+02  0.00000000000E+00 0. -1.
</event>
<event>
 8    1  0.6832629E-009  0.1358529E+03  0.7561462E-02  0.1219021E+00
         -1   -1    0    0    0  501 -0.00000000000E+00  0.00000000000E+00  0.94246216979E+02  0.94246216979E+02  0.00000000000E+00 0.  1.
          1   -1    0    0  501    0  0.00000000000E+00 -0.00000000000E+00 -0.19741306105E+03  0.19741306105E+03  0.00000000000E+00 0. -1.
         25    2    1    2    0    0 -0.10244688334E+02  0.81246119561E+02 -0.49717917380E+02  0.15756132452E+03  0.12509122308E+03 0.  0.
         23    2    1    2    0    0  0.10244688334E+02 -0.81246119561E+02 -0.53448926690E+02  0.13409795351E+03  0.91758311823E+02 0.  0.
          5    1    3    3  502    0  0.12569169079E+02 -0.31432229759E+02 -0.16039503045E+02  0.37692268927E+02  0.41800000000E+01 0.  1.
         -5    1    3    3    0  502 -0.22813857414E+02  0.11267834932E+03 -0.33678414335E+02  0.11986905559E+03  0.41800000000E+01 0.  1.
        -11    1    4    4    0    0 -0.56904465399E+00  0.20363992087E+02 -0.48273253841E+01  0.20936070689E+02  0.00000000000E+00 0.  1.
         11    1    4    4    0    0  0.10813732988E+02 -0.10161011165E+03 -0.48621601306E+02  0.11316188282E+03  0.00000000000E+00 0. -1.
</event>
<event>
 8    1  0.6832629E-009  0.9538821E+02  0.7561462E-02  0.1290304E+00
          1   -1    0    0  501    0  0.00000000000E+00  0.00000000000E+00  0.21190728879E+03  0.21190728879E+03  0.00000000000E+00 0. -1.
         -1   -1    0    0    0  501 -0.00000000000E+00 -0.00000000000E+00 -0.69489752825E+02  0.69489752825E+02  0.00000000000E+00 0.  1.
         25    2    1    2    0    0  0.53592058342E+02 -0.44696346440E+01  0.10254719025E+03  0.17045544927E+03  0.12508815934E+03 0.  0.
         23    2    1    2    0    0 -0.53592058342E+02  0.44696346440E+01  0.39870345710E+02  0.11094159234E+03  0.88466412229E+02 0.  0.
          5    1    3    3  502    0  0.57779242018E+02  0.26232665160E+02  0.11914641673E+03  0.13505530182E+03  0.41800000000E+01 0. -1.
         -5    1    3    3    0  502 -0.41871836758E+01 -0.30702299804E+02 -0.16599226476E+02  0.35400147457E+02  0.41800000000E+01 0. -1.
        -11    1    4    4    0    0 -0.26841640513E+02  0.41990146055E+02 -0.25961421151E+00  0.49836868187E+02  0.00000000000E+00 0.  1.
         11    1    4    4    0    0 -0.26750417828E+02 -0.37520511411E+02  0.40129959922E+02  0.61104724153E+02  0.00000000000E+00 0. -1.
</event>
<event>
 8    1  0.6832629E-009  0.1162258E+03  0.7561462E-02  0.1249456E+00
         -1   -1    0    0    0  501 -0.00000000000E+00  0.00000000000E+00  0.17673229523E+03  0.17673229523E+03  0.00000000000E+00 0.  1.
          1   -1    0    0  501    0  0.00000000000E+00 -0.00000000000E+00 -0.12256706544E+03  0.12256706544E+03  0.00000000000E+00 0. -1.
         25    2    1    2    0    0 -0.48427158540E+02  0.19024751133E+02 -0.56462477662E+02  0.14676456901E+03  0.12507876116E+03 0.  0.
         23    2    1    2    0    0  0.48427158540E+02 -0.19024751133E+02  0.11062770745E+03  0.15253479166E+03  0.91220842868E+02 0.  0.
          5    1    3    3  502    0  0.91745585825E+01 -0.43163648485E+02 -0.41235031361E+02  0.60539848753E+02  0.41800000000E+01 0.  1.
         -5    1    3    3    0  502 -0.57601717123E+02  0.62188399617E+02 -0.15227446301E+02  0.86224720256E+02  0.41800000000E+01 0.  1.
        -11    1    4    4    0    0  0.52507410390E+02 -0.49707402677E+02  0.89508364249E+02  0.11506346639E+03  0.00000000000E+00 0.  1.
         11    1    4    4    0    0 -0.40802518495E+01  0.30682651544E+02  0.21119343197E+02  0.37471325276E+02  0.00000000000E+00 0. -1.
</event>
<event>
 8    1  0.6832629E-009  0.1252720E+03  0.7561462E-02  0.1234645E+00
          2   -1    0    0  501    0  0.00000000000E+00  0.00000000000E+00  0.12879340348E+04  0.12879340348E+04  0.00000000000E+00 0. -1.
         -2   -1    0    0    0  501 -0.00000000000E+00 -0.00000000000E+00 -0.14176230049E+02  0.14176230049E+02  0.00000000000E+00 0.  1.
         25    2    1    2    0    0  0.30606979924E+02 -0.63668065570E+02  0.88831400924E+03  0.89985511540E+03  0.12508812858E+03 0.  0.
         23    2    1    2    0    0 -0.30606979924E+02  0.63668065570E+02  0.38544379552E+03  0.40225514945E+03  0.90839836886E+02 0.  0.
          5    1    3    3  502    0  0.68806372021E+02 -0.74333823525E+01  0.31687763740E+03  0.32437398399E+03  0.41800000000E+01 0.  1.
         -5    1    3    3    0  502 -0.38199392096E+02 -0.56234683217E+02  0.57143637184E+03  0.57548113142E+03  0.41800000000E+01 0.  1.
        -11    1    4    4    0    0 -0.45430581698E+02 -0.22990283292E+01  0.11990198377E+03  0.12824082422E+03  0.00000000000E+00 0.  1.
         11    1    4    4    0    0  0.14823601774E+02  0.65967093899E+02  0.26554181175E+03  0.27401432523E+03  0.00000000000E+00 0. -1.
</event>
<event>
 8    1  0.6832629E-009  0.9693715E+02  0.7561462E-02  0.1286872E+00
          2   -1    0    0  501    0  0.00000000000E+00  0.00000000000E+00  0.12008860883E+03  0.12008860883E+03  0.00000000000E+00 0. -1.
         -2   -1    0    0    0  501 -0.00000000000E+00 -0.00000000000E+00 -0.11807312287E+03  0.11807312287E+03  0.00000000000E+00 0.  1.
         25    2    1    2    0    0 -0.88428143224E+01  0.34261298444E+02 -0.34753554452E+02  0.13456304373E+03  0.12508945301E+03 0.  0.
         23    2    1    2    0    0  0.88428143224E+01 -0.34261298444E+02  0.36769040409E+02  0.10359868797E+03  0.90159269516E+02 0.  0.
          5    1    3    3  502    0 -0.45811365602E+02  0.38156062003E+02  0.24415257137E+02  0.64561160670E+02  0.41800000000E+01 0. -1.
         -5    1    3    3    0  502  0.36968551280E+02 -0.38947635593E+01 -0.59168811588E+02  0.70001883058E+02  0.41800000000E+01 0. -1.
        -11    1    4    4    0    0  0.25251269017E+02 -0.60610264356E+02  0.27670691635E+02  0.71252353700E+02  0.00000000000E+00 0.  1.
         11    1    4    4    0    0 -0.16408454694E+02  0.26348965912E+02  0.90983487741E+01  0.32346334267E+02  0.00000000000E+00 0. -1.
</event>
<event>
 8    1  0.6832629E-009  0.9664156E+02  0.7561462E-02  0.1287521E+00
         -1   -1    0    0    0  501 -0.00000000000E+00  0.00000000000E+00  0.21583323237E+02  0.21583323237E+02  0.00000000000E+00 0.  1.
          1   -1    0    0  501    0  0.00000000000E+00 -0.00000000000E+00 -0.66171414355E+03  0.66171414355E+03  0.00000000000E+00 0. -1.
         25    2    1    2    0    0  0.35982440170E+02  0.78833932315E+01 -0.25959448561E+03  0.29050557732E+03  0.12508920659E+03 0.  0.
         23    2    1    2    0    0 -0.35982440170E+02 -0.78833932315E+01 -0.38053633470E+03  0.39279188947E+03  0.90114829592E+02 0.  0.
          5    1    3    3  502    0  0.70222858029E+02  0.22710551390E+02 -0.88364876296E+02  0.11520782394E+03  0.41800000000E+01 0.  1.
         -5    1    3    3    0  502 -0.34240417859E+02 -0.14827158158E+02 -0.17122960931E+03  0.17529775338E+03  0.41800000000E+01 0.  1.
        -11    1    4    4    0    0  0.19896880967E+02  0.11118698465E+02 -0.31965664719E+02  0.39259585437E+02  0.00000000000E+00 0.  1.
         11    1    4    4    0    0 -0.55879321137E+02 -0.19002091697E+02 -0.34857066998E+03  0.35353230403E+03  0.00000000000E+00 0. -1.
</event>
<event>
 8    1  0.6832629E-009  0.1009282E+03  0.7561462E-02  0.1278356E+00
          2   -1    0    0  501    0  0.00000000000E+00  0.00000000000E+00  0.18115027649E+03  0.18115027649E+03  0.00000000000E+00 0. -1.
         -2   -1    0    0    0  501 -0.00000000000E+00 -0.00000000000E+00 -0.92880391523E+02  0.92880391523E+02  0.00000000000E+00 0.  1.
         25    2    1    2    0    0  0.21671291249E+02 -0.56488056479E+02  0.95399243804E+01  0.13927532727E+03  0.12508421659E+03 0.  0.
         23    2    1    2    0    0 -0.21671291249E+02  0.56488056479E+02  0.78729960582E+02  0.13475534073E+03  0.91104608961E+02 0.  0.
          5    1    3    3  502    0 -0.34118304091E+01 -0.92953367955E+02  0.15601147852E+02  0.94407824969E+02  0.41800000000E+01 0.  1.
         -5    1    3    3    0  502  0.25083121658E+02  0.36465311477E+02 -0.60612234714E+01  0.44867502306E+02  0.41800000000E+01 0.  1.
        -11    1    4    4    0    0 -0.79509950830E+00  0.32421004325E+02 -0.15019727359E+02  0.35739976422E+02  0.00000000000E+00 0.  1.
         11    1    4    4    0    0 -0.20876191741E+02  0.24067052153E+02  0.93749687940E+02  0.99015364312E+02  0.00000000000E+00 0. -1.
</event>
<event>
 8    1  0.6832629E-009  0.1952903E+03  0.7561462E-02  0.1153775E+00
          2   -1    0    0  501    0  0.00000000000E+00  0.00000000000E+00  0.28288962985E+03  0.28288962985E+03  0.00000000000E+00 0. -1.
         -2   -1    0    0    0  501 -0.00000000000E+00 -0.00000000000E+00 -0.13758915599E+03  0.13758915599E+03  0.00000000000E+00 0.  1.
         25    2    1    2    0    0 -0.25054866655E+01  0.16421920793E+03  0.69388752963E+02  0.21780161226E+03  0.12509403482E+03 0.  0.
         23    2    1    2    0    0  0.25054866655E+01 -0.16421920793E+03  0.75911720895E+02  0.20267717359E+03  0.91330288563E+02 0.  0.
          5    1    3    3  502    0 -0.61498892322E+02  0.10962894078E+03  0.46949939687E+02  0.13424748657E+03  0.41800000000E+01 0.  1.
         -5    1    3    3    0  502  0.58993405657E+02  0.54590267149E+02  0.22438813276E+02  0.83554125689E+02  0.41800000000E+01 0.  1.
        -11    1    4    4    0    0 -0.38064053359E+02 -0.48196955581E+02  0.44422152690E+02  0.75796743565E+02  0.00000000000E+00 0. -1.
         11    1    4    4    0    0  0.40569540025E+02 -0.11602225235E+03  0.31489568205E+02  0.12688043002E+03  0.00000000000E+00 0.  1.
</event>
<event>
 8    1  0.6832629E-009  0.9129362E+02  0.7561462E-02  0.1299749E+00
          1   -1    0    0  501    0  0.00000000000E+00  0.00000000000E+00  0.35995883819E+02  0.35995883819E+02  0.00000000000E+00 0. -1.
         -1   -1    0    0    0  501 -0.00000000000E+00 -0.00000000000E+00 -0.58326462623E+03  0.58326462623E+03  0.00000000000E+00 0.  1.
         25    2    1    2    0    0 -0.63784673654E+01 -0.72694824482E+02 -0.42914656517E+03  0.45292317021E+03  0.12508957335E+03 0.  0.
         23    2    1    2    0    0  0.63784673654E+01  0.72694824482E+02 -0.11812217724E+03  0.16633733984E+03  0.91597158891E+02 0.  0.
          5    1    3    3  502    0 -0.30415945284E+02 -0.21036581075E+02 -0.36552788916E+03  0.36741771545E+03  0.41800000000E+01 0.  1.
         -5    1    3    3    0  502  0.24037477918E+02 -0.51658243407E+02 -0.63618676009E+02  0.85505454760E+02  0.41800000000E+01 0.  1.
        -11    1    4    4    0    0 -0.20903012834E+02  0.43618564921E+02 -0.11682840600E+03  0.12644521185E+03  0.00000000000E+00 0.  1.
         11    1    4    4    0    0  0.27281480200E+02  0.29076259561E+02 -0.12937712454E+01  0.39892127995E+02  0.00000000000E+00 0. -1.
</event>
<event>
 8    1  0.6832629E-009  0.1200610E+03  0.7561462E-02  0.1242996E+00
         -2   -1    0    0    0  501 -0.00000000000E+00  0.00000000000E+00  0.32419073325E+03  0.32419073325E+03  0.00000000000E+00 0.  1.
          2   -1    0    0  501    0  0.00000000000E+00 -0.00000000000E+00 -0.81741211160E+02  0.81741211160E+02  0.00000000000E+00 0. -1.
         25    2    1    2    0    0  0.42909101837E+02  0.98385901875E+02  0.19946799251E+03  0.25875811115E+03  0.12508918154E+03 0.  0.
         23    2    1    2    0    0 -0.42909101837E+02 -0.98385901875E+02  0.42981529580E+02  0.14717383326E+03  0.91059039114E+02 0.  0.
          5    1    3    3  502    0  0.53349905034E+02  0.68193433953E+02  0.20807515422E+03  0.22540918128E+03  0.41800000000E+01 0. -1.
         -5    1    3    3    0  502 -0.10440803196E+02  0.30192467922E+02 -0.86071617086E+01  0.33348929867E+02  0.41800000000E+01 0. -1.
        -11    1    4    4    0    0  0.10884370384E+02 -0.41596037149E+02  0.53071449383E+02  0.68302844486E+02  0.00000000000E+00 0.  1.
         11    1    4    4    0    0 -0.53793472221E+02 -0.56789864725E+02 -0.10089919804E+02  0.78870988778E+02  0.00000000000E+00 0. -1.
</event>
<event>
 8    1  0.6832629E-009  0.1172873E+03  0.7561462E-02  0.1247641E+00
          2   -1    0    0  501    0  0.00000000000E+00  0.00000000000E+00  0.41291296794E+03  0.41291296794E+03  0.00000000000E+00 0. -1.
         -2   -1    0    0    0  501 -0.00000000000E+00 -0.00000000000E+00 -0.43462565690E+02  0.43462565690E+02  0.00000000000E+00 0.  1.
         25    2    1    2    0    0 -0.65591853963E+02 -0.37172509753E+02  0.24937657480E+03  0.28899629624E+03  0.12508435711E+03 0.  0.
         23    2    1    2    0    0  0.65591853963E+02  0.37172509753E+02  0.12007382745E+03  0.16737923739E+03  0.88960655819E+02 0.  0.
          5    1    3    3  502    0 -0.93516403134E+02 -0.53299090474E+02  0.15174106329E+03  0.18608850956E+03  0.41800000000E+01 0. -1.
         -5    1    3    3    0  502  0.27924549171E+02  0.16126580720E+02  0.97635511508E+02  0.10290778668E+03  0.41800000000E+01 0. -1.
        -11    1    4    4    0    0 -0.23380881308E+01 -0.10881311231E+02 -0.86552424529E+01  0.14099035858E+02  0.00000000000E+00 0.  1.
         11    1    4    4    0    0  0.67929942094E+02  0.48053820984E+02  0.12872906991E+03  0.15328020154E+03  0.00000000000E+00 0. -1.
</event>
<event>
 8    1  0.6832629E-009  0.1054783E+03  0.7561462E-02  0.1269180E+00
         -1   -1    0    0    0  501 -0.00000000000E+00  0.00000000000E+00  0.15550379672E+03  0.15550379672E+03  0.00000000000E+00 0.  1.
          1   -1    0    0  501    0  0.00000000000E+00 -0.00000000000E+00 -0.11773550000E+03  0.11773550000E+03  0.00000000000E+00 0. -1.
         25    2    1    2    0    0 -0.10016893125E+02 -0.69128178412E+02  0.61203974993E+02  0.15580344734E+03  0.12509893864E+03 0.  0.
         23    2    1    2    0    0  0.10016893125E+02  0.69128178412E+02 -0.23435678274E+02  0.11743584938E+03  0.91448917458E+02 0.  0.
          5    1    3    3  502    0 -0.51973866753E+02 -0.35489706330E+02 -0.12669860331E+02  0.64333504812E+02  0.41800000000E+01 0.  1.
         -5    1    3    3    0  502  0.41956973628E+02 -0.33638472082E+02  0.73873835324E+02  0.91469942524E+02  0.41800000000E+01 0.  1.
        -11    1    4    4    0    0  0.24363300626E+02  0.74685545583E+02 -0.45312887722E+02  0.90690456665E+02  0.00000000000E+00 0. -1.
         11    1    4    4    0    0 -0.14346407501E+02 -0.55573671712E+01  0.21877209448E+02  0.26745392712E+02  0.00000000000E+00 0.  1.
</event>
<event>
 8    1  0.6832629E-009  0.1134407E+03  0.7561462E-02  0.1254328E+00
          3   -1    0    0  501    0  0.00000000000E+00  0.00000000000E+00  0.77286984898E+02  0.77286984898E+02  0.00000000000E+00 0. -1.
         -3   -1    0    0    0  501 -0.00000000000E+00 -0.00000000000E+00 -0.19413278128E+03  0.19413278128E+03  0.00000000000E+00 0.  1.
         25    2    1    2    0    0  0.55436624331E+02 -0.42098443708E+00 -0.54272437252E+02  0.14719604118E+03  0.12509108901E+03 0.  0.
         23    2    1    2    0    0 -0.55436624331E+02  0.42098443708E+00 -0.62573359132E+02  0.12422372500E+03  0.91884231698E+02 0.  0.
          5    1    3    3  502    0  0.85957886442E+02  0.31749021685E+02 -0.30241436446E+02  0.96585586387E+02  0.41800000000E+01 0. -1.
         -5    1    3    3    0  502 -0.30521262111E+02 -0.32170006122E+02 -0.24031000806E+02  0.50610454794E+02  0.41800000000E+01 0. -1.
        -11    1    4    4    0    0 -0.10315894069E+02 -0.32926382170E+02 -0.58565804202E+02  0.67974390288E+02  0.00000000000E+00 0.  1.
         11    1    4    4    0    0 -0.45120730262E+02  0.33347366607E+02 -0.40075549301E+01  0.56249334712E+02  0.00000000000E+00 0. -1.
</event>
<event>
 8    1  0.6832629E-009  0.1249047E+03  0.7561462E-02  0.1235218E+00
         -2   -1    0    0    0  501 -0.00000000000E+00  0.00000000000E+00  0.28627887417E+03  0.28627887417E+03  0.00000000000E+00 0.  1.
          2   -1    0    0  501    0  0.00000000000E+00 -0.00000000000E+00 -0.67333708352E+02  0.67333708352E+02  0.00000000000E+00 0. -1.
         25    2    1    2    0    0 -0.51974520444E+02 -0.52437295823E+02  0.17766019509E+03  0.22947821789E+03  0.12508431876E+03 0.  0.
         23    2    1    2    0    0  0.51974520444E+02  0.52437295823E+02  0.41284970732E+02  0.12413436463E+03  0.90850816753E+02 0.  0.
          5    1    3    3  502    0 -0.35671912904E+02 -0.93499645519E+02  0.11231416320E+03  0.15048791559E+03  0.41800000000E+01 0. -1.
         -5    1    3    3    0  502 -0.16302607540E+02  0.41062349695E+02  0.65346031883E+02  0.78990302303E+02  0.41800000000E+01 0. -1.
        -11    1    4    4    0    0  0.90014954497E+01 -0.19499180453E+02 -0.12224519305E+02  0.24712017945E+02  0.00000000000E+00 0. -1.
         11    1    4    4    0    0  0.42973024994E+02  0.71936476276E+02  0.53509490037E+02  0.99422346684E+02  0.00000000000E+00 0.  1.
</event>
<event>
 8    1  0.6832629E-009  0.9801737E+02  0.7561462E-02  0.1284521E+00
          1   -1    0    0  501    0  0.00000000000E+00  0.00000000000E+00  0.58496399571E+03  0.58496399571E+03  0.00000000000E+00 0. -1.
         -1   -1    0    0    0  501 -0.00000000000E+00 -0.00000000000E+00 -0.31829663626E+02  0.31829663626E+02  0.00000000000E+00 0.  1.
         25    2    1    2    0    0 -0.73874870996E+02  0.35308011846E+01  0.38233109038E+03  0.40901687569E+03  0.12509108205E+03 0.  0.
         23    2    1    2    0    0  0.73874870996E+02 -0.35308011846E+01  0.17080324170E+03  0.20777678364E+03  0.92344362702E+02 0.  0.
          5    1    3    3  502    0 -0.51173705461E+02 -0.86723862972E+01  0.37915554207E+03  0.38271445739E+03  0.41800000000E+01 0. -1.
         -5    1    3    3    0  502 -0.22701165534E+02  0.12203187482E+02  0.31755483084E+01  0.26302418299E+02  0.41800000000E+01 0. -1.
        -11    1    4    4    0    0 -0.20081403838E+02 -0.12201764879E+02  0.41760476910E+02  0.47917463184E+02  0.00000000000E+00 0.  1.
         11    1    4    4    0    0  0.93956274834E+02  0.86709636944E+01  0.12904276479E+03  0.15985932046E+03  0.00000000000E+00 0. -1.
</event>
<event>
 8    1  0.6832629E-009  0.1302446E+03  0.7561462E-02  0.1227093E+00
          2   -1    0    0  501    0  0.00000000000E+00  0.00000000000E+00  0.11919017304E+04  0.11919017304E+04  0.00000000000E+00 0. -1.
         -2   -1    0    0    0  501 -0.00000000000E+00 -0.00000000000E+00 -0.14857302877E+02  0.14857302877E+02  0.00000000000E+00 0.  1.
         25    2    1    2    0    0  0.30917190870E+02  0.67626674948E+02  0.69913487676E+03  0.71412041812E+03  0.12509658595E+03 0.  0.
         23    2    1    2    0    0 -0.30917190870E+02 -0.67626674948E+02  0.47790955076E+03  0.49263861516E+03  0.93627061138E+02 0.  0.
          5    1    3    3  502    0 -0.44396905541E+02  0.86485014670E+01  0.15096258410E+03  0.15764852044E+03  0.41800000000E+01 0.  1.
         -5    1    3    3    0  502  0.75314096411E+02  0.58978173481E+02  0.54817229266E+03  0.55647189767E+03  0.41800000000E+01 0.  1.
        -11    1    4    4    0    0  0.14453453929E+02 -0.72275526451E+02  0.27957956864E+03  0.28913213113E+03  0.00000000000E+00 0.  1.
         11    1    4    4    0    0 -0.45370644799E+02  0.46488515022E+01  0.19832998213E+03  0.20350648402E+03  0.00000000000E+00 0. -1.
</event>
<event>
 8    1  0.6832629E-009  0.1704385E+03  0.7561462E-02  0.1177391E+00
         -1   -1    0    0    0  501 -0.00000000000E+00  0.00000000000E+00  0.66963060294E+02  0.66963060294E+02  0.00000000000E+00 0.  1.
          1   -1    0    0  501    0  0.00000000000E+00 -0.00000000000E+00 -0.47609502158E+03  0.47609502158E+03  0.00000000000E+00 0. -1.
         25    2    1    2    0    0  0.63094801989E+02 -0.11536944480E+03 -0.13869096612E+03  0.22841603331E+03  0.12509051666E+03 0.  0.
         23    2    1    2    0    0 -0.63094801989E+02  0.11536944480E+03 -0.27044099517E+03  0.31464204856E+03  0.92575504454E+02 0.  0.
          5    1    3    3  502    0  0.10979286166E+02  0.27179121535E+02 -0.20742963797E+02  0.36152348738E+02  0.41800000000E+01 0.  1.
         -5    1    3    3    0  502  0.52115515823E+02 -0.14254856634E+03 -0.11794800232E+03  0.19226368457E+03  0.41800000000E+01 0.  1.
        -11    1    4    4    0    0 -0.54055949810E+02  0.11619625294E+02 -0.11409652204E+03  0.12678752992E+03  0.00000000000E+00 0.  1.
         11    1    4    4    0    0 -0.90388521784E+01  0.10374981951E+03 -0.15634447313E+03  0.18785451864E+03  0.00000000000E+00 0. -1.
</event>
<event>
 8    1  0.6832629E-009  0.2276950E+03  0.7561462E-02  0.1128273E+00
          1   -1    0    0  501    0  0.00000000000E+00  0.00000000000E+00  0.11421860243E+04  0.11421860243E+04  0.00000000000E+00 0. -1.
         -1   -1    0    0    0  501 -0.00000000000E+00 -0.00000000000E+00 -0.49267772978E+02  0.49267772978E+02  0.00000000000E+00 0.  1.
         25    2    1    2    0    0 -0.18309237653E+02 -0.20675166998E+03  0.65838032869E+03  0.70156526064E+03  0.12509067316E+03 0.  0.
         23    2    1    2    0    0  0.18309237653E+02  0.20675166998E+03  0.43453792259E+03  0.48988853659E+03  0.89922693991E+02 0.  0.
          5    1    3    3  502    0 -0.57380129061E+02 -0.88249844571E+02  0.19472037799E+03  0.22139108447E+03  0.41800000000E+01 0. -1.
         -5    1    3    3    0  502  0.39070891408E+02 -0.11850182541E+03  0.46365995070E+03  0.48017417618E+03  0.41800000000E+01 0. -1.
        -11    1    4    4    0    0  0.22068945080E+02  0.40227471810E+01  0.30898546308E+02  0.38182993541E+02  0.00000000000E+00 0.  1.
         11    1    4    4    0    0 -0.37597074273E+01  0.20272892280E+03  0.40363937628E+03  0.45170554305E+03  0.00000000000E+00 0. -1.
</event>
<event>
 8    1  0.6832629E-009  0.1025001E+03  0.7561462E-02  0.1275125E+00
         -3   -1    0    0    0  501 -0.00000000000E+00  0.00000000000E+00  0.41447011602E+02  0.41447011602E+02  0.00000000000E+00 0.  1.
          3   -1    0    0  501    0  0.00000000000E+00 -0.00000000000E+00 -0.37442058828E+03  0.37442058828E+03  0.00000000000E+00 0. -1.
         25    2    1    2    0    0  0.11216600015E+02  0.40399161943E+02 -0.11110406308E+03  0.17247960767E+03  0.12508875980E+03 0.  0.
         23    2    1    2    0    0 -0.11216600015E+02 -0.40399161943E+02 -0.22186951359E+03  0.24338799221E+03  0.90850037355E+02 0.  0.
          5    1    3    3  502    0  0.67738073635E+01 -0.45259385115E+02 -0.35571914149E+02  0.58113078419E+02  0.41800000000E+01 0.  1.
         -5    1    3    3    0  502  0.44427926514E+01  0.85658547058E+02 -0.75532148936E+02  0.11436652925E+03  0.41800000000E+01 0.  1.
        -11    1    4    4    0    0 -0.19014985986E+02 -0.54134003887E+02 -0.22014571082E+03  0.22749987706E+03  0.00000000000E+00 0. -1.
         11    1    4    4    0    0  0.77983859708E+01  0.13734841944E+02 -0.17238027707E+01  0.15888115148E+02  0.00000000000E+00 0.  1.
</event>
<event>
 8    1  0.6832629E-009  0.1572442E+03  0.7561462E-02  0.1191844E+00
          3   -1    0    0  501    0  0.00000000000E+00  0.00000000000E+00  0.90275051005E+02  0.90275051005E+02  0.00000000000E+00 0. -1.
         -3   -1    0    0    0  501 -0.00000000000E+00 -0.00000000000E+00 -0.47178892132E+03  0.47178892132E+03  0.00000000000E+00 0.  1.
         25    2    1    2    0    0  0.48359192763E+02 -0.11644276937E+03 -0.33725680826E+02  0.18078162264E+03  0.12508814282E+03 0.  0.
         23    2    1    2    0    0 -0.48359192763E+02  0.11644276937E+03 -0.34778818949E+03  0.38128234969E+03  0.92315087451E+02 0.  0.
          5    1    3    3  502    0 -0.35061270933E+02 -0.33056669727E+02 -0.39746204410E+02  0.62604067742E+02  0.41800000000E+01 0.  1.
         -5    1    3    3    0  502  0.83420463696E+02 -0.83386099644E+02  0.60205235839E+01  0.11817755490E+03  0.41800000000E+01 0.  1.
        -11    1    4    4    0    0 -0.13584942661E+02 -0.10057651799E+02 -0.94856227293E+02  0.96350458655E+02  0.00000000000E+00 0.  1.
         11    1    4    4    0    0 -0.34774250102E+02  0.12650042117E+03 -0.25293196220E+03  0.28493189103E+03  0.00000000000E+00 0. -1.
</event>
<event>
 8    1  0.6832629E-009  0.1255547E+03  0.7561462E-02  0.1234205E+00
          1   -1    0    0  501    0  0.00000000000E+00  0.00000000000E+00  0.11994025610E+03  0.11994025610E+03  0.00000000000E+00 0. -1.
         -1   -1    0    0    0  501 -0.00000000000E+00 -0.00000000000E+00 -0.23473135409E+03  0.23473135409E+03  0.00000000000E+00 0.  1.
         25    2    1    2    0    0 -0.10861948256E+03 -0.43028132391E+02 -0.11490683680E+03  0.20615580142E+03  0.12508805357E+03 0.  0.
         23    2    1    2    0    0  0.10861948256E+03  0.43028132391E+02  0.11573880548E+00  0.14851580878E+03  0.91691438503E+02 0.  0.
          5    1    3    3  502    0 -0.20847151374E+02 -0.85976035011E+01 -0.10922672450E+03  0.11160856710E+03  0.41800000000E+01 0. -1.
         -5    1    3    3    0  502 -0.87772331181E+02 -0.34430528890E+02 -0.56801123010E+01  0.94547234314E+02  0.41800000000E+01 0. -1.
        -11    1    4    4    0    0 -0.13943156493E+01 -0.11101702267E+02 -0.21290684695E+02  0.24051718528E+02  0.00000000000E+00 0.  1.
         11    1    4    4    0    0  0.11001379820E+03  0.54129834658E+02  0.21406423501E+02  0.12446409025E+03  0.00000000000E+00 0. -1.
</event>
<event>
 8    1  0.6832629E-009  0.2227972E+03  0.7561462E-02  0.1131815E+00
         -2   -1    0    0    0  501 -0.00000000000E+00  0.00000000000E+00  0.29377498590E+02  0.29377498590E+02  0.00000000000E+00 0.  1.
          2   -1    0    0  501    0  0.00000000000E+00 -0.00000000000E+00 -0.17888487240E+04  0.17888487240E+04  0.00000000000E+00 0. -1.
         25    2    1    2    0    0 -0.11021965453E+03 -0.15747486800E+03 -0.69537763889E+03  0.73221826119E+03  0.12508722977E+03 0.  0.
         23    2    1    2    0    0  0.11021965453E+03  0.15747486800E+03 -0.10640935865E+04  0.10860079614E+04  0.10085348316E+03 0.  0.
          5    1    3    3  502    0  0.21376179831E+02  0.26139615744E+01 -0.59888771593E+02  0.63780178914E+02  0.41800000000E+01 0.  1.
         -5    1    3    3    0  502 -0.13159583436E+03 -0.16008882957E+03 -0.63548886730E+03  0.66843808227E+03  0.41800000000E+01 0.  1.
        -11    1    4    4    0    0  0.61327455320E+01  0.94556648905E+02 -0.50920423790E+03  0.51794548585E+03  0.00000000000E+00 0. -1.
         11    1    4    4    0    0  0.10408690899E+03  0.62918219095E+02 -0.55488934865E+03  0.56806247558E+03  0.00000000000E+00 0.  1.
</event>
<event>
 8    1  0.6832629E-009  0.1385739E+03  0.7561462E-02  0.1215261E+00
          2   -1    0    0  501    0  0.00000000000E+00  0.00000000000E+00  0.47818516894E+02  0.47818516894E+02  0.00000000000E+00 0.  1.
         -2   -1    0    0    0  501 -0.00000000000E+00 -0.00000000000E+00 -0.64663876980E+03  0.64663876980E+03  0.00000000000E+00 0. -1.
         25    2    1    2    0    0 -0.45290135504E+02 -0.82320529977E+02 -0.51844973023E+03  0.54154004474E+03  0.12509049226E+03 0.  0.
         23    2    1    2    0    0  0.45290135504E+02  0.82320529977E+02 -0.80370522673E+02  0.15291724195E+03  0.89979975222E+02 0.  0.
          5    1    3    3  502    0  0.24018187441E+02  0.17536894697E+02 -0.16600855552E+03  0.16870307914E+03  0.41800000000E+01 0.  1.
         -5    1    3    3    0  502 -0.69308322945E+02 -0.99857424674E+02 -0.35244117471E+03  0.37283696561E+03  0.41800000000E+01 0.  1.
        -11    1    4    4    0    0  0.69322722184E+02  0.51245949940E+02 -0.35367839764E+02  0.93180852571E+02  0.00000000000E+00 0.  1.
         11    1    4    4    0    0 -0.24032586679E+02  0.31074580036E+02 -0.45002682909E+02  0.59736389378E+02  0.00000000000E+00 0. -1.
</event>
<event>
 8    1  0.6832629E-009  0.1092935E+03  0.7561462E-02  0.1261884E+00
          2   -1    0    0  501    0  0.00000000000E+00  0.00000000000E+00  0.11153720662E+04  0.11153720662E+04  0.00000000000E+00 0. -1.
         -2   -1    0    0    0  501 -0.00000000000E+00 -0.00000000000E+00 -0.12023293490E+02  0.12023293490E+02  0.00000000000E+00 0.  1.
         25    2    1    2    0    0 -0.36743330340E+02  0.15127494953E+02  0.70645516525E+03  0.71854310982E+03  0.12508551771E+03 0.  0.
         23    2    1    2    0    0  0.36743330340E+02 -0.15127494953E+02  0.39689360742E+03  0.40885224982E+03  0.89759195334E+02 0.  0.
          5    1    3    3  502    0 -0.51199931260E+02 -0.42590736555E+02  0.27478624377E+03  0.28277262238E+03  0.41800000000E+01 0.  1.
         -5    1    3    3    0  502  0.14456600920E+02  0.57718231508E+02  0.43166892147E+03  0.43577048744E+03  0.41800000000E+01 0.  1.
        -11    1    4    4    0    0 -0.22733708570E+02  0.13245885296E+02  0.59120766303E+02  0.64711204523E+02  0.00000000000E+00 0.  1.
         11    1    4    4    0    0  0.59477038910E+02 -0.28373380249E+02  0.33777284111E+03  0.34414104530E+03  0.00000000000E+00 0. -1.
</event>
<event>
 8    1  0.6832629E-009  0.4680422E+02  0.7561462E-02  0.1463383E+00
         -2   -1    0    0    0  501 -0.00000000000E+00  0.00000000000E+00  0.51651192634E+03  0.51651192634E+03  0.00000000000E+00 0.  1.
          2   -1    0    0  501    0  0.00000000000E+00 -0.00000000000E+00 -0.22491337989E+02  0.22491337989E+02  0.00000000000E+00 0. -1.
         25    2    1    2    0    0  0.14310211646E+02 -0.23854498984E+01  0.33139123701E+03  0.35451171879E+03  0.12509170341E+03 0.  0.
         23    2    1    2    0    0 -0.14310211646E+02  0.23854498984E+01  0.16262935134E+03  0.18449154554E+03  0.85897333664E+02 0.  0.
          5    1    3    3  502    0  0.84484176280E+01 -0.80595701029E+01 -0.81543303989E+01  0.14842436960E+02  0.41800000000E+01 0.  1.
         -5    1    3    3    0  502  0.58617940175E+01  0.56741202045E+01  0.33954556741E+03  0.33966928183E+03  0.41800000000E+01 0.  1.
        -11    1    4    4    0    0 -0.41488632625E+02 -0.91980067208E+01  0.14260187558E+03  0.14879920996E+03  0.00000000000E+00 0.  1.
         11    1    4    4    0    0  0.27178420979E+02  0.11583456619E+02  0.20027475757E+02  0.35692335583E+02  0.00000000000E+00 0. -1.
</event>
<event>
 8    1  0.6832629E-009  0.1712294E+03  0.7561462E-02  0.1176572E+00
         -2   -1    0    0    0  501 -0.00000000000E+00  0.00000000000E+00  0.84125002019E+02  0.84125002019E+02  0.00000000000E+00 0. -1.
          2   -1    0    0  501    0  0.00000000000E+00 -0.00000000000E+00 -0.47380890518E+03  0.47380890518E+03  0.00000000000E+00 0.  1.
         25    2    1    2    0    0 -0.75616131014E+02 -0.13099149662E+03 -0.11368872523E+03  0.22682404777E+03  0.12508977154E+03 0.  0.
         23    2    1    2    0    0  0.75616131014E+02  0.13099149662E+03 -0.27599517793E+03  0.33110985943E+03  0.10287773965E+03 0.  0.
          5    1    3    3  502    0 -0.80419891121E+02 -0.10203812494E+03 -0.23767363092E+02  0.13214196070E+03  0.41800000000E+01 0. -1.
         -5    1    3    3    0  502  0.48037601067E+01 -0.28953371679E+02 -0.89921362136E+02  0.94682087066E+02  0.41800000000E+01 0. -1.
        -11    1    4    4    0    0  0.99518065560E+02  0.12163378889E+03 -0.23342517749E+03  0.28139995995E+03  0.00000000000E+00 0. -1.
         11    1    4    4    0    0 -0.23901934546E+02  0.93577077279E+01 -0.42570000441E+02  0.49709899482E+02  0.00000000000E+00 0.  1.
</event>
<event>
 8    1  0.6832629E-009  0.3103140E+03  0.7561462E-02  0.1080195E+00
         -2   -1    0    0    0  501 -0.00000000000E+00  0.00000000000E+00  0.38044118104E+02  0.38044118104E+02  0.00000000000E+00 0.  1.
          2   -1    0    0  501    0  0.00000000000E+00 -0.00000000000E+00 -0.34321381998E+04  0.34321381998E+04  0.00000000000E+00 0. -1.
         25    2    1    2    0    0 -0.18996644729E+03 -0.23107028220E+03 -0.25483357386E+04  0.25688797389E+04  0.12508936926E+03 0.  0.
         23    2    1    2    0    0  0.18996644729E+03  0.23107028220E+03 -0.84575834313E+03  0.90130257896E+03  0.86939274487E+02 0.  0.
          5    1    3    3  502    0 -0.19820554307E+03 -0.17430618357E+03 -0.19501226138E+04  0.19679084745E+04  0.41800000000E+01 0. -1.
         -5    1    3    3    0  502  0.82390957767E+01 -0.56764098628E+02 -0.59821312479E+03  0.60097126443E+03  0.41800000000E+01 0. -1.
        -11    1    4    4    0    0  0.86506050834E+02  0.10409991909E+03 -0.51104371870E+03  0.52866413951E+03  0.00000000000E+00 0.  1.
         11    1    4    4    0    0  0.10346039646E+03  0.12697036311E+03 -0.33471462443E+03  0.37263843945E+03  0.00000000000E+00 0. -1.
</event>
<event>
 8    1  0.6832629E-009  0.1263218E+03  0.7561462E-02  0.1233018E+00
         -2   -1    0    0    0  501 -0.00000000000E+00  0.00000000000E+00  0.61322742100E+03  0.61322742100E+03  0.00000000000E+00 0. -1.
          2   -1    0    0  501    0  0.00000000000E+00 -0.00000000000E+00 -0.35411035355E+02  0.35411035355E+02  0.00000000000E+00 0.  1.
         25    2    1    2    0    0  0.73441806010E+02 -0.64718433886E+02  0.36200069392E+03  0.39531593416E+03  0.12509200952E+03 0.  0.
         23    2    1    2    0    0 -0.73441806010E+02  0.64718433886E+02  0.21581569173E+03  0.25332252220E+03  0.89519343733E+02 0.  0.
          5    1    3    3  502    0  0.86093277320E+02 -0.47656196171E+02  0.13406877654E+03  0.16635827204E+03  0.41800000000E+01 0.  1.
         -5    1    3    3    0  502 -0.12651471310E+02 -0.17062237715E+02  0.22793191738E+03  0.22895766212E+03  0.41800000000E+01 0.  1.
        -11    1    4    4    0    0 -0.48067664651E+02  0.86568384343E+02  0.15599247241E+03  0.18476535661E+03  0.00000000000E+00 0.  1.
         11    1    4    4    0    0 -0.25374141359E+02 -0.21849950457E+02  0.59823219313E+02  0.68557165589E+02  0.00000000000E+00 0. -1.
</event>
<event>
 8    1  0.6832629E-009  0.6361634E+02  0.7561462E-02  0.1383253E+00
          1   -1    0    0  501    0  0.00000000000E+00  0.00000000000E+00  0.33703957640E+03  0.33703957640E+03  0.00000000000E+00 0. -1.
         -1   -1    0    0    0  501 -0.00000000000E+00 -0.00000000000E+00 -0.40173240020E+02  0.40173240020E+02  0.00000000000E+00 0.  1.
         25    2    1    2    0    0 -0.29966604197E+02  0.31920876796E+02  0.15483221880E+03  0.20380841096E+03  0.12509161705E+03 0.  0.
         23    2    1    2    0    0  0.29966604197E+02 -0.31920876796E+02  0.14203411758E+03  0.17340440546E+03  0.89322211876E+02 0.  0.
          5    1    3    3  502    0 -0.15471267072E+02  0.17359352202E+02 -0.18004692532E+02  0.29704352659E+02  0.41800000000E+01 0.  1.
         -5    1    3    3    0  502 -0.14495337125E+02  0.14561524594E+02  0.17283691133E+03  0.17410405830E+03  0.41800000000E+01 0.  1.
        -11    1    4    4    0    0  0.16063401687E+02 -0.54115853596E+02  0.42988614737E+02  0.70954770673E+02  0.00000000000E+00 0.  1.
         11    1    4    4    0    0  0.13903202511E+02  0.22194976800E+02  0.99045502841E+02  0.10244963479E+03  0.00000000000E+00 0. -1.
</event>
<event>
 8    1  0.6832629E-009  0.1279210E+03  0.7561462E-02  0.1230574E+00
          2   -1    0    0  501    0  0.00000000000E+00  0.00000000000E+00  0.25955277084E+03  0.25955277084E+03  0.00000000000E+00 0. -1.
         -2   -1    0    0    0  501 -0.00000000000E+00 -0.00000000000E+00 -0.67784756121E+02  0.67784756121E+02  0.00000000000E+00 0.  1.
         25    2    1    2    0    0  0.12898217445E+01 -0.70792372037E+02  0.76128865287E+02  0.16265390164E+03  0.12508982377E+03 0.  0.
         23    2    1    2    0    0 -0.12898217445E+01  0.70792372037E+02  0.11563914943E+03  0.16468362532E+03  0.93461542835E+02 0.  0.
          5    1    3    3  502    0 -0.52160987732E+02 -0.15894654735E+01  0.47109958061E+02  0.70428088077E+02  0.41800000000E+01 0.  1.
         -5    1    3    3    0  502  0.53450809477E+02 -0.69202906564E+02  0.29018907227E+02  0.92225813563E+02  0.41800000000E+01 0.  1.
        -11    1    4    4    0    0 -0.46212995873E+02  0.42993705709E+02  0.50635276256E+02  0.80919904348E+02  0.00000000000E+00 0. -1.
         11    1    4    4    0    0  0.44923174129E+02  0.27798666328E+02  0.65003873179E+02  0.83763720976E+02  0.00000000000E+00 0.  1.
</event>
<event>
 8    1  0.6832629E-009  0.1285192E+03  0.7561462E-02  0.1229670E+00
          1   -1    0    0  501    0  0.00000000000E+00  0.00000000000E+00  0.50203423016E+03  0.50203423016E+03  0.00000000000E+00 0. -1.
         -1   -1    0    0    0  501 -0.00000000000E+00 -0.00000000000E+00 -0.45222799460E+02  0.45222799460E+02  0.00000000000E+00 0.  1.
         25    2    1    2    0    0  0.32834568556E+00  0.95885109762E+02  0.31974623765E+03  0.35648366020E+03  0.12509548919E+03 0.  0.
         23    2    1    2    0    0 -0.32834568556E+00 -0.95885109762E+02  0.13706519305E+03  0.19077336942E+03  0.91725401322E+02 0.  0.
          5    1    3    3  502    0 -0.55128141916E+02  0.15284673317E+02  0.14884848189E+03  0.15951826300E+03  0.41800000000E+01 0.  1.
         -5    1    3    3    0  502  0.55456487602E+02  0.80600436445E+02  0.17089775576E+03  0.19696539721E+03  0.41800000000E+01 0.  1.
        -11    1    4    4    0    0 -0.12037817638E+02 -0.84728853236E+02  0.14820203947E+03  0.17113658910E+03  0.00000000000E+00 0. -1.
         11    1    4    4    0    0  0.11709471953E+02 -0.11156256526E+02 -0.11136846421E+02  0.19636780319E+02  0.00000000000E+00 0.  1.
</event>
<event>
 8    1  0.6832629E-009  0.1080832E+03  0.7561462E-02  0.1264161E+00
         -2   -1    0    0    0  501 -0.00000000000E+00  0.00000000000E+00  0.15711607989E+03  0.15711607989E+03  0.00000000000E+00 0.  1.
          2   -1    0    0  501    0  0.00000000000E+00 -0.00000000000E+00 -0.12159040490E+03  0.12159040490E+03  0.00000000000E+00 0. -1.
         25    2    1    2    0    0  0.70093944486E+02 -0.82652083687E+01  0.64779870969E+02  0.15756201024E+03  0.12509148918E+03 0.  0.
         23    2    1    2    0    0 -0.70093944486E+02  0.82652083687E+01 -0.29254195978E+02  0.12114447455E+03  0.94014365965E+02 0.  0.
          5    1    3    3  502    0  0.75511332349E+02  0.13163706199E+02 -0.11872806327E+02  0.77676768754E+02  0.41800000000E+01 0.  1.
         -5    1    3    3    0  502 -0.54173878623E+01 -0.21428914567E+02  0.76652677297E+02  0.79885241488E+02  0.41800000000E+01 0.  1.
        -11    1    4    4    0    0 -0.73402709943E+02 -0.29418754534E+02 -0.13766749689E+02  0.80267953395E+02  0.00000000000E+00 0.  1.
         11    1    4    4    0    0  0.33087654565E+01  0.37683962902E+02 -0.15487446290E+02  0.40876521152E+02  0.00000000000E+00 0. -1.
</event>
<event>
 8    1  0.6832629E-009  0.5925403E+02  0.7561462E-02  0.1400989E+00
          1   -1    0    0  501    0  0.00000000000E+00  0.00000000000E+00  0.38088368724E+03  0.38088368724E+03  0.00000000000E+00 0. -1.
         -1   -1    0    0    0  501 -0.00000000000E+00 -0.00000000000E+00 -0.31886189147E+02  0.31886189147E+02  0.00000000000E+00 0.  1.
         25    2    1    2    0    0 -0.58218025430E+01  0.20095511808E+02  0.21618266266E+03  0.25063538938E+03  0.12508170047E+03 0.  0.
         23    2    1    2    0    0  0.58218025430E+01 -0.20095511808E+02  0.13281483543E+03  0.16213448701E+03  0.90609538065E+02 0.  0.
          5    1    3    3  502    0  0.11187028834E+02  0.36345059544E+02  0.22262661267E+03  0.22588978294E+03  0.41800000000E+01 0. -1.
         -5    1    3    3    0  502 -0.17008831377E+02 -0.16249547736E+02 -0.64439500029E+01  0.24745606440E+02  0.41800000000E+01 0. -1.
        -11    1    4    4    0    0 -0.23190075595E+02 -0.52803617104E+01 -0.15914994073E+01  0.23836834862E+02  0.00000000000E+00 0.  1.
         11    1    4    4    0    0  0.29011878138E+02 -0.14815150097E+02  0.13440633483E+03  0.13829765215E+03  0.00000000000E+00 0. -1.
</event>
<event>
 8    1  0.6832629E-009  0.1429063E+03  0.7561462E-02  0.1209471E+00
          3   -1    0    0  501    0  0.00000000000E+00  0.00000000000E+00  0.18474109339E+04  0.18474109339E+04  0.00000000000E+00 0. -1.
         -3   -1    0    0    0  501 -0.00000000000E+00 -0.00000000000E+00 -0.15377179224E+02  0.15377179224E+02  0.00000000000E+00 0.  1.
         25    2    1    2    0    0 -0.74540311423E+02 -0.74694044445E+02  0.13816841868E+04  0.13913426953E+04  0.12509134815E+03 0.  0.
         23    2    1    2    0    0  0.74540311423E+02  0.74694044445E+02  0.45034956787E+03  0.47144541782E+03  0.91162439676E+02 0.  0.
          5    1    3    3  502    0  0.23367344622E+02 -0.39393896468E+02  0.20692777539E+03  0.21197756604E+03  0.41800000000E+01 0. -1.
         -5    1    3    3    0  502 -0.97907656045E+02 -0.35300147977E+02  0.11747564114E+04  0.11793651293E+04  0.41800000000E+01 0. -1.
        -11    1    4    4    0    0 -0.18854161661E+02  0.62275247020E+01  0.34844325501E+02  0.40104719117E+02  0.00000000000E+00 0.  1.
         11    1    4    4    0    0  0.93394473084E+02  0.68466519743E+02  0.41550524236E+03  0.43134069871E+03  0.00000000000E+00 0. -1.
</event>
<event>
 8    1  0.6832629E-009  0.8306184E+02  0.7561462E-02  0.1320580E+00
          3   -1    0    0  501    0  0.00000000000E+00  0.00000000000E+00  0.11218799893E+03  0.11218799893E+03  0.00000000000E+00 0. -1.
         -3   -1    0    0    0  501 -0.00000000000E+00 -0.00000000000E+00 -0.12586059673E+03  0.12586059673E+03  0.00000000000E+00 0.  1.
         25    2    1    2    0    0 -0.40264757571E+02  0.94862443670E+01  0.15233386404E+02  0.13261733648E+03  0.12507622612E+03 0.  0.
         23    2    1    2    0    0  0.40264757571E+02 -0.94862443670E+01 -0.28905984204E+02  0.10543125918E+03  0.92568649954E+02 0.  0.
          5    1    3    3  502    0 -0.60398785709E+02 -0.23447530662E+02 -0.31247803538E+02  0.72053435971E+02  0.41800000000E+01 0. -1.
         -5    1    3    3    0  502  0.20134028138E+02  0.32933775029E+02  0.46481189943E+02  0.60563900512E+02  0.41800000000E+01 0. -1.
        -11    1    4    4    0    0  0.14285272770E+02  0.19030653999E+02 -0.54273864158E+02  0.59261177346E+02  0.00000000000E+00 0.  1.
         11    1    4    4    0    0  0.25979484801E+02 -0.28516898366E+02  0.25367879954E+02  0.46170081831E+02  0.00000000000E+00 0. -1.
</event>
<event>
 8    1  0.6832629E-009  0.1070588E+03  0.7561462E-02  0.1266116E+00
          1   -1    0    0  501    0  0.00000000000E+00  0.00000000000E+00  0.48167977161E+03  0.48167977161E+03  0.00000000000E+00 0. -1.
         -1   -1    0    0    0  501 -0.00000000000E+00 -0.00000000000E+00 -0.31180239725E+02  0.31180239725E+02  0.00000000000E+00 0.  1.
         25    2    1    2    0    0 -0.58412994856E+02 -0.20143335539E+02  0.21276446711E+03  0.25442723801E+03  0.12508664615E+03 0.  0.
         23    2    1    2    0    0  0.58412994856E+02  0.20143335539E+02  0.23773506477E+03  0.25843277332E+03  0.80322508472E+02 0.  0.
          5    1    3    3  502    0 -0.79260188519E+01  0.37089507541E+02  0.12627429675E+02  0.40191761901E+02  0.41800000000E+01 0. -1.
         -5    1    3    3    0  502 -0.50486976004E+02 -0.57232843081E+02  0.20013703743E+03  0.21423547611E+03  0.41800000000E+01 0. -1.
        -11    1    4    4    0    0 -0.18950186593E+02  0.10221656320E+02  0.33625360288E+02  0.39928144013E+02  0.00000000000E+00 0. -1.
         11    1    4    4    0    0  0.77363181449E+02  0.99216792192E+01  0.20410970449E+03  0.21850462930E+03  0.00000000000E+00 0.  1.
</event>
<event>
 8    1  0.6832629E-009  0.2121526E+03  0.7561462E-02  0.1139873E+00
         -2   -1    0    0    0  501 -0.00000000000E+00  0.00000000000E+00  0.64599450772E+03  0.64599450772E+03  0.00000000000E+00 0. -1.
          2   -1    0    0  501    0  0.00000000000E+00 -0.00000000000E+00 -0.85894517568E+02  0.85894517568E+02  0.00000000000E+00 0.  1.
         25    2    1    2    0    0  0.11441369140E+03  0.17267192867E+03  0.24522299118E+03  0.34451068682E+03  0.12508880924E+03 0.  0.
         23    2    1    2    0    0 -0.11441369140E+03 -0.17267192867E+03  0.31487699897E+03  0.38737833847E+03  0.89489468116E+02 0.  0.
          5    1    3    3  502    0 -0.11267654563E+01  0.31286228266E+02  0.11742797579E+03  0.12160139628E+03  0.41800000000E+01 0. -1.
         -5    1    3    3    0  502  0.11554045686E+03  0.14138570041E+03  0.12779501540E+03  0.22290929054E+03  0.41800000000E+01 0. -1.
        -11    1    4    4    0    0 -0.28025094799E+02 -0.72930749466E+02  0.53834173726E+02  0.94881075125E+02  0.00000000000E+00 0.  1.
         11    1    4    4    0    0 -0.86388596603E+02 -0.99741179205E+02  0.26104282524E+03  0.29249726334E+03  0.00000000000E+00 0. -1.
</event>
<event>
 8    1  0.6832629E-009  0.1280044E+03  0.7561462E-02  0.1230447E+00
         -2   -1    0    0    0  501 -0.00000000000E+00  0.00000000000E+00  0.12555457588E+03  0.12555457588E+03  0.00000000000E+00 0.  1.
          2   -1    0    0  501    0  0.00000000000E+00 -0.00000000000E+00 -0.14582010723E+03  0.14582010723E+03  0.00000000000E+00 0. -1.
         25    2    1    2    0    0 -0.31745292771E+02  0.69847589538E+02  0.12323254975E+02  0.14726215242E+03  0.12509128485E+03 0.  0.
         23    2    1    2    0    0  0.31745292771E+02 -0.69847589538E+02 -0.32588786317E+02  0.12411253069E+03  0.91953476838E+02 0.  0.
          5    1    3    3  502    0 -0.37282953598E+02 -0.26094341232E+02  0.21746069358E+02  0.50609260080E+02  0.41800000000E+01 0.  1.
         -5    1    3    3    0  502  0.55376608265E+01  0.95941930770E+02 -0.94228143834E+01  0.96652892343E+02  0.41800000000E+01 0.  1.
        -11    1    4    4    0    0  0.24513215282E+02  0.15146998308E+02 -0.25566251682E+02  0.38522233921E+02  0.00000000000E+00 0.  1.
         11    1    4    4    0    0  0.72320774898E+01 -0.84994587846E+02 -0.70225346351E+01  0.85590296767E+02  0.00000000000E+00 0. -1.
</event>
<event>
 8    1  0.6832629E-009  0.1120923E+03  0.7561462E-02  0.1256744E+00
         -4   -1    0    0    0  501 -0.00000000000E+00  0.00000000000E+00  0.90909386211E+02  0.90909386211E+02  0.00000000000E+00 0.  1.
          4   -1    0    0  501    0  0.00000000000E+00 -0.00000000000E+00 -0.18367210917E+03  0.18367210917E+03  0.00000000000E+00 0. -1.
         25    2    1    2    0    0 -0.18091287433E+02 -0.38643357412E+02 -0.10963130649E+03  0.17171854416E+03  0.12509049241E+03 0.  0.
         23    2    1    2    0    0  0.18091287433E+02  0.38643357412E+02  0.16868583536E+02  0.10286295122E+03  0.92063205848E+02 0.  0.
          5    1    3    3  502    0 -0.43695199867E+02  0.29393414522E+02 -0.73273135832E+02  0.90330881448E+02  0.41800000000E+01 0.  1.
         -5    1    3    3    0  502  0.25603912434E+02 -0.68036771934E+02 -0.36358170663E+02  0.81387662708E+02  0.41800000000E+01 0.  1.
        -11    1    4    4    0    0  0.93283668487E+01 -0.28933245837E+02  0.16773826703E+02  0.34720489700E+02  0.00000000000E+00 0. -1.
         11    1    4    4    0    0  0.87629205841E+01  0.67576603249E+02  0.94756833162E-01  0.68142461525E+02  0.00000000000E+00 0.  1.
</event>
<event>
 8    1  0.6832629E-009  0.2201437E+03  0.7561462E-02  0.1133776E+00
         -2   -1    0    0    0  501 -0.00000000000E+00  0.00000000000E+00  0.31965302749E+03  0.31965302749E+03  0.00000000000E+00 0.  1.
          2   -1    0    0  501    0  0.00000000000E+00 -0.00000000000E+00 -0.30433387362E+03  0.30433387362E+03  0.00000000000E+00 0. -1.
         25    2    1    2    0    0  0.93953669125E+01  0.21943931590E+03 -0.18535105005E+03  0.31343787148E+03  0.12508557568E+03 0.  0.
         23    2    1    2    0    0 -0.93953669125E+01 -0.21943931590E+03  0.20067020392E+03  0.31054902963E+03  0.89052135178E+02 0.  0.
          5    1    3    3  502    0 -0.57018435894E+01  0.52557423291E+02 -0.12414463178E+03  0.13499687316E+03  0.41800000000E+01 0.  1.
         -5    1    3    3    0  502  0.15097210502E+02  0.16688189261E+03 -0.61206418268E+02  0.17844099832E+03  0.41800000000E+01 0.  1.
        -11    1    4    4    0    0 -0.45731855605E+01 -0.10012711708E+03  0.34661239091E+02  0.10605543407E+03  0.00000000000E+00 0.  1.
         11    1    4    4    0    0 -0.48221813520E+01 -0.11931219882E+03  0.16600896483E+03  0.20449359556E+03  0.00000000000E+00 0. -1.
</event>
<event>
 8    1  0.6832629E-009  0.1069053E+03  0.7561462E-02  0.1266411E+00
          2   -1    0    0  501    0  0.00000000000E+00  0.00000000000E+00  0.29612971220E+03  0.29612971220E+03  0.00000000000E+00 0. -1.
         -2   -1    0    0    0  501 -0.00000000000E+00 -0.00000000000E+00 -0.45681060563E+02  0.45681060563E+02  0.00000000000E+00 0.  1.
         25    2    1    2    0    0 -0.36707160512E+02  0.17393002755E+02  0.12669211666E+03  0.18261684898E+03  0.12509232163E+03 0.  0.
         23    2    1    2    0    0  0.36707160512E+02 -0.17393002755E+02  0.12375653498E+03  0.15919392378E+03  0.91526461977E+02 0.  0.
          5    1    3    3  502    0 -0.69798993896E+02  0.36298681438E+02  0.41167710151E+02  0.88891768922E+02  0.41800000000E+01 0. -1.
         -5    1    3    3    0  502  0.33091833384E+02 -0.18905678683E+02  0.85524406505E+02  0.93725080054E+02  0.41800000000E+01 0. -1.
        -11    1    4    4    0    0 -0.86488030134E+01 -0.43501144098E+02  0.36471816983E+02  0.57422510964E+02  0.00000000000E+00 0.  1.
         11    1    4    4    0    0  0.45355963525E+02  0.26108141343E+02  0.87284717995E+02  0.10177141282E+03  0.00000000000E+00 0. -1.
</event>
<event>
 8    1  0.6832629E-009  0.3928182E+03  0.7561462E-02  0.1046295E+00
          2   -1    0    0  501    0  0.00000000000E+00  0.00000000000E+00  0.12553844811E+04  0.12553844811E+04  0.00000000000E+00 0.  1.
         -2   -1    0    0    0  501 -0.00000000000E+00 -0.00000000000E+00 -0.13206243903E+03  0.13206243903E+03  0.00000000000E+00 0. -1.
         25    2    1    2    0    0 -0.24683751425E+03  0.30102423933E+03  0.65142952735E+03  0.76912438175E+03  0.12509010514E+03 0.  0.
         23    2    1    2    0    0  0.24683751425E+03 -0.30102423933E+03  0.47189251474E+03  0.61832253840E+03  0.89977024383E+02 0.  0.
          5    1    3    3  502    0 -0.75239653787E+02  0.14118207603E+03  0.16928012054E+03  0.23295196008E+03  0.41800000000E+01 0.  1.
         -5    1    3    3    0  502 -0.17159786046E+03  0.15984216330E+03  0.48214940680E+03  0.53617242167E+03  0.41800000000E+01 0.  1.
        -11    1    4    4    0    0  0.51135072889E+02 -0.40597140956E+02  0.13348738820E+03  0.14859948298E+03  0.00000000000E+00 0.  1.
         11    1    4    4    0    0  0.19570244136E+03 -0.26042709838E+03  0.33840512654E+03  0.46972305542E+03  0.00000000000E+00 0. -1.
</event>
<event>
 8    1  0.6832629E-009  0.7422713E+02  0.7561462E-02  0.1346281E+00
          4   -1    0    0  501    0  0.00000000000E+00  0.00000000000E+00  0.22336710960E+03  0.22336710960E+03  0.00000000000E+00 0. -1.
         -4   -1    0    0    0  501 -0.00000000000E+00 -0.00000000000E+00 -0.53169637333E+02  0.53169637333E+02  0.00000000000E+00 0.  1.
         25    2    1    2    0    0  0.40728178422E+01  0.42770267975E+01  0.11226139874E+03  0.16818025330E+03  0.12508834938E+03 0.  0.
         23    2    1    2    0    0 -0.40728178422E+01 -0.42770267975E+01  0.57936073531E+02  0.10835649364E+03  0.91376475604E+02 0.  0.
          5    1    3    3  502    0  0.26373924143E+01  0.40109948827E+02 -0.92161953038E+01  0.41450868381E+02  0.41800000000E+01 0.  1.
         -5    1    3    3    0  502  0.14354254279E+01 -0.35832922030E+02  0.12147759404E+03  0.12672938492E+03  0.41800000000E+01 0.  1.
        -11    1    4    4    0    0  0.24449933869E+02 -0.26293677847E+02  0.62457437815E+02  0.72042267450E+02  0.00000000000E+00 0.  1.
         11    1    4    4    0    0 -0.28522751711E+02  0.22016651049E+02 -0.45213642838E+01  0.36314226187E+02  0.00000000000E+00 0. -1.
</event>
<event>
 8    1  0.6832629E-009  0.1140456E+03  0.7561462E-02  0.1253256E+00
         -2   -1    0    0    0  501 -0.00000000000E+00  0.00000000000E+00  0.23507050470E+02  0.23507050470E+02  0.00000000000E+00 0.  1.
          2   -1    0    0  501    0  0.00000000000E+00 -0.00000000000E+00 -0.57019711181E+03  0.57019711181E+03  0.00000000000E+00 0. -1.
         25    2    1    2    0    0  0.20873144034E+02 -0.34071999615E+02 -0.32772503345E+03  0.35305495925E+03  0.12509003718E+03 0.  0.
         23    2    1    2    0    0 -0.20873144034E+02  0.34071999615E+02 -0.21896502788E+03  0.24064920302E+03  0.91486426206E+02 0.  0.
          5    1    3    3  502    0  0.19113464237E+02 -0.80718634119E+02 -0.23320374302E+03  0.24755258142E+03  0.41800000000E+01 0. -1.
         -5    1    3    3    0  502  0.17596797970E+01  0.46646634504E+02 -0.94521290434E+02  0.10550237784E+03  0.41800000000E+01 0. -1.
        -11    1    4    4    0    0 -0.23104679790E+02  0.64059185071E+02 -0.17071455147E+03  0.18379571134E+03  0.00000000000E+00 0.  1.
         11    1    4    4    0    0  0.22315357557E+01 -0.29987185456E+02 -0.48250476408E+02  0.56853491687E+02  0.00000000000E+00 0. -1.
</event>
<event>
 8    1  0.6832629E-009  0.2864110E+03  0.7561462E-02  0.1092238E+00
          1   -1    0    0  501    0  0.00000000000E+00  0.00000000000E+00  0.27222811900E+03  0.27222811900E+03  0.00000000000E+00 0. -1.
         -1   -1    0    0    0  501 -0.00000000000E+00 -0.00000000000E+00 -0.34332008958E+03  0.34332008958E+03  0.00000000000E+00 0.  1.
         25    2    1    2    0    0 -0.27890661311E+03 -0.48031926142E+01 -0.97718134422E+02  0.32094879735E+03  0.12508927704E+03 0.  0.
         23    2    1    2    0    0  0.27890661311E+03  0.48031926142E+01  0.26626163838E+02  0.29459941124E+03  0.90927944031E+02 0.  0.
          5    1    3    3  502    0 -0.63153847894E+02 -0.12143373736E+02  0.28915059927E+02  0.70635848690E+02  0.41800000000E+01 0.  1.
         -5    1    3    3    0  502 -0.21575276521E+03  0.73401811218E+01 -0.12663319435E+03  0.25031294866E+03  0.41800000000E+01 0.  1.
        -11    1    4    4    0    0  0.15470461769E+03  0.46336782393E+02  0.26388522002E+02  0.16363670196E+03  0.00000000000E+00 0. -1.
         11    1    4    4    0    0  0.12420199542E+03 -0.41533589779E+02  0.23764183602E+00  0.13096270927E+03  0.00000000000E+00 0.  1.
</event>
<event>
 8    1  0.6832629E-009  0.1779166E+03  0.7561462E-02  0.1169835E+00
          2   -1    0    0  501    0  0.00000000000E+00  0.00000000000E+00  0.10746054735E+03  0.10746054735E+03  0.00000000000E+00 0. -1.
         -2   -1    0    0    0  501 -0.00000000000E+00 -0.00000000000E+00 -0.34449721274E+03  0.34449721274E+03  0.00000000000E+00 0.  1.
         25    2    1    2    0    0  0.10100749473E+03  0.10881819243E+03 -0.56111248339E+02  0.20208785660E+03  0.12508843511E+03 0.  0.
         23    2    1    2    0    0 -0.10100749473E+03 -0.10881819243E+03 -0.18092541705E+03  0.24986990349E+03  0.87504566407E+02 0.  0.
          5    1    3    3  502    0 -0.21158580187E+02 -0.71060027777E+01  0.43136633751E+01  0.23114084077E+02  0.41800000000E+01 0. -1.
         -5    1    3    3    0  502  0.12216607491E+03  0.11592419521E+03 -0.60424911714E+02  0.17897377252E+03  0.41800000000E+01 0. -1.
        -11    1    4    4    0    0 -0.94084572975E+02 -0.52150500007E+02 -0.80519418141E+02  0.13436873974E+03  0.00000000000E+00 0. -1.
         11    1    4    4    0    0 -0.69229217521E+01 -0.56667692424E+02 -0.10040599891E+03  0.11550116375E+03  0.00000000000E+00 0.  1.
</event>
<event>
 8    1  0.6832629E-009  0.1361589E+03  0.7561462E-02  0.1218593E+00
          2   -1    0    0  501    0  0.00000000000E+00  0.00000000000E+00  0.24342561699E+03  0.24342561699E+03  0.00000000000E+00 0. -1.
         -2   -1    0    0    0  501 -0.00000000000E+00 -0.00000000000E+00 -0.99489132724E+02  0.99489132724E+02  0.00000000000E+00 0.  1.
         25    2    1    2    0    0 -0.16849839738E+02 -0.10817186541E+03  0.56348855287E+02  0.17551900018E+03  0.12508659547E+03 0.  0.
         23    2    1    2    0    0  0.16849839738E+02  0.10817186541E+03  0.87587628983E+02  0.16739574953E+03  0.91458595252E+02 0.  0.
          5    1    3    3  502    0 -0.61321005013E+02 -0.21354103821E+02  0.40403743308E+02  0.76591110966E+02  0.41800000000E+01 0. -1.
         -5    1    3    3    0  502  0.44471165275E+02 -0.86817761592E+02  0.15945111979E+02  0.98927889216E+02  0.41800000000E+01 0. -1.
        -11    1    4    4    0    0  0.13332780004E+02  0.96771466877E+02  0.21219402719E+02  0.99963707794E+02  0.00000000000E+00 0.  1.
         11    1    4    4    0    0  0.35170597339E+01  0.11400398536E+02  0.66368226264E+02  0.67432041741E+02  0.00000000000E+00 0. -1.
</event>
<event>
 8    1  0.6832629E-009  0.9640310E+02  0.7561462E-02  0.1288047E+00
          2   -1    0    0  501    0  0.00000000000E+00  0.00000000000E+00  0.91627134994E+03  0.91627134994E+03  0.00000000000E+00 0.  1.
         -2   -1    0    0    0  501 -0.00000000000E+00 -0.00000000000E+00 -0.28586664627E+02  0.28586664627E+02  0.00000000000E+00 0. -1.
         25    2    1    2    0    0 -0.81445253088E+02  0.36418943428E+02  0.70814970348E+03  0.72462627678E+03  0.12509024649E+03 0.  0.
         23    2    1    2    0    0  0.81445253088E+02 -0.36418943428E+02  0.17953498183E+03  0.22023173779E+03  0.91156677960E+02 0.  0.
          5    1    3    3  502    0  0.67941720196E+01  0.62340547328E+01  0.45003055329E+03  0.45014441628E+03  0.41800000000E+01 0. -1.
         -5    1    3    3    0  502 -0.88239425107E+02  0.30184888695E+02  0.25811915019E+03  0.27448186050E+03  0.41800000000E+01 0. -1.
        -11    1    4    4    0    0  0.47183986752E+02 -0.18671345738E+02  0.17516695020E+02  0.53682235068E+02  0.00000000000E+00 0. -1.
         11    1    4    4    0    0  0.34261266336E+02 -0.17747597691E+02  0.16201828681E+03  0.16654950272E+03  0.00000000000E+00 0.  1.
</event>
<event>
 8    1  0.6832629E-009  0.8304044E+02  0.7561462E-02  0.1320638E+00
          2   -1    0    0  501    0  0.00000000000E+00  0.00000000000E+00  0.59485867839E+03  0.59485867839E+03  0.00000000000E+00 0. -1.
         -2   -1    0    0    0  501 -0.00000000000E+00 -0.00000000000E+00 -0.29536024530E+02  0.29536024530E+02  0.00000000000E+00 0.  1.
         25    2    1    2    0    0  0.40704580581E+02 -0.54844396118E+02  0.26034043119E+03  0.29679895023E+03  0.12509079134E+03 0.  0.
         23    2    1    2    0    0 -0.40704580581E+02  0.54844396118E+02  0.30498222267E+03  0.32759575269E+03  0.98183758184E+02 0.  0.
          5    1    3    3  502    0  0.28149028254E+02 -0.55143669143E+02  0.35343634963E+02  0.71413142842E+02  0.41800000000E+01 0.  1.
         -5    1    3    3    0  502  0.12555552328E+02  0.29927302457E+00  0.22499679623E+03  0.22538580739E+03  0.41800000000E+01 0.  1.
        -11    1    4    4    0    0 -0.29277517217E+02 -0.51419795700E+01  0.19257361251E+02  0.35418341726E+02  0.00000000000E+00 0.  1.
         11    1    4    4    0    0 -0.11427063364E+02  0.59986375688E+02  0.28572486142E+03  0.29217741096E+03  0.00000000000E+00 0. -1.
</event>
<event>
 8    1  0.6832629E-009  0.4405100E+03  0.7561462E-02  0.1030590E+00
         -1   -1    0    0    0  501 -0.00000000000E+00  0.00000000000E+00  0.31501596561E+03  0.31501596561E+03  0.00000000000E+00 0.  1.
          1   -1    0    0  501    0  0.00000000000E+00 -0.00000000000E+00 -0.15022029376E+04  0.15022029376E+04  0.00000000000E+00 0. -1.
         25    2    1    2    0    0  0.32483064774E+03  0.29430552280E+03  0.89392454056E+02  0.46451371402E+03  0.12510511265E+03 0.  0.
         23    2    1    2    0    0 -0.32483064774E+03 -0.29430552280E+03 -0.12765794260E+04  0.13527051892E+04  0.89585754297E+02 0.  0.
          5    1    3    3  502    0  0.48359433417E+02  0.74279753819E+02 -0.26543324979E+02  0.92618233241E+02  0.41800000000E+01 0.  1.
         -5    1    3    3    0  502  0.27647121432E+03  0.22002576898E+03  0.11593577903E+03  0.37189548078E+03  0.41800000000E+01 0.  1.
        -11    1    4    4    0    0 -0.15539615472E+03 -0.15623332516E+03 -0.77173205922E+03  0.80257534726E+03  0.00000000000E+00 0. -1.
         11    1    4    4    0    0 -0.16943449303E+03 -0.13807219764E+03 -0.50484736680E+03  0.55012984190E+03  0.00000000000E+00 0.  1.
</event>
<event>
 8    1  0.6832629E-009  0.3538648E+03  0.7561462E-02  0.1061040E+00
         -1   -1    0    0    0  501 -0.00000000000E+00  0.00000000000E+00  0.12748763945E+03  0.12748763945E+03  0.00000000000E+00 0.  1.
          1   -1    0    0  501    0  0.00000000000E+00 -0.00000000000E+00 -0.10477740499E+04  0.10477740499E+04  0.00000000000E+00 0. -1.
         25    2    1    2    0    0  0.29542193780E+03 -0.17469302769E+03 -0.56621601761E+03  0.67382455209E+03  0.12508866114E+03 0.  0.
         23    2    1    2    0    0 -0.29542193780E+03  0.17469302769E+03 -0.35407039281E+03  0.50143713723E+03  0.91003210233E+02 0.  0.
          5    1    3    3  502    0 -0.59537939853E+01 -0.26073747703E+02 -0.25506173174E+02  0.37193080702E+02  0.41800000000E+01 0.  1.
         -5    1    3    3    0  502  0.30137573179E+03 -0.14861927998E+03 -0.54070984443E+03  0.63663147139E+03  0.41800000000E+01 0.  1.
        -11    1    4    4    0    0 -0.24760165631E+03  0.15908109346E+03 -0.25121651161E+03  0.38694070632E+03  0.00000000000E+00 0.  1.
         11    1    4    4    0    0 -0.47820281490E+02  0.15611934225E+02 -0.10285388121E+03  0.11449643091E+03  0.00000000000E+00 0. -1.
</event>
<event>
 8    1  0.6832629E-009  0.1473151E+03  0.7561462E-02  0.1203812E+00
         -1   -1    0    0    0  501 -0.00000000000E+00  0.00000000000E+00  0.84067446000E+02  0.84067446000E+02  0.00000000000E+00 0.  1.
          1   -1    0    0  501    0  0.00000000000E+00 -0.00000000000E+00 -0.33478338681E+03  0.33478338681E+03  0.00000000000E+00 0. -1.
         25    2    1    2    0    0 -0.11658784122E+03  0.39135291054E+02 -0.89843362463E+02  0.19708601972E+03  0.12508706434E+03 0.  0.
         23    2    1    2    0    0  0.11658784122E+03 -0.39135291054E+02 -0.16087257835E+03  0.22176481309E+03  0.90417642820E+02 0.  0.
          5    1    3    3  502    0 -0.58204795580E+02  0.68306069646E+02 -0.50202527964E+01  0.89978845943E+02  0.41800000000E+01 0. -1.
         -5    1    3    3    0  502 -0.58383045640E+02 -0.29170778592E+02 -0.84823109666E+02  0.10710717378E+03  0.41800000000E+01 0. -1.
        -11    1    4    4    0    0  0.92261442900E+02  0.12234863423E+01 -0.58997223788E+02  0.10951868872E+03  0.00000000000E+00 0.  1.
         11    1    4    4    0    0  0.24326398320E+02 -0.40358777397E+02 -0.10187535456E+03  0.11224612437E+03  0.00000000000E+00 0. -1.
</event>
<event>
 8    1  0.6832629E-009  0.1050696E+03  0.7561462E-02  0.1269983E+00
         -3   -1    0    0    0  501 -0.00000000000E+00  0.00000000000E+00  0.61429647945E+02  0.61429647945E+02  0.00000000000E+00 0.  1.
          3   -1    0    0  501    0  0.00000000000E+00 -0.00000000000E+00 -0.30870873967E+03  0.30870873967E+03  0.00000000000E+00 0. -1.
         25    2    1    2    0    0 -0.11511627979E+02 -0.45800051047E+02 -0.40277071456E+02  0.13964268096E+03  0.12509066155E+03 0.  0.
         23    2    1    2    0    0  0.11511627979E+02  0.45800051047E+02 -0.20700202027E+03  0.23049570665E+03  0.89712162687E+02 0.  0.
          5    1    3    3  502    0 -0.15758611015E+02 -0.76547110195E+02 -0.63392601438E+02  0.10071687156E+03  0.41800000000E+01 0. -1.
         -5    1    3    3    0  502  0.42469830368E+01  0.30747059149E+02  0.23115529982E+02  0.38925809401E+02  0.41800000000E+01 0. -1.
        -11    1    4    4    0    0  0.39474000220E+02  0.57909896652E+02 -0.13009053486E+03  0.14776772342E+03  0.00000000000E+00 0.  1.
         11    1    4    4    0    0 -0.27962372242E+02 -0.12109845605E+02 -0.76911485403E+02  0.82727983228E+02  0.00000000000E+00 0. -1.
</event>
<event>
 8    1  0.6832629E-009  0.1213614E+03  0.7561462E-02  0.1240868E+00
         -2   -1    0    0    0  501 -0.00000000000E+00  0.00000000000E+00  0.37427448974E+02  0.37427448974E+02  0.00000000000E+00 0.  1.
          2   -1    0    0  501    0  0.00000000000E+00 -0.00000000000E+00 -0.44522610906E+03  0.44522610906E+03  0.00000000000E+00 0. -1.
         25    2    1    2    0    0  0.35114412073E+02  0.57869291287E+02 -0.18767357544E+03  0.23547956409E+03  0.12508947748E+03 0.  0.
         23    2    1    2    0    0 -0.35114412073E+02 -0.57869291287E+02 -0.22012508464E+03  0.24717399394E+03  0.89766661865E+02 0.  0.
          5    1    3    3  502    0  0.76416114034E+02  0.41331067135E+02 -0.77148114831E+02  0.11626256326E+03  0.41800000000E+01 0.  1.
         -5    1    3    3    0  502 -0.41301701962E+02  0.16538224151E+02 -0.11052546061E+03  0.11921700083E+03  0.41800000000E+01 0.  1.
        -11    1    4    4    0    0 -0.15500665881E+02 -0.79999928475E+02 -0.14321768877E+03  0.16477732118E+03  0.00000000000E+00 0.  1.
         11    1    4    4    0    0 -0.19613746192E+02  0.22130637189E+02 -0.76907395872E+02  0.82396672759E+02  0.00000000000E+00 0. -1.
</event>
<event>
 8    1  0.6832629E-009  0.1257925E+03  0.7561462E-02  0.1233836E+00
          1   -1    0    0  501    0  0.00000000000E+00  0.00000000000E+00  0.45204444807E+03  0.45204444807E+03  0.00000000000E+00 0. -1.
         -1   -1    0    0    0  501 -0.00000000000E+00 -0.00000000000E+00 -0.67249204685E+02  0.67249204685E+02  0.00000000000E+00 0.  1.
         25    2    1    2    0    0  0.97984214107E+02 -0.57868523929E+02  0.31498569791E+03  0.35751094726E+03  0.12509362593E+03 0.  0.
         23    2    1    2    0    0 -0.97984214107E+02  0.57868523929E+02  0.69809545482E+02  0.16178270550E+03  0.91381611290E+02 0.  0.
          5    1    3    3  502    0  0.29475083854E+01 -0.54681701394E+01 -0.11338945795E+02  0.13587964604E+02  0.41800000000E+01 0.  1.
         -5    1    3    3    0  502  0.95036705722E+02 -0.52400353790E+02  0.32632464370E+03  0.34392298265E+03  0.41800000000E+01 0.  1.
        -11    1    4    4    0    0 -0.41859122809E+02 -0.14150122894E+02 -0.40114706551E+01  0.44367826599E+02  0.00000000000E+00 0.  1.
         11    1    4    4    0    0 -0.56125091298E+02  0.72018646824E+02  0.73821016137E+02  0.11741487890E+03  0.00000000000E+00 0. -1.
</event>
<event>
 8    1  0.6832629E-009  0.2154802E+03  0.7561462E-02  0.1137298E+00
         -2   -1    0    0    0  501 -0.00000000000E+00  0.00000000000E+00  0.11269386871E+03  0.11269386871E+03  0.00000000000E+00 0.  1.
          2   -1    0    0  501    0  0.00000000000E+00 -0.00000000000E+00 -0.41259221363E+03  0.41259221363E+03  0.00000000000E+00 0. -1.
         25    2    1    2    0    0 -0.49248359186E+02  0.17901227930E+03 -0.14702991300E+03  0.26783624351E+03  0.12509061115E+03 0.  0.
         23    2    1    2    0    0  0.49248359186E+02 -0.17901227930E+03 -0.15286843193E+03  0.25744983883E+03  0.91874180326E+02 0.  0.
          5    1    3    3  502    0  0.26059675015E+02  0.13275854248E+03 -0.86496793299E+02  0.16063344893E+03  0.41800000000E+01 0. -1.
         -5    1    3    3    0  502 -0.75308034201E+02  0.46253736818E+02 -0.60533119705E+02  0.10720279458E+03  0.41800000000E+01 0. -1.
        -11    1    4    4    0    0  0.66730100061E+02 -0.69957018114E+02 -0.69381966950E+02  0.11899894107E+03  0.00000000000E+00 0.  1.
         11    1    4    4    0    0 -0.17481740875E+02 -0.10905526119E+03 -0.83486464975E+02  0.13845089776E+03  0.00000000000E+00 0. -1.
</event>
<event>
 8    1  0.6832629E-009  0.2301882E+03  0.7561462E-02  0.1126507E+00
         -2   -1    0    0    0  501 -0.00000000000E+00  0.00000000000E+00  0.25157507301E+03  0.25157507301E+03  0.00000000000E+00 0.  1.
          2   -1    0    0  501    0  0.00000000000E+00 -0.00000000000E+00 -0.23827749756E+03  0.23827749756E+03  0.00000000000E+00 0. -1.
         25    2    1    2    0    0  0.47997290608E+02  0.21148248926E+03  0.38539887364E+02  0.25330395306E+03  0.12509590939E+03 0.  0.
         23    2    1    2    0    0 -0.47997290608E+02 -0.21148248926E+03 -0.25242311911E+02  0.23654861751E+03  0.91046641694E+02 0.  0.
          5    1    3    3  502    0  0.54319874670E+02  0.57857003216E+02 -0.29956933117E+02  0.84929216687E+02  0.41800000000E+01 0.  1.
         -5    1    3    3    0  502 -0.63225840622E+01  0.15362548605E+03  0.68496820481E+02  0.16837473637E+03  0.41800000000E+01 0.  1.
        -11    1    4    4    0    0  0.69771462639E+01 -0.12113060520E+03  0.17284981992E+02  0.12255641431E+03  0.00000000000E+00 0.  1.
         11    1    4    4    0    0 -0.54974436872E+02 -0.90351884061E+02 -0.42527293902E+02  0.11399220320E+03  0.00000000000E+00 0. -1.
</event>
<event>
 8    1  0.6832629E-009  0.1124423E+03  0.7561462E-02  0.1256113E+00
          1   -1    0    0  501    0  0.00000000000E+00  0.00000000000E+00  0.10162284112E+04  0.10162284112E+04  0.00000000000E+00 0. -1.
         -1   -1    0    0    0  501 -0.00000000000E+00 -0.00000000000E+00 -0.13509708567E+02  0.13509708567E+02  0.00000000000E+00 0.  1.
         25    2    1    2    0    0  0.40967029247E+02  0.17327251590E+02  0.50749710590E+03  0.52457607232E+03  0.12509281363E+03 0.  0.
         23    2    1    2    0    0 -0.40967029247E+02 -0.17327251590E+02  0.49522159671E+03  0.50516204743E+03  0.89250956165E+02 0.  0.
          5    1    3    3  502    0 -0.27084356114E+02  0.44358960920E+02  0.13088206303E+03  0.14088600563E+03  0.41800000000E+01 0. -1.
         -5    1    3    3    0  502  0.68051385361E+02 -0.27031709330E+02  0.37661504287E+03  0.38369006669E+03  0.41800000000E+01 0. -1.
        -11    1    4    4    0    0 -0.62963726612E+02  0.10600476644E+02  0.29823763609E+03  0.30499588285E+03  0.00000000000E+00 0.  1.
         11    1    4    4    0    0  0.21996697365E+02 -0.27927728233E+02  0.19698396063E+03  0.20016616458E+03  0.00000000000E+00 0. -1.
</event>
<event>
 8    1  0.6832629E-009  0.1570128E+03  0.7561462E-02  0.1192111E+00
          1   -1    0    0  501    0  0.00000000000E+00  0.00000000000E+00  0.15344488487E+03  0.15344488487E+03  0.00000000000E+00 0. -1.
         -1   -1    0    0    0  501 -0.00000000000E+00 -0.00000000000E+00 -0.20774733610E+03  0.20774733610E+03  0.00000000000E+00 0.  1.
         25    2    1    2    0    0  0.11862177781E+03 -0.66816502496E+02 -0.74242494649E+02  0.19922815721E+03  0.12507733382E+03 0.  0.
         23    2    1    2    0    0 -0.11862177781E+03  0.66816502496E+02  0.19940043420E+02  0.16196406376E+03  0.85435247070E+02 0.  0.
          5    1    3    3  502    0  0.51334909890E+02 -0.91773048012E+02 -0.15461191316E+02  0.10636769318E+03  0.41800000000E+01 0.  1.
         -5    1    3    3    0  502  0.67286867918E+02  0.24956545516E+02 -0.58781303333E+02  0.92860464030E+02  0.41800000000E+01 0.  1.
        -11    1    4    4    0    0 -0.83601643928E+02  0.54406016253E+02  0.52360403529E+02  0.11265372311E+03  0.00000000000E+00 0. -1.
         11    1    4    4    0    0 -0.35020133880E+02  0.12410486243E+02 -0.32420360109E+02  0.49310340653E+02  0.00000000000E+00 0.  1.
</event>
<event>
 8    1  0.6832629E-009  0.8696177E+02  0.7561462E-02  0.1310381E+00
          3   -1    0    0  501    0  0.00000000000E+00  0.00000000000E+00  0.65437475122E+03  0.65437475122E+03  0.00000000000E+00 0. -1.
         -3   -1    0    0    0  501 -0.00000000000E+00 -0.00000000000E+00 -0.28359811063E+02  0.28359811063E+02  0.00000000000E+00 0.  1.
         25    2    1    2    0    0  0.28765779022E+02  0.22900598114E+02  0.15993132775E+03  0.20634679930E+03  0.12509622116E+03 0.  0.
         23    2    1    2    0    0 -0.28765779022E+02 -0.22900598114E+02  0.46608361241E+03  0.47638776298E+03  0.91430080008E+02 0.  0.
          5    1    3    3  502    0 -0.11630422190E+02  0.32464643355E+02  0.16090558455E+03  0.16461257342E+03  0.41800000000E+01 0.  1.
         -5    1    3    3    0  502  0.40396201212E+02 -0.95640452411E+01 -0.97425679634E+00  0.41734225882E+02  0.41800000000E+01 0.  1.
        -11    1    4    4    0    0 -0.39658433925E+01 -0.55979683651E+02  0.23278285147E+03  0.23945210134E+03  0.00000000000E+00 0. -1.
         11    1    4    4    0    0 -0.24799935629E+02  0.33079085538E+02  0.23330076093E+03  0.23693566165E+03  0.00000000000E+00 0.  1.
</event>
<event>
 8    1  0.6832629E-009  0.6919769E+02  0.7561462E-02  0.1362843E+00
          2   -1    0    0  501    0  0.00000000000E+00  0.00000000000E+00  0.21700166513E+03  0.21700166513E+03  0.00000000000E+00 0. -1.
         -2   -1    0    0    0  501 -0.00000000000E+00 -0.00000000000E+00 -0.56724034185E+02  0.56724034185E+02  0.00000000000E+00 0.  1.
         25    2    1    2    0    0  0.96193409579E+01  0.21423858126E+02  0.88821933771E+02  0.15520561047E+03  0.12509169511E+03 0.  0.
         23    2    1    2    0    0 -0.96193409579E+01 -0.21423858126E+02  0.71455697179E+02  0.11852008885E+03  0.91594658050E+02 0.  0.
          5    1    3    3  502    0  0.35688258184E+02  0.39784702160E+02  0.10597153332E+03  0.11875989463E+03  0.41800000000E+01 0.  1.
         -5    1    3    3    0  502 -0.26068917226E+02 -0.18360844034E+02 -0.17149599546E+02  0.36445715846E+02  0.41800000000E+01 0.  1.
        -11    1    4    4    0    0 -0.51961167898E+01  0.15031762258E+02 -0.16675496794E+02  0.23043994871E+02  0.00000000000E+00 0.  1.
         11    1    4    4    0    0 -0.44232241681E+01 -0.36455620385E+02  0.88131193973E+02  0.95476093976E+02  0.00000000000E+00 0. -1.
</event>
<event>
 8    1  0.6832629E-009  0.1464079E+03  0.7561462E-02  0.1204958E+00
          1   -1    0    0  501    0  0.00000000000E+00  0.00000000000E+00  0.37691286261E+03  0.37691286261E+03  0.00000000000E+00 0. -1.
         -1   -1    0    0    0  501 -0.00000000000E+00 -0.00000000000E+00 -0.76860834773E+02  0.76860834773E+02  0.00000000000E+00 0.  1.
         25    2    1    2    0    0  0.84429113736E+02 -0.94877284026E+02  0.19142377002E+03  0.26157569659E+03  0.12509520794E+03 0.  0.
         23    2    1    2    0    0 -0.84429113736E+02  0.94877284026E+02  0.10862825783E+03  0.19219800080E+03  0.94921013699E+02 0.  0.
          5    1    3    3  502    0  0.27070348475E+02 -0.39676542109E+01  0.13933008222E+03  0.14205242081E+03  0.41800000000E+01 0. -1.
         -5    1    3    3    0  502  0.57358765261E+02 -0.90909629815E+02  0.52093687797E+02  0.11952327578E+03  0.41800000000E+01 0. -1.
        -11    1    4    4    0    0 -0.35298548024E+01  0.73908362265E+02  0.61759015852E+02  0.96379883413E+02  0.00000000000E+00 0. -1.
         11    1    4    4    0    0 -0.80899258934E+02  0.20968921761E+02  0.46869241974E+02  0.95818117384E+02  0.00000000000E+00 0.  1.
</event>
<event>
 8    1  0.6832629E-009  0.1600190E+03  0.7561462E-02  0.1188675E+00
          1   -1    0    0  501    0  0.00000000000E+00  0.00000000000E+00  0.11277252753E+03  0.11277252753E+03  0.00000000000E+00 0. -1.
         -1   -1    0    0    0  501 -0.00000000000E+00 -0.00000000000E+00 -0.25932957714E+03  0.25932957714E+03  0.00000000000E+00 0.  1.
         25    2    1    2    0    0 -0.18362382201E+02  0.12976166251E+03 -0.73724207127E+02  0.19559662136E+03  0.12509002132E+03 0.  0.
         23    2    1    2    0    0  0.18362382201E+02 -0.12976166251E+03 -0.72832842483E+02  0.17650548331E+03  0.93135903703E+02 0.  0.
          5    1    3    3  502    0 -0.70491834664E+02  0.81821102771E+02 -0.29641167408E+02  0.11207079378E+03  0.41800000000E+01 0. -1.
         -5    1    3    3    0  502  0.52129452463E+02  0.47940559737E+02 -0.44083039719E+02  0.83525827580E+02  0.41800000000E+01 0. -1.
        -11    1    4    4    0    0 -0.16426493739E+02 -0.69643021173E+02  0.55578266958E+01  0.71769558534E+02  0.00000000000E+00 0. -1.
         11    1    4    4    0    0  0.34788875939E+02 -0.60118641336E+02 -0.78390669179E+02  0.10473592478E+03  0.00000000000E+00 0.  1.
</event>
<event>
 8    1  0.6832629E-009  0.9012939E+02  0.7561462E-02  0.1302539E+00
          1   -1    0    0  501    0  0.00000000000E+00  0.00000000000E+00  0.21207783071E+03  0.21207783071E+03  0.00000000000E+00 0. -1.
         -1   -1    0    0    0  501 -0.00000000000E+00 -0.00000000000E+00 -0.58168942163E+02  0.58168942163E+02  0.00000000000E+00 0.  1.
         25    2    1    2    0    0  0.10930720265E+02  0.17230935849E+02  0.64028008749E+02  0.14199998140E+03  0.12509205817E+03 0.  0.
         23    2    1    2    0    0 -0.10930720265E+02 -0.17230935849E+02  0.89880879796E+02  0.12824679147E+03  0.89175563768E+02 0.  0.
          5    1    3    3  502    0 -0.36149237623E+02 -0.62062335118E+01 -0.20600053791E+02  0.42274334191E+02  0.41800000000E+01 0.  1.
         -5    1    3    3    0  502  0.47079957887E+02  0.23437169361E+02  0.84628062540E+02  0.99725647211E+02  0.41800000000E+01 0.  1.
        -11    1    4    4    0    0  0.27326944208E+02 -0.38192882756E+02  0.37626929630E+02  0.60176772981E+02  0.00000000000E+00 0. -1.
         11    1    4    4    0    0 -0.38257664473E+02  0.20961946907E+02  0.52253950166E+02  0.68070018488E+02  0.00000000000E+00 0.  1.
</event>
<event>
 8    1  0.6832629E-009  0.1693042E+03  0.7561462E-02  0.1178575E+00
         -2   -1    0    0    0  501 -0.00000000000E+00  0.00000000000E+00  0.22726724617E+03  0.22726724617E+03  0.00000000000E+00 0.  1.
          2   -1    0    0  501    0  0.00000000000E+00 -0.00000000000E+00 -0.16014637656E+03  0.16014637656E+03  0.00000000000E+00 0. -1.
         25    2    1    2    0    0  0.11241439122E+03 -0.91605426926E+02 -0.25554843890E+02  0.19321589588E+03  0.12510308860E+03 0.  0.
         23    2    1    2    0    0 -0.11241439122E+03  0.91605426926E+02  0.92675713492E+02  0.19419772685E+03  0.89974549992E+02 0.  0.
          5    1    3    3  502    0  0.65607244182E+02  0.41628125249E+01 -0.51282450946E+02  0.83480546670E+02  0.41800000000E+01 0. -1.
         -5    1    3    3    0  502  0.46807147039E+02 -0.95768239451E+02  0.25727607055E+02  0.10973534921E+03  0.41800000000E+01 0. -1.
        -11    1    4    4    0    0 -0.25950162811E+01  0.47729331077E+02  0.48111252671E+02  0.67819730080E+02  0.00000000000E+00 0.  1.
         11    1    4    4    0    0 -0.10981937494E+03  0.43876095849E+02  0.44564460821E+02  0.12637799677E+03  0.00000000000E+00 0. -1.
</event>
<event>
 8    1  0.6832629E-009  0.3565915E+03  0.7561462E-02  0.1059942E+00
         -2   -1    0    0    0  501 -0.00000000000E+00  0.00000000000E+00  0.17057059085E+03  0.17057059085E+03  0.00000000000E+00 0.  1.
          2   -1    0    0  501    0  0.00000000000E+00 -0.00000000000E+00 -0.95300329867E+03  0.95300329867E+03  0.00000000000E+00 0. -1.
         25    2    1    2    0    0  0.18919500987E+03  0.28799514691E+03 -0.14614427751E+03  0.39464327002E+03  0.12509677981E+03 0.  0.
         23    2    1    2    0    0 -0.18919500987E+03 -0.28799514691E+03 -0.63628843031E+03  0.72893061950E+03  0.87982527199E+02 0.  0.
          5    1    3    3  502    0  0.26068792455E+02  0.14124205180E+03 -0.31745442695E+02  0.14715347318E+03  0.41800000000E+01 0.  1.
         -5    1    3    3    0  502  0.16312621741E+03  0.14675309511E+03 -0.11439883482E+03  0.24748979684E+03  0.41800000000E+01 0.  1.
        -11    1    4    4    0    0 -0.25044709362E+02 -0.95529157542E+01 -0.92760594067E+02  0.96555804994E+02  0.00000000000E+00 0. -1.
         11    1    4    4    0    0 -0.16415030051E+03 -0.27844223115E+03 -0.54352783624E+03  0.63237481450E+03  0.00000000000E+00 0.  1.
</event>
<event>
 8    1  0.6832629E-009  0.6749550E+02  0.7561462E-02  0.1368823E+00
          4   -1    0    0  501    0  0.00000000000E+00  0.00000000000E+00  0.21224408326E+02  0.21224408326E+02  0.00000000000E+00 0. -1.
         -4   -1    0    0    0  501 -0.00000000000E+00 -0.00000000000E+00 -0.77140391192E+03  0.77140391192E+03  0.00000000000E+00 0.  1.
         25    2    1    2    0    0 -0.23903815874E+02  0.18987471015E+02 -0.60243635761E+03  0.61604332850E+03  0.12509157103E+03 0.  0.
         23    2    1    2    0    0  0.23903815874E+02 -0.18987471015E+02 -0.14774314598E+03  0.17658499175E+03  0.91773120561E+02 0.  0.
          5    1    3    3  502    0 -0.27391272915E+02  0.25613433795E+02 -0.60569530620E+03  0.60686951330E+03  0.41800000000E+01 0. -1.
         -5    1    3    3    0  502  0.34874570411E+01 -0.66259627808E+01  0.32589485857E+01  0.91738151971E+01  0.41800000000E+01 0. -1.
        -11    1    4    4    0    0 -0.29372764026E+02  0.57702386747E+01 -0.87326535990E+02  0.92314564446E+02  0.00000000000E+00 0.  1.
         11    1    4    4    0    0  0.53276579900E+02 -0.24757709689E+02 -0.60416609993E+02  0.84270427304E+02  0.00000000000E+00 0. -1.
</event>
<event>
 8    1  0.6832629E-009  0.1112027E+03  0.7561462E-02  0.1258359E+00
          1   -1    0    0  501    0  0.00000000000E+00  0.00000000000E+00  0.18245042059E+03  0.18245042059E+03  0.00000000000E+00 0. -1.
         -1   -1    0    0    0  501 -0.00000000000E+00 -0.00000000000E+00 -0.11071998006E+03  0.11071998006E+03  0.00000000000E+00 0.  1.
         25    2    1    2    0    0 -0.65792513813E+02  0.20410686582E+02 -0.24777614271E+02  0.14493994855E+03  0.12509359502E+03 0.  0.
         23    2    1    2    0    0  0.65792513813E+02 -0.20410686582E+02  0.96508054800E+02  0.14823045209E+03  0.88956232414E+02 0.  0.
          5    1    3    3  502    0 -0.10260723787E+02  0.65813586506E+02  0.55073785202E+01  0.66966515809E+02  0.41800000000E+01 0. -1.
         -5    1    3    3    0  502 -0.55531790026E+02 -0.45402899924E+02 -0.30284992791E+02  0.77973432741E+02  0.41800000000E+01 0. -1.
        -11    1    4    4    0    0  0.91292872822E+01 -0.25342356260E+02  0.86348950098E+02  0.90452861149E+02  0.00000000000E+00 0. -1.
         11    1    4    4    0    0  0.56663226531E+02  0.49316696777E+01  0.10159104702E+02  0.57777590942E+02  0.00000000000E+00 0.  1.
</event>
<event>
 8    1  0.6832629E-009  0.1047959E+03  0.7561462E-02  0.1270522E+00
          4   -1    0    0  501    0  0.00000000000E+00  0.00000000000E+00  0.16092651256E+03  0.16092651256E+03  0.00000000000E+00 0. -1.
         -4   -1    0    0    0  501 -0.00000000000E+00 -0.00000000000E+00 -0.83856822206E+02  0.83856822206E+02  0.00000000000E+00 0.  1.
         25    2    1    2    0    0 -0.21306530654E+02  0.29488577169E+02  0.17121686204E+02  0.13139135381E+03  0.12508793422E+03 0.  0.
         23    2    1    2    0    0  0.21306530654E+02 -0.29488577169E+02  0.59948004147E+02  0.11339198095E+03  0.89109111266E+02 0.  0.
          5    1    3    3  502    0  0.48486513028E+02  0.14793617325E+02  0.29619697735E+02  0.58860784510E+02  0.41800000000E+01 0.  1.
         -5    1    3    3    0  502 -0.69793043682E+02  0.14694959844E+02 -0.12498011531E+02  0.72530569303E+02  0.41800000000E+01 0.  1.
        -11    1    4    4    0    0 -0.29015598321E+02 -0.12022024785E+00 -0.10543224590E+01  0.29034996034E+02  0.00000000000E+00 0.  1.
         11    1    4    4    0    0  0.50322128975E+02 -0.29368356921E+02  0.61002326606E+02  0.84356984916E+02  0.00000000000E+00 0. -1.
</event>
<event>
 8    1  0.6832629E-009  0.1229019E+03  0.7561462E-02  0.1238385E+00
          1   -1    0    0  501    0  0.00000000000E+00  0.00000000000E+00  0.38778782404E+02  0.38778782404E+02  0.00000000000E+00 0. -1.
         -1   -1    0    0    0  501 -0.00000000000E+00 -0.00000000000E+00 -0.60510104786E+03  0.60510104786E+03  0.00000000000E+00 0.  1.
         25    2    1    2    0    0  0.76028650631E+02 -0.57157776568E+02 -0.19985265437E+03  0.25423564247E+03  0.12508921338E+03 0.  0.
         23    2    1    2    0    0 -0.76028650631E+02  0.57157776568E+02 -0.36646961108E+03  0.38964418779E+03  0.92061121508E+02 0.  0.
          5    1    3    3  502    0 -0.40617334072E+01  0.28846899322E+02 -0.10322524593E+02  0.31187628841E+02  0.41800000000E+01 0.  1.
         -5    1    3    3    0  502  0.80090384038E+02 -0.86004675890E+02 -0.18953012978E+03  0.22304801363E+03  0.41800000000E+01 0.  1.
        -11    1    4    4    0    0 -0.59237214648E+02  0.56671324818E+02 -0.36344434642E+03  0.37257546833E+03  0.00000000000E+00 0.  1.
         11    1    4    4    0    0 -0.16791435982E+02  0.48645174952E+00 -0.30252646575E+01  0.17068719457E+02  0.00000000000E+00 0. -1.
</event>
<event>
 8    1  0.6832629E-009  0.1139096E+03  0.7561462E-02  0.1253497E+00
         -1   -1    0    0    0  501 -0.00000000000E+00  0.00000000000E+00  0.94810656843E+02  0.94810656843E+02  0.00000000000E+00 0.  1.
          1   -1    0    0  501    0  0.00000000000E+00 -0.00000000000E+00 -0.14756915670E+03  0.14756915670E+03  0.00000000000E+00 0. -1.
         25    2    1    2    0    0 -0.38018273174E+02 -0.24167242502E+02 -0.14889366250E+02  0.13378641111E+03  0.12509063061E+03 0.  0.
         23    2    1    2    0    0  0.38018273174E+02  0.24167242502E+02 -0.37869133607E+02  0.10859340243E+03  0.91263415812E+02 0.  0.
          5    1    3    3  502    0 -0.82205065525E+02 -0.22050153538E+01 -0.96887604807E+00  0.82346499692E+02  0.41800000000E+01 0.  1.
         -5    1    3    3    0  502  0.44186792351E+02 -0.21962227148E+02 -0.13920490202E+02  0.51439911421E+02  0.41800000000E+01 0.  1.
        -11    1    4    4    0    0 -0.27377589191E+02  0.90817853939E+01  0.45457942276E+01  0.29200607203E+02  0.00000000000E+00 0.  1.
         11    1    4    4    0    0  0.65395862365E+02  0.15085457108E+02 -0.42414927834E+02  0.79392795226E+02  0.00000000000E+00 0. -1.
</event>
<event>
 8    1  0.6832629E-009  0.7529530E+02  0.7561462E-02  0.1342959E+00
         -2   -1    0    0    0  501 -0.00000000000E+00  0.00000000000E+00  0.77881151963E+02  0.77881151963E+02  0.00000000000E+00 0.  1.
          2   -1    0    0  501    0  0.00000000000E+00 -0.00000000000E+00 -0.17420630720E+03  0.17420630720E+03  0.00000000000E+00 0. -1.
         25    2    1    2    0    0 -0.39317042767E+02 -0.36967921434E+01 -0.40825827037E+02  0.13738128729E+03  0.12508946327E+03 0.  0.
         23    2    1    2    0    0  0.39317042767E+02  0.36967921434E+01 -0.55499328202E+02  0.11470617187E+03  0.92292114023E+02 0.  0.
          5    1    3    3  502    0 -0.30741694678E+02  0.15059807310E+02  0.40605983275E+02  0.53274457910E+02  0.41800000000E+01 0. -1.
         -5    1    3    3    0  502 -0.85753480889E+01 -0.18756599453E+02 -0.81431810311E+02  0.84106829381E+02  0.41800000000E+01 0. -1.
        -11    1    4    4    0    0  0.41795966058E+02 -0.36075198719E+02 -0.49985522214E+02  0.74477346706E+02  0.00000000000E+00 0. -1.
         11    1    4    4    0    0 -0.24789232910E+01  0.39771990863E+02 -0.55138059878E+01  0.40228825167E+02  0.00000000000E+00 0.  1.
</event>
<event>
 8    1  0.6832629E-009  0.9769298E+02  0.7561462E-02  0.1285223E+00
          1   -1    0    0  501    0  0.00000000000E+00  0.00000000000E+00  0.30464128510E+03  0.30464128510E+03  0.00000000000E+00 0. -1.
         -1   -1    0    0    0  501 -0.00000000000E+00 -0.00000000000E+00 -0.47785588655E+02  0.47785588655E+02  0.00000000000E+00 0.  1.
         25    2    1    2    0    0 -0.39167036165E+02  0.25608092323E+02  0.10934183683E+03  0.17260766220E+03  0.12509171297E+03 0.  0.
         23    2    1    2    0    0  0.39167036165E+02 -0.25608092323E+02  0.14751385962E+03  0.17981921156E+03  0.91568438621E+02 0.  0.
          5    1    3    3  502    0  0.44027907408E+02  0.12447529526E+02  0.21133516764E+02  0.50571687266E+02  0.41800000000E+01 0. -1.
         -5    1    3    3    0  502 -0.83194943573E+02  0.13160562797E+02  0.88208320061E+02  0.12203597493E+03  0.41800000000E+01 0. -1.
        -11    1    4    4    0    0  0.25974489038E+02  0.94581217162E+01  0.21679158497E-01  0.27642912603E+02  0.00000000000E+00 0.  1.
         11    1    4    4    0    0  0.13192547127E+02 -0.35066214040E+02  0.14749218046E+03  0.15217629895E+03  0.00000000000E+00 0. -1.
</event>
<event>
 8    1  0.6832629E-009  0.1648933E+03  0.7561462E-02  0.1183280E+00
         -1   -1    0    0    0  501 -0.00000000000E+00  0.00000000000E+00  0.52697566921E+03  0.52697566921E+03  0.00000000000E+00 0.  1.
          1   -1    0    0  501    0  0.00000000000E+00 -0.00000000000E+00 -0.66990402230E+02  0.66990402230E+02  0.00000000000E+00 0. -1.
         25    2    1    2    0    0  0.77311909061E+02 -0.11843519747E+03  0.33699241770E+03  0.38628521335E+03  0.12509336185E+03 0.  0.
         23    2    1    2    0    0 -0.77311909061E+02  0.11843519747E+03  0.12299284928E+03  0.20768085810E+03  0.89443113551E+02 0.  0.
          5    1    3    3  502    0  0.62376416851E+02  0.39025541041E+01  0.83437636802E+02  0.10433292358E+03  0.41800000000E+01 0.  1.
         -5    1    3    3    0  502  0.14935492211E+02 -0.12233775158E+03  0.25355478090E+03  0.28195228977E+03  0.41800000000E+01 0.  1.
        -11    1    4    4    0    0 -0.52587548783E+02  0.56716090717E+02  0.11789124160E+03  0.14099826268E+03  0.00000000000E+00 0.  1.
         11    1    4    4    0    0 -0.24724360278E+02  0.61719106755E+02  0.51016076789E+01  0.66682595411E+02  0.00000000000E+00 0. -1.
</event>
<event>
 8    1  0.6832629E-009  0.1055999E+03  0.7561462E-02  0.1268942E+00
          4   -1    0    0  501    0  0.00000000000E+00  0.00000000000E+00  0.36938765525E+03  0.36938765525E+03  0.00000000000E+00 0. -1.
         -4   -1    0    0    0  501 -0.00000000000E+00 -0.00000000000E+00 -0.66655442395E+02  0.66655442395E+02  0.00000000000E+00 0.  1.
         25    2    1    2    0    0 -0.11056865671E+02  0.83807623709E+02  0.26796488733E+03  0.30756898747E+03  0.12509008411E+03 0.  0.
         23    2    1    2    0    0  0.11056865671E+02 -0.83807623709E+02  0.34767325521E+02  0.12847411017E+03  0.90282102269E+02 0.  0.
          5    1    3    3  502    0 -0.50973711266E+02  0.43172212524E+02  0.53662714507E+02  0.85786470394E+02  0.41800000000E+01 0.  1.
         -5    1    3    3    0  502  0.39916845595E+02  0.40635411185E+02  0.21430217282E+03  0.22178251708E+03  0.41800000000E+01 0.  1.
        -11    1    4    4    0    0 -0.63799327652E+01 -0.18983716633E+02  0.54861809488E+02  0.58402938108E+02  0.00000000000E+00 0. -1.
         11    1    4    4    0    0  0.17436798437E+02 -0.64823907076E+02 -0.20094483967E+02  0.70071172063E+02  0.00000000000E+00 0.  1.
</event>
<event>
 8    1  0.6832629E-009  0.7484774E+02  0.7561462E-02  0.1344343E+00
         -2   -1    0    0    0  501 -0.00000000000E+00  0.00000000000E+00  0.92367545136E+02  0.92367545136E+02  0.00000000000E+00 0.  1.
          2   -1    0    0  501    0  0.00000000000E+00 -0.00000000000E+00 -0.14945505923E+03  0.14945505923E+03  0.00000000000E+00 0. -1.
         25    2    1    2    0    0 -0.12631900518E+02  0.41889708810E+02 -0.17699658200E+02  0.13369705142E+03  0.12508921234E+03 0.  0.
         23    2    1    2    0    0  0.12631900518E+02 -0.41889708810E+02 -0.39387855899E+02  0.10812555295E+03  0.90694097898E+02 0.  0.
          5    1    3    3  502    0 -0.26210332749E+02 -0.25573912543E+01 -0.63155643379E+02  0.68553843681E+02  0.41800000000E+01 0.  1.
         -5    1    3    3    0  502  0.13578432231E+02  0.44447100064E+02  0.45455985179E+02  0.65143207739E+02  0.41800000000E+01 0.  1.
        -11    1    4    4    0    0  0.24244960440E+02  0.76990661755E+01  0.18176657658E+02  0.31264750284E+02  0.00000000000E+00 0.  1.
         11    1    4    4    0    0 -0.11613059922E+02 -0.49588774985E+02 -0.57564513557E+02  0.76860802665E+02  0.00000000000E+00 0. -1.
</event>
<event>
 8    1  0.6832629E-009  0.1730281E+03  0.7561462E-02  0.1174726E+00
          2   -1    0    0  501    0  0.00000000000E+00  0.00000000000E+00  0.12829948173E+03  0.12829948173E+03  0.00000000000E+00 0. -1.
         -2   -1    0    0    0  501 -0.00000000000E+00 -0.00000000000E+00 -0.26825455156E+03  0.26825455156E+03  0.00000000000E+00 0.  1.
         25    2    1    2    0    0 -0.80655141078E+02  0.11870011955E+03 -0.25363679519E+02  0.19205729741E+03  0.12509084334E+03 0.  0.
         23    2    1    2    0    0  0.80655141078E+02 -0.11870011955E+03 -0.11459139032E+03  0.20449673588E+03  0.89959758165E+02 0.  0.
          5    1    3    3  502    0 -0.80771017171E+01  0.11274576899E+03 -0.35183350653E+02  0.11845753906E+03  0.41800000000E+01 0.  1.
         -5    1    3    3    0  502 -0.72578039361E+02  0.59543505565E+01  0.98196711339E+01  0.73599758350E+02  0.41800000000E+01 0.  1.
        -11    1    4    4    0    0  0.66646339759E+02 -0.12721038204E+03 -0.75807727530E+02  0.16239158677E+03  0.00000000000E+00 0. -1.
         11    1    4    4    0    0  0.14008801319E+02  0.85102624943E+01 -0.38783662788E+02  0.42105149107E+02  0.00000000000E+00 0.  1.
</event>
<event>
 8    1  0.6832629E-009  0.1633289E+03  0.7561462E-02  0.1184989E+00
         -3   -1    0    0    0  501 -0.00000000000E+00  0.00000000000E+00  0.17373123144E+03  0.17373123144E+03  0.00000000000E+00 0.  1.
          3   -1    0    0  501    0  0.00000000000E+00 -0.00000000000E+00 -0.18317992421E+03  0.18317992421E+03  0.00000000000E+00 0. -1.
         25    2    1    2    0    0 -0.88603643981E+02 -0.10973786916E+03 -0.33694614687E+01  0.18855211060E+03  0.12509012545E+03 0.  0.
         23    2    1    2    0    0  0.88603643981E+02  0.10973786916E+03 -0.60792312997E+01  0.16835904505E+03  0.91732248102E+02 0.  0.
          5    1    3    3  502    0 -0.60313749203E+02 -0.12294023413E+03  0.32512462553E+02  0.14080689661E+03  0.41800000000E+01 0. -1.
         -5    1    3    3    0  502 -0.28289894777E+02  0.13202364971E+02 -0.35881924022E+02  0.47745213989E+02  0.41800000000E+01 0. -1.
        -11    1    4    4    0    0  0.49419269668E+02  0.92187633222E+01 -0.29039498938E+02  0.58056371832E+02  0.00000000000E+00 0. -1.
         11    1    4    4    0    0  0.39184374313E+02  0.10051910584E+03  0.22960267638E+02  0.11030267322E+03  0.00000000000E+00 0.  1.
</event>
<event>
 8    1  0.6832629E-009  0.1131042E+03  0.7561462E-02  0.1254927E+00
          1   -1    0    0  501    0  0.00000000000E+00  0.00000000000E+00  0.71000831143E+03  0.71000831143E+03  0.00000000000E+00 0. -1.
         -1   -1    0    0    0  501 -0.00000000000E+00 -0.00000000000E+00 -0.20283131220E+02  0.20283131220E+02  0.00000000000E+00 0.  1.
         25    2    1    2    0    0 -0.36625049601E+02  0.17054012243E+02  0.48544957602E+03  0.50293255789E+03  0.12509050058E+03 0.  0.
         23    2    1    2    0    0  0.36625049601E+02 -0.17054012243E+02  0.20427560419E+03  0.22735888476E+03  0.91275990381E+02 0.  0.
          5    1    3    3  502    0 -0.45422005195E+02 -0.46626333606E+02  0.20267246328E+03  0.21291024708E+03  0.41800000000E+01 0.  1.
         -5    1    3    3    0  502  0.87969555934E+01  0.63680345850E+02  0.28277711275E+03  0.29002231081E+03  0.41800000000E+01 0.  1.
        -11    1    4    4    0    0  0.95428981208E+01  0.35865372044E+02  0.10810615638E+03  0.11429931261E+03  0.00000000000E+00 0. -1.
         11    1    4    4    0    0  0.27082151480E+02 -0.52919384287E+02  0.96169447813E+02  0.11305957215E+03  0.00000000000E+00 0.  1.
</event>
<event>
 8    1  0.6832629E-009  0.1472247E+03  0.7561462E-02  0.1203925E+00
         -1   -1    0    0    0  501 -0.00000000000E+00  0.00000000000E+00  0.50431848449E+03  0.50431848449E+03  0.00000000000E+00 0.  1.
          1   -1    0    0  501    0  0.00000000000E+00 -0.00000000000E+00 -0.45039159110E+02  0.45039159110E+02  0.00000000000E+00 0. -1.
         25    2    1    2    0    0 -0.80338579888E+02 -0.61710357130E+02  0.29989785644E+03  0.34036491214E+03  0.12508834287E+03 0.  0.
         23    2    1    2    0    0  0.80338579888E+02  0.61710357130E+02  0.15938146894E+03  0.20899273146E+03  0.89515661015E+02 0.  0.
          5    1    3    3  502    0  0.33073519896E+02 -0.13716221178E+02  0.90312503472E+02  0.97241005368E+02  0.41800000000E+01 0.  1.
         -5    1    3    3    0  502 -0.11341209978E+03 -0.47994135952E+02  0.20958535297E+03  0.24312390677E+03  0.41800000000E+01 0.  1.
        -11    1    4    4    0    0 -0.13074420937E+02  0.35991060230E+02  0.46016799635E+02  0.59865204818E+02  0.00000000000E+00 0.  1.
         11    1    4    4    0    0  0.93413000825E+02  0.25719296900E+02  0.11336466930E+03  0.14912752664E+03  0.00000000000E+00 0. -1.
</event>
<event>
 8    1  0.6832629E-009  0.2171264E+03  0.7561462E-02  0.1136044E+00
         -2   -1    0    0    0  501 -0.00000000000E+00  0.00000000000E+00  0.42595978044E+03  0.42595978044E+03  0.00000000000E+00 0.  1.
          2   -1    0    0  501    0  0.00000000000E+00 -0.00000000000E+00 -0.12573765469E+03  0.12573765469E+03  0.00000000000E+00 0. -1.
         25    2    1    2    0    0 -0.87070677694E+02  0.18216659494E+03  0.19197226287E+03  0.30539479275E+03  0.12508660399E+03 0.  0.
         23    2    1    2    0    0  0.87070677694E+02 -0.18216659494E+03  0.10824986287E+03  0.24630264238E+03  0.90448812073E+02 0.  0.
          5    1    3    3  502    0  0.95343613959E+01  0.69531648120E+02  0.10733641646E+02  0.71121287956E+02  0.41800000000E+01 0.  1.
         -5    1    3    3    0  502 -0.96605039090E+02  0.11263494682E+03  0.18123862123E+03  0.23427350479E+03  0.41800000000E+01 0.  1.
        -11    1    4    4    0    0  0.10084007515E+03 -0.16635489996E+03  0.11276888941E+03  0.22485438825E+03  0.00000000000E+00 0.  1.
         11    1    4    4    0    0 -0.13769397454E+02 -0.15811694979E+02 -0.45190265374E+01  0.21448254130E+02  0.00000000000E+00 0. -1.
</event>
<event>
 8    1  0.6832629E-009  0.1191234E+03  0.7561462E-02  0.1244550E+00
          2   -1    0    0  501    0  0.00000000000E+00  0.00000000000E+00  0.10923608298E+04  0.10923608298E+04  0.00000000000E+00 0. -1.
         -2   -1    0    0    0  501 -0.00000000000E+00 -0.00000000000E+00 -0.18898403360E+02  0.18898403360E+02  0.00000000000E+00 0.  1.
         25    2    1    2    0    0 -0.25982188553E+02  0.89895163142E+02  0.62416716787E+03  0.64341743663E+03  0.12508049341E+03 0.  0.
         23    2    1    2    0    0  0.25982188553E+02 -0.89895163142E+02  0.44929525860E+03  0.46784179656E+03  0.90848790475E+02 0.  0.
          5    1    3    3  502    0  0.17232272422E+02  0.51949705700E+02  0.53114271741E+03  0.53397170504E+03  0.41800000000E+01 0.  1.
         -5    1    3    3    0  502 -0.43214460975E+02  0.37945457442E+02  0.93024450465E+02  0.10944573158E+03  0.41800000000E+01 0.  1.
        -11    1    4    4    0    0 -0.23580616704E+02 -0.67131588386E+02  0.19031761719E+03  0.20318339267E+03  0.00000000000E+00 0.  1.
         11    1    4    4    0    0  0.49562805257E+02 -0.22763574756E+02  0.25897764141E+03  0.26465840390E+03  0.00000000000E+00 0. -1.
</event>
<event>
 8    1  0.6832629E-009  0.1052296E+03  0.7561462E-02  0.1269668E+00
         -2   -1    0    0    0  501 -0.00000000000E+00  0.00000000000E+00  0.30725555272E+02  0.30725555272E+02  0.00000000000E+00 0. -1.
          2   -1    0    0  501    0  0.00000000000E+00 -0.00000000000E+00 -0.44083200357E+03  0.44083200357E+03  0.00000000000E+00 0.  1.
         25    2    1    2    0    0  0.33763216100E+02  0.28651750815E+02 -0.21505752374E+03  0.25270318479E+03  0.12509309932E+03 0.  0.
         23    2    1    2    0    0 -0.33763216100E+02 -0.28651750815E+02 -0.19504892456E+03  0.21885437405E+03  0.88838485386E+02 0.  0.
          5    1    3    3  502    0  0.30681089389E+02  0.66516285692E+02 -0.65547204419E+02  0.98385232202E+02  0.41800000000E+01 0. -1.
         -5    1    3    3    0  502  0.30821267107E+01 -0.37864534876E+02 -0.14951031932E+03  0.15431795258E+03  0.41800000000E+01 0. -1.
        -11    1    4    4    0    0 -0.62110779857E+02 -0.56559867384E+01 -0.13223266841E+03  0.14620265987E+03  0.00000000000E+00 0.  1.
         11    1    4    4    0    0  0.28347563758E+02 -0.22995764077E+02 -0.62816256151E+02  0.72651714180E+02  0.00000000000E+00 0. -1.
</event>
<event>
 8    1  0.6832629E-009  0.1233834E+03  0.7561462E-02  0.1237618E+00
         -1   -1    0    0    0  501 -0.00000000000E+00  0.00000000000E+00  0.21200915044E+03  0.21200915044E+03  0.00000000000E+00 0.  1.
          1   -1    0    0  501    0  0.00000000000E+00 -0.00000000000E+00 -0.10831112497E+03  0.10831112497E+03  0.00000000000E+00 0. -1.
         25    2    1    2    0    0  0.53651498849E+02 -0.90968971246E+02  0.65135686583E+02  0.17619079446E+03  0.12508677518E+03 0.  0.
         23    2    1    2    0    0 -0.53651498849E+02  0.90968971246E+02  0.38562338892E+02  0.14412948095E+03  0.90179910405E+02 0.  0.
          5    1    3    3  502    0  0.59074368743E+02 -0.39271495261E+02 -0.22220327761E+02  0.74452983474E+02  0.41800000000E+01 0.  1.
         -5    1    3    3    0  502 -0.54228698940E+01 -0.51697475985E+02  0.87356014344E+02  0.10173781098E+03  0.41800000000E+01 0.  1.
        -11    1    4    4    0    0 -0.26370671674E+02 -0.22142973367E+01 -0.17770483338E+02  0.31876410013E+02  0.00000000000E+00 0. -1.
         11    1    4    4    0    0 -0.27280827175E+02  0.93183268583E+02  0.56332822230E+02  0.11225307094E+03  0.00000000000E+00 0.  1.
</event>
<event>
 8    1  0.6832629E-009  0.7572436E+02  0.7561462E-02  0.1341642E+00
         -2   -1    0    0    0  501 -0.00000000000E+00  0.00000000000E+00  0.69457646842E+02  0.69457646842E+02  0.00000000000E+00 0.  1.
          2   -1    0    0  501    0  0.00000000000E+00 -0.00000000000E+00 -0.18763204255E+03  0.18763204255E+03  0.00000000000E+00 0. -1.
         25    2    1    2    0    0  0.14164112284E+02 -0.26984419426E+02 -0.81406305819E+02  0.15232690510E+03  0.12509084068E+03 0.  0.
         23    2    1    2    0    0 -0.14164112284E+02  0.26984419426E+02 -0.36768089887E+02  0.10476278429E+03  0.93244665104E+02 0.  0.
          5    1    3    3  502    0 -0.20639742689E+02  0.16997356722E+02 -0.91295378917E+02  0.95221991816E+02  0.41800000000E+01 0. -1.
         -5    1    3    3    0  502  0.34803854973E+02 -0.43981776148E+02  0.98890730973E+01  0.57104913282E+02  0.41800000000E+01 0. -1.
        -11    1    4    4    0    0 -0.92994063904E+01  0.46812847420E+02  0.14251411485E+02  0.49809882273E+02  0.00000000000E+00 0.  1.
         11    1    4    4    0    0 -0.48647058939E+01 -0.19828427994E+02 -0.51019501372E+02  0.54952902020E+02  0.00000000000E+00 0. -1.
</event>
<event>
 8    1  0.6832629E-009  0.8688810E+02  0.7561462E-02  0.1310568E+00
          2   -1    0    0  501    0  0.00000000000E+00  0.00000000000E+00  0.35498211658E+03  0.35498211658E+03  0.00000000000E+00 0. -1.
         -2   -1    0    0    0  501 -0.00000000000E+00 -0.00000000000E+00 -0.42871577597E+02  0.42871577597E+02  0.00000000000E+00 0.  1.
         25    2    1    2    0    0  0.27571119486E+02 -0.48893064370E+02  0.13910768909E+03  0.19532086741E+03  0.12509433924E+03 0.  0.
         23    2    1    2    0    0 -0.27571119486E+02  0.48893064370E+02  0.17300284990E+03  0.20253282677E+03  0.89100288850E+02 0.  0.
          5    1    3    3  502    0  0.76156007148E+01 -0.47255472054E+02 -0.63204875343E+01  0.48461303903E+02  0.41800000000E+01 0. -1.
         -5    1    3    3    0  502  0.19955518771E+02 -0.16375923158E+01  0.14542817662E+03  0.14685956351E+03  0.41800000000E+01 0. -1.
        -11    1    4    4    0    0  0.29340870983E+02  0.36846684352E+02  0.79908094844E+02  0.92757040053E+02  0.00000000000E+00 0.  1.
         11    1    4    4    0    0 -0.56911990469E+02  0.12046380018E+02  0.93094755052E+02  0.10977578671E+03  0.00000000000E+00 0. -1.
</event>
<event>
 8    1  0.6832629E-009  0.1116179E+03  0.7561462E-02  0.1257603E+00
          1   -1    0    0  501    0  0.00000000000E+00  0.00000000000E+00  0.61649682977E+03  0.61649682977E+03  0.00000000000E+00 0. -1.
         -1   -1    0    0    0  501 -0.00000000000E+00 -0.00000000000E+00 -0.21332836223E+02  0.21332836223E+02  0.00000000000E+00 0.  1.
         25    2    1    2    0    0 -0.30022026263E+02 -0.67137259350E+01  0.39711247555E+03  0.41748125605E+03  0.12508351108E+03 0.  0.
         23    2    1    2    0    0  0.30022026263E+02  0.67137259350E+01  0.19805151800E+03  0.22034840994E+03  0.91556658981E+02 0.  0.
          5    1    3    3  502    0  0.90995848860E+01 -0.60394167807E+02  0.21681251872E+03  0.22528958836E+03  0.41800000000E+01 0. -1.
         -5    1    3    3    0  502 -0.39121611149E+02  0.53680441872E+02  0.18029995683E+03  0.19219166769E+03  0.41800000000E+01 0. -1.
        -11    1    4    4    0    0  0.41916417064E+02 -0.33416368330E+02  0.94292367444E+02  0.10846515685E+03  0.00000000000E+00 0.  1.
         11    1    4    4    0    0 -0.11894390801E+02  0.40130094265E+02  0.10375915055E+03  0.11188325309E+03  0.00000000000E+00 0. -1.
</event>
<event>
 8    1  0.6832629E-009  0.1212434E+03  0.7561462E-02  0.1241060E+00
          1   -1    0    0  501    0  0.00000000000E+00  0.00000000000E+00  0.29359165995E+03  0.29359165995E+03  0.00000000000E+00 0. -1.
         -1   -1    0    0    0  501 -0.00000000000E+00 -0.00000000000E+00 -0.94716475516E+02  0.94716475516E+02  0.00000000000E+00 0.  1.
         25    2    1    2    0    0  0.72954564601E+01  0.84466988705E+02 -0.29187842281E+01  0.15113963401E+03  0.12508706488E+03 0.  0.
         23    2    1    2    0    0 -0.72954564601E+01 -0.84466988705E+02  0.20179396867E+03  0.23716850147E+03  0.91324675918E+02 0.  0.
          5    1    3    3  502    0  0.37615417063E+02  0.81114926685E+02  0.40227425799E+02  0.98133934591E+02  0.41800000000E+01 0.  1.
         -5    1    3    3    0  502 -0.30319960603E+02  0.33520620203E+01 -0.43146210027E+02  0.53005699414E+02  0.41800000000E+01 0.  1.
        -11    1    4    4    0    0  0.39200293755E+02 -0.24198159705E+02  0.99629785443E+02  0.10976478539E+03  0.00000000000E+00 0. -1.
         11    1    4    4    0    0 -0.46495750215E+02 -0.60268828999E+02  0.10216418322E+03  0.12740371608E+03  0.00000000000E+00 0.  1.
</event>
<event>
 8    1  0.6832629E-009  0.7805914E+02  0.7561462E-02  0.1334651E+00
         -2   -1    0    0    0  501 -0.00000000000E+00  0.00000000000E+00  0.51228738581E+02  0.51228738581E+02  0.00000000000E+00 0. -1.
          2   -1    0    0  501    0  0.00000000000E+00 -0.00000000000E+00 -0.36906740353E+03  0.36906740353E+03  0.00000000000E+00 0.  1.
         25    2    1    2    0    0 -0.14176989404E+02  0.72489001069E+02 -0.10317646361E+03  0.17818005754E+03  0.12508840057E+03 0.  0.
         23    2    1    2    0    0  0.14176989404E+02 -0.72489001069E+02 -0.21466220135E+03  0.24211608457E+03  0.84170632757E+02 0.  0.
          5    1    3    3  502    0  0.10990845172E+01  0.21837919907E+02  0.28527799193E+02  0.36185777032E+02  0.41800000000E+01 0. -1.
         -5    1    3    3    0  502 -0.15276073921E+02  0.50651081162E+02 -0.13170426280E+03  0.14199428051E+03  0.41800000000E+01 0. -1.
        -11    1    4    4    0    0  0.24886833799E+02 -0.48343594162E+02 -0.20784084980E+03  0.21483546364E+03  0.00000000000E+00 0.  1.
         11    1    4    4    0    0 -0.10709844395E+02 -0.24145406907E+02 -0.68213515501E+01  0.27280620936E+02  0.00000000000E+00 0. -1.
</event>
<event>
 8    1  0.6832629E-009  0.8140110E+02  0.7561462E-02  0.1325122E+00
         -1   -1    0    0    0  501 -0.00000000000E+00  0.00000000000E+00  0.76799886959E+02  0.76799886959E+02  0.00000000000E+00 0.  1.
          1   -1    0    0  501    0  0.00000000000E+00 -0.00000000000E+00 -0.17480231346E+03  0.17480231346E+03  0.00000000000E+00 0. -1.
         25    2    1    2    0    0 -0.14515679675E+02 -0.26257996364E+02 -0.71110884456E+02  0.14698656366E+03  0.12509238457E+03 0.  0.
         23    2    1    2    0    0  0.14515679675E+02  0.26257996364E+02 -0.26891542047E+02  0.10461563676E+03  0.96545787543E+02 0.  0.
          5    1    3    3  502    0 -0.34550287045E+02  0.14385474183E+02 -0.90118951741E+02  0.97670681708E+02  0.41800000000E+01 0. -1.
         -5    1    3    3    0  502  0.20034607370E+02 -0.40643470547E+02  0.19008067285E+02  0.49315881950E+02  0.41800000000E+01 0. -1.
        -11    1    4    4    0    0 -0.29761613578E+02  0.38364481247E+01 -0.43000758648E+02  0.52436029801E+02  0.00000000000E+00 0. -1.
         11    1    4    4    0    0  0.44277293253E+02  0.22421548239E+02  0.16109216601E+02  0.52179606962E+02  0.00000000000E+00 0.  1.
</event>
<event>
 8    1  0.6832629E-009  0.1149112E+03  0.7561462E-02  0.1251736E+00
          1   -1    0    0  501    0  0.00000000000E+00  0.00000000000E+00  0.61052374119E+02  0.61052374119E+02  0.00000000000E+00 0. -1.
         -1   -1    0    0    0  501 -0.00000000000E+00 -0.00000000000E+00 -0.23171094838E+03  0.23171094838E+03  0.00000000000E+00 0.  1.
         25    2    1    2    0    0  0.20550277861E-01 -0.44353689539E+02 -0.75308807459E+02  0.15260015697E+03  0.12509253067E+03 0.  0.
         23    2    1    2    0    0 -0.20550277861E-01  0.44353689539E+02 -0.95349766804E+02  0.14016316553E+03  0.92665445250E+02 0.  0.
          5    1    3    3  502    0 -0.54171161505E+02 -0.52999005089E+02 -0.31172263597E+02  0.82052371672E+02  0.41800000000E+01 0.  1.
         -5    1    3    3    0  502  0.54191711783E+02  0.86453155506E+01 -0.44136543862E+02  0.70547785302E+02  0.41800000000E+01 0.  1.
        -11    1    4    4    0    0 -0.39432344214E+02  0.44522095097E+02 -0.75269860409E+02  0.95930592660E+02  0.00000000000E+00 0.  1.
         11    1    4    4    0    0  0.39411793936E+02 -0.16840555867E+00 -0.20079906395E+02  0.44232572868E+02  0.00000000000E+00 0. -1.
</event>
<event>
 8    1  0.6832629E-009  0.2158853E+03  0.7561462E-02  0.1136988E+00
         -2   -1    0    0    0  501 -0.00000000000E+00  0.00000000000E+00  0.31023270157E+02  0.31023270157E+02  0.00000000000E+00 0.  1.
          2   -1    0    0  501    0  0.00000000000E+00 -0.00000000000E+00 -0.16199221101E+04  0.16199221101E+04  0.00000000000E+00 0. -1.
         25    2    1    2    0    0 -0.17404195644E+03  0.82820354578E+02 -0.94380436549E+03  0.97137104432E+03  0.12508082063E+03 0.  0.
         23    2    1    2    0    0  0.17404195644E+03 -0.82820354578E+02 -0.64509447443E+03  0.67957433592E+03  0.92328670330E+02 0.  0.
          5    1    3    3  502    0 -0.94397112821E+02  0.10867469618E+03 -0.65495182920E+03  0.67059702913E+03  0.41800000000E+01 0. -1.
         -5    1    3    3    0  502 -0.79644843614E+02 -0.25854341601E+02 -0.28885253629E+03  0.30077401519E+03  0.41800000000E+01 0. -1.
        -11    1    4    4    0    0  0.94547106254E+02 -0.80850215808E+02 -0.28776499646E+03  0.31350375737E+03  0.00000000000E+00 0.  1.
         11    1    4    4    0    0  0.79494850181E+02 -0.19701387708E+01 -0.35732947797E+03  0.36607057854E+03  0.00000000000E+00 0. -1.
</event>
<event>
 8    1  0.6832629E-009  0.1098283E+03  0.7561462E-02  0.1260888E+00
          1   -1    0    0  501    0  0.00000000000E+00  0.00000000000E+00  0.33184672700E+02  0.33184672700E+02  0.00000000000E+00 0. -1.
         -1   -1    0    0    0  501 -0.00000000000E+00 -0.00000000000E+00 -0.43522505508E+03  0.43522505508E+03  0.00000000000E+00 0.  1.
         25    2    1    2    0    0 -0.15665301806E+02  0.50725622107E+02 -0.22797159571E+03  0.26540233291E+03  0.12509540137E+03 0.  0.
         23    2    1    2    0    0  0.15665301806E+02 -0.50725622107E+02 -0.17406878667E+03  0.20300739487E+03  0.89964267685E+02 0.  0.
          5    1    3    3  502    0 -0.13214600257E+02  0.86730893288E+02 -0.10353726619E+03  0.13577301426E+03  0.41800000000E+01 0.  1.
         -5    1    3    3    0  502 -0.24507015494E+01 -0.36005271181E+02 -0.12443432953E+03  0.12962931866E+03  0.41800000000E+01 0.  1.
        -11    1    4    4    0    0 -0.48856422737E+01  0.20650050823E+02 -0.82063756656E+02  0.84762929727E+02  0.00000000000E+00 0.  1.
         11    1    4    4    0    0  0.20550944080E+02 -0.71375672931E+02 -0.92005030009E+02  0.11824446514E+03  0.00000000000E+00 0. -1.
</event>
<event>
 8    1  0.6832629E-009  0.8289234E+02  0.7561462E-02  0.1321038E+00
         -2   -1    0    0    0  501 -0.00000000000E+00  0.00000000000E+00  0.29529600357E+03  0.29529600357E+03  0.00000000000E+00 0.  1.
          2   -1    0    0  501    0  0.00000000000E+00 -0.00000000000E+00 -0.47362784635E+02  0.47362784635E+02  0.00000000000E+00 0. -1.
         25    2    1    2    0    0  0.22114291433E+02 -0.58961798348E+01  0.18919155026E+03  0.22795808342E+03  0.12509052037E+03 0.  0.
         23    2    1    2    0    0 -0.22114291433E+02  0.58961798348E+01  0.58741668678E+02  0.11470070478E+03  0.95822028870E+02 0.  0.
          5    1    3    3  502    0  0.16024948490E+02 -0.42117474338E+02  0.11819070678E+02  0.46774388830E+02  0.41800000000E+01 0. -1.
         -5    1    3    3    0  502  0.60893429431E+01  0.36221294503E+02  0.17737247958E+03  0.18118369459E+03  0.41800000000E+01 0. -1.
        -11    1    4    4    0    0  0.29905607631E+02 -0.52445707803E+01  0.53146414122E+02  0.61207779117E+02  0.00000000000E+00 0.  1.
         11    1    4    4    0    0 -0.52019899064E+02  0.11140750615E+02  0.55952545559E+01  0.53492925667E+02  0.00000000000E+00 0. -1.
</event>
<event>
 8    1  0.6832629E-009  0.8078183E+02  0.7561462E-02  0.1326847E+00
         -2   -1    0    0    0  501 -0.00000000000E+00  0.00000000000E+00  0.10628463754E+03  0.10628463754E+03  0.00000000000E+00 0.  1.
          2   -1    0    0  501    0  0.00000000000E+00 -0.00000000000E+00 -0.17053738695E+03  0.17053738695E+03  0.00000000000E+00 0. -1.
         25    2    1    2    0    0 -0.16644247843E+02  0.55937865924E+02  0.22606119527E+02  0.13987387603E+03  0.12509032227E+03 0.  0.
         23    2    1    2    0    0  0.16644247843E+02 -0.55937865924E+02 -0.86858868946E+02  0.13694814846E+03  0.88341702625E+02 0.  0.
          5    1    3    3  502    0  0.97189219511E+01 -0.13989929229E+02  0.55433665318E+02  0.58142404615E+02  0.41800000000E+01 0.  1.
         -5    1    3    3    0  502 -0.26363169794E+02  0.69927795153E+02 -0.32827545791E+02  0.81731471412E+02  0.41800000000E+01 0.  1.
        -11    1    4    4    0    0 -0.34455748463E+01 -0.47101610682E+02  0.13587275803E+00  0.47227663252E+02  0.00000000000E+00 0.  1.
         11    1    4    4    0    0  0.20089822689E+02 -0.88362552415E+01 -0.86994741704E+02  0.89720485211E+02  0.00000000000E+00 0. -1.
</event>
<event>
 8    1  0.6832629E-009  0.1123413E+03  0.7561462E-02  0.1256295E+00
          1   -1    0    0  501    0  0.00000000000E+00  0.00000000000E+00  0.63343277750E+03  0.63343277750E+03  0.00000000000E+00 0. -1.
         -1   -1    0    0    0  501 -0.00000000000E+00 -0.00000000000E+00 -0.23184164517E+02  0.23184164517E+02  0.00000000000E+00 0.  1.
         25    2    1    2    0    0 -0.15698443733E+02 -0.31899479745E+02  0.23003501893E+03  0.26424978754E+03  0.12509125605E+03 0.  0.
         23    2    1    2    0    0  0.15698443733E+02  0.31899479745E+02  0.38021359405E+03  0.39236715447E+03  0.90142048239E+02 0.  0.
          5    1    3    3  502    0  0.99299248594E+00  0.46954077506E+02  0.10914335057E+03  0.11889245057E+03  0.41800000000E+01 0. -1.
         -5    1    3    3    0  502 -0.16691436219E+02 -0.78853557252E+02  0.12089166836E+03  0.14535733697E+03  0.41800000000E+01 0. -1.
        -11    1    4    4    0    0  0.17985160428E+02 -0.29948036217E+02  0.12976801727E+03  0.13438783120E+03  0.00000000000E+00 0. -1.
         11    1    4    4    0    0 -0.22867166951E+01  0.61847515963E+02  0.25044557678E+03  0.25797932327E+03  0.00000000000E+00 0.  1.
</event>
<event>
 8    1  0.6832629E-009  0.1223306E+03  0.7561462E-02  0.1239301E+00
          2   -1    0    0  501    0  0.00000000000E+00  0.00000000000E+00  0.83195038451E+02  0.83195038451E+02  0.00000000000E+00 0. -1.
         -2   -1    0    0    0  501 -0.00000000000E+00 -0.00000000000E+00 -0.25223121425E+03  0.25223121425E+03  0.00000000000E+00 0.  1.
         25    2    1    2    0    0  0.34972213285E+02  0.84617590091E+02 -0.12294209009E+03  0.19785330107E+03  0.12509188213E+03 0.  0.
         23    2    1    2    0    0 -0.34972213285E+02 -0.84617590091E+02 -0.46094085710E+02  0.13757295163E+03  0.91752166338E+02 0.  0.
          5    1    3    3  502    0 -0.30685692007E+02  0.25065575115E+02 -0.97824309497E+02  0.10562652450E+03  0.41800000000E+01 0.  1.
         -5    1    3    3    0  502  0.65657905292E+02  0.59552014976E+02 -0.25117780593E+02  0.92226776572E+02  0.41800000000E+01 0.  1.
        -11    1    4    4    0    0  0.19228126740E+01  0.12261919785E+02 -0.30256046814E+02  0.32702908956E+02  0.00000000000E+00 0.  1.
         11    1    4    4    0    0 -0.36895025959E+02 -0.96879509875E+02 -0.15838038897E+02  0.10487004267E+03  0.00000000000E+00 0. -1.
</event>
<event>
 8    1  0.6832629E-009  0.1683749E+03  0.7561462E-02  0.1179553E+00
         -1   -1    0    0    0  501 -0.00000000000E+00  0.00000000000E+00  0.16284458100E+03  0.16284458100E+03  0.00000000000E+00 0.  1.
          1   -1    0    0  501    0  0.00000000000E+00 -0.00000000000E+00 -0.20890591261E+03  0.20890591261E+03  0.00000000000E+00 0. -1.
         25    2    1    2    0    0 -0.57128081243E+02 -0.12444739055E+03 -0.83041162134E+02  0.20321021451E+03  0.12509111076E+03 0.  0.
         23    2    1    2    0    0  0.57128081243E+02  0.12444739055E+03  0.36979830519E+02  0.16854027910E+03  0.91035966142E+02 0.  0.
          5    1    3    3  502    0 -0.39600105966E+02 -0.14939291692E+03 -0.71541775134E+02  0.17035876851E+03  0.41800000000E+01 0. -1.
         -5    1    3    3    0  502 -0.17527975278E+02  0.24945526368E+02 -0.11499386999E+02  0.32851446002E+02  0.41800000000E+01 0. -1.
        -11    1    4    4    0    0  0.61316658335E+02  0.56771935445E+02  0.52888861270E+02  0.98893967915E+02  0.00000000000E+00 0.  1.
         11    1    4    4    0    0 -0.41885770918E+01  0.67675455106E+02 -0.15909030750E+02  0.69646311182E+02  0.00000000000E+00 0. -1.
</event>
<event>
 8    1  0.6832629E-009  0.2072468E+03  0.7561462E-02  0.1143765E+00
         -2   -1    0    0    0  501 -0.00000000000E+00  0.00000000000E+00  0.14237625946E+03  0.14237625946E+03  0.00000000000E+00 0.  1.
          2   -1    0    0  501    0  0.00000000000E+00 -0.00000000000E+00 -0.56111655181E+03  0.56111655181E+03  0.00000000000E+00 0. -1.
         25    2    1    2    0    0 -0.19461398096E+03  0.49181715905E+02 -0.64961553643E+01  0.23660967184E+03  0.12509394073E+03 0.  0.
         23    2    1    2    0    0  0.19461398096E+03 -0.49181715905E+02 -0.41224413699E+03  0.46688313943E+03  0.87984058983E+02 0.  0.
          5    1    3    3  502    0 -0.15465436035E+03  0.53148714589E+02  0.46426017356E+02  0.17004588947E+03  0.41800000000E+01 0.  1.
         -5    1    3    3    0  502 -0.39959620610E+02 -0.39669986837E+01 -0.52922172721E+02  0.66563782370E+02  0.41800000000E+01 0.  1.
        -11    1    4    4    0    0  0.17494980309E+03 -0.21049447159E+02 -0.28486446353E+03  0.33496011018E+03  0.00000000000E+00 0.  1.
         11    1    4    4    0    0  0.19664177867E+02 -0.28132268746E+02 -0.12737967345E+03  0.13192302924E+03  0.00000000000E+00 0. -1.
</event>
<event>
 8    1  0.6832629E-009  0.1018344E+03  0.7561462E-02  0.1276485E+00
          2   -1    0    0  501    0  0.00000000000E+00  0.00000000000E+00  0.24278227746E+03  0.24278227746E+03  0.00000000000E+00 0.  1.
         -2   -1    0    0    0  501 -0.00000000000E+00 -0.00000000000E+00 -0.10638184883E+03  0.10638184883E+03  0.00000000000E+00 0. -1.
         25    2    1    2    0    0  0.50127401503E+02  0.13924585004E+02 -0.41887615503E+02  0.14181033983E+03  0.12509576213E+03 0.  0.
         23    2    1    2    0    0 -0.50127401503E+02 -0.13924585004E+02  0.17828804413E+03  0.20735378645E+03  0.92208001973E+02 0.  0.
          5    1    3    3  502    0  0.89371198522E+02 -0.33111241709E+01 -0.14296043521E+02  0.90664347617E+02  0.41800000000E+01 0. -1.
         -5    1    3    3    0  502 -0.39243797019E+02  0.17235709175E+02 -0.27591571981E+02  0.51145992215E+02  0.41800000000E+01 0. -1.
        -11    1    4    4    0    0 -0.13733889271E+02 -0.28682828070E+02  0.16157246900E+03  0.16467236283E+03  0.00000000000E+00 0.  1.
         11    1    4    4    0    0 -0.36393512232E+02  0.14758243065E+02  0.16715575134E+02  0.42681423629E+02  0.00000000000E+00 0. -1.
</event>
<event>
 8    1  0.6832629E-009  0.1152121E+03  0.7561462E-02  0.1251211E+00
         -2   -1    0    0    0  501 -0.00000000000E+00  0.00000000000E+00  0.32534306536E+03  0.32534306536E+03  0.00000000000E+00 0.  1.
          2   -1    0    0  501    0  0.00000000000E+00 -0.00000000000E+00 -0.61195521693E+02  0.61195521693E+02  0.00000000000E+00 0. -1.
         25    2    1    2    0    0  0.72714407944E+02  0.38670667714E+02  0.95853632522E+02  0.17782061556E+03  0.12509774893E+03 0.  0.
         23    2    1    2    0    0 -0.72714407944E+02 -0.38670667714E+02  0.16829391115E+03  0.20871797149E+03  0.91964914125E+02 0.  0.
          5    1    3    3  502    0  0.19361543541E+02 -0.21088259745E+02 -0.21234647999E+02  0.35888253552E+02  0.41800000000E+01 0.  1.
         -5    1    3    3    0  502  0.53352864403E+02  0.59758927459E+02  0.11708828052E+03  0.14193236201E+03  0.41800000000E+01 0.  1.
        -11    1    4    4    0    0  0.21113912905E+02 -0.70704515306E+01  0.48052882058E+02  0.52961005250E+02  0.00000000000E+00 0.  1.
         11    1    4    4    0    0 -0.93828320849E+02 -0.31600216183E+02  0.12024102909E+03  0.15575696624E+03  0.00000000000E+00 0. -1.
</event>
<event>
 8    1  0.6832629E-009  0.1179990E+03  0.7561462E-02  0.1246435E+00
         -2   -1    0    0    0  501 -0.00000000000E+00  0.00000000000E+00  0.16773676212E+03  0.16773676212E+03  0.00000000000E+00 0.  1.
          2   -1    0    0  501    0  0.00000000000E+00 -0.00000000000E+00 -0.19907428915E+03  0.19907428915E+03  0.00000000000E+00 0. -1.
         25    2    1    2    0    0  0.86190144902E+02  0.31357626873E+02 -0.13077846794E+03  0.20288549756E+03  0.12508987009E+03 0.  0.
         23    2    1    2    0    0 -0.86190144902E+02 -0.31357626873E+02  0.99440940909E+02  0.16392555372E+03  0.92579936233E+02 0.  0.
          5    1    3    3  502    0  0.37578833219E+02 -0.41499153688E+02 -0.90251320684E+02  0.10628791911E+03  0.41800000000E+01 0.  1.
         -5    1    3    3    0  502  0.48611311683E+02  0.72856780562E+02 -0.40527147256E+02  0.96597578449E+02  0.41800000000E+01 0.  1.
        -11    1    4    4    0    0 -0.65853593153E+02 -0.19728312432E+02  0.11627549337E+03  0.13507735710E+03  0.00000000000E+00 0.  1.
         11    1    4    4    0    0 -0.20336551749E+02 -0.11629314441E+02 -0.16834552466E+02  0.28848196619E+02  0.00000000000E+00 0. -1.
</event>
<event>
 8    1  0.6832629E-009  0.1109022E+03  0.7561462E-02  0.1258908E+00
         -2   -1    0    0    0  501 -0.00000000000E+00  0.00000000000E+00  0.49199042917E+02  0.49199042917E+02  0.00000000000E+00 0.  1.
          2   -1    0    0  501    0  0.00000000000E+00 -0.00000000000E+00 -0.36259349870E+03  0.36259349870E+03  0.00000000000E+00 0. -1.
         25    2    1    2    0    0 -0.46320104334E+02 -0.35648960939E+02 -0.25271538913E+03  0.28797027059E+03  0.12508160680E+03 0.  0.
         23    2    1    2    0    0  0.46320104334E+02  0.35648960939E+02 -0.60679066660E+02  0.12382227103E+03  0.90739215287E+02 0.  0.
          5    1    3    3  502    0 -0.11939925863E+02  0.34634492980E+02 -0.17032919655E+03  0.17427454643E+03  0.41800000000E+01 0.  1.
         -5    1    3    3    0  502 -0.34380178471E+02 -0.70283453919E+02 -0.82386192574E+02  0.11369572416E+03  0.41800000000E+01 0.  1.
        -11    1    4    4    0    0 -0.23175751715E+02 -0.79936628105E+01 -0.22644659836E+02  0.33373563366E+02  0.00000000000E+00 0.  1.
         11    1    4    4    0    0  0.69495856049E+02  0.43642623750E+02 -0.38034406824E+02  0.90448707665E+02  0.00000000000E+00 0. -1.
</event>
<event>
 8    1  0.6832629E-009  0.1063872E+03  0.7561462E-02  0.1267410E+00
         -1   -1    0    0    0  501 -0.00000000000E+00  0.00000000000E+00  0.33936826049E+02  0.33936826049E+02  0.00000000000E+00 0. -1.
          1   -1    0    0  501    0  0.00000000000E+00 -0.00000000000E+00 -0.44748851856E+03  0.44748851856E+03  0.00000000000E+00 0.  1.
         25    2    1    2    0    0 -0.55806313291E+02  0.18238252727E+01 -0.20933826195E+03  0.25017469782E+03  0.12508877078E+03 0.  0.
         23    2    1    2    0    0  0.55806313291E+02 -0.18238252727E+01 -0.20421343056E+03  0.23125064678E+03  0.93037978663E+02 0.  0.
          5    1    3    3  502    0  0.10927269273E+02  0.30444251338E+02 -0.46453466122E+01  0.32944032820E+02  0.41800000000E+01 0.  1.
         -5    1    3    3    0  502 -0.66733582564E+02 -0.28620426065E+02 -0.20469291533E+03  0.21723066500E+03  0.41800000000E+01 0.  1.
        -11    1    4    4    0    0  0.62780000929E+02 -0.36120080286E+02 -0.12170845971E+03  0.14162957983E+03  0.00000000000E+00 0. -1.
         11    1    4    4    0    0 -0.69736876383E+01  0.34296255013E+02 -0.82504970854E+02  0.89621066959E+02  0.00000000000E+00 0.  1.
</event>
<event>
 8    1  0.6832629E-009  0.1005394E+03  0.7561462E-02  0.1279166E+00
          1   -1    0    0  501    0  0.00000000000E+00  0.00000000000E+00  0.55833665924E+02  0.55833665924E+02  0.00000000000E+00 0. -1.
         -1   -1    0    0    0  501 -0.00000000000E+00 -0.00000000000E+00 -0.23692065033E+03  0.23692065033E+03  0.00000000000E+00 0.  1.
         25    2    1    2    0    0 -0.41592125813E+02 -0.17076389453E+02 -0.12504998874E+03  0.18250129924E+03  0.12509083312E+03 0.  0.
         23    2    1    2    0    0  0.41592125813E+02  0.17076389453E+02 -0.56036995664E+02  0.11025301702E+03  0.83630585750E+02 0.  0.
          5    1    3    3  502    0 -0.66301200910E+02 -0.45381628978E+02 -0.40908143631E+02  0.90256800886E+02  0.41800000000E+01 0.  1.
         -5    1    3    3    0  502  0.24709075097E+02  0.28305239525E+02 -0.84141845114E+02  0.92244498350E+02  0.41800000000E+01 0.  1.
        -11    1    4    4    0    0  0.54419603407E+01  0.39767780737E+02 -0.54314721114E+02  0.67536510473E+02  0.00000000000E+00 0.  1.
         11    1    4    4    0    0  0.36150165472E+02 -0.22691391285E+02 -0.17222745500E+01  0.42716506549E+02  0.00000000000E+00 0. -1.
</event>
<event>
 8    1  0.6832629E-009  0.1741328E+03  0.7561462E-02  0.1173605E+00
          4   -1    0    0  501    0  0.00000000000E+00  0.00000000000E+00  0.14068964561E+03  0.14068964561E+03  0.00000000000E+00 0.  1.
         -4   -1    0    0    0  501 -0.00000000000E+00 -0.00000000000E+00 -0.21793768284E+03  0.21793768284E+03  0.00000000000E+00 0. -1.
         25    2    1    2    0    0  0.95482702142E+02  0.98295303582E+02 -0.28526557746E+02  0.18772063282E+03  0.12508540433E+03 0.  0.
         23    2    1    2    0    0 -0.95482702142E+02 -0.98295303582E+02 -0.48721479483E+02  0.17090669563E+03  0.89757467292E+02 0.  0.
          5    1    3    3  502    0  0.10636593919E+03  0.22948344451E+02 -0.10678780045E+02  0.10941594160E+03  0.41800000000E+01 0.  1.
         -5    1    3    3    0  502 -0.10883237047E+02  0.75346959130E+02 -0.17847777700E+02  0.78304691224E+02  0.41800000000E+01 0.  1.
        -11    1    4    4    0    0 -0.45147765299E+02  0.76897429772E+01 -0.67373364892E+01  0.46290869094E+02  0.00000000000E+00 0.  1.
         11    1    4    4    0    0 -0.50334936844E+02 -0.10598504656E+03 -0.41984142994E+02  0.12461582654E+03  0.00000000000E+00 0. -1.
</event>
<event>
 8    1  0.6832629E-009  0.1132961E+03  0.7561462E-02  0.1254585E+00
          1   -1    0    0  501    0  0.00000000000E+00  0.00000000000E+00  0.54837604161E+02  0.54837604161E+02  0.00000000000E+00 0. -1.
         -1   -1    0    0    0  501 -0.00000000000E+00 -0.00000000000E+00 -0.23726641482E+03  0.23726641482E+03  0.00000000000E+00 0.  1.
         25    2    1    2    0    0  0.67484569774E+01  0.36896996943E+02 -0.10226827390E+03  0.16587214420E+03  0.12509131992E+03 0.  0.
         23    2    1    2    0    0 -0.67484569774E+01 -0.36896996943E+02 -0.80160536753E+02  0.12623187478E+03  0.90010246652E+02 0.  0.
          5    1    3    3  502    0 -0.58396362991E+02  0.24403939637E+02 -0.41366504979E+02  0.75725475334E+02  0.41800000000E+01 0.  1.
         -5    1    3    3    0  502  0.65144819968E+02  0.12493057306E+02 -0.60901768926E+02  0.90146668867E+02  0.41800000000E+01 0.  1.
        -11    1    4    4    0    0  0.41165424614E+02 -0.21039909901E+02 -0.30228614456E+02  0.55236212073E+02  0.00000000000E+00 0.  1.
         11    1    4    4    0    0 -0.47913881591E+02 -0.15857087043E+02 -0.49931922297E+02  0.70995662705E+02  0.00000000000E+00 0. -1.
</event>
<event>
 8    1  0.6832629E-009  0.1961544E+03  0.7561462E-02  0.1153025E+00
         -3   -1    0    0    0  501 -0.00000000000E+00  0.00000000000E+00  0.12513774279E+03  0.12513774279E+03  0.00000000000E+00 0.  1.
          3   -1    0    0  501    0  0.00000000000E+00 -0.00000000000E+00 -0.59108161156E+03  0.59108161156E+03  0.00000000000E+00 0. -1.
         25    2    1    2    0    0  0.61747924480E+02 -0.18603048584E+03 -0.44107348892E+03  0.49861164356E+03  0.12509036985E+03 0.  0.
         23    2    1    2    0    0 -0.61747924480E+02  0.18603048584E+03 -0.24870379853E+02  0.21760771078E+03  0.91183508139E+02 0.  0.
          5    1    3    3  502    0  0.41766092624E+02 -0.13009834211E+03 -0.40844949357E+03  0.43071852329E+03  0.41800000000E+01 0. -1.
         -5    1    3    3    0  502  0.19981831856E+02 -0.55932143738E+02 -0.32623995349E+02  0.67893120270E+02  0.41800000000E+01 0. -1.
        -11    1    4    4    0    0 -0.40269878774E+02  0.11415377535E+03  0.29945164019E+02  0.12469747556E+03  0.00000000000E+00 0.  1.
         11    1    4    4    0    0 -0.21478045706E+02  0.71876710497E+02 -0.54815543872E+02  0.92910235223E+02  0.00000000000E+00 0. -1.
</event>
<event>
 8    1  0.6832629E-009  0.1037341E+03  0.7561462E-02  0.1272634E+00
         -1   -1    0    0    0  501 -0.00000000000E+00  0.00000000000E+00  0.45640070015E+03  0.45640070015E+03  0.00000000000E+00 0.  1.
          1   -1    0    0  501    0  0.00000000000E+00 -0.00000000000E+00 -0.36746188984E+02  0.36746188984E+02  0.00000000000E+00 0. -1.
         25    2    1    2    0    0  0.49357948067E+02  0.32304675077E+02  0.30466554802E+03  0.33458305945E+03  0.12507968840E+03 0.  0.
         23    2    1    2    0    0 -0.49357948067E+02 -0.32304675077E+02  0.11498896314E+03  0.15856382968E+03  0.91870710076E+02 0.  0.
          5    1    3    3  502    0  0.36069798767E+02  0.58394882791E+02  0.29582804368E+03  0.30371482767E+03  0.41800000000E+01 0.  1.
         -5    1    3    3    0  502  0.13288149300E+02 -0.26090207714E+02  0.88375043447E+01  0.30868231783E+02  0.41800000000E+01 0.  1.
        -11    1    4    4    0    0 -0.47487425287E+02  0.23713303641E+02  0.58346286041E+02  0.78877534347E+02  0.00000000000E+00 0.  1.
         11    1    4    4    0    0 -0.18705227808E+01 -0.56017978718E+02  0.56642677104E+02  0.79686295337E+02  0.00000000000E+00 0. -1.
</event>
<event>
 8    1  0.6832629E-009  0.1634001E+03  0.7561462E-02  0.1184911E+00
         -3   -1    0    0    0  501 -0.00000000000E+00  0.00000000000E+00  0.38688521489E+02  0.38688521489E+02  0.00000000000E+00 0.  1.
          3   -1    0    0  501    0  0.00000000000E+00 -0.00000000000E+00 -0.79287324689E+03  0.79287324689E+03  0.00000000000E+00 0. -1.
         25    2    1    2    0    0 -0.69619157164E+02 -0.11711802908E+03 -0.42804863495E+03  0.46630077597E+03  0.12508924817E+03 0.  0.
         23    2    1    2    0    0  0.69619157164E+02  0.11711802908E+03 -0.32613609045E+03  0.36526099241E+03  0.92126995502E+02 0.  0.
          5    1    3    3  502    0 -0.84642267896E+02 -0.37552700674E+02 -0.30635581598E+03  0.32007167514E+03  0.41800000000E+01 0. -1.
         -5    1    3    3    0  502  0.15023110732E+02 -0.79565328409E+02 -0.12169281898E+03  0.14622910084E+03  0.41800000000E+01 0. -1.
        -11    1    4    4    0    0  0.75042927029E+02  0.61163108716E+02 -0.26537585833E+03  0.28248311976E+03  0.00000000000E+00 0. -1.
         11    1    4    4    0    0 -0.54237698645E+01  0.55954920367E+02 -0.60760232118E+02  0.82777872646E+02  0.00000000000E+00 0.  1.
</event>
<event>
 8    1  0.6832629E-009  0.3996062E+03  0.7561462E-02  0.1043916E+00
          2   -1    0    0  501    0  0.00000000000E+00  0.00000000000E+00  0.10994154957E+04  0.10994154957E+04  0.00000000000E+00 0. -1.
         -2   -1    0    0    0  501 -0.00000000000E+00 -0.00000000000E+00 -0.14994116550E+03  0.14994116550E+03  0.00000000000E+00 0.  1.
         25    2    1    2    0    0 -0.35081735215E+03 -0.16896830679E+03  0.42418003473E+03  0.58923604510E+03  0.12508921503E+03 0.  0.
         23    2    1    2    0    0  0.35081735215E+03  0.16896830679E+03  0.52529429547E+03  0.66012061609E+03  0.90565046640E+02 0.  0.
          5    1    3    3  502    0  0.52948979356E+01 -0.16557452815E+02  0.39240680438E+02  0.43121787870E+02  0.41800000000E+01 0. -1.
         -5    1    3    3    0  502 -0.35611225009E+03 -0.15241085398E+03  0.38493935429E+03  0.54611425723E+03  0.41800000000E+01 0. -1.
        -11    1    4    4    0    0  0.50792955335E+02  0.25290379159E+01  0.11176172954E+03  0.12278845440E+03  0.00000000000E+00 0. -1.
         11    1    4    4    0    0  0.30002439682E+03  0.16643926888E+03  0.41353256593E+03  0.53733216170E+03  0.00000000000E+00 0.  1.
</event>
<event>
 8    1  0.6832629E-009  0.2205135E+03  0.7561462E-02  0.1133501E+00
          1   -1    0    0  501    0  0.00000000000E+00  0.00000000000E+00  0.11457928283E+04  0.11457928283E+04  0.00000000000E+00 0. -1.
         -1   -1    0    0    0  501 -0.00000000000E+00 -0.00000000000E+00 -0.48816608572E+02  0.48816608572E+02  0.00000000000E+00 0.  1.
         25    2    1    2    0    0 -0.18680467877E+03 -0.83098477904E+02  0.68299023366E+03  0.72382658687E+03  0.12509166057E+03 0.  0.
         23    2    1    2    0    0  0.18680467877E+03  0.83098477904E+02  0.41398598609E+03  0.47078285002E+03  0.91927961775E+02 0.  0.
          5    1    3    3  502    0 -0.88904965367E+02  0.23108226993E+02  0.20988574079E+03  0.22914532422E+03  0.41800000000E+01 0. -1.
         -5    1    3    3    0  502 -0.97899713407E+02 -0.10620670490E+03  0.47310449287E+03  0.49468126265E+03  0.41800000000E+01 0. -1.
        -11    1    4    4    0    0  0.12844953033E+03  0.53653924345E+02  0.17832442170E+03  0.22622472193E+03  0.00000000000E+00 0.  1.
         11    1    4    4    0    0  0.58355148445E+02  0.29444553559E+02  0.23566156439E+03  0.24455812809E+03  0.00000000000E+00 0. -1.
</event>
<event>
 8    1  0.6832629E-009  0.1036238E+03  0.7561462E-02  0.1272855E+00
          1   -1    0    0  501    0  0.00000000000E+00  0.00000000000E+00  0.54816812980E+02  0.54816812980E+02  0.00000000000E+00 0. -1.
         -1   -1    0    0    0  501 -0.00000000000E+00 -0.00000000000E+00 -0.29031830423E+03  0.29031830423E+03  0.00000000000E+00 0.  1.
         25    2    1    2    0    0  0.49609453404E+02  0.21332311497E+02 -0.81359079463E+02  0.15869537635E+03  0.12509499303E+03 0.  0.
         23    2    1    2    0    0 -0.49609453404E+02 -0.21332311497E+02 -0.15414241178E+03  0.18643974086E+03  0.89909557225E+02 0.  0.
          5    1    3    3  502    0 -0.23940620826E+02 -0.34512072291E+02 -0.37128611019E+02  0.56216035217E+02  0.41800000000E+01 0. -1.
         -5    1    3    3    0  502  0.73550074230E+02  0.55844383787E+02 -0.44230468444E+02  0.10247934113E+03  0.41800000000E+01 0. -1.
        -11    1    4    4    0    0 -0.19743378024E+02  0.15553238609E+02 -0.13145310943E+03  0.13383431617E+03  0.00000000000E+00 0.  1.
         11    1    4    4    0    0 -0.29866075380E+02 -0.36885550106E+02 -0.22689302357E+02  0.52605424689E+02  0.00000000000E+00 0. -1.
</event>
<event>
 8    1  0.6832629E-009  0.1389283E+03  0.7561462E-02  0.1214778E+00
          2   -1    0    0  501    0  0.00000000000E+00  0.00000000000E+00  0.99696262180E+03  0.99696262180E+03  0.00000000000E+00 0. -1.
         -2   -1    0    0    0  501 -0.00000000000E+00 -0.00000000000E+00 -0.20228477931E+02  0.20228477931E+02  0.00000000000E+00 0.  1.
         25    2    1    2    0    0  0.82597988406E+02 -0.33782351335E+02  0.58675407995E+03  0.60654097594E+03  0.12509168722E+03 0.  0.
         23    2    1    2    0    0 -0.82597988406E+02  0.33782351335E+02  0.38998006392E+03  0.41065012378E+03  0.92657427988E+02 0.  0.
          5    1    3    3  502    0  0.97526755983E+02 -0.64145015307E+02  0.40020287784E+03  0.41690030817E+03  0.41800000000E+01 0. -1.
         -5    1    3    3    0  502 -0.14928767577E+02  0.30362663972E+02  0.18655120211E+03  0.18964066777E+03  0.41800000000E+01 0. -1.
        -11    1    4    4    0    0 -0.34551270821E+02  0.62189817975E+02  0.18504417973E+03  0.19824911658E+03  0.00000000000E+00 0. -1.
         11    1    4    4    0    0 -0.48046717585E+02 -0.28407466640E+02  0.20493588419E+03  0.21240100720E+03  0.00000000000E+00 0.  1.
</event>
<event>
 8    1  0.6832629E-009  0.7112395E+02  0.7561462E-02  0.1356312E+00
         -3   -1    0    0    0  501 -0.00000000000E+00  0.00000000000E+00  0.50315087792E+03  0.50315087792E+03  0.00000000000E+00 0.  1.
          3   -1    0    0  501    0  0.00000000000E+00 -0.00000000000E+00 -0.54485857159E+02  0.54485857159E+02  0.00000000000E+00 0. -1.
         25    2    1    2    0    0  0.80331204920E+01  0.47788195601E+02  0.43279346045E+03  0.45310819158E+03  0.12509440917E+03 0.  0.
         23    2    1    2    0    0 -0.80331204920E+01 -0.47788195601E+02  0.15871560303E+02  0.10452854349E+03  0.91247286612E+02 0.  0.
          5    1    3    3  502    0 -0.51099051108E+01 -0.19734246119E+01 -0.72752136708E+01  0.10020312814E+02  0.41800000000E+01 0.  1.
         -5    1    3    3    0  502  0.13143025603E+02  0.49761620213E+02  0.44006867412E+03  0.44308787877E+03  0.41800000000E+01 0.  1.
        -11    1    4    4    0    0  0.15708460868E+02  0.11753889602E+02  0.32809214676E+02  0.38227663168E+02  0.00000000000E+00 0.  1.
         11    1    4    4    0    0 -0.23741581360E+02 -0.59542085203E+02 -0.16937654373E+02  0.66300880322E+02  0.00000000000E+00 0. -1.
</event>
<event>
 8    1  0.6832629E-009  0.1586949E+03  0.7561462E-02  0.1190178E+00
          2   -1    0    0  501    0  0.00000000000E+00  0.00000000000E+00  0.88897201275E+02  0.88897201275E+02  0.00000000000E+00 0. -1.
         -2   -1    0    0    0  501 -0.00000000000E+00 -0.00000000000E+00 -0.29541051307E+03  0.29541051307E+03  0.00000000000E+00 0.  1.
         25    2    1    2    0    0 -0.31143847177E+02  0.11526706083E+03 -0.96401747226E+02  0.19798134520E+03  0.12508749597E+03 0.  0.
         23    2    1    2    0    0  0.31143847177E+02 -0.11526706083E+03 -0.11011156457E+03  0.18632636915E+03  0.91304570843E+02 0.  0.
          5    1    3    3  502    0  0.42195459297E+02  0.67752651013E+02 -0.21388957739E+02  0.82739581929E+02  0.41800000000E+01 0. -1.
         -5    1    3    3    0  502 -0.73339306474E+02  0.47514409822E+02 -0.75012789487E+02  0.11524176327E+03  0.41800000000E+01 0. -1.
        -11    1    4    4    0    0  0.18490186376E+02  0.12025726124E+02 -0.20762414532E+02  0.30291631488E+02  0.00000000000E+00 0.  1.
         11    1    4    4    0    0  0.12653660801E+02 -0.12729278696E+03 -0.89349150036E+02  0.15603473766E+03  0.00000000000E+00 0. -1.
</event>
<event>
 8    1  0.6832629E-009  0.1027317E+03  0.7561462E-02  0.1274654E+00
         -4   -1    0    0    0  501 -0.00000000000E+00  0.00000000000E+00  0.26033071490E+02  0.26033071490E+02  0.00000000000E+00 0.  1.
          4   -1    0    0  501    0  0.00000000000E+00 -0.00000000000E+00 -0.75068474470E+03  0.75068474470E+03  0.00000000000E+00 0. -1.
         25    2    1    2    0    0 -0.33842639703E+02 -0.44210496215E+02 -0.59018334458E+03  0.60585768868E+03  0.12508903422E+03 0.  0.
         23    2    1    2    0    0  0.33842639703E+02  0.44210496215E+02 -0.13446832864E+03  0.17086012751E+03  0.89507315505E+02 0.  0.
          5    1    3    3  502    0  0.18287131347E+02 -0.45472967207E+02 -0.49335977941E+03  0.49580596432E+03  0.41800000000E+01 0.  1.
         -5    1    3    3    0  502 -0.52129771050E+02  0.12624709924E+01 -0.96823565169E+02  0.11005172436E+03  0.41800000000E+01 0.  1.
        -11    1    4    4    0    0 -0.51120544791E+01  0.61235290163E+02 -0.93037594648E+02  0.11149837613E+03  0.00000000000E+00 0.  1.
         11    1    4    4    0    0  0.38954694182E+02 -0.17024793948E+02 -0.41430733989E+02  0.59361751379E+02  0.00000000000E+00 0. -1.
</event>
<event>
 8    1  0.6832629E-009  0.1102120E+03  0.7561462E-02  0.1260178E+00
         -2   -1    0    0    0  501 -0.00000000000E+00  0.00000000000E+00  0.10681320525E+03  0.10681320525E+03  0.00000000000E+00 0.  1.
          2   -1    0    0  501    0  0.00000000000E+00 -0.00000000000E+00 -0.12221558518E+03  0.12221558518E+03  0.00000000000E+00 0. -1.
         25    2    1    2    0    0 -0.74807072778E+01 -0.34072038725E+02 -0.29387695502E+02  0.13315222643E+03  0.12509601893E+03 0.  0.
         23    2    1    2    0    0  0.74807072778E+01  0.34072038725E+02  0.13985315569E+02  0.95876563994E+02  0.88203524121E+02 0.  0.
          5    1    3    3  502    0 -0.54019959079E+02 -0.56090687215E+02 -0.21531473013E+02  0.80903633424E+02  0.41800000000E+01 0.  1.
         -5    1    3    3    0  502  0.46539251801E+02  0.22018648489E+02 -0.78562224893E+01  0.52248593008E+02  0.41800000000E+01 0.  1.
        -11    1    4    4    0    0  0.28569584709E+01  0.62206328368E+02 -0.36034752461E+01  0.62376073414E+02  0.00000000000E+00 0.  1.
         11    1    4    4    0    0  0.46237488069E+01 -0.28134289643E+02  0.17588790815E+02  0.33500490579E+02  0.00000000000E+00 0. -1.
</event>
<event>
 8    1  0.6832629E-009  0.1849417E+03  0.7561462E-02  0.1163104E+00
         -2   -1    0    0    0  501 -0.00000000000E+00  0.00000000000E+00  0.11058747393E+03  0.11058747393E+03  0.00000000000E+00 0.  1.
          2   -1    0    0  501    0  0.00000000000E+00 -0.00000000000E+00 -0.54121267359E+03  0.54121267359E+03  0.00000000000E+00 0. -1.
         25    2    1    2    0    0 -0.13369025172E+03  0.95114531284E+02 -0.28789380222E+02  0.20832531621E+03  0.12510296357E+03 0.  0.
         23    2    1    2    0    0  0.13369025172E+03 -0.95114531284E+02 -0.40183581944E+03  0.44347483132E+03  0.90983749976E+02 0.  0.
          5    1    3    3  502    0 -0.12297240976E+02 -0.15422540289E+02 -0.38865484481E+02  0.43784416960E+02  0.41800000000E+01 0.  1.
         -5    1    3    3    0  502 -0.12139301074E+03  0.11053707157E+03  0.10076104258E+02  0.16454089925E+03  0.41800000000E+01 0.  1.
        -11    1    4    4    0    0  0.67000182787E+02  0.27550493238E+01 -0.11453179780E+03  0.13271830129E+03  0.00000000000E+00 0.  1.
         11    1    4    4    0    0  0.66690068930E+02 -0.97869580608E+02 -0.28730402164E+03  0.31075653002E+03  0.00000000000E+00 0. -1.
</event>
<event>
 8    1  0.6832629E-009  0.1280513E+03  0.7561462E-02  0.1230376E+00
         -2   -1    0    0    0  501 -0.00000000000E+00  0.00000000000E+00  0.97549109541E+03  0.97549109541E+03  0.00000000000E+00 0.  1.
          2   -1    0    0  501    0  0.00000000000E+00 -0.00000000000E+00 -0.41699244720E+02  0.41699244720E+02  0.00000000000E+00 0. -1.
         25    2    1    2    0    0 -0.24535571559E+02 -0.10218297662E+03  0.83833744668E+03  0.85410843892E+03  0.12509274934E+03 0.  0.
         23    2    1    2    0    0  0.24535571559E+02  0.10218297662E+03  0.95454404009E+02  0.16308190121E+03  0.80254646448E+02 0.  0.
          5    1    3    3  502    0 -0.46878531821E+02 -0.10009251199E+03  0.39526921693E+03  0.41045259648E+03  0.41800000000E+01 0.  1.
         -5    1    3    3    0  502  0.22342960262E+02 -0.20904646279E+01  0.44306822975E+03  0.44365584244E+03  0.41800000000E+01 0.  1.
        -11    1    4    4    0    0 -0.19704098192E+02  0.14516833294E+02  0.48308090511E+02  0.54154053802E+02  0.00000000000E+00 0.  1.
         11    1    4    4    0    0  0.44239669751E+02  0.87666143326E+02  0.47146313498E+02  0.10892784741E+03  0.00000000000E+00 0. -1.
</event>
<event>
 8    1  0.6832629E-009  0.1117752E+03  0.7561462E-02  0.1257317E+00
         -2   -1    0    0    0  501 -0.00000000000E+00  0.00000000000E+00  0.41075404264E+02  0.41075404264E+02  0.00000000000E+00 0. -1.
          2   -1    0    0  501    0  0.00000000000E+00 -0.00000000000E+00 -0.10590639704E+04  0.10590639704E+04  0.00000000000E+00 0.  1.
         25    2    1    2    0    0  0.49065669991E+02  0.57118273419E+02 -0.95275221244E+03  0.96387470524E+03  0.12509089483E+03 0.  0.
         23    2    1    2    0    0 -0.49065669991E+02 -0.57118273419E+02 -0.65236353741E+02  0.13626466947E+03  0.92964192920E+02 0.  0.
          5    1    3    3  502    0 -0.25170523246E+02  0.68016150726E+01 -0.48897105143E+02  0.55571723920E+02  0.41800000000E+01 0.  1.
         -5    1    3    3    0  502  0.74236193237E+02  0.50316658346E+02 -0.90385510730E+03  0.90830298132E+03  0.41800000000E+01 0.  1.
        -11    1    4    4    0    0 -0.49519223022E+02  0.72071757319E+00 -0.60142072229E+00  0.49528119179E+02  0.00000000000E+00 0. -1.
         11    1    4    4    0    0  0.45355303095E+00 -0.57838990992E+02 -0.64634933019E+02  0.86736550287E+02  0.00000000000E+00 0.  1.
</event>
<event>
 8    1  0.6832629E-009  0.1009296E+03  0.7561462E-02  0.1278353E+00
         -1   -1    0    0    0  501 -0.00000000000E+00  0.00000000000E+00  0.41517238609E+02  0.41517238609E+02  0.00000000000E+00 0.  1.
          1   -1    0    0  501    0  0.00000000000E+00 -0.00000000000E+00 -0.41202707439E+03  0.41202707439E+03  0.00000000000E+00 0. -1.
         25    2    1    2    0    0 -0.63089040563E+01 -0.77985408747E+01 -0.80188367526E+02  0.14891654690E+03  0.12508135011E+03 0.  0.
         23    2    1    2    0    0  0.63089040563E+01  0.77985408747E+01 -0.29032146826E+03  0.30462776610E+03  0.91710966835E+02 0.  0.
          5    1    3    3  502    0  0.14150518254E+02  0.47949160417E+02 -0.73531337258E+02  0.89015106080E+02  0.41800000000E+01 0.  1.
         -5    1    3    3    0  502 -0.20459422310E+02 -0.55747701291E+02 -0.66570302677E+01  0.59901440822E+02  0.41800000000E+01 0.  1.
        -11    1    4    4    0    0  0.35201703880E+02  0.37007744628E+02 -0.15391460022E+03  0.16216792926E+03  0.00000000000E+00 0.  1.
         11    1    4    4    0    0 -0.28892799824E+02 -0.29209203754E+02 -0.13640686803E+03  0.14245983684E+03  0.00000000000E+00 0. -1.
</event>
<event>
 8    1  0.6832629E-009  0.9629307E+02  0.7561462E-02  0.1288290E+00
          2   -1    0    0  501    0  0.00000000000E+00  0.00000000000E+00  0.13576396439E+03  0.13576396439E+03  0.00000000000E+00 0. -1.
         -2   -1    0    0    0  501 -0.00000000000E+00 -0.00000000000E+00 -0.97340475124E+02  0.97340475124E+02  0.00000000000E+00 0.  1.
         25    2    1    2    0    0  0.81448137640E+01  0.10673975792E+02 -0.15553934776E+02  0.12677557016E+03  0.12509935472E+03 0.  0.
         23    2    1    2    0    0 -0.81448137640E+01 -0.10673975792E+02  0.53977424038E+02  0.10632886935E+03  0.90620055179E+02 0.  0.
          5    1    3    3  502    0 -0.47876999758E+02  0.20906069979E+01 -0.42216588317E+02  0.64002269277E+02  0.41800000000E+01 0. -1.
         -5    1    3    3    0  502  0.56021813522E+02  0.85833687943E+01  0.26662653541E+02  0.62773300885E+02  0.41800000000E+01 0. -1.
        -11    1    4    4    0    0 -0.27267741720E+01 -0.48934211715E+02  0.14553774032E+02  0.51125382269E+02  0.00000000000E+00 0.  1.
         11    1    4    4    0    0 -0.54180395920E+01  0.38260235923E+02  0.39423650007E+02  0.55203487080E+02  0.00000000000E+00 0. -1.
</event>
<event>
 8    1  0.6832629E-009  0.1698128E+03  0.7561462E-02  0.1178043E+00
          2   -1    0    0  501    0  0.00000000000E+00  0.00000000000E+00  0.15916463278E+03  0.15916463278E+03  0.00000000000E+00 0. -1.
         -2   -1    0    0    0  501 -0.00000000000E+00 -0.00000000000E+00 -0.19129300454E+03  0.19129300454E+03  0.00000000000E+00 0.  1.
         25    2    1    2    0    0  0.12212308814E+03 -0.48227592956E+02 -0.51884945510E+02  0.18862656556E+03  0.12509190335E+03 0.  0.
         23    2    1    2    0    0 -0.12212308814E+03  0.48227592956E+02  0.19756573754E+02  0.16183107176E+03  0.92514994462E+02 0.  0.
          5    1    3    3  502    0  0.12684802765E+03 -0.78219338310E+02 -0.33214871739E+02  0.15273960557E+03  0.41800000000E+01 0.  1.
         -5    1    3    3    0  502 -0.47249395097E+01  0.29991745354E+02 -0.18670073770E+02  0.35886959990E+02  0.41800000000E+01 0.  1.
        -11    1    4    4    0    0 -0.16454575776E+02  0.51610903217E+02 -0.56327287389E+00  0.54173385266E+02  0.00000000000E+00 0.  1.
         11    1    4    4    0    0 -0.10566851237E+03 -0.33833102608E+01  0.20319846628E+02  0.10765768649E+03  0.00000000000E+00 0. -1.
</event>
<event>
 8    1  0.6832629E-009  0.8571246E+02  0.7561462E-02  0.1313580E+00
          2   -1    0    0  501    0  0.00000000000E+00  0.00000000000E+00  0.17018647522E+03  0.17018647522E+03  0.00000000000E+00 0. -1.
         -2   -1    0    0    0  501 -0.00000000000E+00 -0.00000000000E+00 -0.84504377484E+02  0.84504377484E+02  0.00000000000E+00 0.  1.
         25    2    1    2    0    0 -0.86254136523E+01 -0.31074759253E+01 -0.68150017463E+01  0.12561197802E+03  0.12509144897E+03 0.  0.
         23    2    1    2    0    0  0.86254136523E+01  0.31074759253E+01  0.92497099486E+02  0.12907887469E+03  0.89563320121E+02 0.  0.
          5    1    3    3  502    0  0.94629813679E+01 -0.61032714818E+02 -0.16387840926E+02  0.64035724597E+02  0.41800000000E+01 0. -1.
         -5    1    3    3    0  502 -0.18088395020E+02  0.57925238893E+02  0.95728391796E+01  0.61576253419E+02  0.41800000000E+01 0. -1.
        -11    1    4    4    0    0  0.13496726095E+02  0.23840851911E+02 -0.62175559101E+01  0.28092807561E+02  0.00000000000E+00 0.  1.
         11    1    4    4    0    0 -0.48713124426E+01 -0.20733375986E+02  0.98714655396E+02  0.10098606713E+03  0.00000000000E+00 0. -1.
</event>
<event>
 8    1  0.6832629E-009  0.1217935E+03  0.7561462E-02  0.1240167E+00
          1   -1    0    0  501    0  0.00000000000E+00  0.00000000000E+00  0.35355067320E+03  0.35355067320E+03  0.00000000000E+00 0. -1.
         -1   -1    0    0    0  501 -0.00000000000E+00 -0.00000000000E+00 -0.58333376901E+02  0.58333376901E+02  0.00000000000E+00 0.  1.
         25    2    1    2    0    0  0.75694016493E+01 -0.84612734563E+02  0.10650168429E+03  0.18494864966E+03  0.12508710391E+03 0.  0.
         23    2    1    2    0    0 -0.75694016493E+01  0.84612734563E+02  0.18871561201E+03  0.22693540044E+03  0.93110058878E+02 0.  0.
          5    1    3    3  502    0  0.27496187505E+02  0.25462062948E+02  0.15843922864E+02  0.40900602301E+02  0.41800000000E+01 0.  1.
         -5    1    3    3    0  502 -0.19926785856E+02 -0.11007479751E+03  0.90657761422E+02  0.14404804736E+03  0.41800000000E+01 0.  1.
        -11    1    4    4    0    0  0.16616144585E+02  0.34978388345E+02  0.10155785111E+02  0.40034034062E+02  0.00000000000E+00 0.  1.
         11    1    4    4    0    0 -0.24185546234E+02  0.49634346218E+02  0.17855982690E+03  0.18690136638E+03  0.00000000000E+00 0. -1.
</event>
<event>
 8    1  0.6832629E-009  0.1870368E+03  0.7561462E-02  0.1161161E+00
         -2   -1    0    0    0  501 -0.00000000000E+00  0.00000000000E+00  0.46487356032E+02  0.46487356032E+02  0.00000000000E+00 0.  1.
          2   -1    0    0  501    0  0.00000000000E+00 -0.00000000000E+00 -0.97254690490E+03  0.97254690490E+03  0.00000000000E+00 0. -1.
         25    2    1    2    0    0 -0.15803942922E+02 -0.18034687580E+03 -0.43246622316E+03  0.48523043638E+03  0.12508709762E+03 0.  0.
         23    2    1    2    0    0  0.15803942922E+02  0.18034687580E+03 -0.49359332570E+03  0.53380382455E+03  0.92398007037E+02 0.  0.
          5    1    3    3  502    0 -0.37473542862E+02 -0.10158835120E+03 -0.11758866612E+03  0.15990317794E+03  0.41800000000E+01 0. -1.
         -5    1    3    3    0  502  0.21669599940E+02 -0.78758524596E+02 -0.31487755704E+03  0.32532725844E+03  0.41800000000E+01 0. -1.
        -11    1    4    4    0    0 -0.93912721784E+01  0.75887145056E+02 -0.10046714964E+03  0.12625649660E+03  0.00000000000E+00 0.  1.
         11    1    4    4    0    0  0.25195215100E+02  0.10445973074E+03 -0.39312617606E+03  0.40754732795E+03  0.00000000000E+00 0. -1.
</event>
<event>
 8    1  0.6832629E-009  0.1636974E+03  0.7561462E-02  0.1184584E+00
         -1   -1    0    0    0  501 -0.00000000000E+00  0.00000000000E+00  0.68992707605E+02  0.68992707605E+02  0.00000000000E+00 0.  1.
          1   -1    0    0  501    0  0.00000000000E+00 -0.00000000000E+00 -0.53533606042E+03  0.53533606042E+03  0.00000000000E+00 0. -1.
         25    2    1    2    0    0  0.37080706284E+02 -0.15186930112E+03 -0.28263879611E+03  0.34636940607E+03  0.12509121869E+03 0.  0.
         23    2    1    2    0    0 -0.37080706284E+02  0.15186930112E+03 -0.18370455671E+03  0.25795936196E+03  0.91413373570E+02 0.  0.
          5    1    3    3  502    0  0.18424374363E+02 -0.73381843186E+02 -0.30633177937E+02  0.81732591238E+02  0.41800000000E+01 0.  1.
         -5    1    3    3    0  502  0.18656331920E+02 -0.78487457931E+02 -0.25200561817E+03  0.26463681483E+03  0.41800000000E+01 0.  1.
        -11    1    4    4    0    0  0.13526796274E+02  0.89512763832E+02 -0.54017170906E+02  0.10541994052E+03  0.00000000000E+00 0. -1.
         11    1    4    4    0    0 -0.50607502558E+02  0.62356537284E+02 -0.12968738580E+03  0.15253942144E+03  0.00000000000E+00 0.  1.
</event>
<event>
 8    1  0.6832629E-009  0.1030697E+03  0.7561462E-02  0.1273970E+00
          2   -1    0    0  501    0  0.00000000000E+00  0.00000000000E+00  0.41778079001E+03  0.41778079001E+03  0.00000000000E+00 0. -1.
         -2   -1    0    0    0  501 -0.00000000000E+00 -0.00000000000E+00 -0.48734049654E+02  0.48734049654E+02  0.00000000000E+00 0.  1.
         25    2    1    2    0    0  0.32556766834E+02  0.61790788279E+02  0.10232839649E+03  0.17605919244E+03  0.12509074279E+03 0.  0.
         23    2    1    2    0    0 -0.32556766834E+02 -0.61790788279E+02  0.26671834387E+03  0.29045564722E+03  0.91366095815E+02 0.  0.
          5    1    3    3  502    0  0.15074822717E+02  0.78205687782E+02  0.97673094340E+01  0.80350809672E+02  0.41800000000E+01 0. -1.
         -5    1    3    3    0  502  0.17481944117E+02 -0.16414899503E+02  0.92561087052E+02  0.95708382768E+02  0.41800000000E+01 0. -1.
        -11    1    4    4    0    0  0.90511894006E+01 -0.59699614672E+02  0.86536666303E+02  0.10552043706E+03  0.00000000000E+00 0.  1.
         11    1    4    4    0    0 -0.41607956235E+02 -0.20911736063E+01  0.18018167756E+03  0.18493521016E+03  0.00000000000E+00 0. -1.
</event>
<event>
 8    1  0.6832629E-009  0.1086914E+03  0.7561462E-02  0.1263013E+00
          3   -1    0    0  501    0  0.00000000000E+00  0.00000000000E+00  0.22850237263E+03  0.22850237263E+03  0.00000000000E+00 0. -1.
         -3   -1    0    0    0  501 -0.00000000000E+00 -0.00000000000E+00 -0.71397344361E+02  0.71397344361E+02  0.00000000000E+00 0.  1.
         25    2    1    2    0    0 -0.16816538427E+02  0.46198120183E+02  0.33806113470E+02  0.13859007096E+03  0.12508913697E+03 0.  0.
         23    2    1    2    0    0  0.16816538427E+02 -0.46198120183E+02  0.12329891480E+03  0.16130964602E+03  0.91657608724E+02 0.  0.
          5    1    3    3  502    0  0.47227872548E+02  0.38945186068E+02 -0.76640321902E+01  0.61833722617E+02  0.41800000000E+01 0. -1.
         -5    1    3    3    0  502 -0.64044410976E+02  0.72529341155E+01  0.41470145660E+02  0.76756348347E+02  0.41800000000E+01 0. -1.
        -11    1    4    4    0    0 -0.76048095367E+01  0.19722483938E+02  0.69909679367E+02  0.73035421338E+02  0.00000000000E+00 0.  1.
         11    1    4    4    0    0  0.24421347964E+02 -0.65920604121E+02  0.53389235429E+02  0.88274224685E+02  0.00000000000E+00 0. -1.
</event>
<event>
 8    1  0.6832629E-009  0.1064911E+03  0.7561462E-02  0.1267209E+00
         -4   -1    0    0    0  501 -0.00000000000E+00  0.00000000000E+00  0.56786877029E+02  0.56786877029E+02  0.00000000000E+00 0.  1.
          4   -1    0    0  501    0  0.00000000000E+00 -0.00000000000E+00 -0.22342403279E+03  0.22342403279E+03  0.00000000000E+00 0. -1.
         25    2    1    2    0    0 -0.11012717023E+02  0.24870800025E+02 -0.11310996447E+03  0.17082684293E+03  0.12509240414E+03 0.  0.
         23    2    1    2    0    0  0.11012717023E+02 -0.24870800025E+02 -0.53527191296E+02  0.10938406689E+03  0.91432364356E+02 0.  0.
          5    1    3    3  502    0  0.37919305273E-02  0.73579135404E+02 -0.45293320925E+02  0.86503447918E+02  0.41800000000E+01 0. -1.
         -5    1    3    3    0  502 -0.11016508953E+02 -0.48708335380E+02 -0.67816643540E+02  0.84323395010E+02  0.41800000000E+01 0. -1.
        -11    1    4    4    0    0  0.11972625385E+02 -0.56385175917E+02 -0.14926725610E+02  0.59543588733E+02  0.00000000000E+00 0.  1.
         11    1    4    4    0    0 -0.95990836287E+00  0.31514375892E+02 -0.38600465686E+02  0.49840478159E+02  0.00000000000E+00 0. -1.
</event>
<event>
 8    1  0.6832629E-009  0.1115804E+03  0.7561462E-02  0.1257671E+00
          2   -1    0    0  501    0  0.00000000000E+00  0.00000000000E+00  0.52319156814E+03  0.52319156814E+03  0.00000000000E+00 0. -1.
         -2   -1    0    0    0  501 -0.00000000000E+00 -0.00000000000E+00 -0.31703812456E+02  0.31703812456E+02  0.00000000000E+00 0.  1.
         25    2    1    2    0    0  0.38202723287E+02  0.12176531693E+02  0.39723270598E+03  0.41838602551E+03  0.12508128419E+03 0.  0.
         23    2    1    2    0    0 -0.38202723287E+02 -0.12176531693E+02  0.94255049704E+02  0.13650935508E+03  0.90238980708E+02 0.  0.
          5    1    3    3  502    0 -0.33123766443E+02  0.41265835144E+02  0.18942345832E+03  0.19672003460E+03  0.41800000000E+01 0.  1.
         -5    1    3    3    0  502  0.71326489730E+02 -0.29089303451E+02  0.20780924766E+03  0.22166599091E+03  0.41800000000E+01 0.  1.
        -11    1    4    4    0    0  0.34396367656E+01  0.32024903211E+02  0.56400255113E+02  0.64949321040E+02  0.00000000000E+00 0. -1.
         11    1    4    4    0    0 -0.41642360053E+02 -0.44201434904E+02  0.37854794591E+02  0.71560034040E+02  0.00000000000E+00 0.  1.
</event>
<event>
 8    1  0.6832629E-009  0.2039899E+03  0.7561462E-02  0.1146416E+00
         -2   -1    0    0    0  501 -0.00000000000E+00  0.00000000000E+00  0.56545807550E+02  0.56545807550E+02  0.00000000000E+00 0.  1.
          2   -1    0    0  501    0  0.00000000000E+00 -0.00000000000E+00 -0.17966200891E+04  0.17966200891E+04  0.00000000000E+00 0. -1.
         25    2    1    2    0    0 -0.18242265198E+03  0.62932413798E+02 -0.15512513441E+04  0.15682048861E+04  0.12508924575E+03 0.  0.
         23    2    1    2    0    0  0.18242265198E+03 -0.62932413798E+02 -0.18882293745E+03  0.28496101059E+03  0.91160096479E+02 0.  0.
          5    1    3    3  502    0 -0.17729253449E+03  0.28967781021E+02 -0.10108731360E+04  0.10267198959E+04  0.41800000000E+01 0. -1.
         -5    1    3    3    0  502 -0.51301174968E+01  0.33964632777E+02 -0.54037820813E+03  0.54148499019E+03  0.41800000000E+01 0. -1.
        -11    1    4    4    0    0  0.23691577179E+02 -0.24388057413E+01 -0.79413193598E+02  0.82907743427E+02  0.00000000000E+00 0. -1.
         11    1    4    4    0    0  0.15873107480E+03 -0.60493608057E+02 -0.10940974385E+03  0.20205326717E+03  0.00000000000E+00 0.  1.
</event>
<event>
 8    1  0.6832629E-009  0.8866702E+02  0.7561462E-02  0.1306112E+00
         -1   -1    0    0    0  501 -0.00000000000E+00  0.00000000000E+00  0.13132999123E+03  0.13132999123E+03  0.00000000000E+00 0.  1.
          1   -1    0    0  501    0  0.00000000000E+00 -0.00000000000E+00 -0.12321899834E+03  0.12321899834E+03  0.00000000000E+00 0. -1.
         25    2    1    2    0    0  0.55196928470E+02  0.36555040282E+02 -0.16146838803E+02  0.14244630890E+03  0.12508900284E+03 0.  0.
         23    2    1    2    0    0 -0.55196928470E+02 -0.36555040282E+02  0.24257831692E+02  0.11210268067E+03  0.87152720742E+02 0.  0.
          5    1    3    3  502    0  0.56722085568E+02 -0.67570849915E+01 -0.58382587621E+02  0.81786625594E+02  0.41800000000E+01 0. -1.
         -5    1    3    3    0  502 -0.15251570980E+01  0.43312125274E+02  0.42235748818E+02  0.60659683301E+02  0.41800000000E+01 0. -1.
        -11    1    4    4    0    0 -0.53674535477E+02 -0.16143269467E+02  0.52784811026E+02  0.76992189103E+02  0.00000000000E+00 0.  1.
         11    1    4    4    0    0 -0.15223929923E+01 -0.20411770815E+02 -0.28526979334E+02  0.35110491568E+02  0.00000000000E+00 0. -1.
</event>
<event>
 8    1  0.6832629E-009  0.2119994E+03  0.7561462E-02  0.1139992E+00
         -1   -1    0    0    0  501 -0.00000000000E+00  0.00000000000E+00  0.23402143971E+02  0.23402143971E+02  0.00000000000E+00 0.  1.
          1   -1    0    0  501    0  0.00000000000E+00 -0.00000000000E+00 -0.21943837099E+04  0.21943837099E+04  0.00000000000E+00 0. -1.
         25    2    1    2    0    0  0.12465821192E+03 -0.15486915425E+03 -0.11583159353E+04  0.11818914921E+04  0.12509024134E+03 0.  0.
         23    2    1    2    0    0 -0.12465821192E+03  0.15486915425E+03 -0.10126656306E+04  0.10358943617E+04  0.89784878877E+02 0.  0.
          5    1    3    3  502    0 -0.84571758666E+01 -0.39885354480E+01 -0.30471564956E+03  0.30488773627E+03  0.41800000000E+01 0. -1.
         -5    1    3    3    0  502  0.13311538779E+03 -0.15088061881E+03 -0.85360028575E+03  0.87700375588E+03  0.41800000000E+01 0. -1.
        -11    1    4    4    0    0 -0.90501522651E+02  0.52587509787E+02 -0.38221772176E+03  0.39629075010E+03  0.00000000000E+00 0.  1.
         11    1    4    4    0    0 -0.34156689270E+02  0.10228164447E+03 -0.63044790885E+03  0.63960361162E+03  0.00000000000E+00 0. -1.
</event>
<event>
 8    1  0.6832629E-009  0.1336833E+03  0.7561462E-02  0.1222091E+00
         -1   -1    0    0    0  501 -0.00000000000E+00  0.00000000000E+00  0.18517556739E+02  0.18517556739E+02  0.00000000000E+00 0.  1.
          1   -1    0    0  501    0  0.00000000000E+00 -0.00000000000E+00 -0.12404118818E+04  0.12404118818E+04  0.00000000000E+00 0. -1.
         25    2    1    2    0    0 -0.12082756317E+02  0.97411922441E+02 -0.81689222983E+03  0.83222268017E+03  0.12508636453E+03 0.  0.
         23    2    1    2    0    0  0.12082756317E+02 -0.97411922441E+02 -0.40500209519E+03  0.42670675834E+03  0.91743582151E+02 0.  0.
          5    1    3    3  502    0 -0.46801746868E+01  0.11464941359E+03 -0.79432165391E+03  0.80257756904E+03  0.41800000000E+01 0.  1.
         -5    1    3    3    0  502 -0.74025816303E+01 -0.17237491146E+02 -0.22570575929E+02  0.29645111124E+02  0.41800000000E+01 0.  1.
        -11    1    4    4    0    0  0.51112375103E+02 -0.45895405963E+02 -0.23495558710E+03  0.24479173003E+03  0.00000000000E+00 0. -1.
         11    1    4    4    0    0 -0.39029618785E+02 -0.51516516478E+02 -0.17004650809E+03  0.18191502831E+03  0.00000000000E+00 0.  1.
</event>
<event>
 8    1  0.6832629E-009  0.6757331E+02  0.7561462E-02  0.1368545E+00
          1   -1    0    0  501    0  0.00000000000E+00  0.00000000000E+00  0.10909494177E+03  0.10909494177E+03  0.00000000000E+00 0. -1.
         -1   -1    0    0    0  501 -0.00000000000E+00 -0.00000000000E+00 -0.12932472625E+03  0.12932472625E+03  0.00000000000E+00 0.  1.
         25    2    1    2    0    0 -0.12949671386E+02  0.40136005683E+02 -0.36313290930E+02  0.13691152473E+03  0.12509003783E+03 0.  0.
         23    2    1    2    0    0  0.12949671386E+02 -0.40136005683E+02  0.16083506449E+02  0.10150814330E+03  0.90921015362E+02 0.  0.
          5    1    3    3  502    0 -0.21611083569E+02  0.53031192145E+02  0.32680697062E+02  0.66066985960E+02  0.41800000000E+01 0.  1.
         -5    1    3    3    0  502  0.86614121831E+01 -0.12895186462E+02 -0.68993987991E+02  0.70844538772E+02  0.41800000000E+01 0.  1.
        -11    1    4    4    0    0  0.29799013275E+02 -0.27869516914E+02 -0.30191437623E+02  0.50756419012E+02  0.00000000000E+00 0.  1.
         11    1    4    4    0    0 -0.16849341890E+02 -0.12266488770E+02  0.46274944073E+02  0.50751724284E+02  0.00000000000E+00 0. -1.
</event>
<event>
 8    1  0.6832629E-009  0.1165583E+03  0.7561462E-02  0.1248885E+00
         -3   -1    0    0    0  501 -0.00000000000E+00  0.00000000000E+00  0.29348286835E+02  0.29348286835E+02  0.00000000000E+00 0.  1.
          3   -1    0    0  501    0  0.00000000000E+00 -0.00000000000E+00 -0.52912928311E+03  0.52912928311E+03  0.00000000000E+00 0. -1.
         25    2    1    2    0    0 -0.18230226633E+01  0.58643558038E+02 -0.31680287404E+03  0.34562100218E+03  0.12508967119E+03 0.  0.
         23    2    1    2    0    0  0.18230226633E+01 -0.58643558038E+02 -0.18297812224E+03  0.21285656777E+03  0.91567106064E+02 0.  0.
          5    1    3    3  502    0  0.35360152303E+02 -0.17387789462E+02 -0.40686096020E+02  0.56793541909E+02  0.41800000000E+01 0.  1.
         -5    1    3    3    0  502 -0.37183174966E+02  0.76031347500E+02 -0.27611677802E+03  0.28882746027E+03  0.41800000000E+01 0.  1.
        -11    1    4    4    0    0 -0.36127729983E+02  0.31179818130E+01 -0.60989100704E+02  0.70954951124E+02  0.00000000000E+00 0.  1.
         11    1    4    4    0    0  0.37950752647E+02 -0.61761539851E+02 -0.12198902154E+03  0.14190161665E+03  0.00000000000E+00 0. -1.
</event>
<event>
 8    1  0.6832629E-009  0.1046107E+03  0.7561462E-02  0.1270889E+00
         -1   -1    0    0    0  501 -0.00000000000E+00  0.00000000000E+00  0.11542790123E+03  0.11542790123E+03  0.00000000000E+00 0.  1.
          1   -1    0    0  501    0  0.00000000000E+00 -0.00000000000E+00 -0.13791311151E+03  0.13791311151E+03  0.00000000000E+00 0. -1.
         25    2    1    2    0    0 -0.21976870209E+02  0.31011096933E+02  0.39839172698E+02  0.13667249648E+03  0.12509013013E+03 0.  0.
         23    2    1    2    0    0  0.21976870209E+02 -0.31011096933E+02 -0.62324382973E+02  0.11666851626E+03  0.91008477712E+02 0.  0.
          5    1    3    3  502    0 -0.53376066093E+02  0.64397991752E+02  0.33570678233E+02  0.90225099669E+02  0.41800000000E+01 0. -1.
         -5    1    3    3    0  502  0.31399195885E+02 -0.33386894819E+02  0.62684944650E+01  0.46447396813E+02  0.41800000000E+01 0. -1.
        -11    1    4    4    0    0  0.30359099161E+02 -0.50112975847E+02 -0.88331830593E+01  0.59253779398E+02  0.00000000000E+00 0.  1.
         11    1    4    4    0    0 -0.83822289519E+01  0.19101878914E+02 -0.53491199914E+02  0.57414736858E+02  0.00000000000E+00 0. -1.
</event>
<event>
 8    1  0.6832629E-009  0.1350796E+03  0.7561462E-02  0.1220107E+00
          1   -1    0    0  501    0  0.00000000000E+00  0.00000000000E+00  0.99062413488E+03  0.99062413488E+03  0.00000000000E+00 0. -1.
         -1   -1    0    0    0  501 -0.00000000000E+00 -0.00000000000E+00 -0.30765241424E+02  0.30765241424E+02  0.00000000000E+00 0.  1.
         25    2    1    2    0    0 -0.11480332413E+03  0.62470870706E+02  0.61759846604E+03  0.64355112124E+03  0.12509103677E+03 0.  0.
         23    2    1    2    0    0  0.11480332413E+03 -0.62470870706E+02  0.34226042742E+03  0.37783825506E+03  0.92396611919E+02 0.  0.
          5    1    3    3  502    0 -0.25669174958E+02  0.37020804463E+02  0.46185175550E+02  0.64652837112E+02  0.41800000000E+01 0.  1.
         -5    1    3    3    0  502 -0.89134149173E+02  0.25450066243E+02  0.57141329049E+03  0.57889828413E+03  0.41800000000E+01 0.  1.
        -11    1    4    4    0    0  0.16062027079E+02 -0.16279166197E+01 -0.33022687830E+00  0.16147689501E+02  0.00000000000E+00 0.  1.
         11    1    4    4    0    0  0.98741297051E+02 -0.60842954086E+02  0.34259065430E+03  0.36169056556E+03  0.00000000000E+00 0. -1.
</event>
<event>
 8    1  0.6832629E-009  0.1865539E+03  0.7561462E-02  0.1161607E+00
         -1   -1    0    0    0  501 -0.00000000000E+00  0.00000000000E+00  0.27765134903E+03  0.27765134903E+03  0.00000000000E+00 0.  1.
          1   -1    0    0  501    0  0.00000000000E+00 -0.00000000000E+00 -0.19899563240E+03  0.19899563240E+03  0.00000000000E+00 0. -1.
         25    2    1    2    0    0 -0.67567185750E+02 -0.13668377889E+03  0.18466497701E+03  0.27017719887E+03  0.12508710986E+03 0.  0.
         23    2    1    2    0    0  0.67567185750E+02  0.13668377889E+03 -0.10600926039E+03  0.20646978256E+03  0.90244267516E+02 0.  0.
          5    1    3    3  502    0  0.33267082615E+02 -0.61694050306E+02  0.81189876962E+02  0.10734115311E+03  0.41800000000E+01 0. -1.
         -5    1    3    3    0  502 -0.10083426837E+03 -0.74989728586E+02  0.10347510005E+03  0.16283604577E+03  0.41800000000E+01 0. -1.
        -11    1    4    4    0    0  0.52702723521E+02  0.15313350063E+02 -0.34193168308E+02  0.64662574304E+02  0.00000000000E+00 0. -1.
         11    1    4    4    0    0  0.14864462229E+02  0.12137042883E+03 -0.71816092081E+02  0.14180720826E+03  0.00000000000E+00 0.  1.
</event>
<event>
 8    1  0.6832629E-009  0.1373845E+03  0.7561462E-02  0.1216892E+00
          2   -1    0    0  501    0  0.00000000000E+00  0.00000000000E+00  0.20117792621E+03  0.20117792621E+03  0.00000000000E+00 0. -1.
         -2   -1    0    0    0  501 -0.00000000000E+00 -0.00000000000E+00 -0.10355481117E+03  0.10355481117E+03  0.00000000000E+00 0.  1.
         25    2    1    2    0    0  0.86576272988E+02 -0.26547968663E+02  0.78878214250E+02  0.17340445429E+03  0.12508831440E+03 0.  0.
         23    2    1    2    0    0 -0.86576272988E+02  0.26547968663E+02  0.18744900789E+02  0.13132828309E+03  0.93249669963E+02 0.  0.
          5    1    3    3  502    0 -0.88443754510E+01 -0.47960605010E+02  0.53027840447E+02  0.72165551841E+02  0.41800000000E+01 0. -1.
         -5    1    3    3    0  502  0.95420648439E+02  0.21412636347E+02  0.25850373803E+02  0.10123890245E+03  0.41800000000E+01 0. -1.
        -11    1    4    4    0    0 -0.87829148965E+02 -0.12636379881E+02  0.23616146352E+02  0.91822436653E+02  0.00000000000E+00 0.  1.
         11    1    4    4    0    0  0.12528759775E+01  0.39184348544E+02 -0.48712455632E+01  0.39505846433E+02  0.00000000000E+00 0. -1.
</event>
<event>
 8    1  0.6832629E-009  0.1718972E+03  0.7561462E-02  0.1175884E+00
         -3   -1    0    0    0  501 -0.00000000000E+00  0.00000000000E+00  0.71808240803E+03  0.71808240803E+03  0.00000000000E+00 0.  1.
          3   -1    0    0  501    0  0.00000000000E+00 -0.00000000000E+00 -0.45905215211E+02  0.45905215211E+02  0.00000000000E+00 0. -1.
         25    2    1    2    0    0 -0.65274687195E+02 -0.12205399510E+03  0.26340480461E+03  0.32278174217E+03  0.12509196407E+03 0.  0.
         23    2    1    2    0    0  0.65274687195E+02  0.12205399510E+03  0.40877238821E+03  0.44120588108E+03  0.91704970564E+02 0.  0.
          5    1    3    3  502    0 -0.57788234591E+02 -0.14532754210E+03  0.24908077840E+03  0.29413990058E+03  0.41800000000E+01 0. -1.
         -5    1    3    3    0  502 -0.74864526035E+01  0.23273546995E+02  0.14324026218E+02  0.28641841585E+02  0.41800000000E+01 0. -1.
        -11    1    4    4    0    0 -0.10111990837E+02  0.70475873329E+02  0.13541618783E+03  0.15299230375E+03  0.00000000000E+00 0. -1.
         11    1    4    4    0    0  0.75386678031E+02  0.51578121771E+02  0.27335620038E+03  0.28821357732E+03  0.00000000000E+00 0.  1.
</event>
<event>
 8    1  0.6832629E-009  0.3130430E+03  0.7561462E-02  0.1078896E+00
          1   -1    0    0  501    0  0.00000000000E+00  0.00000000000E+00  0.14846805428E+04  0.14846805428E+04  0.00000000000E+00 0. -1.
         -1   -1    0    0    0  501 -0.00000000000E+00 -0.00000000000E+00 -0.70719622986E+02  0.70719622986E+02  0.00000000000E+00 0.  1.
         25    2    1    2    0    0  0.28125422686E+03 -0.11442793470E+03  0.64863344106E+03  0.72702905219E+03  0.12509280352E+03 0.  0.
         23    2    1    2    0    0 -0.28125422686E+03  0.11442793470E+03  0.76532747877E+03  0.82837111362E+03  0.90966256101E+02 0.  0.
          5    1    3    3  502    0  0.19127432982E+03 -0.21849136127E+02  0.31415091920E+03  0.36847188011E+03  0.41800000000E+01 0. -1.
         -5    1    3    3    0  502  0.89979897043E+02 -0.92578798569E+02  0.33448252186E+03  0.35855717207E+03  0.41800000000E+01 0. -1.
        -11    1    4    4    0    0 -0.29193580484E+02  0.52425231710E+01  0.25226462401E+02  0.38937431810E+02  0.00000000000E+00 0.  1.
         11    1    4    4    0    0 -0.25206064638E+03  0.10918541152E+03  0.74010101637E+03  0.78943368181E+03  0.00000000000E+00 0. -1.
</event>
<event>
 8    1  0.6832629E-009  0.8558428E+02  0.7561462E-02  0.1313912E+00
          2   -1    0    0  501    0  0.00000000000E+00  0.00000000000E+00  0.13084070487E+03  0.13084070487E+03  0.00000000000E+00 0. -1.
         -2   -1    0    0    0  501 -0.00000000000E+00 -0.00000000000E+00 -0.43974597202E+03  0.43974597202E+03  0.00000000000E+00 0.  1.
         25    2    1    2    0    0 -0.57670058875E+02 -0.28139764816E+02 -0.40172327489E+03  0.42561378693E+03  0.12509126261E+03 0.  0.
         23    2    1    2    0    0  0.57670058875E+02  0.28139764816E+02  0.92818007733E+02  0.14497288996E+03  0.91017988387E+02 0.  0.
          5    1    3    3  502    0  0.19823337462E+02 -0.20552052995E+02 -0.17920702763E+02  0.33970216042E+02  0.41800000000E+01 0.  1.
         -5    1    3    3    0  502 -0.77493396337E+02 -0.75877118213E+01 -0.38380257213E+03  0.39164357089E+03  0.41800000000E+01 0.  1.
        -11    1    4    4    0    0  0.27380601600E+02  0.15918565825E+02 -0.12994647774E+02  0.34233886029E+02  0.00000000000E+00 0.  1.
         11    1    4    4    0    0  0.30289457275E+02  0.12221198991E+02  0.10581265551E+03  0.11073900393E+03  0.00000000000E+00 0. -1.
</event>
<event>
 8    1  0.6832629E-009  0.1248146E+03  0.7561462E-02  0.1235359E+00
          1   -1    0    0  501    0  0.00000000000E+00  0.00000000000E+00  0.68968074274E+03  0.68968074274E+03  0.00000000000E+00 0. -1.
         -1   -1    0    0    0  501 -0.00000000000E+00 -0.00000000000E+00 -0.32751862968E+02  0.32751862968E+02  0.00000000000E+00 0.  1.
         25    2    1    2    0    0  0.79781960598E+02  0.14011680961E+02  0.51013372317E+03  0.53145318728E+03  0.12507832074E+03 0.  0.
         23    2    1    2    0    0 -0.79781960598E+02 -0.14011680961E+02  0.14679515660E+03  0.19097941842E+03  0.91448520048E+02 0.  0.
          5    1    3    3  502    0  0.10914022045E+03  0.16786491377E+02  0.30980401093E+03  0.32892152803E+03  0.41800000000E+01 0. -1.
         -5    1    3    3    0  502 -0.29358259852E+02 -0.27748104155E+01  0.20032971224E+03  0.20253165926E+03  0.41800000000E+01 0. -1.
        -11    1    4    4    0    0 -0.36473070978E+02 -0.43635532257E+02  0.33204046399E+02  0.65854789341E+02  0.00000000000E+00 0.  1.
         11    1    4    4    0    0 -0.43308889620E+02  0.29623851296E+02  0.11359111020E+03  0.12512462908E+03  0.00000000000E+00 0. -1.
</event>
<event>
 8    1  0.6832629E-009  0.1215065E+03  0.7561462E-02  0.1240632E+00
          1   -1    0    0  501    0  0.00000000000E+00  0.00000000000E+00  0.11564560386E+04  0.11564560386E+04  0.00000000000E+00 0. -1.
         -1   -1    0    0    0  501 -0.00000000000E+00 -0.00000000000E+00 -0.30019212260E+02  0.30019212260E+02  0.00000000000E+00 0.  1.
         25    2    1    2    0    0 -0.64233417527E+02  0.17863472763E+02  0.10291779832E+04  0.10388952143E+04  0.12510359604E+03 0.  0.
         23    2    1    2    0    0  0.64233417527E+02 -0.17863472763E+02  0.97258843215E+02  0.14758003657E+03  0.88744290091E+02 0.  0.
          5    1    3    3  502    0  0.35449835902E+02  0.37094350607E+01  0.16474638418E+03  0.16860988783E+03  0.41800000000E+01 0. -1.
         -5    1    3    3    0  502 -0.99683253429E+02  0.14154037703E+02  0.86443159898E+03  0.87028532650E+03  0.41800000000E+01 0. -1.
        -11    1    4    4    0    0  0.77056247448E+02  0.80173797173E+01  0.50039401954E+02  0.92227357092E+02  0.00000000000E+00 0. -1.
         11    1    4    4    0    0 -0.12822829921E+02 -0.25880852481E+02  0.47219441261E+02  0.55352679477E+02  0.00000000000E+00 0.  1.
</event>
<event>
 8    1  0.6832629E-009  0.1784282E+03  0.7561462E-02  0.1169333E+00
         -1   -1    0    0    0  501 -0.00000000000E+00  0.00000000000E+00  0.77281300450E+02  0.77281300450E+02  0.00000000000E+00 0.  1.
          1   -1    0    0  501    0  0.00000000000E+00 -0.00000000000E+00 -0.80793239985E+03  0.80793239985E+03  0.00000000000E+00 0. -1.
         25    2    1    2    0    0 -0.90810267743E+02  0.12737810883E+03 -0.66233589551E+03  0.69195929200E+03  0.12508851254E+03 0.  0.
         23    2    1    2    0    0  0.90810267743E+02 -0.12737810883E+03 -0.68315203895E+02  0.19325440830E+03  0.90601390224E+02 0.  0.
          5    1    3    3  502    0 -0.11488959765E+03  0.62264394386E+02 -0.43029379686E+03  0.44971846579E+03  0.41800000000E+01 0.  1.
         -5    1    3    3    0  502  0.24079329908E+02  0.65113714440E+02 -0.23204209865E+03  0.24224082621E+03  0.41800000000E+01 0.  1.
        -11    1    4    4    0    0  0.34456878240E+02 -0.53712104267E+02  0.18262597762E+02  0.66376118295E+02  0.00000000000E+00 0. -1.
         11    1    4    4    0    0  0.56353389503E+02 -0.73666004558E+02 -0.86577801657E+02  0.12687829001E+03  0.00000000000E+00 0.  1.
</event>
<event>
 8    1  0.6832629E-009  0.2034867E+03  0.7561462E-02  0.1146830E+00
          1   -1    0    0  501    0  0.00000000000E+00  0.00000000000E+00  0.18291532436E+03  0.18291532436E+03  0.00000000000E+00 0. -1.
         -1   -1    0    0    0  501 -0.00000000000E+00 -0.00000000000E+00 -0.26819409995E+03  0.26819409995E+03  0.00000000000E+00 0.  1.
         25    2    1    2    0    0  0.88287467595E+02 -0.16971840325E+03 -0.14577555416E+02  0.22904080242E+03  0.12509264854E+03 0.  0.
         23    2    1    2    0    0 -0.88287467595E+02  0.16971840325E+03 -0.70701220173E+02  0.22206862188E+03  0.87845301266E+02 0.  0.
          5    1    3    3  502    0  0.76201758135E+02 -0.17786034583E+03 -0.41686862456E+02  0.19798049768E+03  0.41800000000E+01 0.  1.
         -5    1    3    3    0  502  0.12085709461E+02  0.81419425862E+01  0.27109307040E+02  0.31060304738E+02  0.41800000000E+01 0.  1.
        -11    1    4    4    0    0 -0.97905195512E+01  0.73248975231E+02 -0.63592061272E+02  0.97494701919E+02  0.00000000000E+00 0.  1.
         11    1    4    4    0    0 -0.78496948044E+02  0.96469428014E+02 -0.71091589005E+01  0.12457391996E+03  0.00000000000E+00 0. -1.
</event>
<event>
 8    1  0.6832629E-009  0.9499747E+02  0.7561462E-02  0.1291182E+00
         -1   -1    0    0    0  501 -0.00000000000E+00  0.00000000000E+00  0.23615856170E+02  0.23615856170E+02  0.00000000000E+00 0.  1.
          1   -1    0    0  501    0  0.00000000000E+00 -0.00000000000E+00 -0.94549594068E+03  0.94549594068E+03  0.00000000000E+00 0. -1.
         25    2    1    2    0    0  0.55853837293E+02  0.49809067556E+02 -0.72546023210E+03  0.73995763956E+03  0.12507663909E+03 0.  0.
         23    2    1    2    0    0 -0.55853837293E+02 -0.49809067556E+02 -0.19641985242E+03  0.22915415729E+03  0.91270340354E+02 0.  0.
          5    1    3    3  502    0  0.54041730301E+01 -0.19133089308E+02 -0.17396900485E+02  0.26747051036E+02  0.41800000000E+01 0. -1.
         -5    1    3    3    0  502  0.50449664263E+02  0.68942156864E+02 -0.70806333161E+03  0.71321058853E+03  0.41800000000E+01 0. -1.
        -11    1    4    4    0    0 -0.18630810372E+02 -0.42234293349E+02 -0.22907532103E+02  0.51532491274E+02  0.00000000000E+00 0.  1.
         11    1    4    4    0    0 -0.37223026921E+02 -0.75747742063E+01 -0.17351232031E+03  0.17762166601E+03  0.00000000000E+00 0. -1.
</event>
<event>
 8    1  0.6832629E-009  0.8641999E+02  0.7561462E-02  0.1311760E+00
          2   -1    0    0  501    0  0.00000000000E+00  0.00000000000E+00  0.17506453773E+03  0.17506453773E+03  0.00000000000E+00 0.  1.
         -2   -1    0    0    0  501 -0.00000000000E+00 -0.00000000000E+00 -0.83669871610E+02  0.83669871610E+02  0.00000000000E+00 0. -1.
         25    2    1    2    0    0 -0.24525858939E+02  0.48796098964E+01 -0.32030613211E+01  0.12760689171E+03  0.12509168981E+03 0.  0.
         23    2    1    2    0    0  0.24525858939E+02 -0.48796098964E+01  0.94597727440E+02  0.13112751763E+03  0.87294716296E+02 0.  0.
          5    1    3    3  502    0  0.32823330953E+02 -0.30043644729E+02  0.28736502452E+02  0.53134269700E+02  0.41800000000E+01 0. -1.
         -5    1    3    3    0  502 -0.57349189892E+02  0.34923254625E+02 -0.31939563773E+02  0.74472622009E+02  0.41800000000E+01 0. -1.
        -11    1    4    4    0    0 -0.12577677708E+02 -0.17613485630E+02  0.88889560405E+02  0.91486538909E+02  0.00000000000E+00 0.  1.
         11    1    4    4    0    0  0.37103536647E+02  0.12733875733E+02  0.57081670349E+01  0.39640978719E+02  0.00000000000E+00 0. -1.
</event>
<event>
 8    1  0.6832629E-009  0.1542952E+03  0.7561462E-02  0.1195292E+00
          2   -1    0    0  501    0  0.00000000000E+00  0.00000000000E+00  0.84884825733E+03  0.84884825733E+03  0.00000000000E+00 0. -1.
         -2   -1    0    0    0  501 -0.00000000000E+00 -0.00000000000E+00 -0.36395769387E+02  0.36395769387E+02  0.00000000000E+00 0.  1.
         25    2    1    2    0    0  0.71674998269E+02 -0.11881616600E+03  0.43661246722E+03  0.47490317709E+03  0.12509194377E+03 0.  0.
         23    2    1    2    0    0 -0.71674998269E+02  0.11881616600E+03  0.37584002073E+03  0.41034084963E+03  0.88709103366E+02 0.  0.
          5    1    3    3  502    0 -0.16062306562E+02 -0.63231379880E+02  0.79270542859E+02  0.10274967863E+03  0.41800000000E+01 0. -1.
         -5    1    3    3    0  502  0.87737304831E+02 -0.55584786115E+02  0.35734192436E+03  0.37215349846E+03  0.41800000000E+01 0. -1.
        -11    1    4    4    0    0 -0.97989952496E+01  0.25352438219E+02  0.12155055534E+02  0.29774348131E+02  0.00000000000E+00 0.  1.
         11    1    4    4    0    0 -0.61876003019E+02  0.93463727776E+02  0.36368496519E+03  0.38056650150E+03  0.00000000000E+00 0. -1.
</event>
<event>
 8    1  0.6832629E-009  0.1110703E+03  0.7561462E-02  0.1258601E+00
          2   -1    0    0  501    0  0.00000000000E+00  0.00000000000E+00  0.12828825670E+03  0.12828825670E+03  0.00000000000E+00 0. -1.
         -2   -1    0    0    0  501 -0.00000000000E+00 -0.00000000000E+00 -0.15178138149E+03  0.15178138149E+03  0.00000000000E+00 0.  1.
         25    2    1    2    0    0  0.16792282708E+02 -0.82981353483E+02  0.14536062553E+02  0.15174766590E+03  0.12509265049E+03 0.  0.
         23    2    1    2    0    0 -0.16792282708E+02  0.82981353483E+02 -0.38029187345E+02  0.12832197230E+03  0.88613902404E+02 0.  0.
          5    1    3    3  502    0 -0.29349116493E+02 -0.37216048016E+02 -0.43536705177E+02  0.64492805541E+02  0.41800000000E+01 0.  1.
         -5    1    3    3    0  502  0.46141399201E+02 -0.45765305467E+02  0.58072767730E+02  0.87254860361E+02  0.41800000000E+01 0.  1.
        -11    1    4    4    0    0 -0.29038235858E+02  0.37660128617E+01 -0.38242671570E+02  0.48165380964E+02  0.00000000000E+00 0.  1.
         11    1    4    4    0    0  0.12245953150E+02  0.79215340622E+02  0.21348422535E+00  0.80156591331E+02  0.00000000000E+00 0. -1.
</event>
<event>
 8    1  0.6832629E-009  0.9987805E+02  0.7561462E-02  0.1280553E+00
         -2   -1    0    0    0  501 -0.00000000000E+00  0.00000000000E+00  0.68725762953E+02  0.68725762953E+02  0.00000000000E+00 0.  1.
          2   -1    0    0  501    0  0.00000000000E+00 -0.00000000000E+00 -0.24139893400E+03  0.24139893400E+03  0.00000000000E+00 0. -1.
         25    2    1    2    0    0  0.14881984226E+02 -0.65333007696E+02 -0.12216407345E+03  0.18724736288E+03  0.12509052208E+03 0.  0.
         23    2    1    2    0    0 -0.14881984226E+02  0.65333007696E+02 -0.50509097595E+02  0.12287733407E+03  0.89765221212E+02 0.  0.
          5    1    3    3  502    0 -0.46168596334E+02 -0.41896759083E+02 -0.10029415998E+03  0.11816627538E+03  0.41800000000E+01 0. -1.
         -5    1    3    3    0  502  0.61050580560E+02 -0.23436248614E+02 -0.21869913466E+02  0.69081087505E+02  0.41800000000E+01 0. -1.
        -11    1    4    4    0    0 -0.22103141849E+02  0.44352027279E+02 -0.74960118776E+02  0.89859170986E+02  0.00000000000E+00 0. -1.
         11    1    4    4    0    0  0.72211576224E+01  0.20980980417E+02  0.24451021181E+02  0.33018163084E+02  0.00000000000E+00 0.  1.
</event>
<event>
 8    1  0.6832629E-009  0.1097625E+03  0.7561462E-02  0.1261010E+00
         -2   -1    0    0    0  501 -0.00000000000E+00  0.00000000000E+00  0.38668925874E+02  0.38668925874E+02  0.00000000000E+00 0.  1.
          2   -1    0    0  501    0  0.00000000000E+00 -0.00000000000E+00 -0.33911138375E+03  0.33911138375E+03  0.00000000000E+00 0. -1.
         25    2    1    2    0    0  0.18806233587E+02 -0.73795024079E+01 -0.22189129068E+03  0.25552331715E+03  0.12509312231E+03 0.  0.
         23    2    1    2    0    0 -0.18806233587E+02  0.73795024079E+01 -0.78551167189E+02  0.12225699247E+03  0.91478712623E+02 0.  0.
          5    1    3    3  502    0 -0.49787668087E+02 -0.24497341531E+02 -0.10560955979E+03  0.11937245560E+03  0.41800000000E+01 0.  1.
         -5    1    3    3    0  502  0.68593901674E+02  0.17117839123E+02 -0.11628173089E+03  0.13615086155E+03  0.41800000000E+01 0.  1.
        -11    1    4    4    0    0 -0.40774720610E+02  0.37756005352E+02 -0.39893018362E+02  0.68407212303E+02  0.00000000000E+00 0.  1.
         11    1    4    4    0    0  0.21968487023E+02 -0.30376502944E+02 -0.38658148827E+02  0.53849780166E+02  0.00000000000E+00 0. -1.
</event>
<event>
 8    1  0.6832629E-009  0.1175118E+03  0.7561462E-02  0.1247259E+00
         -2   -1    0    0    0  501 -0.00000000000E+00  0.00000000000E+00  0.40399233808E+02  0.40399233808E+02  0.00000000000E+00 0.  1.
          2   -1    0    0  501    0  0.00000000000E+00 -0.00000000000E+00 -0.46879112843E+03  0.46879112843E+03  0.00000000000E+00 0. -1.
         25    2    1    2    0    0  0.86023983088E+02  0.75726593002E+01 -0.20746121170E+03  0.25718674079E+03  0.12508954569E+03 0.  0.
         23    2    1    2    0    0 -0.86023983088E+02 -0.75726593002E+01 -0.22093068292E+03  0.25200362145E+03  0.85076364128E+02 0.  0.
          5    1    3    3  502    0  0.94480291919E+02  0.48507136007E+02 -0.17210984352E+03  0.20228380667E+03  0.41800000000E+01 0.  1.
         -5    1    3    3    0  502 -0.84563088305E+01 -0.40934476707E+02 -0.35351368180E+02  0.54902934115E+02  0.41800000000E+01 0.  1.
        -11    1    4    4    0    0 -0.33398349570E+02 -0.68764890978E+01 -0.11384563693E+02  0.35949188403E+02  0.00000000000E+00 0.  1.
         11    1    4    4    0    0 -0.52625633518E+02 -0.69617020236E+00 -0.20954611923E+03  0.21605443305E+03  0.00000000000E+00 0. -1.
</event>
<event>
 8    1  0.6832629E-009  0.6604132E+02  0.7561462E-02  0.1374097E+00
          2   -1    0    0  501    0  0.00000000000E+00  0.00000000000E+00  0.10511882985E+03  0.10511882985E+03  0.00000000000E+00 0. -1.
         -2   -1    0    0    0  501 -0.00000000000E+00 -0.00000000000E+00 -0.12521709435E+03  0.12521709435E+03  0.00000000000E+00 0.  1.
         25    2    1    2    0    0  0.26980872389E+02 -0.12286605091E+02  0.10699806688E+02  0.12900080118E+03  0.12509113758E+03 0.  0.
         23    2    1    2    0    0 -0.26980872389E+02  0.12286605091E+02 -0.30798071184E+02  0.10133512302E+03  0.91876862322E+02 0.  0.
          5    1    3    3  502    0  0.38825835204E+02 -0.20134314178E+02  0.61784070140E+02  0.75812794499E+02  0.41800000000E+01 0.  1.
         -5    1    3    3    0  502 -0.11844962814E+02  0.78477090863E+01 -0.51084263452E+02  0.53188006678E+02  0.41800000000E+01 0.  1.
        -11    1    4    4    0    0 -0.48720974366E+02  0.75383699282E+00 -0.50228069184E+02  0.69979715257E+02  0.00000000000E+00 0.  1.
         11    1    4    4    0    0  0.21740101977E+02  0.11532768098E+02  0.19429998000E+02  0.31355407768E+02  0.00000000000E+00 0. -1.
</event>
<event>
 8    1  0.6832629E-009  0.1562141E+03  0.7561462E-02  0.1193039E+00
          2   -1    0    0  501    0  0.00000000000E+00  0.00000000000E+00  0.14305448792E+04  0.14305448792E+04  0.00000000000E+00 0. -1.
         -2   -1    0    0    0  501 -0.00000000000E+00 -0.00000000000E+00 -0.20657968826E+02  0.20657968826E+02  0.00000000000E+00 0.  1.
         25    2    1    2    0    0 -0.13075087615E+03  0.26862425977E+02  0.84750035676E+03  0.86701840245E+03  0.12508666574E+03 0.  0.
         23    2    1    2    0    0  0.13075087615E+03 -0.26862425977E+02  0.56238655364E+03  0.58418444560E+03  0.84708023340E+02 0.  0.
          5    1    3    3  502    0 -0.31939840544E+02 -0.26952640706E+02  0.49937284285E+03  0.50113601630E+03  0.41800000000E+01 0. -1.
         -5    1    3    3    0  502 -0.98811035606E+02  0.53815066682E+02  0.34812751391E+03  0.36588238616E+03  0.41800000000E+01 0. -1.
        -11    1    4    4    0    0  0.49948854890E+02 -0.53079439838E+02  0.27636439333E+03  0.28581391313E+03  0.00000000000E+00 0. -1.
         11    1    4    4    0    0  0.80802021260E+02  0.26217013861E+02  0.28602216032E+03  0.29837053247E+03  0.00000000000E+00 0.  1.
</event>
<event>
 8    1  0.6832629E-009  0.1136268E+03  0.7561462E-02  0.1253997E+00
          2   -1    0    0  501    0  0.00000000000E+00  0.00000000000E+00  0.56239068615E+03  0.56239068615E+03  0.00000000000E+00 0.  1.
         -2   -1    0    0    0  501 -0.00000000000E+00 -0.00000000000E+00 -0.37458702027E+02  0.37458702027E+02  0.00000000000E+00 0. -1.
         25    2    1    2    0    0 -0.72562058749E+02 -0.56591625613E+02  0.27166840200E+03  0.31292003438E+03  0.12508941927E+03 0.  0.
         23    2    1    2    0    0  0.72562058749E+02  0.56591625613E+02  0.25326358212E+03  0.28692935379E+03  0.98580665346E+02 0.  0.
          5    1    3    3  502    0 -0.35660004650E+02 -0.27802552688E+02  0.26075497246E+03  0.26467951551E+03  0.41800000000E+01 0. -1.
         -5    1    3    3    0  502 -0.36902054098E+02 -0.28789072924E+02  0.10913429536E+02  0.48240518869E+02  0.41800000000E+01 0. -1.
        -11    1    4    4    0    0  0.22172219051E+02  0.77268194059E+02  0.15174706362E+03  0.17172405897E+03  0.00000000000E+00 0.  1.
         11    1    4    4    0    0  0.50389839698E+02 -0.20676568446E+02  0.10151651850E+03  0.11520529483E+03  0.00000000000E+00 0. -1.
</event>
<event>
 8    1  0.6832629E-009  0.1039879E+03  0.7561462E-02  0.1272127E+00
          2   -1    0    0  501    0  0.00000000000E+00  0.00000000000E+00  0.10358789522E+04  0.10358789522E+04  0.00000000000E+00 0. -1.
         -2   -1    0    0    0  501 -0.00000000000E+00 -0.00000000000E+00 -0.23027409464E+02  0.23027409464E+02  0.00000000000E+00 0.  1.
         25    2    1    2    0    0  0.68561480445E+02  0.72915423830E+02  0.70076619679E+03  0.71884448793E+03  0.12508716812E+03 0.  0.
         23    2    1    2    0    0 -0.68561480445E+02 -0.72915423830E+02  0.31208534590E+03  0.34006187369E+03  0.90705452863E+02 0.  0.
          5    1    3    3  502    0  0.92326278864E+01  0.34196647292E+02  0.56062352482E+03  0.56175694129E+03  0.41800000000E+01 0. -1.
         -5    1    3    3    0  502  0.59328852559E+02  0.38718776538E+02  0.14014267197E+03  0.15708754664E+03  0.41800000000E+01 0. -1.
        -11    1    4    4    0    0 -0.18608007910E+02 -0.30883278481E+02  0.20958396352E+02  0.41704786605E+02  0.00000000000E+00 0.  1.
         11    1    4    4    0    0 -0.49953472535E+02 -0.42032145349E+02  0.29112694955E+03  0.29835708709E+03  0.00000000000E+00 0. -1.
</event>
<event>
 8    1  0.6832629E-009  0.1158744E+03  0.7561462E-02  0.1250062E+00
          2   -1    0    0  501    0  0.00000000000E+00  0.00000000000E+00  0.23903979513E+03  0.23903979513E+03  0.00000000000E+00 0. -1.
         -2   -1    0    0    0  501 -0.00000000000E+00 -0.00000000000E+00 -0.92226685333E+02  0.92226685333E+02  0.00000000000E+00 0.  1.
         25    2    1    2    0    0  0.79191770642E+02 -0.43807989208E+02  0.12959825070E+03  0.20157799334E+03  0.12508998504E+03 0.  0.
         23    2    1    2    0    0 -0.79191770642E+02  0.43807989208E+02  0.17214859090E+02  0.12968848712E+03  0.91281300728E+02 0.  0.
          5    1    3    3  502    0  0.48210112852E+02  0.28101260194E+01 -0.11419852572E+02  0.49799570502E+02  0.41800000000E+01 0. -1.
         -5    1    3    3    0  502  0.30981657790E+02 -0.46618115228E+02  0.14101810327E+03  0.15177842283E+03  0.41800000000E+01 0. -1.
        -11    1    4    4    0    0 -0.65260035959E+02  0.71096637369E+02  0.47900196728E+01  0.96625816566E+02  0.00000000000E+00 0.  1.
         11    1    4    4    0    0 -0.13931734682E+02 -0.27288648161E+02  0.12424839417E+02  0.33062670556E+02  0.00000000000E+00 0. -1.
</event>
<event>
 8    1  0.6832629E-009  0.1088216E+03  0.7561462E-02  0.1262768E+00
          1   -1    0    0  501    0  0.00000000000E+00  0.00000000000E+00  0.45817104821E+02  0.45817104821E+02  0.00000000000E+00 0. -1.
         -1   -1    0    0    0  501 -0.00000000000E+00 -0.00000000000E+00 -0.38848645747E+03  0.38848645747E+03  0.00000000000E+00 0.  1.
         25    2    1    2    0    0  0.53034826040E+02 -0.55830529347E+02 -0.17253257788E+03  0.22659524996E+03  0.12509267003E+03 0.  0.
         23    2    1    2    0    0 -0.53034826040E+02  0.55830529347E+02 -0.17013677477E+03  0.20770831233E+03  0.90920185331E+02 0.  0.
          5    1    3    3  502    0  0.33652620438E+02 -0.74165826885E+02 -0.18080915290E+03  0.19834941622E+03  0.41800000000E+01 0. -1.
         -5    1    3    3    0  502  0.19382205601E+02  0.18335297538E+02  0.82765750266E+01  0.28245833745E+02  0.41800000000E+01 0. -1.
        -11    1    4    4    0    0 -0.51248439493E+02  0.74448753342E+02 -0.98557962593E+02  0.13372618074E+03  0.00000000000E+00 0. -1.
         11    1    4    4    0    0 -0.17863865465E+01 -0.18618223994E+02 -0.71578812181E+02  0.73982131592E+02  0.00000000000E+00 0.  1.
</event>
<event>
 8    1  0.6832629E-009  0.1262075E+03  0.7561462E-02  0.1233194E+00
         -1   -1    0    0    0  501 -0.00000000000E+00  0.00000000000E+00  0.77698716617E+03  0.77698716617E+03  0.00000000000E+00 0.  1.
          1   -1    0    0  501    0  0.00000000000E+00 -0.00000000000E+00 -0.36673863891E+02  0.36673863891E+02  0.00000000000E+00 0. -1.
         25    2    1    2    0    0 -0.21848057634E+01 -0.78557642825E+02  0.64071349549E+03  0.65752370765E+03  0.12509023224E+03 0.  0.
         23    2    1    2    0    0  0.21848057634E+01  0.78557642825E+02  0.99599806797E+02  0.15613732241E+03  0.91009149617E+02 0.  0.
          5    1    3    3  502    0  0.34103468820E+02  0.11200193647E+02  0.33192314207E+03  0.33388461415E+03  0.41800000000E+01 0. -1.
         -5    1    3    3    0  502 -0.36288274584E+02 -0.89757836472E+02  0.30879035342E+03  0.32363909350E+03  0.41800000000E+01 0. -1.
        -11    1    4    4    0    0  0.33760089368E+02 -0.10014472845E+01  0.20016945758E+02  0.39260981245E+02  0.00000000000E+00 0. -1.
         11    1    4    4    0    0 -0.31575283605E+02  0.79559090109E+02  0.79582861038E+02  0.11687634117E+03  0.00000000000E+00 0.  1.
</event>
<event>
 8    1  0.6832629E-009  0.8524212E+02  0.7561462E-02  0.1314801E+00
         -3   -1    0    0    0  501 -0.00000000000E+00  0.00000000000E+00  0.76947873499E+02  0.76947873499E+02  0.00000000000E+00 0. -1.
          3   -1    0    0  501    0  0.00000000000E+00 -0.00000000000E+00 -0.20296427827E+03  0.20296427827E+03  0.00000000000E+00 0.  1.
         25    2    1    2    0    0  0.38707274038E+02 -0.20871070450E+02 -0.25852165381E+02  0.13509083093E+03  0.12508934208E+03 0.  0.
         23    2    1    2    0    0 -0.38707274038E+02  0.20871070450E+02 -0.10016423939E+03  0.14482132083E+03  0.94902505084E+02 0.  0.
          5    1    3    3  502    0 -0.35888338667E+02 -0.27965602725E+02 -0.37545000538E+02  0.59136682807E+02  0.41800000000E+01 0.  1.
         -5    1    3    3    0  502  0.74595612705E+02  0.70945322748E+01  0.11692835157E+02  0.75954148123E+02  0.41800000000E+01 0.  1.
        -11    1    4    4    0    0 -0.24930794594E+02  0.25057933172E+02 -0.11725886942E+03  0.12247075974E+03  0.00000000000E+00 0.  1.
         11    1    4    4    0    0 -0.13776479445E+02 -0.41868627221E+01  0.17094630032E+02  0.22350561095E+02  0.00000000000E+00 0. -1.
</event>
<event>
 8    1  0.6832629E-009  0.1093369E+03  0.7561462E-02  0.1261803E+00
          2   -1    0    0  501    0  0.00000000000E+00  0.00000000000E+00  0.92845014471E+02  0.92845014471E+02  0.00000000000E+00 0. -1.
         -2   -1    0    0    0  501 -0.00000000000E+00 -0.00000000000E+00 -0.21913986125E+03  0.21913986125E+03  0.00000000000E+00 0.  1.
         25    2    1    2    0    0  0.18956488803E+02 -0.52158262330E+02 -0.14905552021E+03  0.20234394063E+03  0.12508273025E+03 0.  0.
         23    2    1    2    0    0 -0.18956488803E+02  0.52158262330E+02  0.22760673433E+02  0.10964093509E+03  0.91778284991E+02 0.  0.
          5    1    3    3  502    0 -0.51418909709E+02 -0.86948603779E+01 -0.42602525117E+02  0.67468158557E+02  0.41800000000E+01 0.  1.
         -5    1    3    3    0  502  0.70375398512E+02 -0.43463401952E+02 -0.10645299509E+03  0.13487578207E+03  0.41800000000E+01 0.  1.
        -11    1    4    4    0    0 -0.33575133008E+02  0.58619783713E+02  0.45788617893E+02  0.81609840875E+02  0.00000000000E+00 0. -1.
         11    1    4    4    0    0  0.14618644205E+02 -0.64615213828E+01 -0.23027944461E+02  0.28031094218E+02  0.00000000000E+00 0.  1.
</event>
<event>
 8    1  0.6832629E-009  0.5089943E+03  0.7561462E-02  0.1011458E+00
         -1   -1    0    0    0  501 -0.00000000000E+00  0.00000000000E+00  0.25314596105E+03  0.25314596105E+03  0.00000000000E+00 0.  1.
          1   -1    0    0  501    0  0.00000000000E+00 -0.00000000000E+00 -0.10892083815E+04  0.10892083815E+04  0.00000000000E+00 0. -1.
         25    2    1    2    0    0 -0.46620594352E+03  0.18644094058E+03 -0.55451337744E+03  0.75844593310E+03  0.12508773555E+03 0.  0.
         23    2    1    2    0    0  0.46620594352E+03 -0.18644094058E+03 -0.28154904302E+03  0.58390840945E+03  0.97831287993E+02 0.  0.
          5    1    3    3  502    0 -0.26910786736E+01  0.21989649907E+02 -0.44652422235E+02  0.50020973790E+02  0.41800000000E+01 0. -1.
         -5    1    3    3    0  502 -0.46351486485E+03  0.16445129067E+03 -0.50986095520E+03  0.70842495931E+03  0.41800000000E+01 0. -1.
        -11    1    4    4    0    0  0.35476470912E+03 -0.12368908822E+03 -0.25274656880E+03  0.45281101733E+03  0.00000000000E+00 0. -1.
         11    1    4    4    0    0  0.11144123440E+03 -0.62751852361E+02 -0.28802474220E+02  0.13109739212E+03  0.00000000000E+00 0.  1.
</event>
<event>
 8    1  0.6832629E-009  0.1566115E+03  0.7561462E-02  0.1192576E+00
          2   -1    0    0  501    0  0.00000000000E+00  0.00000000000E+00  0.41331760726E+03  0.41331760726E+03  0.00000000000E+00 0. -1.
         -2   -1    0    0    0  501 -0.00000000000E+00 -0.00000000000E+00 -0.63056988823E+02  0.63056988823E+02  0.00000000000E+00 0.  1.
         25    2    1    2    0    0 -0.10643024428E+03  0.51796390778E+02  0.15249311062E+03  0.23002629171E+03  0.12509069949E+03 0.  0.
         23    2    1    2    0    0  0.10643024428E+03 -0.51796390778E+02  0.19776750781E+03  0.24634830437E+03  0.86978370434E+02 0.  0.
          5    1    3    3  502    0  0.22380457363E+02  0.33075327635E+02  0.51041099578E+02  0.64942500846E+02  0.41800000000E+01 0.  1.
         -5    1    3    3    0  502 -0.12881070164E+03  0.18721063143E+02  0.10145201104E+03  0.16508379087E+03  0.41800000000E+01 0.  1.
        -11    1    4    4    0    0  0.80803265087E+00 -0.36037631583E+02  0.77738432614E+02  0.85689134155E+02  0.00000000000E+00 0.  1.
         11    1    4    4    0    0  0.10562221163E+03 -0.15758759195E+02  0.12002907520E+03  0.16065917021E+03  0.00000000000E+00 0. -1.
</event>
<event>
 8    1  0.6832629E-009  0.8734130E+02  0.7561462E-02  0.1309421E+00
         -3   -1    0    0    0  501 -0.00000000000E+00  0.00000000000E+00  0.23313111544E+03  0.23313111544E+03  0.00000000000E+00 0.  1.
          3   -1    0    0  501    0  0.00000000000E+00 -0.00000000000E+00 -0.71652567862E+02  0.71652567862E+02  0.00000000000E+00 0. -1.
         25    2    1    2    0    0  0.10206475763E+02  0.64858334839E+02  0.69253041753E+02  0.15733164255E+03  0.12508591531E+03 0.  0.
         23    2    1    2    0    0 -0.10206475763E+02 -0.64858334839E+02  0.92225505829E+02  0.14745204076E+03  0.94476370874E+02 0.  0.
          5    1    3    3  502    0 -0.65584003014E+01  0.50656755196E+02 -0.27406677670E+02  0.58118136949E+02  0.41800000000E+01 0. -1.
         -5    1    3    3    0  502  0.16764876065E+02  0.14201579643E+02  0.96659719424E+02  0.99213505597E+02  0.41800000000E+01 0. -1.
        -11    1    4    4    0    0 -0.41371119147E+02 -0.18768245387E+02  0.77607395386E+02  0.89926216161E+02  0.00000000000E+00 0.  1.
         11    1    4    4    0    0  0.31164643384E+02 -0.46090089452E+02  0.14618110443E+02  0.57525824600E+02  0.00000000000E+00 0. -1.
</event>
<event>
 8    1  0.6832629E-009  0.9934137E+02  0.7561462E-02  0.1281687E+00
          1   -1    0    0  501    0  0.00000000000E+00  0.00000000000E+00  0.26287318948E+03  0.26287318948E+03  0.00000000000E+00 0. -1.
         -1   -1    0    0    0  501 -0.00000000000E+00 -0.00000000000E+00 -0.56705086353E+02  0.56705086353E+02  0.00000000000E+00 0.  1.
         25    2    1    2    0    0  0.11545401866E+02 -0.46243491351E+02  0.15772414706E+03  0.20686917453E+03  0.12508473931E+03 0.  0.
         23    2    1    2    0    0 -0.11545401866E+02  0.46243491351E+02  0.48443956060E+02  0.11270910130E+03  0.89915337070E+02 0.  0.
          5    1    3    3  502    0 -0.29335474627E+02 -0.75139851190E+02  0.75798789974E+02  0.11076775826E+03  0.41800000000E+01 0. -1.
         -5    1    3    3    0  502  0.40880876493E+02  0.28896359839E+02  0.81925357088E+02  0.96101416268E+02  0.41800000000E+01 0. -1.
        -11    1    4    4    0    0 -0.23431712564E+02  0.49992244557E+02  0.69183053021E+02  0.88513075276E+02  0.00000000000E+00 0. -1.
         11    1    4    4    0    0  0.11886310698E+02 -0.37487532056E+01 -0.20739096960E+02  0.24196026024E+02  0.00000000000E+00 0.  1.
</event>
<event>
 8    1  0.6832629E-009  0.2554372E+03  0.7561462E-02  0.1109916E+00
          1   -1    0    0  501    0  0.00000000000E+00  0.00000000000E+00  0.40108616120E+03  0.40108616120E+03  0.00000000000E+00 0. -1.
         -1   -1    0    0    0  501 -0.00000000000E+00 -0.00000000000E+00 -0.18765155541E+03  0.18765155541E+03  0.00000000000E+00 0.  1.
         25    2    1    2    0    0 -0.24820486346E+03 -0.26554067014E+02  0.14649010221E+03  0.31530196420E+03  0.12508079735E+03 0.  0.
         23    2    1    2    0    0  0.24820486346E+03  0.26554067014E+02  0.66944503587E+02  0.27343575240E+03  0.89301575639E+02 0.  0.
          5    1    3    3  502    0 -0.23950176164E+03 -0.37447735987E+02  0.92680782500E+02  0.25955852251E+03  0.41800000000E+01 0.  1.
         -5    1    3    3    0  502 -0.87031018154E+01  0.10893668973E+02  0.53809319706E+02  0.55743441696E+02  0.41800000000E+01 0.  1.
        -11    1    4    4    0    0  0.15680942863E+03 -0.58011547831E+01  0.79094969777E+02  0.17572383034E+03  0.00000000000E+00 0. -1.
         11    1    4    4    0    0  0.91395434830E+02  0.32355221797E+02 -0.12150466190E+02  0.97711922067E+02  0.00000000000E+00 0.  1.
</event>
<event>
 8    1  0.6832629E-009  0.1007269E+03  0.7561462E-02  0.1278775E+00
         -1   -1    0    0    0  501 -0.00000000000E+00  0.00000000000E+00  0.16422946167E+02  0.16422946167E+02  0.00000000000E+00 0.  1.
          1   -1    0    0  501    0  0.00000000000E+00 -0.00000000000E+00 -0.92108953216E+03  0.92108953216E+03  0.00000000000E+00 0. -1.
         25    2    1    2    0    0 -0.43075845418E+02 -0.36655902539E+02 -0.54704744011E+03  0.56400813152E+03  0.12508032235E+03 0.  0.
         23    2    1    2    0    0  0.43075845418E+02  0.36655902539E+02 -0.35761914588E+03  0.37350434681E+03  0.91732545658E+02 0.  0.
          5    1    3    3  502    0  0.19633297120E+02  0.43360495021E+01 -0.38372000734E+03  0.38426915582E+03  0.41800000000E+01 0.  1.
         -5    1    3    3    0  502 -0.62709142538E+02 -0.40991952042E+02 -0.16332743277E+03  0.17973897570E+03  0.41800000000E+01 0.  1.
        -11    1    4    4    0    0  0.62807615078E+02  0.51474347446E+02 -0.30057786204E+03  0.31135422931E+03  0.00000000000E+00 0.  1.
         11    1    4    4    0    0 -0.19731769659E+02 -0.14818444906E+02 -0.57041283838E+02  0.62150117500E+02  0.00000000000E+00 0. -1.
</event>
<event>
 8    1  0.6832629E-009  0.9265352E+02  0.7561462E-02  0.1296550E+00
          2   -1    0    0  501    0  0.00000000000E+00  0.00000000000E+00  0.94785674034E+03  0.94785674034E+03  0.00000000000E+00 0. -1.
         -2   -1    0    0    0  501 -0.00000000000E+00 -0.00000000000E+00 -0.19006455282E+02  0.19006455282E+02  0.00000000000E+00 0.  1.
         25    2    1    2    0    0 -0.19287437585E+02  0.43438139241E+02  0.73283302986E+03  0.74494955722E+03  0.12508683365E+03 0.  0.
         23    2    1    2    0    0  0.19287437585E+02 -0.43438139241E+02  0.19601725519E+03  0.22191363840E+03  0.92541997959E+02 0.  0.
          5    1    3    3  502    0 -0.23773612059E+02 -0.23378994181E+02  0.53486784270E+03  0.53592242307E+03  0.41800000000E+01 0.  1.
         -5    1    3    3    0  502  0.44861744737E+01  0.66817133422E+02  0.19796518717E+03  0.20902713415E+03  0.41800000000E+01 0.  1.
        -11    1    4    4    0    0 -0.22042087479E+02  0.32181705589E+01  0.77314248889E+01  0.23579337840E+02  0.00000000000E+00 0.  1.
         11    1    4    4    0    0  0.41329525064E+02 -0.46656309800E+02  0.18828583030E+03  0.19833430056E+03  0.00000000000E+00 0. -1.
</event>
<event>
 8    1  0.6832629E-009  0.8287935E+02  0.7561462E-02  0.1321073E+00
         -1   -1    0    0    0  501 -0.00000000000E+00  0.00000000000E+00  0.14310510533E+02  0.14310510533E+02  0.00000000000E+00 0.  1.
          1   -1    0    0  501    0  0.00000000000E+00 -0.00000000000E+00 -0.94450244539E+03  0.94450244539E+03  0.00000000000E+00 0. -1.
         25    2    1    2    0    0  0.35239175016E+02  0.22072170662E+02 -0.60389896845E+03  0.61812049976E+03  0.12509999183E+03 0.  0.
         23    2    1    2    0    0 -0.35239175016E+02 -0.22072170662E+02 -0.32629296640E+03  0.34069245616E+03  0.88742715679E+02 0.  0.
          5    1    3    3  502    0 -0.16023595070E+02  0.65712255363E+01 -0.50711864304E+03  0.50743149993E+03  0.41800000000E+01 0. -1.
         -5    1    3    3    0  502  0.51262770086E+02  0.15500945126E+02 -0.96780325411E+02  0.11068899983E+03  0.41800000000E+01 0. -1.
        -11    1    4    4    0    0 -0.48047760563E+02 -0.46359611662E+02 -0.26896438940E+03  0.27712748628E+03  0.00000000000E+00 0. -1.
         11    1    4    4    0    0  0.12808585547E+02  0.24287441000E+02 -0.57328577000E+02  0.63564969872E+02  0.00000000000E+00 0.  1.
</event>
<event>
 8    1  0.6832629E-009  0.1086029E+03  0.7561462E-02  0.1263179E+00
         -1   -1    0    0    0  501 -0.00000000000E+00  0.00000000000E+00  0.36795827361E+02  0.36795827361E+02  0.00000000000E+00 0.  1.
          1   -1    0    0  501    0  0.00000000000E+00 -0.00000000000E+00 -0.38483506569E+03  0.38483506569E+03  0.00000000000E+00 0. -1.
         25    2    1    2    0    0 -0.19451947027E+02  0.38376805377E+02 -0.14903294171E+03  0.19926926055E+03  0.12508502328E+03 0.  0.
         23    2    1    2    0    0  0.19451947027E+02 -0.38376805377E+02 -0.19900629661E+03  0.22236163250E+03  0.89386979382E+02 0.  0.
          5    1    3    3  502    0  0.38712229288E+02 -0.22660457004E+02 -0.33308281213E+02  0.56027198800E+02  0.41800000000E+01 0. -1.
         -5    1    3    3    0  502 -0.58164176315E+02  0.61037262381E+02 -0.11572466050E+03  0.14324206175E+03  0.41800000000E+01 0. -1.
        -11    1    4    4    0    0  0.49168289280E+02 -0.24767079215E+02 -0.68799668983E+02  0.88115397836E+02  0.00000000000E+00 0.  1.
         11    1    4    4    0    0 -0.29716342253E+02 -0.13609726162E+02 -0.13020662763E+03  0.13424623467E+03  0.00000000000E+00 0. -1.
</event>
<event>
 8    1  0.6832629E-009  0.1130007E+03  0.7561462E-02  0.1255112E+00
          4   -1    0    0  501    0  0.00000000000E+00  0.00000000000E+00  0.36613627352E+02  0.36613627352E+02  0.00000000000E+00 0. -1.
         -4   -1    0    0    0  501 -0.00000000000E+00 -0.00000000000E+00 -0.36376383169E+03  0.36376383169E+03  0.00000000000E+00 0.  1.
         25    2    1    2    0    0  0.32839170290E+02  0.12669881808E+02 -0.21341145895E+03  0.24986205864E+03  0.12509060926E+03 0.  0.
         23    2    1    2    0    0 -0.32839170290E+02 -0.12669881808E+02 -0.11373874538E+03  0.15051540040E+03  0.92083910349E+02 0.  0.
          5    1    3    3  502    0  0.11416561883E+02 -0.56240809730E+02 -0.10002669784E+03  0.11539575055E+03  0.41800000000E+01 0.  1.
         -5    1    3    3    0  502  0.21422608407E+02  0.68910691538E+02 -0.11338476111E+03  0.13446630809E+03  0.41800000000E+01 0.  1.
        -11    1    4    4    0    0 -0.48671726974E+02  0.25432468333E+02 -0.80917611324E+02  0.97792674954E+02  0.00000000000E+00 0. -1.
         11    1    4    4    0    0  0.15832556684E+02 -0.38102350140E+02 -0.32821134059E+02  0.52722725444E+02  0.00000000000E+00 0.  1.
</event>
<event>
 8    1  0.6832629E-009  0.9871865E+02  0.7561462E-02  0.1283014E+00
         -1   -1    0    0    0  501 -0.00000000000E+00  0.00000000000E+00  0.71354474976E+03  0.71354474976E+03  0.00000000000E+00 0.  1.
          1   -1    0    0  501    0  0.00000000000E+00 -0.00000000000E+00 -0.19598496739E+02  0.19598496739E+02  0.00000000000E+00 0. -1.
         25    2    1    2    0    0 -0.26540269777E+01  0.35740894898E+02  0.48792663714E+03  0.50497645137E+03  0.12507740714E+03 0.  0.
         23    2    1    2    0    0  0.26540269777E+01 -0.35740894898E+02  0.20601961588E+03  0.22816679513E+03  0.91277318353E+02 0.  0.
          5    1    3    3  502    0 -0.70536348178E+01 -0.39906432492E+02  0.77127036705E+02  0.87225737654E+02  0.41800000000E+01 0. -1.
         -5    1    3    3    0  502  0.43996078402E+01  0.75647327390E+02  0.41079960044E+03  0.41775071372E+03  0.41800000000E+01 0. -1.
        -11    1    4    4    0    0 -0.29436350392E+02 -0.38652048021E+02  0.53448954461E+02  0.72230674049E+02  0.00000000000E+00 0. -1.
         11    1    4    4    0    0  0.32090377369E+02  0.29111531232E+01  0.15257066142E+03  0.15593612108E+03  0.00000000000E+00 0.  1.
</event>
<event>
 8    1  0.6832629E-009  0.3311209E+03  0.7561462E-02  0.1070642E+00
          1   -1    0    0  501    0  0.00000000000E+00  0.00000000000E+00  0.52306934198E+03  0.52306934198E+03  0.00000000000E+00 0. -1.
         -1   -1    0    0    0  501 -0.00000000000E+00 -0.00000000000E+00 -0.32003046689E+03  0.32003046689E+03  0.00000000000E+00 0.  1.
         25    2    1    2    0    0  0.21661097741E+03  0.23662102633E+03 -0.13357492494E+03  0.36932233983E+03  0.12508758726E+03 0.  0.
         23    2    1    2    0    0 -0.21661097741E+03 -0.23662102633E+03  0.33661380003E+03  0.47377746905E+03  0.90809769129E+02 0.  0.
          5    1    3    3  502    0  0.97506220700E+02  0.18172021567E+03 -0.45324634405E+02  0.21119065969E+03  0.41800000000E+01 0. -1.
         -5    1    3    3    0  502  0.11910475671E+03  0.54900810662E+02 -0.88250290539E+02  0.15813168014E+03  0.41800000000E+01 0. -1.
        -11    1    4    4    0    0 -0.18491561570E+03 -0.22443236983E+03  0.26043125711E+03  0.39036920119E+03  0.00000000000E+00 0.  1.
         11    1    4    4    0    0 -0.31695361713E+02 -0.12188656499E+02  0.76182542920E+02  0.83408267858E+02  0.00000000000E+00 0. -1.
</event>
<event>
 8    1  0.6832629E-009  0.1585043E+03  0.7561462E-02  0.1190396E+00
         -2   -1    0    0    0  501 -0.00000000000E+00  0.00000000000E+00  0.49324071357E+02  0.49324071357E+02  0.00000000000E+00 0.  1.
          2   -1    0    0  501    0  0.00000000000E+00 -0.00000000000E+00 -0.55273259065E+03  0.55273259065E+03  0.00000000000E+00 0. -1.
         25    2    1    2    0    0  0.54966177605E+02 -0.10322421463E+03 -0.21833812409E+03  0.27747513306E+03  0.12507755142E+03 0.  0.
         23    2    1    2    0    0 -0.54966177605E+02  0.10322421463E+03 -0.28507039521E+03  0.32458152895E+03  0.10203685387E+03 0.  0.
          5    1    3    3  502    0 -0.36723012823E+02 -0.24901059785E+02 -0.94989375737E+02  0.10492424101E+03  0.41800000000E+01 0.  1.
         -5    1    3    3    0  502  0.91689190428E+02 -0.78323154842E+02 -0.12334874835E+03  0.17255089204E+03  0.41800000000E+01 0.  1.
        -11    1    4    4    0    0 -0.71185617973E+01  0.10368848720E+03 -0.16130910485E+03  0.19189216661E+03  0.00000000000E+00 0.  1.
         11    1    4    4    0    0 -0.47847615808E+02 -0.46427257103E+00 -0.12376129035E+03  0.13268936234E+03  0.00000000000E+00 0. -1.
</event>
<event>
 8    1  0.6832629E-009  0.7644967E+02  0.7561462E-02  0.1339440E+00
         -1   -1    0    0    0  501 -0.00000000000E+00  0.00000000000E+00  0.22530423430E+03  0.22530423430E+03  0.00000000000E+00 0. -1.
          1   -1    0    0  501    0  0.00000000000E+00 -0.00000000000E+00 -0.67918373922E+02  0.67918373922E+02  0.00000000000E+00 0.  1.
         25    2    1    2    0    0  0.35280800767E+02 -0.18823411903E+01  0.34647063008E+02  0.13451901046E+03  0.12508663833E+03 0.  0.
         23    2    1    2    0    0 -0.35280800767E+02  0.18823411903E+01  0.12273879737E+03  0.15870359776E+03  0.94200538484E+02 0.  0.
          5    1    3    3  502    0 -0.78501294560E+01  0.71671830426E+01  0.74248984540E+02  0.75122414435E+02  0.41800000000E+01 0.  1.
         -5    1    3    3    0  502  0.43130930223E+02 -0.90495242329E+01 -0.39601921532E+02  0.59396596029E+02  0.41800000000E+01 0.  1.
        -11    1    4    4    0    0  0.27671304824E+02  0.16988481603E+02  0.22979743831E+02  0.39779118195E+02  0.00000000000E+00 0.  1.
         11    1    4    4    0    0 -0.62952105591E+02 -0.15106140412E+02  0.99759053536E+02  0.11892447956E+03  0.00000000000E+00 0. -1.
</event>
<event>
 8    1  0.6832629E-009  0.1425383E+03  0.7561462E-02  0.1209954E+00
          4   -1    0    0  501    0  0.00000000000E+00  0.00000000000E+00  0.93896448121E+02  0.93896448121E+02  0.00000000000E+00 0. -1.
         -4   -1    0    0    0  501 -0.00000000000E+00 -0.00000000000E+00 -0.26068502301E+03  0.26068502301E+03  0.00000000000E+00 0.  1.
         25    2    1    2    0    0  0.10182494205E+03 -0.34307046820E+02 -0.12310546439E+03  0.20578657322E+03  0.12509143084E+03 0.  0.
         23    2    1    2    0    0 -0.10182494205E+03  0.34307046820E+02 -0.43683110504E+02  0.14879489792E+03  0.93200940009E+02 0.  0.
          5    1    3    3  502    0  0.87997779530E+02  0.33953539634E+02 -0.80191553852E+02  0.12387336181E+03  0.41800000000E+01 0.  1.
         -5    1    3    3    0  502  0.13827162516E+02 -0.68260586454E+02 -0.42913910534E+02  0.81913211410E+02  0.41800000000E+01 0.  1.
        -11    1    4    4    0    0 -0.98779610430E+02  0.13308028262E+02  0.61851537721E+00  0.99673956550E+02  0.00000000000E+00 0. -1.
         11    1    4    4    0    0 -0.30453316157E+01  0.20999018558E+02 -0.44301625881E+02  0.49120941367E+02  0.00000000000E+00 0.  1.
</event>
<event>
 8    1  0.6832629E-009  0.2560450E+03  0.7561462E-02  0.1109543E+00
         -1   -1    0    0    0  501 -0.00000000000E+00  0.00000000000E+00  0.25285724540E+03  0.25285724540E+03  0.00000000000E+00 0.  1.
          1   -1    0    0  501    0  0.00000000000E+00 -0.00000000000E+00 -0.29757836867E+03  0.29757836867E+03  0.00000000000E+00 0. -1.
         25    2    1    2    0    0 -0.14651431702E+03 -0.20261030762E+03  0.84787996352E+01  0.27970575436E+03  0.12508412024E+03 0.  0.
         23    2    1    2    0    0  0.14651431702E+03  0.20261030762E+03 -0.53199922911E+02  0.27072985971E+03  0.89146190593E+02 0.  0.
          5    1    3    3  502    0 -0.28492436418E+02 -0.43807538776E+02 -0.50918693962E+02  0.73082865170E+02  0.41800000000E+01 0. -1.
         -5    1    3    3    0  502 -0.11802188060E+03 -0.15880276884E+03  0.59397493597E+02  0.20662288919E+03  0.41800000000E+01 0. -1.
        -11    1    4    4    0    0  0.25183572985E+02  0.99188680260E+02 -0.42917951373E+02  0.11097097454E+03  0.00000000000E+00 0. -1.
         11    1    4    4    0    0  0.12133074403E+03  0.10342162736E+03 -0.10281971538E+02  0.15975888517E+03  0.00000000000E+00 0.  1.
</event>
<event>
 8    1  0.6832629E-009  0.1775687E+03  0.7561462E-02  0.1170177E+00
         -2   -1    0    0    0  501 -0.00000000000E+00  0.00000000000E+00  0.63405859789E+02  0.63405859789E+02  0.00000000000E+00 0.  1.
          2   -1    0    0  501    0  0.00000000000E+00 -0.00000000000E+00 -0.59835427487E+03  0.59835427487E+03  0.00000000000E+00 0. -1.
         25    2    1    2    0    0 -0.16010436241E+03 -0.29254754388E+02 -0.24027422913E+03  0.31601927107E+03  0.12508887635E+03 0.  0.
         23    2    1    2    0    0  0.16010436241E+03  0.29254754388E+02 -0.29467418595E+03  0.34574086359E+03  0.78832869866E+02 0.  0.
          5    1    3    3  502    0 -0.62158215962E+01  0.15169916798E+02  0.94001031393E+01  0.19354512466E+02  0.41800000000E+01 0.  1.
         -5    1    3    3    0  502 -0.15388854081E+03 -0.44424671187E+02 -0.24967433227E+03  0.29666475861E+03  0.41800000000E+01 0.  1.
        -11    1    4    4    0    0  0.80536788248E+02  0.51224314334E+02 -0.12718943309E+03  0.15901967341E+03  0.00000000000E+00 0.  1.
         11    1    4    4    0    0  0.79567574162E+02 -0.21969559946E+02 -0.16748475285E+03  0.18672119018E+03  0.00000000000E+00 0. -1.
</event>
<event>
 8    1  0.6832629E-009  0.1418226E+03  0.7561462E-02  0.1210897E+00
          2   -1    0    0  501    0  0.00000000000E+00  0.00000000000E+00  0.28189239632E+03  0.28189239632E+03  0.00000000000E+00 0.  1.
         -2   -1    0    0    0  501 -0.00000000000E+00 -0.00000000000E+00 -0.14717002698E+03  0.14717002698E+03  0.00000000000E+00 0. -1.
         25    2    1    2    0    0 -0.12749718910E+03  0.10735498376E+02 -0.50847159356E+02  0.18602461135E+03  0.12509571639E+03 0.  0.
         23    2    1    2    0    0  0.12749718910E+03 -0.10735498376E+02  0.18556952869E+03  0.24303781195E+03  0.90887534387E+02 0.  0.
          5    1    3    3  502    0 -0.24536888654E+01  0.28284427176E+02 -0.52325387597E+02  0.59677868568E+02  0.41800000000E+01 0.  1.
         -5    1    3    3    0  502 -0.12504350023E+03 -0.17548928800E+02  0.14782282402E+01  0.12634674278E+03  0.41800000000E+01 0.  1.
        -11    1    4    4    0    0  0.16067117422E+02 -0.57629743082E+01  0.10263086418E+03  0.10404065752E+03  0.00000000000E+00 0.  1.
         11    1    4    4    0    0  0.11143007168E+03 -0.49725240680E+01  0.82938664512E+02  0.13899715443E+03  0.00000000000E+00 0. -1.
</event>
<event>
 8    1  0.6832629E-009  0.1848321E+03  0.7561462E-02  0.1163207E+00
         -2   -1    0    0    0  501 -0.00000000000E+00  0.00000000000E+00  0.46393562847E+02  0.46393562847E+02  0.00000000000E+00 0.  1.
          2   -1    0    0  501    0  0.00000000000E+00 -0.00000000000E+00 -0.11570804615E+04  0.11570804615E+04  0.00000000000E+00 0. -1.
         25    2    1    2    0    0 -0.10363835597E+03 -0.13006627157E+03 -0.26529017477E+03  0.33717057742E+03  0.12508787959E+03 0.  0.
         23    2    1    2    0    0  0.10363835597E+03  0.13006627157E+03 -0.84539672393E+03  0.86630344697E+03  0.90154853309E+02 0.  0.
          5    1    3    3  502    0 -0.81833012875E+02 -0.41313739126E+02 -0.21268507125E+03  0.23163738681E+03  0.41800000000E+01 0.  1.
         -5    1    3    3    0  502 -0.21805343096E+02 -0.88752532448E+02 -0.52605103515E+02  0.10553319061E+03  0.41800000000E+01 0.  1.
        -11    1    4    4    0    0  0.68349417562E+02  0.13447472289E+03 -0.73499704865E+03  0.75031710330E+03  0.00000000000E+00 0. -1.
         11    1    4    4    0    0  0.35288938409E+02 -0.44084513159E+01 -0.11039967528E+03  0.11598634368E+03  0.00000000000E+00 0.  1.
</event>
<event>
 8    1  0.6832629E-009  0.2451370E+03  0.7561462E-02  0.1116417E+00
         -1   -1    0    0    0  501 -0.00000000000E+00  0.00000000000E+00  0.32047939931E+03  0.32047939931E+03  0.00000000000E+00 0.  1.
          1   -1    0    0  501    0  0.00000000000E+00 -0.00000000000E+00 -0.24537154121E+03  0.24537154121E+03  0.00000000000E+00 0. -1.
         25    2    1    2    0    0  0.95907801684E+02  0.20852266365E+03  0.15952656774E+03  0.30622885047E+03  0.12508946944E+03 0.  0.
         23    2    1    2    0    0 -0.95907801684E+02 -0.20852266365E+03 -0.84418709650E+02  0.25962209005E+03  0.87161364295E+02 0.  0.
          5    1    3    3  502    0  0.46886611908E+02  0.14407823021E+01  0.16994579927E+02  0.50067138692E+02  0.41800000000E+01 0. -1.
         -5    1    3    3    0  502  0.49021189776E+02  0.20708188135E+03  0.14253198782E+03  0.25616171178E+03  0.41800000000E+01 0. -1.
        -11    1    4    4    0    0 -0.30256331285E+02 -0.88489644094E+02  0.90077124606E+01  0.93952123864E+02  0.00000000000E+00 0.  1.
         11    1    4    4    0    0 -0.65651470399E+02 -0.12003301955E+03 -0.93426422110E+02  0.16566996619E+03  0.00000000000E+00 0. -1.
</event>
<event>
 8    1  0.6832629E-009  0.9039297E+02  0.7561462E-02  0.1301903E+00
         -2   -1    0    0    0  501 -0.00000000000E+00  0.00000000000E+00  0.68642166620E+02  0.68642166620E+02  0.00000000000E+00 0.  1.
          2   -1    0    0  501    0  0.00000000000E+00 -0.00000000000E+00 -0.19651413512E+03  0.19651413512E+03  0.00000000000E+00 0. -1.
         25    2    1    2    0    0 -0.31526906025E+02 -0.15531071283E+02 -0.99107287065E+02  0.16341630833E+03  0.12508986969E+03 0.  0.
         23    2    1    2    0    0  0.31526906025E+02  0.15531071283E+02 -0.28764681439E+02  0.10173999342E+03  0.91040976397E+02 0.  0.
          5    1    3    3  502    0 -0.72759001560E+02 -0.32569438281E+02 -0.84604299156E+02  0.11631853014E+03  0.41800000000E+01 0. -1.
         -5    1    3    3    0  502  0.41232095535E+02  0.17038366997E+02 -0.14502987909E+02  0.47097778190E+02  0.41800000000E+01 0. -1.
        -11    1    4    4    0    0 -0.22228922615E+01  0.21724446186E+02  0.27939892447E+02  0.35461675116E+02  0.00000000000E+00 0.  1.
         11    1    4    4    0    0  0.33749798286E+02 -0.61933749033E+01 -0.56704573886E+02  0.66278318300E+02  0.00000000000E+00 0. -1.
</event>
<event>
 8    1  0.6832629E-009  0.1193098E+03  0.7561462E-02  0.1244240E+00
         -1   -1    0    0    0  501 -0.00000000000E+00  0.00000000000E+00  0.83603338191E+02  0.83603338191E+02  0.00000000000E+00 0.  1.
          1   -1    0    0  501    0  0.00000000000E+00 -0.00000000000E+00 -0.21263120122E+03  0.21263120122E+03  0.00000000000E+00 0. -1.
         25    2    1    2    0    0  0.44544030801E+02  0.62429004254E+02 -0.64997377660E+02  0.16047945544E+03  0.12508974883E+03 0.  0.
         23    2    1    2    0    0 -0.44544030801E+02 -0.62429004254E+02 -0.64030485373E+02  0.13575508398E+03  0.91912939875E+02 0.  0.
          5    1    3    3  502    0 -0.41873663173E+02  0.31960232349E+02 -0.10791603428E+02  0.53933210769E+02  0.41800000000E+01 0.  1.
         -5    1    3    3    0  502  0.86417693974E+02  0.30468771905E+02 -0.54205774232E+02  0.10654624467E+03  0.41800000000E+01 0.  1.
        -11    1    4    4    0    0 -0.38538004604E+02 -0.80871290559E+01  0.12846195763E+02  0.41419852737E+02  0.00000000000E+00 0.  1.
         11    1    4    4    0    0 -0.60060261970E+01 -0.54341875198E+02 -0.76876681135E+02  0.94335231240E+02  0.00000000000E+00 0. -1.
</event>
<event>
 8    1  0.6832629E-009  0.1478537E+03  0.7561462E-02  0.1203135E+00
         -1   -1    0    0    0  501 -0.00000000000E+00  0.00000000000E+00  0.31549095666E+03  0.31549095666E+03  0.00000000000E+00 0.  1.
          1   -1    0    0  501    0  0.00000000000E+00 -0.00000000000E+00 -0.94142806257E+02  0.94142806257E+02  0.00000000000E+00 0. -1.
         25    2    1    2    0    0 -0.52038227324E+02  0.12046011447E+03  0.90238231174E+02  0.20250688594E+03  0.12508990449E+03 0.  0.
         23    2    1    2    0    0  0.52038227324E+02 -0.12046011447E+03  0.13110991923E+03  0.20712687698E+03  0.92158103099E+02 0.  0.
          5    1    3    3  502    0  0.23907644895E+01 -0.10104598042E+02  0.55730114692E+02  0.56843088762E+02  0.41800000000E+01 0.  1.
         -5    1    3    3    0  502 -0.54428991813E+02  0.13056471251E+03  0.34508116483E+02  0.14566379717E+03  0.41800000000E+01 0.  1.
        -11    1    4    4    0    0  0.50123442187E+02 -0.44542974158E+02  0.15529209460E+02  0.68830170347E+02  0.00000000000E+00 0.  1.
         11    1    4    4    0    0  0.19147851364E+01 -0.75917140314E+02  0.11558070977E+03  0.13829670664E+03  0.00000000000E+00 0. -1.
</event>
<event>
 8    1  0.6832629E-009  0.7271462E+02  0.7561462E-02  0.1351098E+00
          1   -1    0    0  501    0  0.00000000000E+00  0.00000000000E+00  0.16939361003E+02  0.16939361003E+02  0.00000000000E+00 0. -1.
         -1   -1    0    0    0  501 -0.00000000000E+00 -0.00000000000E+00 -0.78852979928E+03  0.78852979928E+03  0.00000000000E+00 0.  1.
         25    2    1    2    0    0 -0.21838080290E+02  0.17149023852E+02 -0.53887078165E+03  0.55389547744E+03  0.12508992702E+03 0.  0.
         23    2    1    2    0    0  0.21838080290E+02 -0.17149023852E+02 -0.23271965662E+03  0.25157368284E+03  0.91432426136E+02 0.  0.
          5    1    3    3  502    0 -0.34512092906E+02  0.15035162507E+02 -0.53905330611E+03  0.54038234602E+03  0.41800000000E+01 0. -1.
         -5    1    3    3    0  502  0.12674012616E+02  0.21138613445E+01  0.18252445473E+00  0.13513131419E+02  0.41800000000E+01 0. -1.
        -11    1    4    4    0    0  0.10459865247E+02  0.37133646909E+02 -0.74170181180E+02  0.83603422717E+02  0.00000000000E+00 0. -1.
         11    1    4    4    0    0  0.11378215044E+02 -0.54282670761E+02 -0.15854947544E+03  0.16797026012E+03  0.00000000000E+00 0.  1.
</event>
<event>
 8    1  0.6832629E-009  0.1292024E+03  0.7561462E-02  0.1228644E+00
          1   -1    0    0  501    0  0.00000000000E+00  0.00000000000E+00  0.73992452962E+03  0.73992452962E+03  0.00000000000E+00 0. -1.
         -1   -1    0    0    0  501 -0.00000000000E+00 -0.00000000000E+00 -0.48611226200E+02  0.48611226200E+02  0.00000000000E+00 0.  1.
         25    2    1    2    0    0 -0.78578991321E+02 -0.30946369994E+02  0.63066486234E+03  0.64847382521E+03  0.12509115753E+03 0.  0.
         23    2    1    2    0    0  0.78578991321E+02  0.30946369994E+02  0.60648441081E+02  0.14006193062E+03  0.93844420771E+02 0.  0.
          5    1    3    3  502    0 -0.87421628999E+02  0.11799212246E+02  0.54631244180E+03  0.55340448055E+03  0.41800000000E+01 0.  1.
         -5    1    3    3    0  502  0.88426376783E+01 -0.42745582240E+02  0.84352420540E+02  0.95069344655E+02  0.41800000000E+01 0. -1.
        -11    1    4    4    0    0  0.78553039611E+02 -0.15271129617E+02  0.39250013935E+02  0.89131088997E+02  0.00000000000E+00 0.  1.
         11    1    4    4    0    0  0.25951709716E-01  0.46217499611E+02  0.21398427146E+02  0.50930841620E+02  0.00000000000E+00 0. -1.
</event>
<event>
 8    1  0.6832629E-009  0.1179003E+03  0.7561462E-02  0.1246602E+00
          1   -1    0    0  501    0  0.00000000000E+00  0.00000000000E+00  0.27986513645E+02  0.27986513645E+02  0.00000000000E+00 0. -1.
         -1   -1    0    0    0  501 -0.00000000000E+00 -0.00000000000E+00 -0.69340572242E+03  0.69340572242E+03  0.00000000000E+00 0.  1.
         25    2    1    2    0    0  0.51115462591E+02 -0.55357478550E+02 -0.48445875821E+03  0.50598857539E+03  0.12508760559E+03 0.  0.
         23    2    1    2    0    0 -0.51115462591E+02  0.55357478550E+02 -0.18096045056E+03  0.21540366067E+03  0.89301799619E+02 0.  0.
          5    1    3    3  502    0  0.66315384418E+01 -0.72748440834E+02 -0.41614697384E+03  0.42253057781E+03  0.41800000000E+01 0. -1.
         -5    1    3    3    0  502  0.44483924149E+02  0.17390962284E+02 -0.68311784365E+02  0.83457997580E+02  0.41800000000E+01 0. -1.
        -11    1    4    4    0    0  0.23111292763E+02  0.18530670860E+01 -0.55262452477E+02  0.59929161220E+02  0.00000000000E+00 0.  1.
         11    1    4    4    0    0 -0.74226755354E+02  0.53504411464E+02 -0.12569799809E+03  0.15547449945E+03  0.00000000000E+00 0. -1.
</event>
<event>
 8    1  0.6832629E-009  0.2519140E+03  0.7561462E-02  0.1112101E+00
         -1   -1    0    0    0  501 -0.00000000000E+00  0.00000000000E+00  0.67845344681E+03  0.67845344681E+03  0.00000000000E+00 0.  1.
          1   -1    0    0  501    0  0.00000000000E+00 -0.00000000000E+00 -0.10679129581E+03  0.10679129581E+03  0.00000000000E+00 0. -1.
         25    2    1    2    0    0 -0.59928707364E+02 -0.22483341061E+03  0.41071480031E+03  0.48833946601E+03  0.12508906579E+03 0.  0.
         23    2    1    2    0    0  0.59928707364E+02  0.22483341061E+03  0.16094735069E+03  0.29690527660E+03  0.90039886110E+02 0.  0.
          5    1    3    3  502    0 -0.10779915667E+02 -0.20694525947E+03  0.35978376456E+03  0.41521606019E+03  0.41800000000E+01 0.  1.
         -5    1    3    3    0  502 -0.49148791697E+02 -0.17888151137E+02  0.50931035753E+02  0.73123405824E+02  0.41800000000E+01 0.  1.
        -11    1    4    4    0    0  0.29930726091E+02  0.17651338900E+02  0.47336551417E+02  0.58721096970E+02  0.00000000000E+00 0.  1.
         11    1    4    4    0    0  0.29997981273E+02  0.20718207171E+03  0.11361079927E+03  0.23818417963E+03  0.00000000000E+00 0. -1.
</event>
<event>
 8    1  0.6832629E-009  0.1079452E+03  0.7561462E-02  0.1264423E+00
          3   -1    0    0  501    0  0.00000000000E+00  0.00000000000E+00  0.25209874374E+03  0.25209874374E+03  0.00000000000E+00 0. -1.
         -3   -1    0    0    0  501 -0.00000000000E+00 -0.00000000000E+00 -0.96952006064E+02  0.96952006064E+02  0.00000000000E+00 0.  1.
         25    2    1    2    0    0  0.91422525720E+02 -0.77479003670E+01  0.10875687933E+02  0.15550847385E+03  0.12508595718E+03 0.  0.
         23    2    1    2    0    0 -0.91422525720E+02  0.77479003670E+01  0.14427104974E+03  0.19354227595E+03  0.90699330853E+02 0.  0.
          5    1    3    3  502    0  0.50875163279E+00  0.11447263724E+02  0.52289496891E+02  0.53693226390E+02  0.41800000000E+01 0.  1.
         -5    1    3    3    0  502  0.90913774088E+02 -0.19195164091E+02 -0.41413808958E+02  0.10181524746E+03  0.41800000000E+01 0.  1.
        -11    1    4    4    0    0 -0.55087384886E+01  0.22802374345E+02 -0.16755113696E+01  0.23518116716E+02  0.00000000000E+00 0.  1.
         11    1    4    4    0    0 -0.85913787232E+02 -0.15054473978E+02  0.14594656111E+03  0.17002415923E+03  0.00000000000E+00 0. -1.
</event>
<event>
 8    1  0.6832629E-009  0.2577457E+03  0.7561462E-02  0.1108505E+00
         -3   -1    0    0    0  501 -0.00000000000E+00  0.00000000000E+00  0.12913829569E+04  0.12913829569E+04  0.00000000000E+00 0.  1.
          3   -1    0    0  501    0  0.00000000000E+00 -0.00000000000E+00 -0.53348064018E+02  0.53348064018E+02  0.00000000000E+00 0. -1.
         25    2    1    2    0    0  0.22869092608E+03 -0.67417776858E+02  0.66438797856E+03  0.71687047457E+03  0.12508874828E+03 0.  0.
         23    2    1    2    0    0 -0.22869092608E+03  0.67417776858E+02  0.57364691430E+03  0.62786054632E+03  0.91068035204E+02 0.  0.
          5    1    3    3  502    0  0.22131914724E+03 -0.30013313266E+02  0.49306604622E+03  0.54130819525E+03  0.41800000000E+01 0.  1.
         -5    1    3    3    0  502  0.73717788454E+01 -0.37404463592E+02  0.17132193235E+03  0.17556227933E+03  0.41800000000E+01 0.  1.
        -11    1    4    4    0    0 -0.69735246347E+02 -0.19736006538E+02  0.13484676533E+03  0.15308874765E+03  0.00000000000E+00 0.  1.
         11    1    4    4    0    0 -0.15895567974E+03  0.87153783396E+02  0.43880014897E+03  0.47477179867E+03  0.00000000000E+00 0. -1.
</event>
<event>
 8    1  0.6832629E-009  0.1355540E+03  0.7561462E-02  0.1219440E+00
         -2   -1    0    0    0  501 -0.00000000000E+00  0.00000000000E+00  0.28785545853E+02  0.28785545853E+02  0.00000000000E+00 0.  1.
          2   -1    0    0  501    0  0.00000000000E+00 -0.00000000000E+00 -0.71392866543E+03  0.71392866543E+03  0.00000000000E+00 0. -1.
         25    2    1    2    0    0  0.20139571578E+01  0.92910432043E+02 -0.38800484083E+03  0.41812964009E+03  0.12509290551E+03 0.  0.
         23    2    1    2    0    0 -0.20139571578E+01 -0.92910432043E+02 -0.29713827874E+03  0.32458457119E+03  0.91801866831E+02 0.  0.
          5    1    3    3  502    0 -0.57557673455E+02  0.19227369833E+02 -0.14237174922E+03  0.15482171973E+03  0.41800000000E+01 0.  1.
         -5    1    3    3    0  502  0.59571630613E+02  0.73683062210E+02 -0.24563309161E+03  0.26330792036E+03  0.41800000000E+01 0.  1.
        -11    1    4    4    0    0 -0.35242496404E+02 -0.45979631699E+02 -0.73036194798E+02  0.93222560759E+02  0.00000000000E+00 0.  1.
         11    1    4    4    0    0  0.33228539247E+02 -0.46930800343E+02 -0.22410208394E+03  0.23136201043E+03  0.00000000000E+00 0. -1.
</event>
<event>
 8    1  0.6832629E-009  0.1788174E+03  0.7561462E-02  0.1168952E+00
          2   -1    0    0  501    0  0.00000000000E+00  0.00000000000E+00  0.11703423735E+04  0.11703423735E+04  0.00000000000E+00 0. -1.
         -2   -1    0    0    0  501 -0.00000000000E+00 -0.00000000000E+00 -0.31101179290E+02  0.31101179290E+02  0.00000000000E+00 0.  1.
         25    2    1    2    0    0 -0.89765679396E+02  0.12803025101E+03  0.56866853496E+03  0.60289580049E+03  0.12509924551E+03 0.  0.
         23    2    1    2    0    0  0.89765679396E+02 -0.12803025101E+03  0.57057265923E+03  0.59854775228E+03  0.90865999809E+02 0.  0.
          5    1    3    3  502    0  0.14796293724E+02  0.85395374529E+02  0.22644668749E+03  0.24250128860E+03  0.41800000000E+01 0. -1.
         -5    1    3    3    0  502 -0.10456197312E+03  0.42634876485E+02  0.34222184747E+03  0.36039451189E+03  0.41800000000E+01 0. -1.
        -11    1    4    4    0    0  0.37808899970E+02 -0.72852193448E+02  0.43985548909E+03  0.44744810458E+03  0.00000000000E+00 0. -1.
         11    1    4    4    0    0  0.51956779426E+02 -0.55178057566E+02  0.13071717014E+03  0.15109964770E+03  0.00000000000E+00 0.  1.
</event>
<event>
 8    1  0.6832629E-009  0.7926217E+02  0.7561462E-02  0.1331158E+00
          1   -1    0    0  501    0  0.00000000000E+00  0.00000000000E+00  0.64593643121E+02  0.64593643121E+02  0.00000000000E+00 0. -1.
         -1   -1    0    0    0  501 -0.00000000000E+00 -0.00000000000E+00 -0.18586199483E+03  0.18586199483E+03  0.00000000000E+00 0.  1.
         25    2    1    2    0    0  0.13453191142E+02  0.28402395508E+01 -0.79892689023E+02  0.14906156088E+03  0.12508977520E+03 0.  0.
         23    2    1    2    0    0 -0.13453191142E+02 -0.28402395508E+01 -0.41375662690E+02  0.10139407707E+03  0.91541018620E+02 0.  0.
          5    1    3    3  502    0  0.34360951789E+02 -0.34773125968E+02 -0.91910091778E+02  0.10418628829E+03  0.41800000000E+01 0. -1.
         -5    1    3    3    0  502 -0.20907760647E+02  0.37613365519E+02  0.12017402756E+02  0.44875272589E+02  0.41800000000E+01 0. -1.
        -11    1    4    4    0    0 -0.30728469938E+02 -0.23940486619E+02  0.12583295663E+02  0.40935621335E+02  0.00000000000E+00 0. -1.
         11    1    4    4    0    0  0.17275278796E+02  0.21100247069E+02 -0.53958958353E+02  0.60458455740E+02  0.00000000000E+00 0.  1.
</event>
<event>
 8    1  0.6832629E-009  0.1053062E+03  0.7561462E-02  0.1269518E+00
         -1   -1    0    0    0  501 -0.00000000000E+00  0.00000000000E+00  0.58224897762E+02  0.58224897762E+02  0.00000000000E+00 0.  1.
          1   -1    0    0  501    0  0.00000000000E+00 -0.00000000000E+00 -0.23781079574E+03  0.23781079574E+03  0.00000000000E+00 0. -1.
         25    2    1    2    0    0  0.26470851554E+01 -0.45293956724E+02 -0.84311541524E+02  0.15752099307E+03  0.12508348272E+03 0.  0.
         23    2    1    2    0    0 -0.26470851554E+01  0.45293956724E+02 -0.95274356459E+02  0.13851470043E+03  0.89724966770E+02 0.  0.
          5    1    3    3  502    0  0.36097359586E+02  0.28987463036E+02 -0.52089888439E+02  0.69814907147E+02  0.41800000000E+01 0.  1.
         -5    1    3    3    0  502 -0.33450274431E+02 -0.74281419761E+02 -0.32221653085E+02  0.87706085927E+02  0.41800000000E+01 0.  1.
        -11    1    4    4    0    0  0.30064963231E+02  0.47137035377E+01 -0.59745119022E+00  0.30438100516E+02  0.00000000000E+00 0.  1.
         11    1    4    4    0    0 -0.32712048386E+02  0.40580253187E+02 -0.94676905269E+02  0.10807659992E+03  0.00000000000E+00 0. -1.
</event>
<event>
 8    1  0.6832629E-009  0.1035326E+03  0.7561462E-02  0.1273038E+00
          2   -1    0    0  501    0  0.00000000000E+00  0.00000000000E+00  0.35636685123E+02  0.35636685123E+02  0.00000000000E+00 0. -1.
         -2   -1    0    0    0  501 -0.00000000000E+00 -0.00000000000E+00 -0.49262914839E+03  0.49262914839E+03  0.00000000000E+00 0.  1.
         25    2    1    2    0    0  0.33284866245E+02 -0.45580655678E+02 -0.35377425550E+03  0.37945825073E+03  0.12508741626E+03 0.  0.
         23    2    1    2    0    0 -0.33284866245E+02  0.45580655678E+02 -0.10321820777E+03  0.14880758278E+03  0.91127491921E+02 0.  0.
          5    1    3    3  502    0 -0.46654344016E+02 -0.13797913274E+02 -0.96517974829E+02  0.10816747243E+03  0.41800000000E+01 0. -1.
         -5    1    3    3    0  502  0.79939210260E+02 -0.31782742405E+02 -0.25725628067E+03  0.27129077831E+03  0.41800000000E+01 0. -1.
        -11    1    4    4    0    0 -0.21669822208E+02 -0.32513998852E+01  0.10652694436E+02  0.24364578684E+02  0.00000000000E+00 0. -1.
         11    1    4    4    0    0 -0.11615044037E+02  0.48832055564E+02 -0.11387090221E+03  0.12444300409E+03  0.00000000000E+00 0.  1.
</event>
<event>
 8    1  0.6832629E-009  0.7159436E+02  0.7561462E-02  0.1354754E+00
         -1   -1    0    0    0  501 -0.00000000000E+00  0.00000000000E+00  0.32447435844E+03  0.32447435844E+03  0.00000000000E+00 0.  1.
          1   -1    0    0  501    0  0.00000000000E+00 -0.00000000000E+00 -0.38389859554E+02  0.38389859554E+02  0.00000000000E+00 0. -1.
         25    2    1    2    0    0 -0.99382331618E+01  0.23391779836E+02  0.14139130137E+03  0.19048513569E+03  0.12508854053E+03 0.  0.
         23    2    1    2    0    0  0.99382331618E+01 -0.23391779836E+02  0.14469319751E+03  0.17237908230E+03  0.90180279261E+02 0.  0.
          5    1    3    3  502    0  0.29672655213E+02  0.25435344699E+02  0.14519493058E+03  0.15042095430E+03  0.41800000000E+01 0. -1.
         -5    1    3    3    0  502 -0.39610888374E+02 -0.20435648632E+01 -0.38036292040E+01  0.40064181388E+02  0.41800000000E+01 0. -1.
        -11    1    4    4    0    0 -0.24661247561E+02 -0.65317969681E+01  0.31608080088E+01  0.25706656924E+02  0.00000000000E+00 0. -1.
         11    1    4    4    0    0  0.34599480723E+02 -0.16859982868E+02  0.14153238950E+03  0.14667242538E+03  0.00000000000E+00 0.  1.
</event>
<event>
 8    1  0.6832629E-009  0.1317145E+03  0.7561462E-02  0.1224934E+00
         -1   -1    0    0    0  501 -0.00000000000E+00  0.00000000000E+00  0.15670823302E+02  0.15670823302E+02  0.00000000000E+00 0.  1.
          1   -1    0    0  501    0  0.00000000000E+00 -0.00000000000E+00 -0.16218658162E+04  0.16218658162E+04  0.00000000000E+00 0. -1.
         25    2    1    2    0    0  0.71211055717E+02 -0.71527825861E+02 -0.11840088611E+04  0.11948688819E+04  0.12508963704E+03 0.  0.
         23    2    1    2    0    0 -0.71211055717E+02  0.71527825861E+02 -0.42218613174E+03  0.44266775761E+03  0.86754650948E+02 0.  0.
          5    1    3    3  502    0  0.20201258698E+02  0.35884646568E+02 -0.27199712548E+03  0.27512852884E+03  0.41800000000E+01 0. -1.
         -5    1    3    3    0  502  0.51009797019E+02 -0.10741247243E+03 -0.91201173564E+03  0.91974035302E+03  0.41800000000E+01 0. -1.
        -11    1    4    4    0    0 -0.20003526295E+02  0.82134575505E+01 -0.12520202035E+02  0.24987144858E+02  0.00000000000E+00 0.  1.
         11    1    4    4    0    0 -0.51207529422E+02  0.63314368310E+02 -0.40966592970E+03  0.41768061275E+03  0.00000000000E+00 0. -1.
</event>
<event>
 8    1  0.6832629E-009  0.1016728E+03  0.7561462E-02  0.1276817E+00
          2   -1    0    0  501    0  0.00000000000E+00  0.00000000000E+00  0.25168020979E+03  0.25168020979E+03  0.00000000000E+00 0. -1.
         -2   -1    0    0    0  501 -0.00000000000E+00 -0.00000000000E+00 -0.62097590655E+02  0.62097590655E+02  0.00000000000E+00 0.  1.
         25    2    1    2    0    0  0.58656548271E+02  0.23691202480E+02  0.11643489975E+03  0.18222810929E+03  0.12509250259E+03 0.  0.
         23    2    1    2    0    0 -0.58656548271E+02 -0.23691202480E+02  0.73147719382E+02  0.13154969115E+03  0.89178857708E+02 0.  0.
          5    1    3    3  502    0  0.25476894059E+02 -0.31798533827E+02  0.10969252721E+03  0.11709031476E+03  0.41800000000E+01 0.  1.
         -5    1    3    3    0  502  0.33179654212E+02  0.55489736307E+02  0.67423725426E+01  0.65137794532E+02  0.41800000000E+01 0.  1.
        -11    1    4    4    0    0 -0.23694101700E+02  0.27061425851E+02  0.89210644467E-01  0.35968586057E+02  0.00000000000E+00 0.  1.
         11    1    4    4    0    0 -0.34962446571E+02 -0.50752628330E+02  0.73058508738E+02  0.95581105098E+02  0.00000000000E+00 0. -1.
</event>
<event>
 8    1  0.6832629E-009  0.9494133E+02  0.7561462E-02  0.1291308E+00
          1   -1    0    0  501    0  0.00000000000E+00  0.00000000000E+00  0.11151700807E+03  0.11151700807E+03  0.00000000000E+00 0. -1.
         -1   -1    0    0    0  501 -0.00000000000E+00 -0.00000000000E+00 -0.11915165132E+03  0.11915165132E+03  0.00000000000E+00 0.  1.
         25    2    1    2    0    0 -0.19885632011E+02  0.28414685908E+02 -0.75059965734E+01  0.13002112606E+03  0.12508525294E+03 0.  0.
         23    2    1    2    0    0  0.19885632011E+02 -0.28414685908E+02 -0.12864667525E+00  0.10064753334E+03  0.94483208461E+02 0.  0.
          5    1    3    3  502    0 -0.42324062986E+02  0.67660086095E+02 -0.21052614176E+02  0.82643200094E+02  0.41800000000E+01 0.  1.
         -5    1    3    3    0  502  0.22438430975E+02 -0.39245400188E+02  0.13546617603E+02  0.47377925968E+02  0.41800000000E+01 0.  1.
        -11    1    4    4    0    0 -0.16476121356E+02  0.27159648281E+01  0.36654909144E+02  0.40279292499E+02  0.00000000000E+00 0. -1.
         11    1    4    4    0    0  0.36361753367E+02 -0.31130650736E+02 -0.36783555819E+02  0.60368240838E+02  0.00000000000E+00 0.  1.
</event>
<event>
 8    1  0.6832629E-009  0.1088372E+03  0.7561462E-02  0.1262739E+00
          2   -1    0    0  501    0  0.00000000000E+00  0.00000000000E+00  0.55890883774E+03  0.55890883774E+03  0.00000000000E+00 0. -1.
         -2   -1    0    0    0  501 -0.00000000000E+00 -0.00000000000E+00 -0.36456604994E+02  0.36456604994E+02  0.00000000000E+00 0.  1.
         25    2    1    2    0    0  0.21007665792E+01  0.89161336588E+02  0.23278570438E+03  0.27890984050E+03  0.12508939925E+03 0.  0.
         23    2    1    2    0    0 -0.21007665792E+01 -0.89161336588E+02  0.28966652837E+03  0.31645560223E+03  0.91012600033E+02 0.  0.
          5    1    3    3  502    0 -0.71705745439E+01  0.56167405453E+02  0.23738367026E+03  0.24407923689E+03  0.41800000000E+01 0.  1.
         -5    1    3    3    0  502  0.92713411232E+01  0.32993931136E+02 -0.45979658792E+01  0.34830603616E+02  0.41800000000E+01 0.  1.
        -11    1    4    4    0    0  0.42936149537E+02 -0.31736215204E+02  0.14283241488E+03  0.15248540596E+03  0.00000000000E+00 0. -1.
         11    1    4    4    0    0 -0.45036916117E+02 -0.57425121384E+02  0.14683411349E+03  0.16397019627E+03  0.00000000000E+00 0.  1.
</event>
<event>
 8    1  0.6832629E-009  0.1035294E+03  0.7561462E-02  0.1273044E+00
         -2   -1    0    0    0  501 -0.00000000000E+00  0.00000000000E+00  0.21742069932E+03  0.21742069932E+03  0.00000000000E+00 0. -1.
          2   -1    0    0  501    0  0.00000000000E+00 -0.00000000000E+00 -0.90400119646E+02  0.90400119646E+02  0.00000000000E+00 0.  1.
         25    2    1    2    0    0  0.78432823633E+02 -0.39584002452E+02  0.66738198726E+02  0.16679225882E+03  0.12508824630E+03 0.  0.
         23    2    1    2    0    0 -0.78432823633E+02  0.39584002452E+02  0.60282380943E+02  0.14102856014E+03  0.92393117976E+02 0.  0.
          5    1    3    3  502    0  0.63944055806E+02 -0.58250629267E+02  0.95776124864E+02  0.12912209949E+03  0.41800000000E+01 0.  1.
         -5    1    3    3    0  502  0.14488767826E+02  0.18666626815E+02 -0.29037926138E+02  0.37670159333E+02  0.41800000000E+01 0.  1.
        -11    1    4    4    0    0 -0.49128185105E+02  0.24918824607E+01 -0.15618095390E+02  0.51611170821E+02  0.00000000000E+00 0.  1.
         11    1    4    4    0    0 -0.29304638527E+02  0.37092119991E+02  0.75900476332E+02  0.89417389316E+02  0.00000000000E+00 0. -1.
</event>
<event>
 8    1  0.6832629E-009  0.1315783E+03  0.7561462E-02  0.1225132E+00
         -1   -1    0    0    0  501 -0.00000000000E+00  0.00000000000E+00  0.95567406832E+03  0.95567406832E+03  0.00000000000E+00 0.  1.
          1   -1    0    0  501    0  0.00000000000E+00 -0.00000000000E+00 -0.22270397604E+02  0.22270397604E+02  0.00000000000E+00 0. -1.
         25    2    1    2    0    0  0.27497732671E+01  0.84751118641E+02  0.34347135317E+03  0.37524740357E+03  0.12509088727E+03 0.  0.
         23    2    1    2    0    0 -0.27497732671E+01 -0.84751118641E+02  0.58993231755E+03  0.60269706235E+03  0.89628657895E+02 0.  0.
          5    1    3    3  502    0 -0.64374982051E+01  0.11175471352E+03  0.20306943031E+03  0.23191641447E+03  0.41800000000E+01 0. -1.
         -5    1    3    3    0  502  0.91872714722E+01 -0.27003594877E+02  0.14040192286E+03  0.14333098910E+03  0.41800000000E+01 0. -1.
        -11    1    4    4    0    0  0.30219856060E+02 -0.84066896791E+02  0.39323307980E+03  0.40325269730E+03  0.00000000000E+00 0. -1.
         11    1    4    4    0    0 -0.32969629327E+02 -0.68422185079E+00  0.19669923775E+03  0.19944436505E+03  0.00000000000E+00 0.  1.
</event>
<event>
 8    1  0.6832629E-009  0.1008112E+03  0.7561462E-02  0.1278599E+00
          1   -1    0    0  501    0  0.00000000000E+00  0.00000000000E+00  0.33662209989E+03  0.33662209989E+03  0.00000000000E+00 0. -1.
         -1   -1    0    0    0  501 -0.00000000000E+00 -0.00000000000E+00 -0.54842963233E+02  0.54842963233E+02  0.00000000000E+00 0.  1.
         25    2    1    2    0    0 -0.53137519943E+02  0.34015561493E+02  0.22968615407E+03  0.26904357384E+03  0.12509220921E+03 0.  0.
         23    2    1    2    0    0  0.53137519943E+02 -0.34015561493E+02  0.52092982585E+02  0.12242148928E+03  0.91064195783E+02 0.  0.
          5    1    3    3  502    0 -0.66511245320E+02 -0.75922652959E+01  0.21086499025E+03  0.22127563074E+03  0.41800000000E+01 0.  1.
         -5    1    3    3    0  502  0.13373725377E+02  0.41607826789E+02  0.18821163819E+02  0.47767943101E+02  0.41800000000E+01 0.  1.
        -11    1    4    4    0    0 -0.14458059212E+02 -0.14055593534E+02 -0.14985215776E+02  0.25122736269E+02  0.00000000000E+00 0.  1.
         11    1    4    4    0    0  0.67595579156E+02 -0.19959967959E+02  0.67078198361E+02  0.97298753012E+02  0.00000000000E+00 0. -1.
</event>
<event>
 8    1  0.6832629E-009  0.1441677E+03  0.7561462E-02  0.1207829E+00
         -3   -1    0    0    0  501 -0.00000000000E+00  0.00000000000E+00  0.16488908473E+03  0.16488908473E+03  0.00000000000E+00 0.  1.
          3   -1    0    0  501    0  0.00000000000E+00 -0.00000000000E+00 -0.20338921766E+03  0.20338921766E+03  0.00000000000E+00 0. -1.
         25    2    1    2    0    0 -0.92609720915E+02  0.10415989136E+03 -0.51418903157E+02  0.19420898701E+03  0.12508950258E+03 0.  0.
         23    2    1    2    0    0  0.92609720915E+02 -0.10415989136E+03  0.12918770229E+02  0.17406931538E+03  0.10347651210E+03 0.  0.
          5    1    3    3  502    0 -0.84749406207E+02  0.10008958360E+03 -0.86912599607E+02  0.15739014889E+03  0.41800000000E+01 0.  1.
         -5    1    3    3    0  502 -0.78603147081E+01  0.40703077672E+01  0.35493696450E+02  0.36818838118E+02  0.41800000000E+01 0.  1.
        -11    1    4    4    0    0  0.27907364507E+02 -0.67317823109E+02 -0.39615660289E+02  0.82945227964E+02  0.00000000000E+00 0. -1.
         11    1    4    4    0    0  0.64702356408E+02 -0.36842068255E+02  0.52534430517E+02  0.91124087418E+02  0.00000000000E+00 0.  1.
</event>
<event>
 8    1  0.6832629E-009  0.6776623E+02  0.7561462E-02  0.1367858E+00
          2   -1    0    0  501    0  0.00000000000E+00  0.00000000000E+00  0.26163323546E+03  0.26163323546E+03  0.00000000000E+00 0.  1.
         -2   -1    0    0    0  501 -0.00000000000E+00 -0.00000000000E+00 -0.50512103327E+02  0.50512103327E+02  0.00000000000E+00 0. -1.
         25    2    1    2    0    0  0.26755005090E+02  0.34611702059E+02  0.12537162570E+03  0.18242362201E+03  0.12508610283E+03 0.  0.
         23    2    1    2    0    0 -0.26755005090E+02 -0.34611702059E+02  0.85749506423E+02  0.12972171677E+03  0.86953698787E+02 0.  0.
          5    1    3    3  502    0 -0.16495634329E+02  0.43597257730E+02 -0.27048623352E+01  0.46878731998E+02  0.41800000000E+01 0. -1.
         -5    1    3    3    0  502  0.43250639419E+02 -0.89855556706E+01  0.12807648804E+03  0.13554489002E+03  0.41800000000E+01 0. -1.
        -11    1    4    4    0    0 -0.20648965092E+02 -0.21047879500E+02  0.10288727558E+03  0.10702889547E+03  0.00000000000E+00 0.  1.
         11    1    4    4    0    0 -0.61060399978E+01 -0.13563822559E+02 -0.17137769152E+02  0.22692821296E+02  0.00000000000E+00 0. -1.
</event>
<event>
 8    1  0.6832629E-009  0.9604822E+02  0.7561462E-02  0.1288833E+00
          3   -1    0    0  501    0  0.00000000000E+00  0.00000000000E+00  0.15455494734E+02  0.15455494734E+02  0.00000000000E+00 0. -1.
         -3   -1    0    0    0  501 -0.00000000000E+00 -0.00000000000E+00 -0.14083769040E+04  0.14083769040E+04  0.00000000000E+00 0.  1.
         25    2    1    2    0    0 -0.99145235499E+01 -0.55576955978E+02 -0.11514701599E+04  0.11596191236E+04  0.12508351969E+03 0.  0.
         23    2    1    2    0    0  0.99145235499E+01  0.55576955978E+02 -0.24145124936E+03  0.26421327512E+03  0.91229672346E+02 0.  0.
          5    1    3    3  502    0  0.37299276744E+02 -0.99560334615E+01 -0.85745855667E+03  0.85833735061E+03  0.41800000000E+01 0. -1.
         -5    1    3    3    0  502 -0.47213800294E+02 -0.45620922517E+02 -0.29401160324E+03  0.30128177301E+03  0.41800000000E+01 0. -1.
        -11    1    4    4    0    0 -0.28673410104E+02  0.27762541483E+02 -0.18998335396E+03  0.19413036326E+03  0.00000000000E+00 0.  1.
         11    1    4    4    0    0  0.38587933654E+02  0.27814414496E+02 -0.51467895397E+02  0.70082911855E+02  0.00000000000E+00 0. -1.
</event>
<event>
 8    1  0.6832629E-009  0.1489103E+03  0.7561462E-02  0.1201818E+00
         -2   -1    0    0    0  501 -0.00000000000E+00  0.00000000000E+00  0.28399418624E+02  0.28399418624E+02  0.00000000000E+00 0.  1.
          2   -1    0    0  501    0  0.00000000000E+00 -0.00000000000E+00 -0.12304368123E+04  0.12304368123E+04  0.00000000000E+00 0. -1.
         25    2    1    2    0    0  0.12372138151E+03 -0.77848071131E+02 -0.77294374699E+03  0.79652779377E+03  0.12508871981E+03 0.  0.
         23    2    1    2    0    0 -0.12372138151E+03  0.77848071131E+02 -0.42909364670E+03  0.46230843716E+03  0.90776819805E+02 0.  0.
          5    1    3    3  502    0  0.62841715281E+02 -0.26985988762E+02 -0.11544468807E+03  0.13424706020E+03  0.41800000000E+01 0.  1.
         -5    1    3    3    0  502  0.60879666225E+02 -0.50862082369E+02 -0.65749905892E+03  0.66228073357E+03  0.41800000000E+01 0.  1.
        -11    1    4    4    0    0 -0.69254625130E+02  0.62467148215E+02 -0.14338871068E+03  0.17105165903E+03  0.00000000000E+00 0.  1.
         11    1    4    4    0    0 -0.54466756375E+02  0.15380922917E+02 -0.28570493602E+03  0.29125677813E+03  0.00000000000E+00 0. -1.
</event>
<event>
 8    1  0.6832629E-009  0.7381798E+02  0.7561462E-02  0.1347571E+00
         -2   -1    0    0    0  501 -0.00000000000E+00  0.00000000000E+00  0.35698309223E+02  0.35698309223E+02  0.00000000000E+00 0.  1.
          2   -1    0    0  501    0  0.00000000000E+00 -0.00000000000E+00 -0.10229849932E+04  0.10229849932E+04  0.00000000000E+00 0. -1.
         25    2    1    2    0    0 -0.42811952391E+02 -0.18900576550E+02 -0.93288618653E+03  0.94239833831E+03  0.12509155038E+03 0.  0.
         23    2    1    2    0    0  0.42811952391E+02  0.18900576550E+02 -0.54400497472E+02  0.11628496413E+03  0.91502369899E+02 0.  0.
          5    1    3    3  502    0 -0.43126819511E+02 -0.47016763689E+02 -0.88031328001E+03  0.88263211022E+03  0.41800000000E+01 0. -1.
         -5    1    3    3    0  502  0.31486712062E+00  0.28116187139E+02 -0.52572906519E+02  0.59766228092E+02  0.41800000000E+01 0. -1.
        -11    1    4    4    0    0  0.10551356736E+02 -0.80207907993E+01  0.23953450866E+02  0.27375756107E+02  0.00000000000E+00 0.  1.
         11    1    4    4    0    0  0.32260595654E+02  0.26921367350E+02 -0.78353948338E+02  0.88909208027E+02  0.00000000000E+00 0. -1.
</event>
<event>
 8    1  0.6832629E-009  0.1417537E+03  0.7561462E-02  0.1210989E+00
         -2   -1    0    0    0  501 -0.00000000000E+00  0.00000000000E+00  0.93580428471E+02  0.93580428471E+02  0.00000000000E+00 0. -1.
          2   -1    0    0  501    0  0.00000000000E+00 -0.00000000000E+00 -0.30694464984E+03  0.30694464984E+03  0.00000000000E+00 0.  1.
         25    2    1    2    0    0 -0.96067197127E+02  0.21053818734E+02 -0.21227803207E+03  0.26529688115E+03  0.12509317568E+03 0.  0.
         23    2    1    2    0    0  0.96067197127E+02 -0.21053818734E+02 -0.10861893029E+01  0.13522819716E+03  0.92807951458E+02 0.  0.
          5    1    3    3  502    0  0.28914428479E+02 -0.52241506514E+01 -0.56445030885E+02  0.63771857711E+02  0.41800000000E+01 0. -1.
         -5    1    3    3    0  502 -0.12498162561E+03  0.26277969385E+02 -0.15583300119E+03  0.20152502344E+03  0.41800000000E+01 0. -1.
        -11    1    4    4    0    0  0.95535781100E+02 -0.42522030557E+02 -0.20170169115E+02  0.10649903415E+03  0.00000000000E+00 0.  1.
         11    1    4    4    0    0  0.53141602641E+00  0.21468211823E+02  0.19083979812E+02  0.28729163012E+02  0.00000000000E+00 0. -1.
</event>
<event>
 8    1  0.6832629E-009  0.1327813E+03  0.7561462E-02  0.1223386E+00
          1   -1    0    0  501    0  0.00000000000E+00  0.00000000000E+00  0.38882499512E+03  0.38882499512E+03  0.00000000000E+00 0. -1.
         -1   -1    0    0    0  501 -0.00000000000E+00 -0.00000000000E+00 -0.72209675427E+02  0.72209675427E+02  0.00000000000E+00 0.  1.
         25    2    1    2    0    0  0.29159554564E+01  0.10463748815E+03  0.68719032150E+02  0.17699993324E+03  0.12509661973E+03 0.  0.
         23    2    1    2    0    0 -0.29159554564E+01 -0.10463748815E+03  0.24789628755E+03  0.28403473731E+03  0.90915652648E+02 0.  0.
          5    1    3    3  502    0 -0.33223123994E+02  0.73899779812E+02 -0.13242126108E+02  0.82205715909E+02  0.41800000000E+01 0.  1.
         -5    1    3    3    0  502  0.36139079451E+02  0.30737708333E+02  0.81961158258E+02  0.94794217335E+02  0.41800000000E+01 0.  1.
        -11    1    4    4    0    0  0.70165607145E+00 -0.12051607103E+03  0.20066789625E+03  0.23407738097E+03  0.00000000000E+00 0.  1.
         11    1    4    4    0    0 -0.36176115279E+01  0.15878582883E+02  0.47228391300E+02  0.49957356338E+02  0.00000000000E+00 0. -1.
</event>
<event>
 8    1  0.6832629E-009  0.1386272E+03  0.7561462E-02  0.1215188E+00
          2   -1    0    0  501    0  0.00000000000E+00  0.00000000000E+00  0.83208403498E+03  0.83208403498E+03  0.00000000000E+00 0. -1.
         -2   -1    0    0    0  501 -0.00000000000E+00 -0.00000000000E+00 -0.31910320306E+02  0.31910320306E+02  0.00000000000E+00 0.  1.
         25    2    1    2    0    0 -0.81063250429E+02  0.80451595908E+02  0.53694772020E+03  0.56303168387E+03  0.12509241767E+03 0.  0.
         23    2    1    2    0    0  0.81063250429E+02 -0.80451595908E+02  0.26322599447E+03  0.30096267142E+03  0.90812419664E+02 0.  0.
          5    1    3    3  502    0  0.77957207459E+01 -0.88510087868E+01  0.11040075758E+01  0.12562040090E+02  0.41800000000E+01 0.  1.
         -5    1    3    3    0  502 -0.88858971174E+02  0.89302604695E+02  0.53584371262E+03  0.55046964378E+03  0.41800000000E+01 0.  1.
        -11    1    4    4    0    0  0.89329660101E+02 -0.40832335131E+02  0.13818701821E+03  0.16953677999E+03  0.00000000000E+00 0.  1.
         11    1    4    4    0    0 -0.82664096723E+01 -0.39619260777E+02  0.12503897626E+03  0.13142589143E+03  0.00000000000E+00 0. -1.
</event>
<event>
 8    1  0.6832629E-009  0.1653464E+03  0.7561462E-02  0.1182790E+00
          1   -1    0    0  501    0  0.00000000000E+00  0.00000000000E+00  0.18046751072E+03  0.18046751072E+03  0.00000000000E+00 0. -1.
         -1   -1    0    0    0  501 -0.00000000000E+00 -0.00000000000E+00 -0.17581242149E+03  0.17581242149E+03  0.00000000000E+00 0.  1.
         25    2    1    2    0    0 -0.13736475490E+03 -0.16060342475E+02  0.16541545252E+02  0.18721102407E+03  0.12508930540E+03 0.  0.
         23    2    1    2    0    0  0.13736475490E+03  0.16060342475E+02 -0.11886456018E+02  0.16906890814E+03  0.96519414487E+02 0.  0.
          5    1    3    3  502    0 -0.15083334191E+03  0.83275206670E+01 -0.58356539963E+01  0.15123350122E+03  0.41800000000E+01 0.  1.
         -5    1    3    3    0  502  0.13468587008E+02 -0.24387863142E+02  0.22377199249E+02  0.35977522856E+02  0.41800000000E+01 0.  1.
        -11    1    4    4    0    0  0.10758908909E+03  0.38335288740E+02  0.24752010192E+02  0.11686602784E+03  0.00000000000E+00 0.  1.
         11    1    4    4    0    0  0.29775665815E+02 -0.22274946265E+02 -0.36638466209E+02  0.52202880304E+02  0.00000000000E+00 0. -1.
</event>
<event>
 8    1  0.6832629E-009  0.7211357E+02  0.7561462E-02  0.1353050E+00
         -2   -1    0    0    0  501 -0.00000000000E+00  0.00000000000E+00  0.16897203055E+03  0.16897203055E+03  0.00000000000E+00 0. -1.
          2   -1    0    0  501    0  0.00000000000E+00 -0.00000000000E+00 -0.90517258869E+02  0.90517258869E+02  0.00000000000E+00 0.  1.
         25    2    1    2    0    0  0.42693635079E+02  0.97273920243E+01  0.87221110003E+01  0.13281817687E+03  0.12508886543E+03 0.  0.
         23    2    1    2    0    0 -0.42693635079E+02 -0.97273920243E+01  0.69732660684E+02  0.12667111256E+03  0.96257769340E+02 0.  0.
          5    1    3    3  502    0  0.31013964820E+02  0.21858121058E+01  0.66348614507E+02  0.73391108694E+02  0.41800000000E+01 0.  1.
         -5    1    3    3    0  502  0.11679670260E+02  0.75415799184E+01 -0.57626503507E+02  0.59427068172E+02  0.41800000000E+01 0.  1.
        -11    1    4    4    0    0 -0.40606488360E+02  0.34972239725E+02  0.60787580702E+02  0.81037487719E+02  0.00000000000E+00 0.  1.
         11    1    4    4    0    0 -0.20871467192E+01 -0.44699631749E+02  0.89450799827E+01  0.45633624837E+02  0.00000000000E+00 0. -1.
</event>
<event>
 8    1  0.6832629E-009  0.1489712E+03  0.7561462E-02  0.1201743E+00
          1   -1    0    0  501    0  0.00000000000E+00  0.00000000000E+00  0.11664665162E+03  0.11664665162E+03  0.00000000000E+00 0. -1.
         -1   -1    0    0    0  501 -0.00000000000E+00 -0.00000000000E+00 -0.23651415111E+03  0.23651415111E+03  0.00000000000E+00 0.  1.
         25    2    1    2    0    0  0.12110735680E+03  0.96958522917E+01 -0.33397739565E+02  0.17755216639E+03  0.12509341054E+03 0.  0.
         23    2    1    2    0    0 -0.12110735680E+03 -0.96958522917E+01 -0.86469759921E+02  0.17560863633E+03  0.92738192519E+02 0.  0.
          5    1    3    3  502    0  0.14449241544E+03  0.24097075678E+02 -0.29703867297E+02  0.14952765400E+03  0.41800000000E+01 0.  1.
         -5    1    3    3    0  502 -0.23385058645E+02 -0.14401223386E+02 -0.36938722674E+01  0.28024512398E+02  0.41800000000E+01 0.  1.
        -11    1    4    4    0    0 -0.66092363936E+02 -0.16662754328E+02  0.53202934373E+01  0.68367780970E+02  0.00000000000E+00 0. -1.
         11    1    4    4    0    0 -0.55014992863E+02  0.69669020367E+01 -0.91790053359E+02  0.10724085536E+03  0.00000000000E+00 0.  1.
</event>
<event>
 8    1  0.6832629E-009  0.1202419E+03  0.7561462E-02  0.1242698E+00
          2   -1    0    0  501    0  0.00000000000E+00  0.00000000000E+00  0.76940235318E+03  0.76940235318E+03  0.00000000000E+00 0. -1.
         -2   -1    0    0    0  501 -0.00000000000E+00 -0.00000000000E+00 -0.25019161256E+02  0.25019161256E+02  0.00000000000E+00 0.  1.
         25    2    1    2    0    0  0.29789798333E+02  0.60749446024E+02  0.25437802660E+03  0.29143700474E+03  0.12509764202E+03 0.  0.
         23    2    1    2    0    0 -0.29789798333E+02 -0.60749446024E+02  0.49000516532E+03  0.50298450969E+03  0.91161547099E+02 0.  0.
          5    1    3    3  502    0 -0.29146032412E+02 -0.15273691376E+02  0.21734543786E+02  0.39656520866E+02  0.41800000000E+01 0. -1.
         -5    1    3    3    0  502  0.58935830745E+02  0.76023137401E+02  0.23264348281E+03  0.25178048388E+03  0.41800000000E+01 0. -1.
        -11    1    4    4    0    0 -0.26473434488E+02 -0.83728344616E+02  0.42447275903E+03  0.43346095739E+03  0.00000000000E+00 0.  1.
         11    1    4    4    0    0 -0.33163638452E+01  0.22978898592E+02  0.65532406299E+02  0.69523552304E+02  0.00000000000E+00 0. -1.
</event>
<event>
 8    1  0.6832629E-009  0.6103912E+02  0.7561462E-02  0.1393522E+00
         -1   -1    0    0    0  501 -0.00000000000E+00  0.00000000000E+00  0.16636301926E+03  0.16636301926E+03  0.00000000000E+00 0.  1.
          1   -1    0    0  501    0  0.00000000000E+00 -0.00000000000E+00 -0.92134682128E+02  0.92134682128E+02  0.00000000000E+00 0. -1.
         25    2    1    2    0    0  0.14453690441E+02 -0.16130793142E+02 -0.16555043729E+02  0.12803971017E+03  0.12510390182E+03 0.  0.
         23    2    1    2    0    0 -0.14453690441E+02  0.16130793142E+02  0.90783380863E+02  0.13045799122E+03  0.91151267564E+02 0.  0.
          5    1    3    3  502    0  0.22037349751E+02  0.17672897225E+02  0.47311768449E+02  0.55261667675E+02  0.41800000000E+01 0. -1.
         -5    1    3    3    0  502 -0.75836593106E+01 -0.33803690367E+02 -0.63866812179E+02  0.72778042491E+02  0.41800000000E+01 0. -1.
        -11    1    4    4    0    0  0.36559249598E+01  0.33402286018E+02 -0.26740866817E+01  0.33707999617E+02  0.00000000000E+00 0. -1.
         11    1    4    4    0    0 -0.18109615400E+02 -0.17271492876E+02  0.93457467544E+02  0.96749991607E+02  0.00000000000E+00 0.  1.
</event>
<event>
 8    1  0.6832629E-009  0.1870097E+03  0.7561462E-02  0.1161186E+00
         -2   -1    0    0    0  501 -0.00000000000E+00  0.00000000000E+00  0.19723706905E+02  0.19723706905E+02  0.00000000000E+00 0. -1.
          2   -1    0    0  501    0  0.00000000000E+00 -0.00000000000E+00 -0.19335661845E+04  0.19335661845E+04  0.00000000000E+00 0.  1.
         25    2    1    2    0    0 -0.41600419246E+02  0.15318807307E+03 -0.11619184864E+04  0.11793638920E+04  0.12508972781E+03 0.  0.
         23    2    1    2    0    0  0.41600419246E+02 -0.15318807307E+03 -0.75192399115E+03  0.77392599940E+03  0.91512750327E+02 0.  0.
          5    1    3    3  502    0  0.35787042653E+02  0.42805028819E+02 -0.18794500849E+03  0.19609635777E+03  0.41800000000E+01 0. -1.
         -5    1    3    3    0  502 -0.77387461899E+02  0.11038304425E+03 -0.97397347792E+03  0.98326753420E+03  0.41800000000E+01 0. -1.
        -11    1    4    4    0    0  0.59573909875E+02 -0.48060974780E+02 -0.32109836953E+03  0.33009554821E+03  0.00000000000E+00 0.  1.
         11    1    4    4    0    0 -0.17973490628E+02 -0.10512709828E+03 -0.43082562162E+03  0.44383045119E+03  0.00000000000E+00 0. -1.
</event>
<event>
 8    1  0.6832629E-009  0.1158279E+03  0.7561462E-02  0.1250143E+00
         -1   -1    0    0    0  501 -0.00000000000E+00  0.00000000000E+00  0.30521999344E+03  0.30521999344E+03  0.00000000000E+00 0.  1.
          1   -1    0    0  501    0  0.00000000000E+00 -0.00000000000E+00 -0.48582247058E+02  0.48582247058E+02  0.00000000000E+00 0. -1.
         25    2    1    2    0    0 -0.39725247038E+02  0.66001285825E+01  0.19046994664E+03  0.23140499243E+03  0.12509121872E+03 0.  0.
         23    2    1    2    0    0  0.39725247038E+02 -0.66001285825E+01  0.66167799746E+02  0.12239724807E+03  0.94769465876E+02 0.  0.
          5    1    3    3  502    0  0.28452621340E+02 -0.37665267424E+02  0.48837594611E+02  0.68050033641E+02  0.41800000000E+01 0.  1.
         -5    1    3    3    0  502 -0.68177868378E+02  0.44265396007E+02  0.14163235203E+03  0.16335495879E+03  0.41800000000E+01 0.  1.
        -11    1    4    4    0    0 -0.29795224137E+02  0.99428891131E+01  0.17764673320E+02  0.36086008972E+02  0.00000000000E+00 0. -1.
         11    1    4    4    0    0  0.69520471176E+02 -0.16543017696E+02  0.48403126426E+02  0.86311239099E+02  0.00000000000E+00 0.  1.
</event>
<event>
 8    1  0.6832629E-009  0.1306244E+03  0.7561462E-02  0.1226532E+00
          2   -1    0    0  501    0  0.00000000000E+00  0.00000000000E+00  0.27323175935E+03  0.27323175935E+03  0.00000000000E+00 0. -1.
         -2   -1    0    0    0  501 -0.00000000000E+00 -0.00000000000E+00 -0.64600517617E+02  0.64600517617E+02  0.00000000000E+00 0.  1.
         25    2    1    2    0    0  0.59946560025E+02 -0.47456437690E+02  0.11852468424E+03  0.18851856861E+03  0.12508175886E+03 0.  0.
         23    2    1    2    0    0 -0.59946560025E+02  0.47456437690E+02  0.90106557494E+02  0.14931370836E+03  0.91267125859E+02 0.  0.
          5    1    3    3  502    0 -0.33169800065E+02  0.11898265966E+02  0.36432879303E+02  0.50858936910E+02  0.41800000000E+01 0. -1.
         -5    1    3    3    0  502  0.93116360090E+02 -0.59354703656E+02  0.82091804938E+02  0.13765963170E+03  0.41800000000E+01 0. -1.
        -11    1    4    4    0    0 -0.37313681317E+02  0.72478274458E+02  0.45414024032E+02  0.93315832851E+02  0.00000000000E+00 0. -1.
         11    1    4    4    0    0 -0.22632878708E+02 -0.25021836768E+02  0.44692533462E+02  0.55997875505E+02  0.00000000000E+00 0.  1.
</event>
<event>
 8    1  0.6832629E-009  0.2241381E+03  0.7561462E-02  0.1130835E+00
          1   -1    0    0  501    0  0.00000000000E+00  0.00000000000E+00  0.37378247147E+03  0.37378247147E+03  0.00000000000E+00 0. -1.
         -1   -1    0    0    0  501 -0.00000000000E+00 -0.00000000000E+00 -0.14608236114E+03  0.14608236114E+03  0.00000000000E+00 0.  1.
         25    2    1    2    0    0 -0.49057394836E+02 -0.19844866518E+03  0.84754254441E+02  0.25420890193E+03  0.12510148470E+03 0.  0.
         23    2    1    2    0    0  0.49057394836E+02  0.19844866518E+03  0.14294585588E+03  0.26565593068E+03  0.91384107425E+02 0.  0.
          5    1    3    3  502    0 -0.35235334792E+02 -0.88793778599E+01 -0.14972033034E+02  0.39522225927E+02  0.41800000000E+01 0. -1.
         -5    1    3    3    0  502 -0.13822060044E+02 -0.18956928732E+03  0.99726287475E+02  0.21468667601E+03  0.41800000000E+01 0. -1.
        -11    1    4    4    0    0  0.60416483821E+02  0.69317734044E+02  0.40702634233E+02  0.10055746717E+03  0.00000000000E+00 0. -1.
         11    1    4    4    0    0 -0.11359088985E+02  0.12913093114E+03  0.10224322165E+03  0.16509846351E+03  0.00000000000E+00 0.  1.
</event>
<event>
 8    1  0.6832629E-009  0.1489559E+03  0.7561462E-02  0.1201762E+00
         -1   -1    0    0    0  501 -0.00000000000E+00  0.00000000000E+00  0.14547562368E+02  0.14547562368E+02  0.00000000000E+00 0.  1.
          1   -1    0    0  501    0  0.00000000000E+00 -0.00000000000E+00 -0.21227760311E+04  0.21227760311E+04  0.00000000000E+00 0. -1.
         25    2    1    2    0    0 -0.66466084749E+02 -0.10260707872E+03 -0.14912365649E+04  0.15014592209E+04  0.12508935384E+03 0.  0.
         23    2    1    2    0    0  0.66466084749E+02  0.10260707872E+03 -0.61699190384E+03  0.63586437259E+03  0.93265952563E+02 0.  0.
          5    1    3    3  502    0 -0.91829041025E+02 -0.92504973722E+02 -0.88119994813E+03  0.89079771212E+03  0.41800000000E+01 0. -1.
         -5    1    3    3    0  502  0.25362956275E+02 -0.10102104998E+02 -0.61003661680E+03  0.61066150879E+03  0.41800000000E+01 0. -1.
        -11    1    4    4    0    0 -0.12805662575E+02  0.41151229483E+01 -0.12736784458E+02  0.18524170945E+02  0.00000000000E+00 0.  1.
         11    1    4    4    0    0  0.79271747324E+02  0.98491955771E+02 -0.60425511938E+03  0.61734020165E+03  0.00000000000E+00 0. -1.
</event>
<event>
 8    1  0.6832629E-009  0.2082572E+03  0.7561462E-02  0.1142954E+00
         -1   -1    0    0    0  501 -0.00000000000E+00  0.00000000000E+00  0.60093757295E+02  0.60093757295E+02  0.00000000000E+00 0.  1.
          1   -1    0    0  501    0  0.00000000000E+00 -0.00000000000E+00 -0.89118333232E+03  0.89118333232E+03  0.00000000000E+00 0. -1.
         25    2    1    2    0    0 -0.17987806201E+03 -0.34508503826E+02 -0.23786666909E+03  0.32522985902E+03  0.12508778881E+03 0.  0.
         23    2    1    2    0    0  0.17987806201E+03  0.34508503826E+02 -0.59322290594E+03  0.62604723060E+03  0.80465923081E+02 0.  0.
          5    1    3    3  502    0 -0.86029756435E+01  0.35047292092E+02 -0.30882296088E+02  0.47681364122E+02  0.41800000000E+01 0. -1.
         -5    1    3    3    0  502 -0.17127508636E+03 -0.69555795917E+02 -0.20698437300E+03  0.27754849490E+03  0.41800000000E+01 0. -1.
        -11    1    4    4    0    0  0.12040543340E+03 -0.10255991544E+02 -0.29763600516E+03  0.32123176263E+03  0.00000000000E+00 0.  1.
         11    1    4    4    0    0  0.59472628612E+02  0.44764495370E+02 -0.29558690078E+03  0.30481546796E+03  0.00000000000E+00 0. -1.
</event>
<event>
 8    1  0.6832629E-009  0.1090428E+03  0.7561462E-02  0.1262353E+00
         -1   -1    0    0    0  501 -0.00000000000E+00  0.00000000000E+00  0.25345667923E+02  0.25345667923E+02  0.00000000000E+00 0.  1.
          1   -1    0    0  501    0  0.00000000000E+00 -0.00000000000E+00 -0.77345820314E+03  0.77345820314E+03  0.00000000000E+00 0. -1.
         25    2    1    2    0    0 -0.13628262773E+02 -0.62021100198E+02 -0.56243949059E+03  0.57967023145E+03  0.12508816987E+03 0.  0.
         23    2    1    2    0    0  0.13628262773E+02  0.62021100198E+02 -0.18567304463E+03  0.21913363961E+03  0.97533205075E+02 0.  0.
          5    1    3    3  502    0 -0.91375292192E+01  0.18670098028E+02 -0.14264320036E+02  0.25554064778E+02  0.41800000000E+01 0. -1.
         -5    1    3    3    0  502 -0.44907335534E+01 -0.80691198225E+02 -0.54817517055E+03  0.55411616667E+03  0.41800000000E+01 0. -1.
        -11    1    4    4    0    0 -0.35093100455E+02  0.57057307672E+02 -0.11638551880E+03  0.13428570678E+03  0.00000000000E+00 0.  1.
         11    1    4    4    0    0  0.48721363227E+02  0.49637925255E+01 -0.69287525831E+02  0.84847932837E+02  0.00000000000E+00 0. -1.
</event>
<event>
 8    1  0.6832629E-009  0.1503483E+03  0.7561462E-02  0.1200046E+00
          1   -1    0    0  501    0  0.00000000000E+00  0.00000000000E+00  0.88420741658E+03  0.88420741658E+03  0.00000000000E+00 0. -1.
         -1   -1    0    0    0  501 -0.00000000000E+00 -0.00000000000E+00 -0.34697571440E+02  0.34697571440E+02  0.00000000000E+00 0.  1.
         25    2    1    2    0    0  0.77638124175E+02 -0.85432752537E+02  0.25703748938E+03  0.30828951468E+03  0.12509084852E+03 0.  0.
         23    2    1    2    0    0 -0.77638124175E+02  0.85432752537E+02  0.59247235576E+03  0.61061547334E+03  0.92202659450E+02 0.  0.
          5    1    3    3  502    0  0.20565461666E+02  0.30055959890E+02  0.30649487285E+02  0.47782448757E+02  0.41800000000E+01 0.  1.
         -5    1    3    3    0  502  0.57072662509E+02 -0.11548871243E+03  0.22638800209E+03  0.26050706592E+03  0.41800000000E+01 0.  1.
        -11    1    4    4    0    0 -0.30439067466E+02 -0.71166544293E+01  0.55613725116E+02  0.63797100402E+02  0.00000000000E+00 0.  1.
         11    1    4    4    0    0 -0.47199056709E+02  0.92549406966E+02  0.53685863064E+03  0.54681837293E+03  0.00000000000E+00 0. -1.
</event>
<event>
 8    1  0.6832629E-009  0.1079382E+03  0.7561462E-02  0.1264436E+00
         -2   -1    0    0    0  501 -0.00000000000E+00  0.00000000000E+00  0.44398506560E+02  0.44398506560E+02  0.00000000000E+00 0.  1.
          2   -1    0    0  501    0  0.00000000000E+00 -0.00000000000E+00 -0.28845823628E+03  0.28845823628E+03  0.00000000000E+00 0. -1.
         25    2    1    2    0    0  0.14640833780E+02  0.25646302548E+01 -0.18842059451E+03  0.22666017197E+03  0.12510628193E+03 0.  0.
         23    2    1    2    0    0 -0.14640833780E+02 -0.25646302548E+01 -0.55639135206E+02  0.10619657087E+03  0.89224811328E+02 0.  0.
          5    1    3    3  502    0  0.59678756280E+02  0.35413686225E+02 -0.11499834112E+03  0.13437921708E+03  0.41800000000E+01 0. -1.
         -5    1    3    3    0  502 -0.45037922500E+02 -0.32849055970E+02 -0.73422253397E+02  0.92280954889E+02  0.41800000000E+01 0. -1.
        -11    1    4    4    0    0 -0.52398959340E+02  0.18984120500E+01 -0.32181154456E+02  0.61521391486E+02  0.00000000000E+00 0.  1.
         11    1    4    4    0    0  0.37758125560E+02 -0.44630423048E+01 -0.23457980750E+02  0.44675179387E+02  0.00000000000E+00 0. -1.
</event>
<event>
 8    1  0.6832629E-009  0.1433029E+03  0.7561462E-02  0.1208952E+00
          1   -1    0    0  501    0  0.00000000000E+00  0.00000000000E+00  0.33395269004E+03  0.33395269004E+03  0.00000000000E+00 0. -1.
         -1   -1    0    0    0  501 -0.00000000000E+00 -0.00000000000E+00 -0.73456815182E+02  0.73456815182E+02  0.00000000000E+00 0.  1.
         25    2    1    2    0    0 -0.94732781614E+02  0.55094705685E+02  0.10529175328E+03  0.19682491486E+03  0.12507584616E+03 0.  0.
         23    2    1    2    0    0  0.94732781614E+02 -0.55094705685E+02  0.15520412158E+03  0.21058459037E+03  0.90817530457E+02 0.  0.
          5    1    3    3  502    0 -0.11474502056E+03  0.46931837650E+02  0.11817069944E+03  0.17132076271E+03  0.41800000000E+01 0.  1.
         -5    1    3    3    0  502  0.20012238950E+02  0.81628680358E+01 -0.12878946161E+02  0.25504152144E+02  0.41800000000E+01 0.  1.
        -11    1    4    4    0    0  0.12672056383E+02 -0.57075625151E+02  0.81250327232E+02  0.10009906930E+03  0.00000000000E+00 0. -1.
         11    1    4    4    0    0  0.82060725231E+02  0.19809194651E+01  0.73953794349E+02  0.11048552107E+03  0.00000000000E+00 0.  1.
</event>
<event>
 8    1  0.6832629E-009  0.2755736E+03  0.7561462E-02  0.1098131E+00
         -1   -1    0    0    0  501 -0.00000000000E+00  0.00000000000E+00  0.37308094120E+03  0.37308094120E+03  0.00000000000E+00 0.  1.
          1   -1    0    0  501    0  0.00000000000E+00 -0.00000000000E+00 -0.21429908047E+03  0.21429908047E+03  0.00000000000E+00 0. -1.
         25    2    1    2    0    0 -0.28624035901E+02  0.25717791744E+03  0.54513810090E+02  0.29253727291E+03  0.12508590609E+03 0.  0.
         23    2    1    2    0    0  0.28624035901E+02 -0.25717791744E+03  0.10426805063E+03  0.29484274875E+03  0.95397083075E+02 0.  0.
          5    1    3    3  502    0 -0.71852795983E+02  0.10254322320E+03  0.38803012533E+02  0.13115289969E+03  0.41800000000E+01 0. -1.
         -5    1    3    3    0  502  0.43228760081E+02  0.15463469424E+03  0.15710797556E+02  0.16138437322E+03  0.41800000000E+01 0. -1.
        -11    1    4    4    0    0 -0.89625941644E+01 -0.17094268151E+03  0.10491355088E+03  0.20076997189E+03  0.00000000000E+00 0.  1.
         11    1    4    4    0    0  0.37586630065E+02 -0.86235235931E+02 -0.64550024510E+00  0.94072776861E+02  0.00000000000E+00 0. -1.
</event>
<event>
 8    1  0.6832629E-009  0.8666380E+02  0.7561462E-02  0.1311138E+00
          1   -1    0    0  501    0  0.00000000000E+00  0.00000000000E+00  0.23317337955E+03  0.23317337955E+03  0.00000000000E+00 0. -1.
         -1   -1    0    0    0  501 -0.00000000000E+00 -0.00000000000E+00 -0.59815887884E+02  0.59815887884E+02  0.00000000000E+00 0.  1.
         25    2    1    2    0    0 -0.38330075582E+02 -0.12515768602E+02  0.67667411098E+02  0.14782515157E+03  0.12509019847E+03 0.  0.
         23    2    1    2    0    0  0.38330075582E+02  0.12515768602E+02  0.10569008057E+03  0.14516411586E+03  0.90974657168E+02 0.  0.
          5    1    3    3  502    0 -0.59494909765E+02 -0.11142083473E+01 -0.15101883110E+02  0.61533933904E+02  0.41800000000E+01 0.  1.
         -5    1    3    3    0  502  0.21164834183E+02 -0.11401560255E+02  0.82769294209E+02  0.86291217664E+02  0.41800000000E+01 0.  1.
        -11    1    4    4    0    0  0.59332768804E+02  0.25502019443E+02  0.42474673076E+02  0.77297013542E+02  0.00000000000E+00 0.  1.
         11    1    4    4    0    0 -0.21002693222E+02 -0.12986250841E+02  0.63215407490E+02  0.67867102322E+02  0.00000000000E+00 0. -1.
</event>
<event>
 8    1  0.6832629E-009  0.1161220E+03  0.7561462E-02  0.1249635E+00
          1   -1    0    0  501    0  0.00000000000E+00  0.00000000000E+00  0.21990687103E+03  0.21990687103E+03  0.00000000000E+00 0. -1.
         -1   -1    0    0    0  501 -0.00000000000E+00 -0.00000000000E+00 -0.99894623993E+02  0.99894623993E+02  0.00000000000E+00 0.  1.
         25    2    1    2    0    0  0.77539395990E+02  0.17841912906E+02  0.13188691585E+03  0.19842821568E+03  0.12509558913E+03 0.  0.
         23    2    1    2    0    0 -0.77539395990E+02 -0.17841912906E+02 -0.11874668812E+02  0.12137327934E+03  0.90883295455E+02 0.  0.
          5    1    3    3  502    0  0.27108440252E+02  0.52785598918E+02  0.12255308513E+03  0.13622744973E+03  0.41800000000E+01 0. -1.
         -5    1    3    3    0  502  0.50430955738E+02 -0.34943686012E+02  0.93338307239E+01  0.62200765950E+02  0.41800000000E+01 0. -1.
        -11    1    4    4    0    0  0.39533613261E+01 -0.28768588125E+02 -0.24742552290E+02  0.38150420997E+02  0.00000000000E+00 0. -1.
         11    1    4    4    0    0 -0.81492757316E+02  0.10926675219E+02  0.12867883477E+02  0.83222858347E+02  0.00000000000E+00 0.  1.
</event>
<event>
 8    1  0.6832629E-009  0.1860852E+03  0.7561462E-02  0.1162040E+00
          3   -1    0    0  501    0  0.00000000000E+00  0.00000000000E+00  0.71460615216E+03  0.71460615216E+03  0.00000000000E+00 0. -1.
         -3   -1    0    0    0  501 -0.00000000000E+00 -0.00000000000E+00 -0.67950942454E+02  0.67950942454E+02  0.00000000000E+00 0.  1.
         25    2    1    2    0    0 -0.12477014182E+03  0.10577463960E+03  0.16181959300E+03  0.26189530733E+03  0.12509080161E+03 0.  0.
         23    2    1    2    0    0  0.12477014182E+03 -0.10577463960E+03  0.48483561670E+03  0.52066178728E+03  0.96266602937E+02 0.  0.
          5    1    3    3  502    0  0.14976734682E+02  0.54544234215E+02  0.38383060718E+02  0.68484361849E+02  0.41800000000E+01 0.  1.
         -5    1    3    3    0  502 -0.13974687651E+03  0.51230405385E+02  0.12343653229E+03  0.19341094548E+03  0.41800000000E+01 0.  1.
        -11    1    4    4    0    0  0.96631357181E+02 -0.97382348404E+02  0.46600393456E+03  0.48577835275E+03  0.00000000000E+00 0. -1.
         11    1    4    4    0    0  0.28138784643E+02 -0.83922911962E+01  0.18831682137E+02  0.34883434533E+02  0.00000000000E+00 0.  1.
</event>
<event>
 8    1  0.6832629E-009  0.1158169E+03  0.7561462E-02  0.1250162E+00
          2   -1    0    0  501    0  0.00000000000E+00  0.00000000000E+00  0.10057033092E+03  0.10057033092E+03  0.00000000000E+00 0. -1.
         -2   -1    0    0    0  501 -0.00000000000E+00 -0.00000000000E+00 -0.13361840724E+03  0.13361840724E+03  0.00000000000E+00 0.  1.
         25    2    1    2    0    0 -0.18022466099E+01  0.39788293651E+02 -0.18638055767E+02  0.13259176050E+03  0.12508733519E+03 0.  0.
         23    2    1    2    0    0  0.18022466099E+01 -0.39788293651E+02 -0.14410020548E+02  0.10159697766E+03  0.92346850373E+02 0.  0.
          5    1    3    3  502    0  0.21583073480E+02 -0.41217619034E+02 -0.36730774471E+01  0.46858137795E+02  0.41800000000E+01 0. -1.
         -5    1    3    3    0  502 -0.23385320090E+02  0.81005912685E+02 -0.14964978320E+02  0.85733622702E+02  0.41800000000E+01 0. -1.
        -11    1    4    4    0    0 -0.43718208561E+02 -0.32332743511E+02 -0.59415318724E+01  0.54699084670E+02  0.00000000000E+00 0.  1.
         11    1    4    4    0    0  0.45520455171E+02 -0.74555501399E+01 -0.84684886752E+01  0.46897892994E+02  0.00000000000E+00 0. -1.
</event>
<event>
 8    1  0.6832629E-009  0.1567534E+03  0.7561462E-02  0.1192412E+00
          2   -1    0    0  501    0  0.00000000000E+00  0.00000000000E+00  0.89608264871E+03  0.89608264871E+03  0.00000000000E+00 0. -1.
         -2   -1    0    0    0  501 -0.00000000000E+00 -0.00000000000E+00 -0.42413977231E+02  0.42413977231E+02  0.00000000000E+00 0.  1.
         25    2    1    2    0    0 -0.53873706401E+02  0.10758027566E+03  0.18766122678E+03  0.25561499123E+03  0.12508555375E+03 0.  0.
         23    2    1    2    0    0  0.53873706401E+02 -0.10758027566E+03  0.66600744470E+03  0.68288163470E+03  0.91024824462E+02 0.  0.
          5    1    3    3  502    0  0.50215791015E+01  0.11249546808E+03  0.10584904501E+03  0.15460252044E+03  0.41800000000E+01 0.  1.
         -5    1    3    3    0  502 -0.58895285503E+02 -0.49151924268E+01  0.81812181768E+02  0.10101247080E+03  0.41800000000E+01 0.  1.
        -11    1    4    4    0    0 -0.18028330656E+02 -0.35213304948E+02  0.96237627680E+02  0.10405132644E+03  0.00000000000E+00 0.  1.
         11    1    4    4    0    0  0.71902037058E+02 -0.72366970710E+02  0.56976981702E+03  0.57883030827E+03  0.00000000000E+00 0. -1.
</event>
<event>
 8    1  0.6832629E-009  0.1296451E+03  0.7561462E-02  0.1227983E+00
          1   -1    0    0  501    0  0.00000000000E+00  0.00000000000E+00  0.68368742028E+03  0.68368742028E+03  0.00000000000E+00 0. -1.
         -1   -1    0    0    0  501 -0.00000000000E+00 -0.00000000000E+00 -0.32152966104E+02  0.32152966104E+02  0.00000000000E+00 0.  1.
         25    2    1    2    0    0  0.15630987596E+02 -0.72860844007E+02  0.51500633220E+03  0.53519345852E+03  0.12508990956E+03 0.  0.
         23    2    1    2    0    0 -0.15630987596E+02  0.72860844007E+02  0.13652812197E+03  0.18064692786E+03  0.91871399759E+02 0.  0.
          5    1    3    3  502    0  0.42740200495E+02  0.19627210871E+02  0.13081275476E+03  0.13907336680E+03  0.41800000000E+01 0.  1.
         -5    1    3    3    0  502 -0.27109212898E+02 -0.92488054879E+02  0.38419357744E+03  0.39612009172E+03  0.41800000000E+01 0.  1.
        -11    1    4    4    0    0  0.33603102233E+02  0.52483342424E+02  0.54262318723E+02  0.82632130221E+02  0.00000000000E+00 0.  1.
         11    1    4    4    0    0 -0.49234089829E+02  0.20377501583E+02  0.82265803251E+02  0.98014797641E+02  0.00000000000E+00 0. -1.
</event>
<event>
 8    1  0.6832629E-009  0.2293354E+03  0.7561462E-02  0.1127108E+00
          1   -1    0    0  501    0  0.00000000000E+00  0.00000000000E+00  0.71668196476E+03  0.71668196476E+03  0.00000000000E+00 0. -1.
         -1   -1    0    0    0  501 -0.00000000000E+00 -0.00000000000E+00 -0.76905777153E+02  0.76905777153E+02  0.00000000000E+00 0.  1.
         25    2    1    2    0    0 -0.20204702456E+03 -0.44339201009E+02  0.36496134100E+03  0.43775955470E+03  0.12509069681E+03 0.  0.
         23    2    1    2    0    0  0.20204702456E+03  0.44339201009E+02  0.27481484661E+03  0.35582818721E+03  0.91112754417E+02 0.  0.
          5    1    3    3  502    0  0.13350858418E+02  0.29875036235E+01  0.58178063608E+02  0.59911018048E+02  0.41800000000E+01 0. -1.
         -5    1    3    3    0  502 -0.21539788298E+03 -0.47326704632E+02  0.30678327739E+03  0.37784853665E+03  0.41800000000E+01 0. -1.
        -11    1    4    4    0    0  0.17164912599E+03  0.68648219837E+02  0.20616130153E+03  0.27690879869E+03  0.00000000000E+00 0.  1.
         11    1    4    4    0    0  0.30397898574E+02 -0.24309018828E+02  0.68653545072E+02  0.78919388524E+02  0.00000000000E+00 0. -1.
</event>
<event>
 8    1  0.6832629E-009  0.1083869E+03  0.7561462E-02  0.1263587E+00
          2   -1    0    0  501    0  0.00000000000E+00  0.00000000000E+00  0.21096400182E+04  0.21096400182E+04  0.00000000000E+00 0. -1.
         -2   -1    0    0    0  501 -0.00000000000E+00 -0.00000000000E+00 -0.87662936296E+01  0.87662936296E+01  0.00000000000E+00 0.  1.
         25    2    1    2    0    0 -0.20607243901E+02 -0.14637221851E+02  0.17863156740E+04  0.17908684871E+04  0.12508934477E+03 0.  0.
         23    2    1    2    0    0  0.20607243901E+02  0.14637221851E+02  0.31455805056E+03  0.32753782471E+03  0.87723159310E+02 0.  0.
          5    1    3    3  502    0 -0.71076607236E+02  0.57501481167E+01  0.86966778199E+03  0.87259639681E+03  0.41800000000E+01 0. -1.
         -5    1    3    3    0  502  0.50469363335E+02 -0.20387369968E+02  0.91664789203E+03  0.91827209032E+03  0.41800000000E+01 0. -1.
        -11    1    4    4    0    0  0.42525790897E+02  0.39195529804E+02  0.21708461392E+03  0.22465631985E+03  0.00000000000E+00 0. -1.
         11    1    4    4    0    0 -0.21918546995E+02 -0.24558307952E+02  0.97473436640E+02  0.10288150486E+03  0.00000000000E+00 0.  1.
</event>
<event>
 8    1  0.6832629E-009  0.1462676E+03  0.7561462E-02  0.1205136E+00
         -1   -1    0    0    0  501 -0.00000000000E+00  0.00000000000E+00  0.14694551640E+02  0.14694551640E+02  0.00000000000E+00 0.  1.
          1   -1    0    0  501    0  0.00000000000E+00 -0.00000000000E+00 -0.15161125359E+04  0.15161125359E+04  0.00000000000E+00 0. -1.
         25    2    1    2    0    0  0.13638808875E+02  0.94989232048E+02 -0.72138036764E+03  0.73840808000E+03  0.12509151245E+03 0.  0.
         23    2    1    2    0    0 -0.13638808875E+02 -0.94989232048E+02 -0.78003761664E+03  0.79239900755E+03  0.10113620761E+03 0.  0.
          5    1    3    3  502    0  0.33709404655E+02  0.11775516065E+03 -0.63592542005E+03  0.64762737287E+03  0.41800000000E+01 0. -1.
         -5    1    3    3    0  502 -0.20070595781E+02 -0.22765928606E+02 -0.85454947580E+02  0.90780707126E+02  0.41800000000E+01 0. -1.
        -11    1    4    4    0    0  0.24284113023E+02 -0.98318879236E+02 -0.55506550491E+03  0.56422870798E+03  0.00000000000E+00 0.  1.
         11    1    4    4    0    0 -0.37922921898E+02  0.33296471884E+01 -0.22497211172E+03  0.22817029958E+03  0.00000000000E+00 0. -1.
</event>
<event>
 8    1  0.6832629E-009  0.1936715E+03  0.7561462E-02  0.1155191E+00
          2   -1    0    0  501    0  0.00000000000E+00  0.00000000000E+00  0.24626718105E+03  0.24626718105E+03  0.00000000000E+00 0.  1.
         -2   -1    0    0    0  501 -0.00000000000E+00 -0.00000000000E+00 -0.17497131756E+03  0.17497131756E+03  0.00000000000E+00 0. -1.
         25    2    1    2    0    0 -0.95935086527E+02 -0.14770418205E+03  0.17589598471E+02  0.21674163030E+03  0.12508986412E+03 0.  0.
         23    2    1    2    0    0  0.95935086527E+02  0.14770418205E+03  0.53706265020E+02  0.20449686832E+03  0.88963700606E+02 0.  0.
          5    1    3    3  502    0 -0.51180536714E+02 -0.13926158291E+03 -0.29243981031E+02  0.15128092622E+03  0.41800000000E+01 0. -1.
         -5    1    3    3    0  502 -0.44754549813E+02 -0.84425991492E+01  0.46833579502E+02  0.65460704078E+02  0.41800000000E+01 0. -1.
        -11    1    4    4    0    0  0.10965016648E+03  0.12191391568E+03  0.29591896061E+02  0.16661885295E+03  0.00000000000E+00 0.  1.
         11    1    4    4    0    0 -0.13715079955E+02  0.25790266376E+02  0.24114368959E+02  0.37878015368E+02  0.00000000000E+00 0. -1.
</event>
<event>
 8    1  0.6832629E-009  0.8298648E+02  0.7561462E-02  0.1320784E+00
          4   -1    0    0  501    0  0.00000000000E+00  0.00000000000E+00  0.27458677053E+02  0.27458677053E+02  0.00000000000E+00 0. -1.
         -4   -1    0    0    0  501 -0.00000000000E+00 -0.00000000000E+00 -0.75984550236E+03  0.75984550236E+03  0.00000000000E+00 0.  1.
         25    2    1    2    0    0 -0.25803593488E+02  0.52812689923E+02 -0.60077016837E+03  0.61646352012E+03  0.12508985079E+03 0.  0.
         23    2    1    2    0    0  0.25803593488E+02 -0.52812689923E+02 -0.13161665693E+03  0.17084065930E+03  0.91698314233E+02 0.  0.
          5    1    3    3  502    0 -0.22433096781E+02  0.11448903208E+02 -0.15833404615E+02  0.30041476621E+02  0.41800000000E+01 0. -1.
         -5    1    3    3    0  502 -0.33704967065E+01  0.41363786716E+02 -0.58493676376E+03  0.58642204350E+03  0.41800000000E+01 0. -1.
        -11    1    4    4    0    0  0.20778106237E+01 -0.69623244770E+02 -0.12150659758E+03  0.14005558456E+03  0.00000000000E+00 0.  1.
         11    1    4    4    0    0  0.23725782864E+02  0.16810554847E+02 -0.10110059350E+02  0.30785074741E+02  0.00000000000E+00 0. -1.
</event>
<event>
 8    1  0.6832629E-009  0.1090955E+03  0.7561462E-02  0.1262254E+00
         -3   -1    0    0    0  501 -0.00000000000E+00  0.00000000000E+00  0.10517561662E+04  0.10517561662E+04  0.00000000000E+00 0.  1.
          3   -1    0    0  501    0  0.00000000000E+00 -0.00000000000E+00 -0.15547187419E+02  0.15547187419E+02  0.00000000000E+00 0. -1.
         25    2    1    2    0    0  0.51549572428E+02  0.32052309291E+02  0.71598574111E+03  0.72935916186E+03  0.12507796195E+03 0.  0.
         23    2    1    2    0    0 -0.51549572428E+02 -0.32052309291E+02  0.32022323771E+03  0.33794419180E+03  0.89323266024E+02 0.  0.
          5    1    3    3  502    0  0.79408568407E+02  0.49291229698E+02  0.36412853301E+03  0.37595532582E+03  0.41800000000E+01 0.  1.
         -5    1    3    3    0  502 -0.27858995979E+02 -0.17238920407E+02  0.35185720810E+03  0.35340383603E+03  0.41800000000E+01 0.  1.
        -11    1    4    4    0    0  0.14013731420E+02  0.66092494951E+01  0.98167578104E+01  0.18342180381E+02  0.00000000000E+00 0. -1.
         11    1    4    4    0    0 -0.65563303849E+02 -0.38661558786E+02  0.31040647990E+03  0.31960201142E+03  0.00000000000E+00 0.  1.
</event>
<event>
 8    1  0.6832629E-009  0.1912985E+03  0.7561462E-02  0.1157295E+00
         -1   -1    0    0    0  501 -0.00000000000E+00  0.00000000000E+00  0.81848861958E+02  0.81848861958E+02  0.00000000000E+00 0.  1.
          1   -1    0    0  501    0  0.00000000000E+00 -0.00000000000E+00 -0.50319438787E+03  0.50319438787E+03  0.00000000000E+00 0. -1.
         25    2    1    2    0    0  0.16252847122E+03 -0.50019111983E+02 -0.23061265111E+03  0.31264546792E+03  0.12509028037E+03 0.  0.
         23    2    1    2    0    0 -0.16252847122E+03  0.50019111983E+02 -0.19073287481E+03  0.27239778190E+03  0.94361573389E+02 0.  0.
          5    1    3    3  502    0  0.12523013044E+03 -0.91415670115E+02 -0.16474824915E+03  0.22627166926E+03  0.41800000000E+01 0. -1.
         -5    1    3    3    0  502  0.37298340785E+02  0.41396558133E+02 -0.65864401959E+02  0.86373798666E+02  0.41800000000E+01 0. -1.
        -11    1    4    4    0    0 -0.12771705069E+03  0.29056063687E+02 -0.77724950271E+02  0.15230583629E+03  0.00000000000E+00 0. -1.
         11    1    4    4    0    0 -0.34811420535E+02  0.20963048296E+02 -0.11300792453E+03  0.12009194561E+03  0.00000000000E+00 0.  1.
</event>
<event>
 8    1  0.6832629E-009  0.1108820E+03  0.7561462E-02  0.1258945E+00
          1   -1    0    0  501    0  0.00000000000E+00  0.00000000000E+00  0.14880843165E+04  0.14880843165E+04  0.00000000000E+00 0. -1.
         -1   -1    0    0    0  501 -0.00000000000E+00 -0.00000000000E+00 -0.12409881165E+02  0.12409881165E+02  0.00000000000E+00 0.  1.
         25    2    1    2    0    0  0.32472169602E+02  0.72627172080E+02  0.90394179927E+03  0.91601732940E+03  0.12509126019E+03 0.  0.
         23    2    1    2    0    0 -0.32472169602E+02 -0.72627172080E+02  0.57173263608E+03  0.58447686828E+03  0.91683447087E+02 0.  0.
          5    1    3    3  502    0  0.50471943046E+02  0.44830087814E+02  0.19698863992E+03  0.20827662006E+03  0.41800000000E+01 0.  1.
         -5    1    3    3    0  502 -0.17999773444E+02  0.27797084265E+02  0.70695315936E+03  0.70774070934E+03  0.41800000000E+01 0.  1.
        -11    1    4    4    0    0 -0.56784352633E+02 -0.77376985295E+02  0.47691749769E+03  0.48647914669E+03  0.00000000000E+00 0.  1.
         11    1    4    4    0    0  0.24312183031E+02  0.47498132151E+01  0.94815138389E+02  0.97997721591E+02  0.00000000000E+00 0. -1.
</event>
<event>
 8    1  0.6832629E-009  0.8350131E+02  0.7561462E-02  0.1319399E+00
          2   -1    0    0  501    0  0.00000000000E+00  0.00000000000E+00  0.15364577935E+03  0.15364577935E+03  0.00000000000E+00 0. -1.
         -2   -1    0    0    0  501 -0.00000000000E+00 -0.00000000000E+00 -0.94656831858E+02  0.94656831858E+02  0.00000000000E+00 0.  1.
         25    2    1    2    0    0  0.22523338708E+02 -0.45360977033E+02  0.16596648548E+02  0.13597078497E+03  0.12509071348E+03 0.  0.
         23    2    1    2    0    0 -0.22523338708E+02  0.45360977033E+02  0.42392298945E+02  0.11233182623E+03  0.90864807001E+02 0.  0.
          5    1    3    3  502    0 -0.10979318291E+02 -0.35073830282E+02 -0.49052299242E+02  0.61435490246E+02  0.41800000000E+01 0.  1.
         -5    1    3    3    0  502  0.33502656998E+02 -0.10287146751E+02  0.65648947790E+02  0.74535294728E+02  0.41800000000E+01 0.  1.
        -11    1    4    4    0    0 -0.43608277762E+02 -0.11800733331E+01  0.42971368147E+02  0.61234083180E+02  0.00000000000E+00 0. -1.
         11    1    4    4    0    0  0.21084939054E+02  0.46541050366E+02 -0.57906920249E+00  0.51097743055E+02  0.00000000000E+00 0.  1.
</event>
<event>
 8    1  0.6832629E-009  0.1287293E+03  0.7561462E-02  0.1229353E+00
          2   -1    0    0  501    0  0.00000000000E+00  0.00000000000E+00  0.13339260298E+02  0.13339260298E+02  0.00000000000E+00 0.  1.
         -2   -1    0    0    0  501 -0.00000000000E+00 -0.00000000000E+00 -0.14412415330E+04  0.14412415330E+04  0.00000000000E+00 0. -1.
         25    2    1    2    0    0  0.23253916840E+02 -0.83021321882E+02 -0.79304955952E+03  0.80747085155E+03  0.12509311621E+03 0.  0.
         23    2    1    2    0    0 -0.23253916840E+02  0.83021321882E+02 -0.63485271322E+03  0.64710994178E+03  0.90994641229E+02 0.  0.
          5    1    3    3  502    0 -0.34920270355E+02 -0.59975298901E+02 -0.21343824610E+03  0.22447676730E+03  0.41800000000E+01 0. -1.
         -5    1    3    3    0  502  0.58174187195E+02 -0.23046022982E+02 -0.57961131342E+03  0.58299408425E+03  0.41800000000E+01 0. -1.
        -11    1    4    4    0    0 -0.14468479618E+02 -0.18406517541E+02 -0.10750051822E+03  0.11002044450E+03  0.00000000000E+00 0.  1.
         11    1    4    4    0    0 -0.87854372221E+01  0.10142783942E+03 -0.52735219500E+03  0.53708949728E+03  0.00000000000E+00 0. -1.
</event>
<event>
 8    1  0.6832629E-009  0.9971603E+02  0.7561462E-02  0.1280894E+00
          2   -1    0    0  501    0  0.00000000000E+00  0.00000000000E+00  0.25207426995E+04  0.25207426995E+04  0.00000000000E+00 0. -1.
         -2   -1    0    0    0  501 -0.00000000000E+00 -0.00000000000E+00 -0.98227752252E+01  0.98227752252E+01  0.00000000000E+00 0.  1.
         25    2    1    2    0    0 -0.72324425911E+02 -0.32267633268E+02  0.19695713685E+04  0.19751281341E+04  0.12509095793E+03 0.  0.
         23    2    1    2    0    0  0.72324425911E+02  0.32267633268E+02  0.54134855582E+03  0.55543734067E+03  0.95814183621E+02 0.  0.
          5    1    3    3  502    0 -0.36337562212E+02 -0.29007029689E+02  0.20771338259E+03  0.21289468736E+03  0.41800000000E+01 0. -1.
         -5    1    3    3    0  502 -0.35986863700E+02 -0.32606035789E+01  0.17618579859E+04  0.17622334467E+04  0.41800000000E+01 0. -1.
        -11    1    4    4    0    0 -0.19671593094E+02  0.34653327267E+01  0.37887443212E+02  0.42830345071E+02  0.00000000000E+00 0.  1.
         11    1    4    4    0    0  0.91996019006E+02  0.28802300541E+02  0.50346111261E+03  0.51260699560E+03  0.00000000000E+00 0. -1.
</event>
<event>
 8    1  0.6832629E-009  0.1124737E+03  0.7561462E-02  0.1256056E+00
         -4   -1    0    0    0  501 -0.00000000000E+00  0.00000000000E+00  0.13253070030E+02  0.13253070030E+02  0.00000000000E+00 0.  1.
          4   -1    0    0  501    0  0.00000000000E+00 -0.00000000000E+00 -0.10154724040E+04  0.10154724040E+04  0.00000000000E+00 0. -1.
         25    2    1    2    0    0  0.18361379262E+01 -0.46759768737E+02 -0.61407427941E+03  0.62842999309E+03  0.12508872135E+03 0.  0.
         23    2    1    2    0    0 -0.18361379262E+01  0.46759768737E+02 -0.38814505461E+03  0.40029548099E+03  0.85965349456E+02 0.  0.
          5    1    3    3  502    0  0.21439461422E+02 -0.83540841311E+02 -0.32240342169E+03  0.33376662714E+03  0.41800000000E+01 0. -1.
         -5    1    3    3    0  502 -0.19603323496E+02  0.36781072574E+02 -0.29167085772E+03  0.29466336595E+03  0.41800000000E+01 0. -1.
        -11    1    4    4    0    0 -0.10514594866E+02  0.70579619518E+02 -0.31140532319E+03  0.31947662623E+03  0.00000000000E+00 0.  1.
         11    1    4    4    0    0  0.86784569393E+01 -0.23819850781E+02 -0.76739731422E+02  0.80818854760E+02  0.00000000000E+00 0. -1.
</event>
<event>
 8    1  0.6832629E-009  0.9441763E+02  0.7561462E-02  0.1292493E+00
         -4   -1    0    0    0  501 -0.00000000000E+00  0.00000000000E+00  0.53742185332E+03  0.53742185332E+03  0.00000000000E+00 0.  1.
          4   -1    0    0  501    0  0.00000000000E+00 -0.00000000000E+00 -0.30123709636E+02  0.30123709636E+02  0.00000000000E+00 0. -1.
         25    2    1    2    0    0 -0.57360822872E+02  0.32566236151E+02  0.32159857419E+03  0.35131771652E+03  0.12509065225E+03 0.  0.
         23    2    1    2    0    0  0.57360822872E+02 -0.32566236151E+02  0.18569956949E+03  0.21622784643E+03  0.88990604714E+02 0.  0.
          5    1    3    3  502    0 -0.63101077295E+02 -0.21182483418E+02  0.26367997250E+03  0.27198353601E+03  0.41800000000E+01 0. -1.
         -5    1    3    3    0  502  0.57402544223E+01  0.53748719569E+02  0.57918601692E+02  0.79334180515E+02  0.41800000000E+01 0. -1.
        -11    1    4    4    0    0  0.36533095492E+02 -0.11494012135E+02  0.18244492536E+03  0.18642137798E+03  0.00000000000E+00 0.  1.
         11    1    4    4    0    0  0.20827727380E+02 -0.21072224016E+02  0.32546441286E+01  0.29806468446E+02  0.00000000000E+00 0. -1.
</event>
<event>
 8    1  0.6832629E-009  0.2812148E+03  0.7561462E-02  0.1095027E+00
          1   -1    0    0  501    0  0.00000000000E+00  0.00000000000E+00  0.12422529599E+03  0.12422529599E+03  0.00000000000E+00 0. -1.
         -1   -1    0    0    0  501 -0.00000000000E+00 -0.00000000000E+00 -0.68884510726E+03  0.68884510726E+03  0.00000000000E+00 0.  1.
         25    2    1    2    0    0  0.19531509604E+03  0.17594972714E+03 -0.19912804544E+03  0.35271185533E+03  0.12508949270E+03 0.  0.
         23    2    1    2    0    0 -0.19531509604E+03 -0.17594972714E+03 -0.36549176583E+03  0.46035854793E+03  0.96122154263E+02 0.  0.
          5    1    3    3  502    0  0.65531908884E+01  0.77146391300E+02 -0.62333498075E+02  0.99485915504E+02  0.41800000000E+01 0. -1.
         -5    1    3    3    0  502  0.18876190515E+03  0.98803335839E+02 -0.13679454736E+03  0.25322593982E+03  0.41800000000E+01 0. -1.
        -11    1    4    4    0    0 -0.96098586568E+02 -0.13201094366E+03 -0.27140876090E+03  0.31674049801E+03  0.00000000000E+00 0.  1.
         11    1    4    4    0    0 -0.99216509474E+02 -0.43938783480E+02 -0.94083004925E+02  0.14361804992E+03  0.00000000000E+00 0. -1.
</event>
<event>
 8    1  0.6832629E-009  0.9968768E+02  0.7561462E-02  0.1280954E+00
          2   -1    0    0  501    0  0.00000000000E+00  0.00000000000E+00  0.10647603413E+03  0.10647603413E+03  0.00000000000E+00 0. -1.
         -2   -1    0    0    0  501 -0.00000000000E+00 -0.00000000000E+00 -0.27902779295E+03  0.27902779295E+03  0.00000000000E+00 0.  1.
         25    2    1    2    0    0  0.22996157979E+02 -0.74787908398E+02 -0.21241615490E+03  0.25863216405E+03  0.12509164200E+03 0.  0.
         23    2    1    2    0    0 -0.22996157979E+02  0.74787908398E+02  0.39864396074E+02  0.12687166302E+03  0.91570706450E+02 0.  0.
          5    1    3    3  502    0 -0.18927055248E+01 -0.12829480480E+02  0.15769985570E+02  0.20840891258E+02  0.41800000000E+01 0. -1.
         -5    1    3    3    0  502  0.24888863504E+02 -0.61958427918E+02 -0.22818614047E+03  0.23779127280E+03  0.41800000000E+01 0. -1.
        -11    1    4    4    0    0  0.33189921190E+02  0.13856575212E+02  0.27877368431E+01  0.36074187751E+02  0.00000000000E+00 0.  1.
         11    1    4    4    0    0 -0.56186079169E+02  0.60931333186E+02  0.37076659231E+02  0.90797475273E+02  0.00000000000E+00 0. -1.
</event>
<event>
 8    1  0.6832629E-009  0.7563821E+02  0.7561462E-02  0.1341906E+00
          1   -1    0    0  501    0  0.00000000000E+00  0.00000000000E+00  0.40162523747E+03  0.40162523747E+03  0.00000000000E+00 0. -1.
         -1   -1    0    0    0  501 -0.00000000000E+00 -0.00000000000E+00 -0.44024892041E+02  0.44024892041E+02  0.00000000000E+00 0.  1.
         25    2    1    2    0    0  0.70891869778E+02 -0.73188172755E+01  0.25868672122E+03  0.29605045191E+03  0.12509127890E+03 0.  0.
         23    2    1    2    0    0 -0.70891869778E+02  0.73188172755E+01  0.98913624209E+02  0.14959967760E+03  0.86700266412E+02 0.  0.
          5    1    3    3  502    0  0.61399989775E+02  0.41240041134E+01  0.33223317389E+02  0.70058742300E+02  0.41800000000E+01 0. -1.
         -5    1    3    3    0  502  0.94918800034E+01 -0.11442821389E+02  0.22546340383E+03  0.22599170961E+03  0.41800000000E+01 0. -1.
        -11    1    4    4    0    0 -0.59390054430E+02  0.13769540115E+02  0.11417366327E+03  0.12943107890E+03  0.00000000000E+00 0. -1.
         11    1    4    4    0    0 -0.11501815348E+02 -0.64507228393E+01 -0.15260039059E+02  0.20168598700E+02  0.00000000000E+00 0.  1.
</event>
<event>
 8    1  0.6832629E-009  0.1700196E+03  0.7561462E-02  0.1177827E+00
          1   -1    0    0  501    0  0.00000000000E+00  0.00000000000E+00  0.23345704642E+03  0.23345704642E+03  0.00000000000E+00 0. -1.
         -1   -1    0    0    0  501 -0.00000000000E+00 -0.00000000000E+00 -0.19960588593E+03  0.19960588593E+03  0.00000000000E+00 0.  1.
         25    2    1    2    0    0  0.12969686806E+03  0.50174754186E+02  0.14194254472E+03  0.23480742008E+03  0.12509218594E+03 0.  0.
         23    2    1    2    0    0 -0.12969686806E+03 -0.50174754186E+02 -0.10809138423E+03  0.19825551227E+03  0.91009435000E+02 0.  0.
          5    1    3    3  502    0  0.14505515806E+03  0.62454562738E+02  0.96521313373E+02  0.18513618669E+03  0.41800000000E+01 0.  1.
         -5    1    3    3    0  502 -0.15358290001E+02 -0.12279808552E+02  0.45421231344E+02  0.49671233392E+02  0.41800000000E+01 0.  1.
        -11    1    4    4    0    0 -0.67961634367E+01 -0.37826346185E+02 -0.46206761516E+02  0.60100624897E+02  0.00000000000E+00 0.  1.
         11    1    4    4    0    0 -0.12290070462E+03 -0.12348408001E+02 -0.61884622713E+02  0.13815488737E+03  0.00000000000E+00 0. -1.
</event>
<event>
 8    1  0.6832629E-009  0.1083218E+03  0.7561462E-02  0.1263710E+00
         -1   -1    0    0    0  501 -0.00000000000E+00  0.00000000000E+00  0.19259222650E+02  0.19259222650E+02  0.00000000000E+00 0.  1.
          1   -1    0    0  501    0  0.00000000000E+00 -0.00000000000E+00 -0.11205601886E+04  0.11205601886E+04  0.00000000000E+00 0. -1.
         25    2    1    2    0    0 -0.37720363924E+02 -0.68360691150E+01 -0.95465942759E+03  0.96358111992E+03  0.12507755311E+03 0.  0.
         23    2    1    2    0    0  0.37720363924E+02  0.68360691150E+01 -0.14664153838E+03  0.17623829135E+03  0.89925729707E+02 0.  0.
          5    1    3    3  502    0  0.34654144544E+02  0.29049326922E+02 -0.47316246795E+03  0.47533668763E+03  0.41800000000E+01 0. -1.
         -5    1    3    3    0  502 -0.72374508468E+02 -0.35885396037E+02 -0.48149695964E+03  0.48824443229E+03  0.41800000000E+01 0. -1.
        -11    1    4    4    0    0 -0.17702416946E+02 -0.21698816525E+02 -0.18003050503E+02  0.33291500893E+02  0.00000000000E+00 0.  1.
         11    1    4    4    0    0  0.55422780870E+02  0.28534885640E+02 -0.12863848788E+03  0.14294679046E+03  0.00000000000E+00 0. -1.
</event>
<event>
 8    1  0.6832629E-009  0.1335376E+03  0.7561462E-02  0.1222299E+00
          3   -1    0    0  501    0  0.00000000000E+00  0.00000000000E+00  0.10587490045E+03  0.10587490045E+03  0.00000000000E+00 0. -1.
         -3   -1    0    0    0  501 -0.00000000000E+00 -0.00000000000E+00 -0.21107874144E+03  0.21107874144E+03  0.00000000000E+00 0.  1.
         25    2    1    2    0    0 -0.86944895241E+02 -0.17467682021E+00 -0.11007520720E+03  0.18794613914E+03  0.12509098551E+03 0.  0.
         23    2    1    2    0    0  0.86944895241E+02  0.17467682021E+00  0.48713662099E+01  0.12900750275E+03  0.95182772796E+02 0.  0.
          5    1    3    3  502    0 -0.65889298101E+02 -0.54728864661E+02 -0.34832393970E+02  0.92560338704E+02  0.41800000000E+01 0. -1.
         -5    1    3    3    0  502 -0.21055597140E+02  0.54554187841E+02 -0.75242813231E+02  0.95385800435E+02  0.41800000000E+01 0. -1.
        -11    1    4    4    0    0  0.39903232337E+02  0.43295000029E+02 -0.17436214022E+02  0.61406404698E+02  0.00000000000E+00 0.  1.
         11    1    4    4    0    0  0.47041662904E+02 -0.43120323208E+02  0.22307580232E+02  0.67601098055E+02  0.00000000000E+00 0. -1.
</event>
<event>
 8    1  0.6832629E-009  0.8491471E+02  0.7561462E-02  0.1315656E+00
         -2   -1    0    0    0  501 -0.00000000000E+00  0.00000000000E+00  0.14808489329E+03  0.14808489329E+03  0.00000000000E+00 0. -1.
          2   -1    0    0  501    0  0.00000000000E+00 -0.00000000000E+00 -0.10284163616E+03  0.10284163616E+03  0.00000000000E+00 0.  1.
         25    2    1    2    0    0 -0.23667602760E+02 -0.24872151404E+02 -0.22384541085E+02  0.13162731972E+03  0.12508358918E+03 0.  0.
         23    2    1    2    0    0  0.23667602760E+02  0.24872151404E+02  0.67627798213E+02  0.11929920973E+03  0.92086931839E+02 0.  0.
          5    1    3    3  502    0 -0.56011087323E+02 -0.49589572396E+02 -0.42381681356E+02  0.86081629330E+02  0.41800000000E+01 0.  1.
         -5    1    3    3    0  502  0.32343484563E+02  0.24717420992E+02  0.19997140271E+02  0.45545690391E+02  0.41800000000E+01 0.  1.
        -11    1    4    4    0    0 -0.25266538789E+01 -0.10030719348E+02 -0.19376237767E+02  0.21964469046E+02  0.00000000000E+00 0.  1.
         11    1    4    4    0    0  0.26194256639E+02  0.34902870752E+02  0.87004035980E+02  0.97334740686E+02  0.00000000000E+00 0. -1.
</event>
<event>
 8    1  0.6832629E-009  0.1182104E+03  0.7561462E-02  0.1246079E+00
         -1   -1    0    0    0  501 -0.00000000000E+00  0.00000000000E+00  0.15747285572E+03  0.15747285572E+03  0.00000000000E+00 0.  1.
          1   -1    0    0  501    0  0.00000000000E+00 -0.00000000000E+00 -0.11107014893E+03  0.11107014893E+03  0.00000000000E+00 0. -1.
         25    2    1    2    0    0  0.63210039789E+02  0.42737543721E+02 -0.47076985221E+01  0.14660051402E+03  0.12509013356E+03 0.  0.
         23    2    1    2    0    0 -0.63210039789E+02 -0.42737543721E+02  0.51110405315E+02  0.12194249062E+03  0.80222756832E+02 0.  0.
          5    1    3    3  502    0  0.28018870923E+02  0.75305957934E+02 -0.37084363287E+02  0.88593266271E+02  0.41800000000E+01 0. -1.
         -5    1    3    3    0  502  0.35191168866E+02 -0.32568414213E+02  0.32376664765E+02  0.58007247753E+02  0.41800000000E+01 0. -1.
        -11    1    4    4    0    0 -0.23426798835E+02 -0.60040068421E+02  0.16720405994E+02  0.66582255116E+02  0.00000000000E+00 0. -1.
         11    1    4    4    0    0 -0.39783240953E+02  0.17302524700E+02  0.34389999321E+02  0.55360235504E+02  0.00000000000E+00 0.  1.
</event>
<event>
 8    1  0.6832629E-009  0.1167410E+03  0.7561462E-02  0.1248572E+00
          2   -1    0    0  501    0  0.00000000000E+00  0.00000000000E+00  0.16117879632E+03  0.16117879632E+03  0.00000000000E+00 0. -1.
         -2   -1    0    0    0  501 -0.00000000000E+00 -0.00000000000E+00 -0.11481141120E+03  0.11481141120E+03  0.00000000000E+00 0.  1.
         25    2    1    2    0    0 -0.71886767636E+02 -0.18304477164E+02  0.91768626224E+01  0.14572093523E+03  0.12509042694E+03 0.  0.
         23    2    1    2    0    0  0.71886767636E+02  0.18304477164E+02  0.37190522501E+02  0.13026927228E+03  0.10042005323E+03 0.  0.
          5    1    3    3  502    0 -0.10616138389E+03 -0.18887729322E+02 -0.58317978523E+01  0.10806696079E+03  0.41800000000E+01 0.  1.
         -5    1    3    3    0  502  0.34274616252E+02  0.58325215782E+00  0.15008660475E+02  0.37653974446E+02  0.41800000000E+01 0.  1.
        -11    1    4    4    0    0  0.52337871562E+02  0.36916082004E+02 -0.19943326125E+02  0.67080445490E+02  0.00000000000E+00 0.  1.
         11    1    4    4    0    0  0.19548896074E+02 -0.18611604840E+02  0.57133848626E+02  0.63188826791E+02  0.00000000000E+00 0. -1.
</event>
<event>
 8    1  0.6832629E-009  0.7406736E+02  0.7561462E-02  0.1346784E+00
         -2   -1    0    0    0  501 -0.00000000000E+00  0.00000000000E+00  0.75136273963E+02  0.75136273963E+02  0.00000000000E+00 0.  1.
          2   -1    0    0  501    0  0.00000000000E+00 -0.00000000000E+00 -0.18240240761E+03  0.18240240761E+03  0.00000000000E+00 0. -1.
         25    2    1    2    0    0 -0.23657338366E+02 -0.18162506768E+02 -0.97945114273E+02  0.16164578918E+03  0.12508624800E+03 0.  0.
         23    2    1    2    0    0  0.23657338366E+02  0.18162506768E+02 -0.93210193731E+01  0.95892892391E+02  0.90658805962E+02 0.  0.
          5    1    3    3  502    0  0.34960941897E+02 -0.66829912424E+01  0.10864210249E+02  0.37449076018E+02  0.41800000000E+01 0. -1.
         -5    1    3    3    0  502 -0.58618280263E+02 -0.11479515526E+02 -0.10880932452E+03  0.12419671316E+03  0.41800000000E+01 0. -1.
        -11    1    4    4    0    0  0.24660424585E+02 -0.82370537785E+01 -0.44716196621E+02  0.51725466029E+02  0.00000000000E+00 0. -1.
         11    1    4    4    0    0 -0.10030862193E+01  0.26399560547E+02  0.35395177248E+02  0.44167426362E+02  0.00000000000E+00 0.  1.
</event>
<event>
 8    1  0.6832629E-009  0.9721508E+02  0.7561462E-02  0.1286264E+00
          2   -1    0    0  501    0  0.00000000000E+00  0.00000000000E+00  0.23595295653E+03  0.23595295653E+03  0.00000000000E+00 0.  1.
         -2   -1    0    0    0  501 -0.00000000000E+00 -0.00000000000E+00 -0.76237641596E+02  0.76237641596E+02  0.00000000000E+00 0. -1.
         25    2    1    2    0    0 -0.45862325545E+02  0.97778039966E+01  0.16420695503E+03  0.21168708785E+03  0.12509412747E+03 0.  0.
         23    2    1    2    0    0  0.45862325545E+02 -0.97778039966E+01 -0.44916400947E+01  0.10050351027E+03  0.88779628244E+02 0.  0.
          5    1    3    3  502    0 -0.24382836976E+02 -0.56721332172E+02  0.94004196274E+02  0.11254374074E+03  0.41800000000E+01 0. -1.
         -5    1    3    3    0  502 -0.21479488569E+02  0.66499136168E+02  0.70202758756E+02  0.99143347116E+02  0.41800000000E+01 0. -1.
        -11    1    4    4    0    0  0.51106322950E+02  0.38282430090E+00  0.33313903787E+02  0.61006712626E+02  0.00000000000E+00 0.  1.
         11    1    4    4    0    0 -0.52439974049E+01 -0.10160628298E+02 -0.37805543882E+02  0.39496797647E+02  0.00000000000E+00 0. -1.
</event>
<event>
 8    1  0.6832629E-009  0.9344318E+02  0.7561462E-02  0.1294721E+00
         -3   -1    0    0    0  501 -0.00000000000E+00  0.00000000000E+00  0.10103310547E+03  0.10103310547E+03  0.00000000000E+00 0.  1.
          3   -1    0    0  501    0  0.00000000000E+00 -0.00000000000E+00 -0.13154013323E+03  0.13154013323E+03  0.00000000000E+00 0. -1.
         25    2    1    2    0    0  0.18199874728E+02 -0.72705138861E+01  0.37983671315E+01  0.12667786380E+03  0.12509499499E+03 0.  0.
         23    2    1    2    0    0 -0.18199874728E+02  0.72705138861E+01 -0.34305394899E+02  0.10589537490E+03  0.98249043225E+02 0.  0.
          5    1    3    3  502    0  0.51175649931E+02  0.42546124869E+01 -0.43707282204E+02  0.67563657323E+02  0.41800000000E+01 0.  1.
         -5    1    3    3    0  502 -0.32975775203E+02 -0.11525126373E+02  0.47505649335E+02  0.59114206473E+02  0.41800000000E+01 0.  1.
        -11    1    4    4    0    0  0.12936045204E+02 -0.40860501961E+02 -0.14403119959E+02  0.45214729354E+02  0.00000000000E+00 0.  1.
         11    1    4    4    0    0 -0.31135919932E+02  0.48131015847E+02 -0.19902274940E+02  0.60680645549E+02  0.00000000000E+00 0. -1.
</event>
<event>
 8    1  0.6832629E-009  0.1523110E+03  0.7561462E-02  0.1197662E+00
          2   -1    0    0  501    0  0.00000000000E+00  0.00000000000E+00  0.54978637789E+03  0.54978637789E+03  0.00000000000E+00 0. -1.
         -2   -1    0    0    0  501 -0.00000000000E+00 -0.00000000000E+00 -0.71385069539E+02  0.71385069539E+02  0.00000000000E+00 0.  1.
         25    2    1    2    0    0  0.14148054946E+03 -0.28989505824E+02  0.12336321793E+03  0.22742624770E+03  0.12508827797E+03 0.  0.
         23    2    1    2    0    0 -0.14148054946E+03  0.28989505824E+02  0.35503809043E+03  0.39374519973E+03  0.90144879686E+02 0.  0.
          5    1    3    3  502    0  0.91554617633E+02  0.58325762357E+01  0.23079876474E+01  0.91864390067E+02  0.41800000000E+01 0.  1.
         -5    1    3    3    0  502  0.49925931823E+02 -0.34822082059E+02  0.12105523028E+03  0.13556185764E+03  0.41800000000E+01 0.  1.
        -11    1    4    4    0    0 -0.11055979869E+03  0.17630801435E+01  0.16056272411E+03  0.19495375327E+03  0.00000000000E+00 0.  1.
         11    1    4    4    0    0 -0.30920750761E+02  0.27226425680E+02  0.19447536631E+03  0.19879144646E+03  0.00000000000E+00 0. -1.
</event>
<event>
 8    1  0.6832629E-009  0.1060044E+03  0.7561462E-02  0.1268153E+00
         -1   -1    0    0    0  501 -0.00000000000E+00  0.00000000000E+00  0.18604067708E+03  0.18604067708E+03  0.00000000000E+00 0.  1.
          1   -1    0    0  501    0  0.00000000000E+00 -0.00000000000E+00 -0.15300855177E+03  0.15300855177E+03  0.00000000000E+00 0. -1.
         25    2    1    2    0    0  0.58400766176E+02  0.66809064617E+02  0.10568706119E+03  0.18625597645E+03  0.12508970084E+03 0.  0.
         23    2    1    2    0    0 -0.58400766176E+02 -0.66809064617E+02 -0.72654935872E+02  0.15279325240E+03  0.10096007957E+03 0.  0.
          5    1    3    3  502    0  0.40399316812E+02  0.86713897634E+02  0.12160092891E+03  0.15477617114E+03  0.41800000000E+01 0.  1.
         -5    1    3    3    0  502  0.18001449364E+02 -0.19904833018E+02 -0.15913867716E+02  0.31479805310E+02  0.41800000000E+01 0.  1.
        -11    1    4    4    0    0 -0.34458573709E+02 -0.45237773541E+02 -0.96975649762E+02  0.11241942049E+03  0.00000000000E+00 0. -1.
         11    1    4    4    0    0 -0.23942192467E+02 -0.21571291076E+02  0.24320713890E+02  0.40373831908E+02  0.00000000000E+00 0.  1.
</event>
<event>
 8    1  0.6832629E-009  0.1191127E+03  0.7561462E-02  0.1244568E+00
          2   -1    0    0  501    0  0.00000000000E+00  0.00000000000E+00  0.33047818713E+02  0.33047818713E+02  0.00000000000E+00 0. -1.
         -2   -1    0    0    0  501 -0.00000000000E+00 -0.00000000000E+00 -0.59057940611E+03  0.59057940611E+03  0.00000000000E+00 0.  1.
         25    2    1    2    0    0 -0.77712632464E+02 -0.38983052570E+02 -0.27014940607E+03  0.31014231245E+03  0.12509444729E+03 0.  0.
         23    2    1    2    0    0  0.77712632464E+02  0.38983052570E+02 -0.28738218133E+03  0.31348491237E+03  0.90140670655E+02 0.  0.
          5    1    3    3  502    0 -0.41128460769E+02  0.33458141318E+02 -0.18477408329E+03  0.19227566607E+03  0.41800000000E+01 0. -1.
         -5    1    3    3    0  502 -0.36584171694E+02 -0.72441193889E+02 -0.85375322775E+02  0.11786664638E+03  0.41800000000E+01 0. -1.
        -11    1    4    4    0    0  0.85032172996E+02  0.26074371960E+02 -0.28487377411E+03  0.29843493511E+03  0.00000000000E+00 0.  1.
         11    1    4    4    0    0 -0.73195405321E+01  0.12908680611E+02 -0.25084072153E+01  0.15049977258E+02  0.00000000000E+00 0. -1.
</event>
<event>
 8    1  0.6832629E-009  0.2257343E+03  0.7561462E-02  0.1129679E+00
          1   -1    0    0  501    0  0.00000000000E+00  0.00000000000E+00  0.40408985995E+03  0.40408985995E+03  0.00000000000E+00 0. -1.
         -1   -1    0    0    0  501 -0.00000000000E+00 -0.00000000000E+00 -0.14064972205E+03  0.14064972205E+03  0.00000000000E+00 0.  1.
         25    2    1    2    0    0 -0.20033849834E+03 -0.33245834705E+02  0.66706469799E+02  0.24766501174E+03  0.12508958983E+03 0.  0.
         23    2    1    2    0    0  0.20033849834E+03  0.33245834705E+02  0.19673366811E+03  0.29707457026E+03  0.91150231409E+02 0.  0.
          5    1    3    3  502    0 -0.42727215183E+02  0.42834741876E+02  0.34152474550E+02  0.69600962255E+02  0.41800000000E+01 0. -1.
         -5    1    3    3    0  502 -0.15761128316E+03 -0.76080576581E+02  0.32553995249E+02  0.17806404948E+03  0.41800000000E+01 0. -1.
        -11    1    4    4    0    0  0.12631937395E+03  0.56208792759E+02  0.15953571204E+03  0.21111053038E+03  0.00000000000E+00 0.  1.
         11    1    4    4    0    0  0.74019124388E+02 -0.22962958054E+02  0.37197956067E+02  0.85964039885E+02  0.00000000000E+00 0. -1.
</event>
<event>
 8    1  0.6832629E-009  0.7258118E+02  0.7561462E-02  0.1351529E+00
         -3   -1    0    0    0  501 -0.00000000000E+00  0.00000000000E+00  0.27084802102E+02  0.27084802102E+02  0.00000000000E+00 0.  1.
          3   -1    0    0  501    0  0.00000000000E+00 -0.00000000000E+00 -0.65630309573E+03  0.65630309573E+03  0.00000000000E+00 0. -1.
         25    2    1    2    0    0 -0.16269062520E+02  0.18236091865E+02 -0.53628990575E+03  0.55123028103E+03  0.12510284682E+03 0.  0.
         23    2    1    2    0    0  0.16269062520E+02 -0.18236091865E+02 -0.92928387879E+02  0.13215761680E+03  0.90734298706E+02 0.  0.
          5    1    3    3  502    0  0.11678257272E+02  0.21209753345E+02 -0.14221913482E+02  0.28389620514E+02  0.41800000000E+01 0.  1.
         -5    1    3    3    0  502 -0.27947319792E+02 -0.29736614797E+01 -0.52206799226E+03  0.52284066052E+03  0.41800000000E+01 0.  1.
        -11    1    4    4    0    0 -0.33781127387E+02  0.93198527192E+01 -0.48225695235E+02  0.59613269522E+02  0.00000000000E+00 0. -1.
         11    1    4    4    0    0  0.50050189908E+02 -0.27555944584E+02 -0.44702692644E+02  0.72544347274E+02  0.00000000000E+00 0.  1.
</event>
<event>
 8    1  0.6832629E-009  0.9569990E+02  0.7561462E-02  0.1289607E+00
          2   -1    0    0  501    0  0.00000000000E+00  0.00000000000E+00  0.75959059394E+03  0.75959059394E+03  0.00000000000E+00 0. -1.
         -2   -1    0    0    0  501 -0.00000000000E+00 -0.00000000000E+00 -0.18485823605E+02  0.18485823605E+02  0.00000000000E+00 0.  1.
         25    2    1    2    0    0 -0.25857600538E+02  0.50400653457E+02  0.42558408337E+03  0.44718958841E+03  0.12509146490E+03 0.  0.
         23    2    1    2    0    0  0.25857600538E+02 -0.50400653457E+02  0.31552068696E+03  0.33088682913E+03  0.81999685471E+02 0.  0.
          5    1    3    3  502    0 -0.52171294514E+02  0.49477304224E+02  0.11655278159E+03  0.13701047734E+03  0.41800000000E+01 0.  1.
         -5    1    3    3    0  502  0.26313693976E+02  0.92334923315E+00  0.30903130178E+03  0.31017911107E+03  0.41800000000E+01 0.  1.
        -11    1    4    4    0    0  0.17269189817E+02 -0.69586176388E+02  0.28464031548E+03  0.29353120798E+03  0.00000000000E+00 0.  1.
         11    1    4    4    0    0  0.85884107207E+01  0.19185522930E+02  0.30880371481E+02  0.37355621152E+02  0.00000000000E+00 0. -1.
</event>
<event>
 8    1  0.6832629E-009  0.1176431E+03  0.7561462E-02  0.1247037E+00
         -1   -1    0    0    0  501 -0.00000000000E+00  0.00000000000E+00  0.33799625040E+02  0.33799625040E+02  0.00000000000E+00 0.  1.
          1   -1    0    0  501    0  0.00000000000E+00 -0.00000000000E+00 -0.63185255834E+03  0.63185255834E+03  0.00000000000E+00 0. -1.
         25    2    1    2    0    0  0.70369536763E+02 -0.51049488879E+02 -0.42491211564E+03  0.45139244869E+03  0.12508762809E+03 0.  0.
         23    2    1    2    0    0 -0.70369536763E+02  0.51049488879E+02 -0.17314081767E+03  0.21425973469E+03  0.91496279429E+02 0.  0.
          5    1    3    3  502    0  0.82800855015E+01  0.27607919311E+02 -0.23336433128E+03  0.23517470216E+03  0.41800000000E+01 0.  1.
         -5    1    3    3    0  502  0.62089451262E+02 -0.78657408189E+02 -0.19154778436E+03  0.21621774653E+03  0.41800000000E+01 0.  1.
        -11    1    4    4    0    0 -0.41485416692E+02  0.62314898351E+02 -0.57109281250E+02  0.94157614453E+02  0.00000000000E+00 0.  1.
         11    1    4    4    0    0 -0.28884120071E+02 -0.11265409472E+02 -0.11603153642E+03  0.12010212024E+03  0.00000000000E+00 0. -1.
</event>
<event>
 8    1  0.6832629E-009  0.8326749E+02  0.7561462E-02  0.1320026E+00
          1   -1    0    0  501    0  0.00000000000E+00  0.00000000000E+00  0.91674778910E+03  0.91674778910E+03  0.00000000000E+00 0. -1.
         -1   -1    0    0    0  501 -0.00000000000E+00 -0.00000000000E+00 -0.18421722508E+02  0.18421722508E+02  0.00000000000E+00 0.  1.
         25    2    1    2    0    0 -0.47313113471E+02 -0.51651772669E+02  0.56718256105E+03  0.58502565065E+03  0.12511002371E+03 0.  0.
         23    2    1    2    0    0  0.47313113471E+02  0.51651772669E+02  0.33114350554E+03  0.35014386096E+03  0.89656376113E+02 0.  0.
          5    1    3    3  502    0 -0.21038060393E+01 -0.22568436532E+02  0.49182741584E+03  0.49236717975E+03  0.41800000000E+01 0. -1.
         -5    1    3    3    0  502 -0.45209307431E+02 -0.29083336137E+02  0.75355145218E+02  0.92658470903E+02  0.41800000000E+01 0. -1.
        -11    1    4    4    0    0 -0.12093763785E+02  0.16775264113E+02  0.12555528115E+02  0.24193178683E+02  0.00000000000E+00 0.  1.
         11    1    4    4    0    0  0.59406877256E+02  0.34876508556E+02  0.31858797743E+03  0.32595068227E+03  0.00000000000E+00 0. -1.
</event>
<event>
 8    1  0.6832629E-009  0.1298259E+03  0.7561462E-02  0.1227714E+00
         -2   -1    0    0    0  501 -0.00000000000E+00  0.00000000000E+00  0.37058746309E+02  0.37058746309E+02  0.00000000000E+00 0.  1.
          2   -1    0    0  501    0  0.00000000000E+00 -0.00000000000E+00 -0.76134815737E+03  0.76134815737E+03  0.00000000000E+00 0. -1.
         25    2    1    2    0    0  0.10957613643E+03 -0.17216366354E+02 -0.23671279008E+03  0.28979993113E+03  0.12509085559E+03 0.  0.
         23    2    1    2    0    0 -0.10957613643E+03  0.17216366354E+02 -0.48757662098E+03  0.50860697255E+03  0.92987946799E+02 0.  0.
          5    1    3    3  502    0  0.13016092174E+02  0.78144131193E+01  0.13285840685E+02  0.20602661735E+02  0.41800000000E+01 0. -1.
         -5    1    3    3    0  502  0.96560044254E+02 -0.25030779474E+02 -0.24999863077E+03  0.26919726940E+03  0.41800000000E+01 0. -1.
        -11    1    4    4    0    0 -0.86698167722E+02 -0.29883514348E+02 -0.33335691995E+03  0.34574041244E+03  0.00000000000E+00 0. -1.
         11    1    4    4    0    0 -0.22877968705E+02  0.47099880703E+02 -0.15421970104E+03  0.16286656011E+03  0.00000000000E+00 0.  1.
</event>
<event>
 8    1  0.6832629E-009  0.5189844E+02  0.7561462E-02  0.1435363E+00
         -1   -1    0    0    0  501 -0.00000000000E+00  0.00000000000E+00  0.92881884799E+02  0.92881884799E+02  0.00000000000E+00 0.  1.
          1   -1    0    0  501    0  0.00000000000E+00 -0.00000000000E+00 -0.14106863771E+03  0.14106863771E+03  0.00000000000E+00 0. -1.
         25    2    1    2    0    0  0.91629376321E-02  0.17039207409E+01  0.11072903723E+02  0.12559429547E+03  0.12509362265E+03 0.  0.
         23    2    1    2    0    0 -0.91629376321E-02 -0.17039207409E+01 -0.59259656635E+02  0.10835622705E+03  0.90699843468E+02 0.  0.
          5    1    3    3  502    0  0.27349028935E+02 -0.19166838588E+02  0.58121875927E+02  0.67163695151E+02  0.41800000000E+01 0.  1.
         -5    1    3    3    0  502 -0.27339865997E+02  0.20870759328E+02 -0.47048972204E+02  0.58430600315E+02  0.41800000000E+01 0.  1.
        -11    1    4    4    0    0  0.17525397604E+02 -0.34770986285E+01  0.20198615943E+02  0.26966903087E+02  0.00000000000E+00 0.  1.
         11    1    4    4    0    0 -0.17534560542E+02  0.17731778877E+01 -0.79458272579E+02  0.81389323958E+02  0.00000000000E+00 0. -1.
</event>
<event>
 8    1  0.6832629E-009  0.1058907E+03  0.7561462E-02  0.1268375E+00
          1   -1    0    0  501    0  0.00000000000E+00  0.00000000000E+00  0.52698760866E+03  0.52698760866E+03  0.00000000000E+00 0. -1.
         -1   -1    0    0    0  501 -0.00000000000E+00 -0.00000000000E+00 -0.38285395874E+02  0.38285395874E+02  0.00000000000E+00 0.  1.
         25    2    1    2    0    0 -0.90304361763E+02  0.12316813117E+02  0.24065418115E+03  0.28612514865E+03  0.12508630678E+03 0.  0.
         23    2    1    2    0    0  0.90304361763E+02 -0.12316813117E+02  0.24804803163E+03  0.27914785588E+03  0.89939523070E+02 0.  0.
          5    1    3    3  502    0 -0.32185916309E+02  0.37260002070E+02  0.14854417032E+02  0.51598130473E+02  0.41800000000E+01 0. -1.
         -5    1    3    3    0  502 -0.58118445454E+02 -0.24943188953E+02  0.22579976412E+03  0.23452701817E+03  0.41800000000E+01 0. -1.
        -11    1    4    4    0    0  0.35956630955E+02  0.14018323223E+02  0.20454671742E+02  0.43678213010E+02  0.00000000000E+00 0.  1.
         11    1    4    4    0    0  0.54347730808E+02 -0.26335136340E+02  0.22759335989E+03  0.23546964288E+03  0.00000000000E+00 0. -1.
</event>
<event>
 8    1  0.6832629E-009  0.2665658E+03  0.7561462E-02  0.1103261E+00
          2   -1    0    0  501    0  0.00000000000E+00  0.00000000000E+00  0.80135278458E+03  0.80135278458E+03  0.00000000000E+00 0.  1.
         -2   -1    0    0    0  501 -0.00000000000E+00 -0.00000000000E+00 -0.97095199090E+02  0.97095199090E+02  0.00000000000E+00 0. -1.
         25    2    1    2    0    0  0.25292952357E+03  0.53662711609E+01  0.28913311939E+03  0.40403739628E+03  0.12508443591E+03 0.  0.
         23    2    1    2    0    0 -0.25292952357E+03 -0.53662711609E+01  0.41512446610E+03  0.49441058739E+03  0.90063121262E+02 0.  0.
          5    1    3    3  502    0  0.28855431712E+02  0.40936088539E+02  0.26037783188E+02  0.56602454342E+02  0.41800000000E+01 0.  1.
         -5    1    3    3    0  502  0.22407409186E+03 -0.35569817378E+02  0.26309533621E+03  0.34743494194E+03  0.41800000000E+01 0.  1.
        -11    1    4    4    0    0 -0.24243010674E+03  0.31278808909E+01  0.33714133125E+03  0.41526668242E+03  0.00000000000E+00 0. -1.
         11    1    4    4    0    0 -0.10499416827E+02 -0.84941520518E+01  0.77983134846E+02  0.79143904965E+02  0.00000000000E+00 0.  1.
</event>
<event>
 8    1  0.6832629E-009  0.9271025E+02  0.7561462E-02  0.1296418E+00
         -1   -1    0    0    0  501 -0.00000000000E+00  0.00000000000E+00  0.10515930274E+02  0.10515930274E+02  0.00000000000E+00 0.  1.
          1   -1    0    0  501    0  0.00000000000E+00 -0.00000000000E+00 -0.13242541774E+04  0.13242541774E+04  0.00000000000E+00 0. -1.
         25    2    1    2    0    0 -0.32182966655E+01 -0.96174105777E+01 -0.10127768696E+04  0.10205233947E+04  0.12509260379E+03 0.  0.
         23    2    1    2    0    0  0.32182966655E+01  0.96174105777E+01 -0.30096137756E+03  0.31424671300E+03  0.89835370716E+02 0.  0.
          5    1    3    3  502    0  0.18194561874E+02 -0.48168955982E+02 -0.85741710638E+03  0.85897197691E+03  0.41800000000E+01 0. -1.
         -5    1    3    3    0  502 -0.21412858540E+02  0.38551545404E+02 -0.15535976324E+03  0.16155141781E+03  0.41800000000E+01 0. -1.
        -11    1    4    4    0    0  0.86015337762E+01 -0.39310474097E+02 -0.15820005147E+03  0.16323772861E+03  0.00000000000E+00 0.  1.
         11    1    4    4    0    0 -0.53832371107E+01  0.48927884675E+02 -0.14276132609E+03  0.15100898439E+03  0.00000000000E+00 0. -1.
</event>
<event>
 8    1  0.6832629E-009  0.1035112E+03  0.7561462E-02  0.1273081E+00
          2   -1    0    0  501    0  0.00000000000E+00  0.00000000000E+00  0.12420668578E+04  0.12420668578E+04  0.00000000000E+00 0. -1.
         -2   -1    0    0    0  501 -0.00000000000E+00 -0.00000000000E+00 -0.98171853736E+01  0.98171853736E+01  0.00000000000E+00 0.  1.
         25    2    1    2    0    0 -0.31470391693E+01  0.25690338487E+02  0.70346784219E+03  0.71497187703E+03  0.12509149692E+03 0.  0.
         23    2    1    2    0    0  0.31470391693E+01 -0.25690338487E+02  0.52878183028E+03  0.53691216619E+03  0.89412263241E+02 0.  0.
          5    1    3    3  502    0 -0.56388779598E+02  0.46187022859E+01  0.51054973531E+03  0.51369205902E+03  0.41800000000E+01 0.  1.
         -5    1    3    3    0  502  0.53241740429E+02  0.21071636201E+02  0.19291810688E+03  0.20127981801E+03  0.41800000000E+01 0.  1.
        -11    1    4    4    0    0  0.36307604074E+02  0.15942071660E+02  0.20831877304E+03  0.21205919684E+03  0.00000000000E+00 0. -1.
         11    1    4    4    0    0 -0.33160564905E+02 -0.41632410147E+02  0.32046305724E+03  0.32485296935E+03  0.00000000000E+00 0.  1.
</event>
<event>
 8    1  0.6832629E-009  0.1165937E+03  0.7561462E-02  0.1248825E+00
         -2   -1    0    0    0  501 -0.00000000000E+00  0.00000000000E+00  0.58511573368E+03  0.58511573368E+03  0.00000000000E+00 0.  1.
          2   -1    0    0  501    0  0.00000000000E+00 -0.00000000000E+00 -0.45046127476E+02  0.45046127476E+02  0.00000000000E+00 0. -1.
         25    2    1    2    0    0  0.16596769535E+02 -0.59846190229E+02  0.89036074336E+02  0.16562592690E+03  0.12508999115E+03 0.  0.
         23    2    1    2    0    0 -0.16596769535E+02  0.59846190229E+02  0.45103353187E+03  0.46453593425E+03  0.92224552586E+02 0.  0.
          5    1    3    3  502    0 -0.42262460294E+01 -0.88338200784E+02  0.24356951860E+02  0.91827187570E+02  0.41800000000E+01 0.  1.
         -5    1    3    3    0  502  0.20823015565E+02  0.28492010555E+02  0.64679122476E+02  0.73798739332E+02  0.41800000000E+01 0.  1.
        -11    1    4    4    0    0  0.29538840439E+02  0.55374826009E+02  0.30233890211E+03  0.30878427126E+03  0.00000000000E+00 0.  1.
         11    1    4    4    0    0 -0.46135609974E+02  0.44713642194E+01  0.14869462976E+03  0.15575166299E+03  0.00000000000E+00 0. -1.
</event>
<event>
 8    1  0.6832629E-009  0.1015392E+03  0.7561462E-02  0.1277092E+00
         -1   -1    0    0    0  501 -0.00000000000E+00  0.00000000000E+00  0.18230729286E+02  0.18230729286E+02  0.00000000000E+00 0.  1.
          1   -1    0    0  501    0  0.00000000000E+00 -0.00000000000E+00 -0.12631797211E+04  0.12631797211E+04  0.00000000000E+00 0. -1.
         25    2    1    2    0    0  0.39835025620E+02  0.89650443395E+02 -0.84268849504E+03  0.85755185128E+03  0.12508895515E+03 0.  0.
         23    2    1    2    0    0 -0.39835025620E+02 -0.89650443395E+02 -0.40226049679E+03  0.42385859912E+03  0.90656348381E+02 0.  0.
          5    1    3    3  502    0  0.74907168299E+01  0.53628234807E+01 -0.57364598145E+03  0.57373517859E+03  0.41800000000E+01 0.  1.
         -5    1    3    3    0  502  0.32344308790E+02  0.84287619914E+02 -0.26904251358E+03  0.28381667269E+03  0.41800000000E+01 0.  1.
        -11    1    4    4    0    0  0.49945975020E+01 -0.10279716107E+02 -0.30639319302E-01  0.11428889106E+02  0.00000000000E+00 0.  1.
         11    1    4    4    0    0 -0.44829623122E+02 -0.79370727288E+02 -0.40222985747E+03  0.41242971002E+03  0.00000000000E+00 0. -1.
</event>
<event>
 8    1  0.6832629E-009  0.1025799E+03  0.7561462E-02  0.1274962E+00
         -2   -1    0    0    0  501 -0.00000000000E+00  0.00000000000E+00  0.40073742061E+02  0.40073742061E+02  0.00000000000E+00 0.  1.
          2   -1    0    0  501    0  0.00000000000E+00 -0.00000000000E+00 -0.42811885178E+03  0.42811885178E+03  0.00000000000E+00 0. -1.
         25    2    1    2    0    0 -0.50689846565E+02 -0.35082599472E+02 -0.28723992447E+03  0.31930420347E+03  0.12509256900E+03 0.  0.
         23    2    1    2    0    0  0.50689846565E+02  0.35082599472E+02 -0.10080518525E+03  0.14888839037E+03  0.90585970668E+02 0.  0.
          5    1    3    3  502    0 -0.50484762306E+02  0.24189962398E+02 -0.23016908746E+03  0.23691590645E+03  0.41800000000E+01 0.  1.
         -5    1    3    3    0  502 -0.20508425890E+00 -0.59272561870E+02 -0.57070837004E+02  0.82388297024E+02  0.41800000000E+01 0.  1.
        -11    1    4    4    0    0  0.12440846927E+02 -0.19392892124E+02 -0.73354165538E+02  0.76887531753E+02  0.00000000000E+00 0. -1.
         11    1    4    4    0    0  0.38248999638E+02  0.54475491596E+02 -0.27451019716E+02  0.72000858616E+02  0.00000000000E+00 0.  1.
</event>
<event>
 8    1  0.6832629E-009  0.1562637E+03  0.7561462E-02  0.1192981E+00
         -2   -1    0    0    0  501 -0.00000000000E+00  0.00000000000E+00  0.20676219595E+03  0.20676219595E+03  0.00000000000E+00 0. -1.
          2   -1    0    0  501    0  0.00000000000E+00 -0.00000000000E+00 -0.12969406673E+03  0.12969406673E+03  0.00000000000E+00 0.  1.
         25    2    1    2    0    0  0.11989297117E+03  0.12505861674E+02  0.62968481751E+02  0.18477866161E+03  0.12508957983E+03 0.  0.
         23    2    1    2    0    0 -0.11989297117E+03 -0.12505861674E+02  0.14099647473E+02  0.15167760107E+03  0.90975675300E+02 0.  0.
          5    1    3    3  502    0  0.79044524466E+02 -0.47505683144E+02  0.63525694689E+02  0.11206164850E+03  0.41800000000E+01 0. -1.
         -5    1    3    3    0  502  0.40848446703E+02  0.60011544818E+02 -0.55721293782E+00  0.72717013111E+02  0.41800000000E+01 0. -1.
        -11    1    4    4    0    0 -0.65652887912E+02 -0.49172105360E+02  0.23995518520E+02  0.85463340361E+02  0.00000000000E+00 0. -1.
         11    1    4    4    0    0 -0.54240083257E+02  0.36666243685E+02 -0.98958710469E+01  0.66214260711E+02  0.00000000000E+00 0.  1.
</event>
<event>
 8    1  0.6832629E-009  0.1144798E+03  0.7561462E-02  0.1252492E+00
         -1   -1    0    0    0  501 -0.00000000000E+00  0.00000000000E+00  0.30169009532E+03  0.30169009532E+03  0.00000000000E+00 0.  1.
          1   -1    0    0  501    0  0.00000000000E+00 -0.00000000000E+00 -0.45848357061E+02  0.45848357061E+02  0.00000000000E+00 0. -1.
         25    2    1    2    0    0 -0.44015030699E+02 -0.35054637021E+01  0.13339443068E+03  0.18812691311E+03  0.12509216641E+03 0.  0.
         23    2    1    2    0    0  0.44015030699E+02  0.35054637021E+01  0.12244730758E+03  0.15941153927E+03  0.92027629091E+02 0.  0.
          5    1    3    3  502    0  0.25062825229E+02 -0.43430176676E+02  0.34578827871E+02  0.61053199683E+02  0.41800000000E+01 0.  1.
         -5    1    3    3    0  502 -0.69077855928E+02  0.39924712974E+02  0.98815602812E+02  0.12707371343E+03  0.41800000000E+01 0.  1.
        -11    1    4    4    0    0  0.52579892802E+02  0.36923585405E+02  0.97787522920E+02  0.11700596534E+03  0.00000000000E+00 0. -1.
         11    1    4    4    0    0 -0.85648621026E+01 -0.33418121703E+02  0.24659784657E+02  0.42405573929E+02  0.00000000000E+00 0.  1.
</event>
<event>
 8    1  0.6832629E-009  0.2459901E+03  0.7561462E-02  0.1115866E+00
          2   -1    0    0  501    0  0.00000000000E+00  0.00000000000E+00  0.16708602951E+03  0.16708602951E+03  0.00000000000E+00 0. -1.
         -2   -1    0    0    0  501 -0.00000000000E+00 -0.00000000000E+00 -0.47520225754E+03  0.47520225754E+03  0.00000000000E+00 0.  1.
         25    2    1    2    0    0  0.23386454341E+03 -0.55310142826E+02 -0.27001930109E+03  0.38250499075E+03  0.12509120041E+03 0.  0.
         23    2    1    2    0    0 -0.23386454341E+03  0.55310142826E+02 -0.38096926929E+02  0.25978329630E+03  0.91017298542E+02 0.  0.
          5    1    3    3  502    0  0.18017780508E+02  0.27935912804E+01 -0.99726942720E+02  0.10146615234E+03  0.41800000000E+01 0. -1.
         -5    1    3    3    0  502  0.21584676290E+03 -0.58103734107E+02 -0.17029235837E+03  0.28103883840E+03  0.41800000000E+01 0. -1.
        -11    1    4    4    0    0 -0.21951109844E+03  0.68765960879E+02 -0.51821167380E+02  0.23579506590E+03  0.00000000000E+00 0.  1.
         11    1    4    4    0    0 -0.14353444968E+02 -0.13455818053E+02  0.13724240451E+02  0.23988230404E+02  0.00000000000E+00 0. -1.
</event>
<event>
 8    1  0.6832629E-009  0.2879173E+03  0.7561462E-02  0.1091442E+00
         -2   -1    0    0    0  501 -0.00000000000E+00  0.00000000000E+00  0.80246564098E+02  0.80246564098E+02  0.00000000000E+00 0.  1.
          2   -1    0    0  501    0  0.00000000000E+00 -0.00000000000E+00 -0.12782626397E+04  0.12782626397E+04  0.00000000000E+00 0. -1.
         25    2    1    2    0    0 -0.26639786312E+03  0.83063398111E+02 -0.37248912870E+03  0.48193651319E+03  0.12508917684E+03 0.  0.
         23    2    1    2    0    0  0.26639786312E+03 -0.83063398111E+02 -0.82552694689E+03  0.87657269060E+03  0.94961004043E+02 0.  0.
          5    1    3    3  502    0 -0.18658764345E+03  0.93248212200E+02 -0.18888664589E+03  0.28143527704E+03  0.41800000000E+01 0.  1.
         -5    1    3    3    0  502 -0.79810219662E+02 -0.10184814090E+02 -0.18360248281E+03  0.20050123614E+03  0.41800000000E+01 0.  1.
        -11    1    4    4    0    0  0.16265161246E+03 -0.83621105422E+02 -0.61898442480E+03  0.64543764567E+03  0.00000000000E+00 0. -1.
         11    1    4    4    0    0  0.10374625066E+03  0.55770731085E+00 -0.20654252209E+03  0.23113504493E+03  0.00000000000E+00 0.  1.
</event>
<event>
 8    1  0.6832629E-009  0.1096725E+03  0.7561462E-02  0.1261178E+00
          2   -1    0    0  501    0  0.00000000000E+00  0.00000000000E+00  0.20932923129E+03  0.20932923129E+03  0.00000000000E+00 0. -1.
         -2   -1    0    0    0  501 -0.00000000000E+00 -0.00000000000E+00 -0.69730975511E+02  0.69730975511E+02  0.00000000000E+00 0.  1.
         25    2    1    2    0    0  0.14646731554E+02  0.43581864206E+02  0.10959018425E+03  0.17254400238E+03  0.12509004214E+03 0.  0.
         23    2    1    2    0    0 -0.14646731554E+02 -0.43581864206E+02  0.30008071534E+02  0.10651620442E+03  0.91276019930E+02 0.  0.
          5    1    3    3  502    0  0.46793922851E+02 -0.16000858932E+02  0.78234080894E+01  0.50243176815E+02  0.41800000000E+01 0. -1.
         -5    1    3    3    0  502 -0.32147191297E+02  0.59582723138E+02  0.10176677616E+03  0.12230082557E+03  0.41800000000E+01 0. -1.
        -11    1    4    4    0    0 -0.14191523578E+02  0.27423029515E+02  0.12991815912E+02  0.33499390591E+02  0.00000000000E+00 0. -1.
         11    1    4    4    0    0 -0.45520797608E+00 -0.71004893721E+02  0.17016255622E+02  0.73016813831E+02  0.00000000000E+00 0.  1.
</event>
<event>
 8    1  0.6832629E-009  0.1760535E+03  0.7561462E-02  0.1171678E+00
          2   -1    0    0  501    0  0.00000000000E+00  0.00000000000E+00  0.70305200477E+03  0.70305200477E+03  0.00000000000E+00 0. -1.
         -2   -1    0    0    0  501 -0.00000000000E+00 -0.00000000000E+00 -0.48753816851E+02  0.48753816851E+02  0.00000000000E+00 0.  1.
         25    2    1    2    0    0 -0.81066131482E+02  0.12583099102E+03  0.32391984026E+03  0.37812360343E+03  0.12509292781E+03 0.  0.
         23    2    1    2    0    0  0.81066131482E+02 -0.12583099102E+03  0.33037834766E+03  0.37368221819E+03  0.89907683833E+02 0.  0.
          5    1    3    3  502    0  0.18673180824E+02 -0.13425198688E+02  0.46784000719E+02  0.52298554140E+02  0.41800000000E+01 0.  1.
         -5    1    3    3    0  502 -0.99739312306E+02  0.13925618970E+03  0.27713583954E+03  0.32582504929E+03  0.41800000000E+01 0.  1.
        -11    1    4    4    0    0  0.43350884549E+01 -0.47650538823E+02  0.36891366098E+02  0.60418041466E+02  0.00000000000E+00 0.  1.
         11    1    4    4    0    0  0.76731043027E+02 -0.78180452192E+02  0.29348698157E+03  0.31326417672E+03  0.00000000000E+00 0. -1.
</event>
<event>
 8    1  0.6832629E-009  0.1919246E+03  0.7561462E-02  0.1156737E+00
         -1   -1    0    0    0  501 -0.00000000000E+00  0.00000000000E+00  0.18292148530E+03  0.18292148530E+03  0.00000000000E+00 0.  1.
          1   -1    0    0  501    0  0.00000000000E+00 -0.00000000000E+00 -0.26883121035E+03  0.26883121035E+03  0.00000000000E+00 0. -1.
         25    2    1    2    0    0 -0.12075461858E+03  0.14240906810E+03  0.51167526709E+01  0.22480152201E+03  0.12509005778E+03 0.  0.
         23    2    1    2    0    0  0.12075461858E+03 -0.14240906810E+03 -0.91026477722E+02  0.22695117365E+03  0.91427539547E+02 0.  0.
          5    1    3    3  502    0 -0.49909328352E+02  0.19662011078E+02 -0.49256786334E+02  0.72946824031E+02  0.41800000000E+01 0.  1.
         -5    1    3    3    0  502 -0.70845290228E+02  0.12274705702E+03  0.54373539005E+02  0.15185469798E+03  0.41800000000E+01 0.  1.
        -11    1    4    4    0    0  0.13332835960E+02 -0.29706735923E+02  0.17688559835E+02  0.37055901325E+02  0.00000000000E+00 0.  1.
         11    1    4    4    0    0  0.10742178262E+03 -0.11270233218E+03 -0.10871503756E+03  0.18989527232E+03  0.00000000000E+00 0. -1.
</event>
<event>
 8    1  0.6832629E-009  0.9760464E+02  0.7561462E-02  0.1285415E+00
          2   -1    0    0  501    0  0.00000000000E+00  0.00000000000E+00  0.12225553375E+04  0.12225553375E+04  0.00000000000E+00 0. -1.
         -2   -1    0    0    0  501 -0.00000000000E+00 -0.00000000000E+00 -0.16074259103E+02  0.16074259103E+02  0.00000000000E+00 0.  1.
         25    2    1    2    0    0 -0.34267389162E+02 -0.46806111954E+02  0.94832648201E+03  0.95829831158E+03  0.12508985340E+03 0.  0.
         23    2    1    2    0    0  0.34267389162E+02  0.46806111954E+02  0.25815459643E+03  0.28033128506E+03  0.92610839814E+02 0.  0.
          5    1    3    3  502    0  0.22282835580E+02 -0.30278146158E+02  0.75969188069E+03  0.76063297120E+03  0.41800000000E+01 0.  1.
         -5    1    3    3    0  502 -0.56550224742E+02 -0.16527965795E+02  0.18863460132E+03  0.19766534038E+03  0.41800000000E+01 0.  1.
        -11    1    4    4    0    0  0.60273137107E+02  0.35606957995E+02  0.11683060456E+03  0.13619873963E+03  0.00000000000E+00 0.  1.
         11    1    4    4    0    0 -0.26005747945E+02  0.11199153959E+02  0.14132399187E+03  0.14413254544E+03  0.00000000000E+00 0. -1.
</event>
<event>
 8    1  0.6832629E-009  0.1704981E+03  0.7561462E-02  0.1177329E+00
          1   -1    0    0  501    0  0.00000000000E+00  0.00000000000E+00  0.10210656281E+04  0.10210656281E+04  0.00000000000E+00 0. -1.
         -1   -1    0    0    0  501 -0.00000000000E+00 -0.00000000000E+00 -0.33242105507E+02  0.33242105507E+02  0.00000000000E+00 0.  1.
         25    2    1    2    0    0 -0.26684215423E+02  0.14418791705E+03  0.45310129035E+03  0.49239428049E+03  0.12509654420E+03 0.  0.
         23    2    1    2    0    0  0.26684215423E+02 -0.14418791705E+03  0.53472223226E+03  0.56191345313E+03  0.91195725573E+02 0.  0.
          5    1    3    3  502    0  0.44995629460E+02  0.38688096096E+02  0.93499056132E+02  0.11081931848E+03  0.41800000000E+01 0.  1.
         -5    1    3    3    0  502 -0.71679844883E+02  0.10549982095E+03  0.35960223422E+03  0.38157496202E+03  0.41800000000E+01 0.  1.
        -11    1    4    4    0    0  0.33947969529E+02 -0.56572533800E+02  0.36350410874E+03  0.36944303118E+03  0.00000000000E+00 0. -1.
         11    1    4    4    0    0 -0.72637541063E+01 -0.87615383246E+02  0.17121812352E+03  0.19247042195E+03  0.00000000000E+00 0.  1.
</event>
<event>
 8    1  0.6832629E-009  0.1024530E+03  0.7561462E-02  0.1275221E+00
          4   -1    0    0  501    0  0.00000000000E+00  0.00000000000E+00  0.17200268400E+03  0.17200268400E+03  0.00000000000E+00 0.  1.
         -4   -1    0    0    0  501 -0.00000000000E+00 -0.00000000000E+00 -0.82955098557E+02  0.82955098557E+02  0.00000000000E+00 0. -1.
         25    2    1    2    0    0 -0.14292219105E+02 -0.46824494446E+02  0.42911392702E+02  0.14101591883E+03  0.12508917192E+03 0.  0.
         23    2    1    2    0    0  0.14292219105E+02  0.46824494446E+02  0.46136192744E+02  0.11394186373E+03  0.91964119212E+02 0.  0.
          5    1    3    3  502    0 -0.24680032461E+02  0.20702997705E+02 -0.27687254188E+02  0.42682251120E+02  0.41800000000E+01 0.  1.
         -5    1    3    3    0  502  0.10387813356E+02 -0.67527492150E+02  0.70598646890E+02  0.98333667709E+02  0.41800000000E+01 0.  1.
        -11    1    4    4    0    0 -0.39227763817E+02  0.17622929873E+02  0.15530386574E+02  0.45722839135E+02  0.00000000000E+00 0. -1.
         11    1    4    4    0    0  0.53519982922E+02  0.29201564573E+02  0.30605806170E+02  0.68219024595E+02  0.00000000000E+00 0.  1.
</event>
<event>
 8    1  0.6832629E-009  0.1325321E+03  0.7561462E-02  0.1223746E+00
          1   -1    0    0  501    0  0.00000000000E+00  0.00000000000E+00  0.58361380446E+02  0.58361380446E+02  0.00000000000E+00 0. -1.
         -1   -1    0    0    0  501 -0.00000000000E+00 -0.00000000000E+00 -0.34560888075E+03  0.34560888075E+03  0.00000000000E+00 0.  1.
         25    2    1    2    0    0  0.90269690649E+02 -0.31032969910E+01 -0.18049266061E+03  0.23745818089E+03  0.12510211682E+03 0.  0.
         23    2    1    2    0    0 -0.90269690649E+02  0.31032969910E+01 -0.10675483969E+03  0.16651208030E+03  0.90395960024E+02 0.  0.
          5    1    3    3  502    0  0.31405687475E+02  0.58714380049E+02 -0.59959341517E+02  0.89701118529E+02  0.41800000000E+01 0. -1.
         -5    1    3    3    0  502  0.58864003174E+02 -0.61817677040E+02 -0.12053331910E+03  0.14775706236E+03  0.41800000000E+01 0. -1.
        -11    1    4    4    0    0 -0.92065685373E+02  0.21383320576E+02 -0.50140400399E+02  0.10699250709E+03  0.00000000000E+00 0. -1.
         11    1    4    4    0    0  0.17959947242E+01 -0.18280023585E+02 -0.56614439287E+02  0.59519573210E+02  0.00000000000E+00 0.  1.
</event>
<event>
 8    1  0.6832629E-009  0.1101121E+03  0.7561462E-02  0.1260362E+00
          2   -1    0    0  501    0  0.00000000000E+00  0.00000000000E+00  0.71465403221E+03  0.71465403221E+03  0.00000000000E+00 0. -1.
         -2   -1    0    0    0  501 -0.00000000000E+00 -0.00000000000E+00 -0.19258196865E+02  0.19258196865E+02  0.00000000000E+00 0.  1.
         25    2    1    2    0    0 -0.10871492937E+02  0.24468473988E+02  0.51241299040E+03  0.52814023633E+03  0.12509252945E+03 0.  0.
         23    2    1    2    0    0  0.10871492937E+02 -0.24468473988E+02  0.18298284495E+03  0.20577199275E+03  0.90235779356E+02 0.  0.
          5    1    3    3  502    0  0.50683223477E+02 -0.15587452451E+02  0.25106143086E+03  0.25663412143E+03  0.41800000000E+01 0.  1.
         -5    1    3    3    0  502 -0.61554716414E+02  0.40055926439E+02  0.26135155954E+03  0.27150611490E+03  0.41800000000E+01 0.  1.
        -11    1    4    4    0    0 -0.29832626339E+02 -0.40007099856E+02  0.10964833335E+03  0.12047120254E+03  0.00000000000E+00 0.  1.
         11    1    4    4    0    0  0.40704119276E+02  0.15538625869E+02  0.73334511596E+02  0.85300790212E+02  0.00000000000E+00 0. -1.
</event>
<event>
 8    1  0.6832629E-009  0.1296652E+03  0.7561462E-02  0.1227953E+00
          4   -1    0    0  501    0  0.00000000000E+00  0.00000000000E+00  0.61829119005E+03  0.61829119005E+03  0.00000000000E+00 0. -1.
         -4   -1    0    0    0  501 -0.00000000000E+00 -0.00000000000E+00 -0.36762575967E+02  0.36762575967E+02  0.00000000000E+00 0.  1.
         25    2    1    2    0    0 -0.31149279084E+01  0.99423115230E+02  0.37713155739E+03  0.40959801645E+03  0.12509062668E+03 0.  0.
         23    2    1    2    0    0  0.31149279084E+01 -0.99423115230E+02  0.20439705670E+03  0.24545574957E+03  0.92605127249E+02 0.  0.
          5    1    3    3  502    0 -0.56378868615E+01  0.11421935704E+03  0.37703298376E+03  0.39401673890E+03  0.41800000000E+01 0. -1.
         -5    1    3    3    0  502  0.25229589531E+01 -0.14796241806E+02  0.98573633337E-01  0.15581277554E+02  0.41800000000E+01 0. -1.
        -11    1    4    4    0    0  0.42112865290E+02 -0.38989234749E+02  0.54259601965E+02  0.78979479960E+02  0.00000000000E+00 0.  1.
         11    1    4    4    0    0 -0.38997937382E+02 -0.60433880480E+02  0.15013745473E+03  0.16647626961E+03  0.00000000000E+00 0. -1.
</event>
<event>
 8    1  0.6832629E-009  0.1392671E+03  0.7561462E-02  0.1214318E+00
         -2   -1    0    0    0  501 -0.00000000000E+00  0.00000000000E+00  0.76499711847E+02  0.76499711847E+02  0.00000000000E+00 0.  1.
          2   -1    0    0  501    0  0.00000000000E+00 -0.00000000000E+00 -0.43014507162E+03  0.43014507162E+03  0.00000000000E+00 0. -1.
         25    2    1    2    0    0  0.86027540122E+02 -0.85468632936E+02 -0.29818943062E+03  0.34535606845E+03  0.12509297585E+03 0.  0.
         23    2    1    2    0    0 -0.86027540122E+02  0.85468632936E+02 -0.55455929154E+02  0.16128871502E+03  0.90736236633E+02 0.  0.
          5    1    3    3  502    0  0.57590626380E+02  0.53142855587E+01 -0.40758413940E+02  0.70877659278E+02  0.41800000000E+01 0.  1.
         -5    1    3    3    0  502  0.28436913742E+02 -0.90782918494E+02 -0.25743101668E+03  0.27447840917E+03  0.41800000000E+01 0.  1.
        -11    1    4    4    0    0 -0.46946200234E+02  0.67719797008E+02  0.10009395689E+02  0.83006654102E+02  0.00000000000E+00 0.  1.
         11    1    4    4    0    0 -0.39081339888E+02  0.17748835928E+02 -0.65465324844E+02  0.78282060915E+02  0.00000000000E+00 0. -1.
</event>
<event>
 8    1  0.6832629E-009  0.1439940E+03  0.7561462E-02  0.1208054E+00
         -1   -1    0    0    0  501 -0.00000000000E+00  0.00000000000E+00  0.62022633212E+02  0.62022633212E+02  0.00000000000E+00 0.  1.
          1   -1    0    0  501    0  0.00000000000E+00 -0.00000000000E+00 -0.39530108912E+03  0.39530108912E+03  0.00000000000E+00 0. -1.
         25    2    1    2    0    0 -0.32125957863E+02  0.10343349958E+03 -0.13987687149E+03  0.21666467702E+03  0.12508987605E+03 0.  0.
         23    2    1    2    0    0  0.32125957863E+02 -0.10343349958E+03 -0.19340158442E+03  0.24065904531E+03  0.93712524396E+02 0.  0.
          5    1    3    3  502    0 -0.25399595111E+02 -0.25220780223E+02 -0.23656860272E+02  0.43108544684E+02  0.41800000000E+01 0.  1.
         -5    1    3    3    0  502 -0.67263627524E+01  0.12865427980E+03 -0.11622001121E+03  0.17355613234E+03  0.41800000000E+01 0.  1.
        -11    1    4    4    0    0  0.40111744663E+02 -0.32375100205E+02 -0.24152935380E+02  0.56925068824E+02  0.00000000000E+00 0.  1.
         11    1    4    4    0    0 -0.79857867999E+01 -0.71058399371E+02 -0.16924864904E+03  0.18373397649E+03  0.00000000000E+00 0. -1.
</event>
<event>
 8    1  0.6832629E-009  0.1085392E+03  0.7561462E-02  0.1263299E+00
          1   -1    0    0  501    0  0.00000000000E+00  0.00000000000E+00  0.92005651618E+03  0.92005651618E+03  0.00000000000E+00 0. -1.
         -1   -1    0    0    0  501 -0.00000000000E+00 -0.00000000000E+00 -0.15677614611E+02  0.15677614611E+02  0.00000000000E+00 0.  1.
         25    2    1    2    0    0 -0.15993971286E+02  0.89961562368E+01  0.69378953295E+03  0.70521302872E+03  0.12507902263E+03 0.  0.
         23    2    1    2    0    0  0.15993971286E+02 -0.89961562368E+01  0.21058936861E+03  0.23052110206E+03  0.91953022680E+02 0.  0.
          5    1    3    3  502    0 -0.67187544291E+02  0.22649183219E+02  0.46057172336E+03  0.46601602587E+03  0.41800000000E+01 0. -1.
         -5    1    3    3    0  502  0.51193573005E+02 -0.13653026982E+02  0.23321780959E+03  0.23919700285E+03  0.41800000000E+01 0. -1.
        -11    1    4    4    0    0  0.53274940946E+02 -0.14518205617E+02  0.10949254674E+03  0.12262795529E+03  0.00000000000E+00 0.  1.
         11    1    4    4    0    0 -0.37280969660E+02  0.55220493805E+01  0.10109682187E+03  0.10789314678E+03  0.00000000000E+00 0. -1.
</event>
<event>
 8    1  0.6832629E-009  0.1116896E+03  0.7561462E-02  0.1257473E+00
          3   -1    0    0  501    0  0.00000000000E+00  0.00000000000E+00  0.33375475933E+03  0.33375475933E+03  0.00000000000E+00 0. -1.
         -3   -1    0    0    0  501 -0.00000000000E+00 -0.00000000000E+00 -0.44506976400E+02  0.44506976400E+02  0.00000000000E+00 0.  1.
         25    2    1    2    0    0  0.35517475417E+02 -0.92649651433E+00  0.10191624293E+03  0.16521769724E+03  0.12509043709E+03 0.  0.
         23    2    1    2    0    0 -0.35517475417E+02  0.92649651433E+00  0.18733154001E+03  0.21304403850E+03  0.95038450124E+02 0.  0.
          5    1    3    3  502    0  0.39762212860E+02 -0.55339905766E+02  0.29329816091E+02  0.74305109203E+02  0.41800000000E+01 0. -1.
         -5    1    3    3    0  502 -0.42447374436E+01  0.54413409251E+02  0.72586426836E+02  0.90912588034E+02  0.41800000000E+01 0. -1.
        -11    1    4    4    0    0 -0.46731322496E+02  0.38881991204E+02  0.12829116455E+03  0.14196566009E+03  0.00000000000E+00 0.  1.
         11    1    4    4    0    0  0.11213847079E+02 -0.37955494689E+02  0.59040375458E+02  0.71078378412E+02  0.00000000000E+00 0. -1.
</event>
<event>
 8    1  0.6832629E-009  0.2990962E+03  0.7561462E-02  0.1085693E+00
          3   -1    0    0  501    0  0.00000000000E+00  0.00000000000E+00  0.97516967404E+02  0.97516967404E+02  0.00000000000E+00 0. -1.
         -3   -1    0    0    0  501 -0.00000000000E+00 -0.00000000000E+00 -0.10173681917E+04  0.10173681917E+04  0.00000000000E+00 0.  1.
         25    2    1    2    0    0  0.95142477844E+02  0.27571878959E+03 -0.40851794168E+03  0.51730792650E+03  0.12509052771E+03 0.  0.
         23    2    1    2    0    0 -0.95142477844E+02 -0.27571878959E+03 -0.51133328260E+03  0.59757723259E+03  0.10278074229E+03 0.  0.
          5    1    3    3  502    0  0.35058638315E+02  0.20324086441E+03 -0.35033598951E+03  0.40655717315E+03  0.41800000000E+01 0.  1.
         -5    1    3    3    0  502  0.60083839529E+02  0.72477925179E+02 -0.58181952166E+02  0.11075075335E+03  0.41800000000E+01 0.  1.
        -11    1    4    4    0    0 -0.69787223839E+02 -0.25658436257E+03 -0.38907039223E+03  0.47125530431E+03  0.00000000000E+00 0.  1.
         11    1    4    4    0    0 -0.25355254005E+02 -0.19134427027E+02 -0.12226289037E+03  0.12632192828E+03  0.00000000000E+00 0. -1.
</event>
<event>
 8    1  0.6832629E-009  0.1275928E+03  0.7561462E-02  0.1231072E+00
          1   -1    0    0  501    0  0.00000000000E+00  0.00000000000E+00  0.19957223330E+03  0.19957223330E+03  0.00000000000E+00 0. -1.
         -1   -1    0    0    0  501 -0.00000000000E+00 -0.00000000000E+00 -0.16452337506E+03  0.16452337506E+03  0.00000000000E+00 0.  1.
         25    2    1    2    0    0 -0.39753131436E+02  0.59492848952E+02  0.14510932831E+03  0.20450815051E+03  0.12508859230E+03 0.  0.
         23    2    1    2    0    0  0.39753131436E+02 -0.59492848952E+02 -0.11006047007E+03  0.15958745786E+03  0.90747667173E+02 0.  0.
          5    1    3    3  502    0 -0.84993479303E+02  0.33497811841E+02  0.85739251701E+02  0.12535823309E+03  0.41800000000E+01 0. -1.
         -5    1    3    3    0  502  0.45240347867E+02  0.25995037112E+02  0.59370076609E+02  0.79149917411E+02  0.41800000000E+01 0. -1.
        -11    1    4    4    0    0  0.25650801829E+02 -0.81394346736E+02 -0.64004054444E+02  0.10667484380E+03  0.00000000000E+00 0. -1.
         11    1    4    4    0    0  0.14102329607E+02  0.21901497784E+02 -0.46056415627E+02  0.52912614054E+02  0.00000000000E+00 0.  1.
</event>
<event>
 8    1  0.6832629E-009  0.1133857E+03  0.7561462E-02  0.1254426E+00
          2   -1    0    0  501    0  0.00000000000E+00  0.00000000000E+00  0.10492708994E+04  0.10492708994E+04  0.00000000000E+00 0. -1.
         -2   -1    0    0    0  501 -0.00000000000E+00 -0.00000000000E+00 -0.15066508920E+02  0.15066508920E+02  0.00000000000E+00 0.  1.
         25    2    1    2    0    0  0.47963462311E+02 -0.40195661742E+02  0.62880622847E+03  0.64417467489E+03  0.12509018296E+03 0.  0.
         23    2    1    2    0    0 -0.47963462311E+02  0.40195661742E+02  0.40539816201E+03  0.42016273342E+03  0.90955306927E+02 0.  0.
          5    1    3    3  502    0 -0.36474935428E+02 -0.95021961919E+01  0.32870521612E+03  0.33088563606E+03  0.41800000000E+01 0.  1.
         -5    1    3    3    0  502  0.84438397738E+02 -0.30693465550E+02  0.30010101235E+03  0.31328903884E+03  0.41800000000E+01 0.  1.
        -11    1    4    4    0    0 -0.50938268806E+02 -0.71765624401E+01  0.30252350650E+03  0.30686590273E+03  0.00000000000E+00 0. -1.
         11    1    4    4    0    0  0.29748064951E+01  0.47372224182E+02  0.10287465551E+03  0.11329683069E+03  0.00000000000E+00 0.  1.
</event>
<event>
 8    1  0.6832629E-009  0.2226065E+03  0.7561462E-02  0.1131955E+00
         -1   -1    0    0    0  501 -0.00000000000E+00  0.00000000000E+00  0.57310584630E+03  0.57310584630E+03  0.00000000000E+00 0.  1.
          1   -1    0    0  501    0  0.00000000000E+00 -0.00000000000E+00 -0.11735957122E+03  0.11735957122E+03  0.00000000000E+00 0. -1.
         25    2    1    2    0    0  0.19439452709E+03  0.40730235641E+02  0.40210641455E+03  0.46560178875E+03  0.12508905949E+03 0.  0.
         23    2    1    2    0    0 -0.19439452709E+03 -0.40730235641E+02  0.53639860528E+02  0.22486362877E+03  0.90764710372E+02 0.  0.
          5    1    3    3  502    0  0.54827568416E+02 -0.43263078940E+02  0.14854029317E+03  0.16419332310E+03  0.41800000000E+01 0. -1.
         -5    1    3    3    0  502  0.13956695867E+03  0.83993314581E+02  0.25356612138E+03  0.30140846564E+03  0.41800000000E+01 0. -1.
        -11    1    4    4    0    0 -0.19310361180E+03 -0.22936576237E+02  0.63390769652E+02  0.20453234731E+03  0.00000000000E+00 0.  1.
         11    1    4    4    0    0 -0.12909152955E+01 -0.17793659403E+02 -0.97509091241E+01  0.20331281465E+02  0.00000000000E+00 0. -1.
</event>
<event>
 8    1  0.6832629E-009  0.2827482E+03  0.7561462E-02  0.1094197E+00
          1   -1    0    0  501    0  0.00000000000E+00  0.00000000000E+00  0.17885285849E+04  0.17885285849E+04  0.00000000000E+00 0. -1.
         -1   -1    0    0    0  501 -0.00000000000E+00 -0.00000000000E+00 -0.48071315819E+02  0.48071315819E+02  0.00000000000E+00 0.  1.
         25    2    1    2    0    0 -0.23517063548E+03 -0.13010579500E+03  0.10096561022E+04  0.10522763101E+04  0.12508893806E+03 0.  0.
         23    2    1    2    0    0  0.23517063548E+03  0.13010579500E+03  0.73080116688E+03  0.78432359061E+03  0.94129716816E+02 0.  0.
          5    1    3    3  502    0 -0.21419315437E+03 -0.62149177068E+02  0.70736590597E+03  0.74170427052E+03  0.41800000000E+01 0.  1.
         -5    1    3    3    0  502 -0.20977481114E+02 -0.67956617931E+02  0.30229019624E+03  0.31057203959E+03  0.41800000000E+01 0.  1.
        -11    1    4    4    0    0  0.99455817436E+02  0.75634713292E+02  0.22005259433E+03  0.25305180052E+03  0.00000000000E+00 0.  1.
         11    1    4    4    0    0  0.13571481805E+03  0.54471081707E+02  0.51074857255E+03  0.53127179009E+03  0.00000000000E+00 0. -1.
</event>
<event>
 8    1  0.6832629E-009  0.1268598E+03  0.7561462E-02  0.1232191E+00
         -1   -1    0    0    0  501 -0.00000000000E+00  0.00000000000E+00  0.51777574392E+02  0.51777574392E+02  0.00000000000E+00 0.  1.
          1   -1    0    0  501    0  0.00000000000E+00 -0.00000000000E+00 -0.33915333253E+03  0.33915333253E+03  0.00000000000E+00 0. -1.
         25    2    1    2    0    0 -0.62657294767E+02  0.15231328896E+02 -0.10231194888E+03  0.17399243605E+03  0.12509077885E+03 0.  0.
         23    2    1    2    0    0  0.62657294767E+02 -0.15231328896E+02 -0.18506380926E+03  0.21693847087E+03  0.93036319141E+02 0.  0.
          5    1    3    3  502    0 -0.13648176662E+02 -0.53967514954E+02 -0.41611537970E+02  0.69625842105E+02  0.41800000000E+01 0. -1.
         -5    1    3    3    0  502 -0.49009118105E+02  0.69198843851E+02 -0.60700410913E+02  0.10436659395E+03  0.41800000000E+01 0. -1.
        -11    1    4    4    0    0  0.11210469490E+02 -0.49779774779E+02 -0.77180880723E+02  0.92523450825E+02  0.00000000000E+00 0.  1.
         11    1    4    4    0    0  0.51446825277E+02  0.34548445883E+02 -0.10788292853E+03  0.12441502005E+03  0.00000000000E+00 0. -1.
</event>
<event>
 8    1  0.6832629E-009  0.8661564E+02  0.7561462E-02  0.1311261E+00
         -1   -1    0    0    0  501 -0.00000000000E+00  0.00000000000E+00  0.39567564276E+02  0.39567564276E+02  0.00000000000E+00 0.  1.
          1   -1    0    0  501    0  0.00000000000E+00 -0.00000000000E+00 -0.34346934021E+03  0.34346934021E+03  0.00000000000E+00 0. -1.
         25    2    1    2    0    0  0.22762412591E+02 -0.29095833063E+02 -0.18194738125E+03  0.22386716156E+03  0.12508781537E+03 0.  0.
         23    2    1    2    0    0 -0.22762412591E+02  0.29095833063E+02 -0.12195439469E+03  0.15916974293E+03  0.95380489361E+02 0.  0.
          5    1    3    3  502    0  0.44467047207E+02 -0.60841707610E+02 -0.61494989637E+02  0.97355728248E+02  0.41800000000E+01 0. -1.
         -5    1    3    3    0  502 -0.21704634616E+02  0.31745874548E+02 -0.12045239161E+03  0.12651143331E+03  0.41800000000E+01 0. -1.
        -11    1    4    4    0    0  0.13254751922E+02  0.15934418630E+02 -0.11890961535E+03  0.12070248866E+03  0.00000000000E+00 0. -1.
         11    1    4    4    0    0 -0.36017164513E+02  0.13161414432E+02 -0.30447793342E+01  0.38467254264E+02  0.00000000000E+00 0.  1.
</event>
<event>
 8    1  0.6832629E-009  0.1523854E+03  0.7561462E-02  0.1197572E+00
          2   -1    0    0  501    0  0.00000000000E+00  0.00000000000E+00  0.99951437366E+03  0.99951437366E+03  0.00000000000E+00 0. -1.
         -2   -1    0    0    0  501 -0.00000000000E+00 -0.00000000000E+00 -0.38295436975E+02  0.38295436975E+02  0.00000000000E+00 0.  1.
         25    2    1    2    0    0 -0.72637320726E+02  0.12353525592E+03  0.69554757293E+03  0.72108942417E+03  0.12508553721E+03 0.  0.
         23    2    1    2    0    0  0.72637320726E+02 -0.12353525592E+03  0.26567136375E+03  0.31672038647E+03  0.95882166581E+02 0.  0.
          5    1    3    3  502    0 -0.39008907442E+02  0.39401872487E+02  0.71955096914E+02  0.90935201035E+02  0.41800000000E+01 0. -1.
         -5    1    3    3    0  502 -0.33628413284E+02  0.84133383431E+02  0.62359247602E+03  0.63015422313E+03  0.41800000000E+01 0. -1.
        -11    1    4    4    0    0  0.39247737116E-02 -0.65486352679E+02  0.51749217826E+02  0.83465225982E+02  0.00000000000E+00 0.  1.
         11    1    4    4    0    0  0.72633395953E+02 -0.58048903239E+02  0.21392214593E+03  0.23325516048E+03  0.00000000000E+00 0. -1.
</event>
<event>
 8    1  0.6832629E-009  0.1940057E+03  0.7561462E-02  0.1154897E+00
         -1   -1    0    0    0  501 -0.00000000000E+00  0.00000000000E+00  0.57992548423E+02  0.57992548423E+02  0.00000000000E+00 0.  1.
          1   -1    0    0  501    0  0.00000000000E+00 -0.00000000000E+00 -0.82860347731E+03  0.82860347731E+03  0.00000000000E+00 0. -1.
         25    2    1    2    0    0  0.57098044247E+02 -0.17467032352E+03 -0.30433888709E+03  0.37687964627E+03  0.12508477525E+03 0.  0.
         23    2    1    2    0    0 -0.57098044247E+02  0.17467032352E+03 -0.46627204180E+03  0.50971637946E+03  0.92904585241E+02 0.  0.
          5    1    3    3  502    0  0.62803005137E+02 -0.11427014018E+03 -0.28437894167E+03  0.31287495466E+03  0.41800000000E+01 0.  1.
         -5    1    3    3    0  502 -0.57049608897E+01 -0.60400183338E+02 -0.19959945424E+02  0.64004691604E+02  0.41800000000E+01 0.  1.
        -11    1    4    4    0    0  0.16080436331E+02  0.45818582787E+02 -0.59530740897E+02  0.76823382333E+02  0.00000000000E+00 0. -1.
         11    1    4    4    0    0 -0.73178480578E+02  0.12885174073E+03 -0.40674130090E+03  0.43289299713E+03  0.00000000000E+00 0.  1.
</event>
<event>
 8    1  0.6832629E-009  0.7173107E+02  0.7561462E-02  0.1354303E+00
          2   -1    0    0  501    0  0.00000000000E+00  0.00000000000E+00  0.25137046542E+02  0.25137046542E+02  0.00000000000E+00 0.  1.
         -2   -1    0    0    0  501 -0.00000000000E+00 -0.00000000000E+00 -0.47501631106E+03  0.47501631106E+03  0.00000000000E+00 0. -1.
         25    2    1    2    0    0 -0.28697447506E+01  0.41990036216E+01 -0.22430388523E+03  0.25687568875E+03  0.12508804689E+03 0.  0.
         23    2    1    2    0    0  0.28697447506E+01 -0.41990036216E+01 -0.22557537929E+03  0.24327766885E+03  0.90961010077E+02 0.  0.
          5    1    3    3  502    0 -0.94161551475E+01 -0.32840499279E+02 -0.55389211056E+01  0.34861359951E+02  0.41800000000E+01 0.  1.
         -5    1    3    3    0  502  0.65464103969E+01  0.37039502900E+02 -0.21876496412E+03  0.22201432880E+03  0.41800000000E+01 0.  1.
        -11    1    4    4    0    0 -0.33046841294E+02  0.65878215907E+01 -0.33284352997E+02  0.47363923690E+02  0.00000000000E+00 0.  1.
         11    1    4    4    0    0  0.35916586044E+02 -0.10786825212E+02 -0.19229102629E+03  0.19591374516E+03  0.00000000000E+00 0. -1.
</event>
<event>
 8    1  0.6832629E-009  0.1054756E+03  0.7561462E-02  0.1269185E+00
          2   -1    0    0  501    0  0.00000000000E+00  0.00000000000E+00  0.20757213424E+02  0.20757213424E+02  0.00000000000E+00 0. -1.
         -2   -1    0    0    0  501 -0.00000000000E+00 -0.00000000000E+00 -0.67291271398E+03  0.67291271398E+03  0.00000000000E+00 0.  1.
         25    2    1    2    0    0  0.51272425323E+01 -0.16352598876E+01 -0.22671782219E+03  0.25899305429E+03  0.12508984204E+03 0.  0.
         23    2    1    2    0    0 -0.51272425323E+01  0.16352598876E+01 -0.42543767837E+03  0.43467687311E+03  0.88982038374E+02 0.  0.
          5    1    3    3  502    0 -0.57421612543E+02 -0.14304274502E+02 -0.86619566290E+02  0.10498702549E+03  0.41800000000E+01 0. -1.
         -5    1    3    3    0  502  0.62548855076E+02  0.12669014614E+02 -0.14009825590E+03  0.15400602881E+03  0.41800000000E+01 0. -1.
        -11    1    4    4    0    0  0.23434470792E+02 -0.34441158100E+02 -0.16319676233E+03  0.16842966196E+03  0.00000000000E+00 0.  1.
         11    1    4    4    0    0 -0.28561713325E+02  0.36076417988E+02 -0.26224091603E+03  0.26624721115E+03  0.00000000000E+00 0. -1.
</event>
<event>
 8    1  0.6832629E-009  0.1109802E+03  0.7561462E-02  0.1258765E+00
          1   -1    0    0  501    0  0.00000000000E+00  0.00000000000E+00  0.64958509926E+02  0.64958509926E+02  0.00000000000E+00 0. -1.
         -1   -1    0    0    0  501 -0.00000000000E+00 -0.00000000000E+00 -0.30992715148E+03  0.30992715148E+03  0.00000000000E+00 0.  1.
         25    2    1    2    0    0  0.34190232349E+02  0.40234949696E+02 -0.36558223608E+02  0.14061048785E+03  0.12508789876E+03 0.  0.
         23    2    1    2    0    0 -0.34190232349E+02 -0.40234949696E+02 -0.20841041794E+03  0.23427517355E+03  0.93070572527E+02 0.  0.
          5    1    3    3  502    0  0.16086609670E+02  0.75845722388E+02 -0.56247282281E+02  0.95877952519E+02  0.41800000000E+01 0.  1.
         -5    1    3    3    0  502  0.18103622679E+02 -0.35610772692E+02  0.19689058673E+02  0.44732535333E+02  0.41800000000E+01 0.  1.
        -11    1    4    4    0    0 -0.11230081408E+02 -0.67543374698E+02 -0.16087626749E+03  0.17484105821E+03  0.00000000000E+00 0.  1.
         11    1    4    4    0    0 -0.22960150941E+02  0.27308425002E+02 -0.47534150454E+02  0.59434115344E+02  0.00000000000E+00 0. -1.
</event>
<event>
 8    1  0.6832629E-009  0.1792790E+03  0.7561462E-02  0.1168503E+00
          2   -1    0    0  501    0  0.00000000000E+00  0.00000000000E+00  0.10632375955E+04  0.10632375955E+04  0.00000000000E+00 0. -1.
         -2   -1    0    0    0  501 -0.00000000000E+00 -0.00000000000E+00 -0.41369429649E+02  0.41369429649E+02  0.00000000000E+00 0.  1.
         25    2    1    2    0    0 -0.14362969989E+03 -0.63492988037E+02  0.77027042869E+03  0.79600519434E+03  0.12508751283E+03 0.  0.
         23    2    1    2    0    0  0.14362969989E+03  0.63492988037E+02  0.25159773715E+03  0.30860183081E+03  0.85280820924E+02 0.  0.
          5    1    3    3  502    0 -0.13046852966E+03  0.50808302265E+01  0.48523783589E+03  0.50251475784E+03  0.41800000000E+01 0.  1.
         -5    1    3    3    0  502 -0.13161170228E+02 -0.68573818263E+02  0.28503259281E+03  0.29349043650E+03  0.41800000000E+01 0.  1.
        -11    1    4    4    0    0  0.67892387383E+02  0.20676471404E+02  0.43983785522E+02  0.83495305994E+02  0.00000000000E+00 0.  1.
         11    1    4    4    0    0  0.75737312510E+02  0.42816516633E+02  0.20761395163E+03  0.22510652481E+03  0.00000000000E+00 0. -1.
</event>
<event>
 8    1  0.6832629E-009  0.2074960E+03  0.7561462E-02  0.1143564E+00
          1   -1    0    0  501    0  0.00000000000E+00  0.00000000000E+00  0.84021336366E+03  0.84021336366E+03  0.00000000000E+00 0. -1.
         -1   -1    0    0    0  501 -0.00000000000E+00 -0.00000000000E+00 -0.66342683298E+02  0.66342683298E+02  0.00000000000E+00 0.  1.
         25    2    1    2    0    0  0.11799328678E+03  0.16725300758E+03  0.31777943527E+03  0.39815336692E+03  0.12508537019E+03 0.  0.
         23    2    1    2    0    0 -0.11799328678E+03 -0.16725300758E+03  0.45609124509E+03  0.50840268004E+03  0.92509874925E+02 0.  0.
          5    1    3    3  502    0  0.63764747908E+02  0.55214238913E+02  0.39411327352E+02  0.93194851672E+02  0.41800000000E+01 0. -1.
         -5    1    3    3    0  502  0.54228538870E+02  0.11203876867E+03  0.27836810792E+03  0.30495851524E+03  0.41800000000E+01 0. -1.
        -11    1    4    4    0    0 -0.91736278890E+02 -0.11162330847E+03  0.39947063790E+03  0.42479653765E+03  0.00000000000E+00 0. -1.
         11    1    4    4    0    0 -0.26257007888E+02 -0.55629699113E+02  0.56620607184E+02  0.83606142385E+02  0.00000000000E+00 0.  1.
</event>
<event>
 8    1  0.6832629E-009  0.1051868E+03  0.7561462E-02  0.1269752E+00
         -2   -1    0    0    0  501 -0.00000000000E+00  0.00000000000E+00  0.36503468095E+02  0.36503468095E+02  0.00000000000E+00 0. -1.
          2   -1    0    0  501    0  0.00000000000E+00 -0.00000000000E+00 -0.36274488924E+03  0.36274488924E+03  0.00000000000E+00 0.  1.
         25    2    1    2    0    0 -0.17385305104E+02 -0.22932612930E+01 -0.24188414922E+03  0.27287488169E+03  0.12508097991E+03 0.  0.
         23    2    1    2    0    0  0.17385305104E+02  0.22932612930E+01 -0.84357271930E+02  0.12637347564E+03  0.92447813053E+02 0.  0.
          5    1    3    3  502    0 -0.65407691087E+02  0.20811359697E+02 -0.10097123008E+03  0.12216358070E+03  0.41800000000E+01 0.  1.
         -5    1    3    3    0  502  0.48022385983E+02 -0.23104620990E+02 -0.14091291914E+03  0.15071130099E+03  0.41800000000E+01 0.  1.
        -11    1    4    4    0    0  0.29118912105E+01 -0.41719595548E+02 -0.18208943806E+02  0.45613259011E+02  0.00000000000E+00 0.  1.
         11    1    4    4    0    0  0.14473413894E+02  0.44012856841E+02 -0.66148328124E+02  0.80760216634E+02  0.00000000000E+00 0. -1.
</event>
<event>
 8    1  0.6832629E-009  0.1809406E+03  0.7561462E-02  0.1166896E+00
          2   -1    0    0  501    0  0.00000000000E+00  0.00000000000E+00  0.17671425255E+03  0.17671425255E+03  0.00000000000E+00 0. -1.
         -2   -1    0    0    0  501 -0.00000000000E+00 -0.00000000000E+00 -0.24933368649E+03  0.24933368649E+03  0.00000000000E+00 0.  1.
         25    2    1    2    0    0 -0.17230851639E+03 -0.42087081126E+02 -0.12858389564E+02  0.21742599498E+03  0.12508868012E+03 0.  0.
         23    2    1    2    0    0  0.17230851639E+03  0.42087081126E+02 -0.59761044369E+02  0.20862194406E+03  0.92142204786E+02 0.  0.
          5    1    3    3  502    0 -0.47730021156E+02 -0.33715236551E+02 -0.60036533899E+02  0.83885218589E+02  0.41800000000E+01 0.  1.
         -5    1    3    3    0  502 -0.12457849523E+03 -0.83718445750E+01  0.47178144335E+02  0.13354077639E+03  0.41800000000E+01 0.  1.
        -11    1    4    4    0    0  0.27346658904E+02  0.13946381965E+02  0.23897445111E+02  0.38902817455E+02  0.00000000000E+00 0. -1.
         11    1    4    4    0    0  0.14496185748E+03  0.28140699161E+02 -0.83658489480E+02  0.16971912661E+03  0.00000000000E+00 0.  1.
</event>
<event>
 8    1  0.6832629E-009  0.9672551E+02  0.7561462E-02  0.1287336E+00
          2   -1    0    0  501    0  0.00000000000E+00  0.00000000000E+00  0.47466210274E+02  0.47466210274E+02  0.00000000000E+00 0. -1.
         -2   -1    0    0    0  501 -0.00000000000E+00 -0.00000000000E+00 -0.35802299564E+03  0.35802299564E+03  0.00000000000E+00 0.  1.
         25    2    1    2    0    0  0.50819896981E+02  0.10557781983E+02 -0.25192533847E+03  0.28602241089E+03  0.12509322395E+03 0.  0.
         23    2    1    2    0    0 -0.50819896981E+02 -0.10557781983E+02 -0.58631446893E+02  0.11946679502E+03  0.90224940334E+02 0.  0.
          5    1    3    3  502    0 -0.15753749981E+02  0.15880723527E+02 -0.20008377212E+03  0.20137369810E+03  0.41800000000E+01 0.  1.
         -5    1    3    3    0  502  0.66573646962E+02 -0.53229415435E+01 -0.51841566349E+02  0.84648712796E+02  0.41800000000E+01 0.  1.
        -11    1    4    4    0    0 -0.36099355651E+02 -0.50004824642E+02 -0.39348426805E+02  0.73156986392E+02  0.00000000000E+00 0. -1.
         11    1    4    4    0    0 -0.14720541330E+02  0.39447042659E+02 -0.19283020089E+02  0.46309808630E+02  0.00000000000E+00 0.  1.
</event>
<event>
 8    1  0.6832629E-009  0.1741296E+03  0.7561462E-02  0.1173609E+00
          2   -1    0    0  501    0  0.00000000000E+00  0.00000000000E+00  0.10662341159E+04  0.10662341159E+04  0.00000000000E+00 0. -1.
         -2   -1    0    0    0  501 -0.00000000000E+00 -0.00000000000E+00 -0.37465600060E+02  0.37465600060E+02  0.00000000000E+00 0.  1.
         25    2    1    2    0    0 -0.15896012917E+03 -0.40683709027E+02  0.45720814992E+03  0.50160822438E+03  0.12509209233E+03 0.  0.
         23    2    1    2    0    0  0.15896012917E+03  0.40683709027E+02  0.57156036597E+03  0.60209149163E+03  0.94389753143E+02 0.  0.
          5    1    3    3  502    0 -0.19585535183E+02  0.23131721377E+02  0.19868071466E+03  0.20102280592E+03  0.41800000000E+01 0. -1.
         -5    1    3    3    0  502 -0.13937459399E+03 -0.63815430403E+02  0.25852743526E+03  0.30058541846E+03  0.41800000000E+01 0. -1.
        -11    1    4    4    0    0  0.70408488742E+02  0.13547804229E+02  0.10981738586E+03  0.13115165467E+03  0.00000000000E+00 0.  1.
         11    1    4    4    0    0  0.88551640433E+02  0.27135904797E+02  0.46174298011E+03  0.47093983695E+03  0.00000000000E+00 0. -1.
</event>
<event>
 8    1  0.6832629E-009  0.1010052E+03  0.7561462E-02  0.1278196E+00
          1   -1    0    0  501    0  0.00000000000E+00  0.00000000000E+00  0.22179017179E+03  0.22179017179E+03  0.00000000000E+00 0. -1.
         -1   -1    0    0    0  501 -0.00000000000E+00 -0.00000000000E+00 -0.64393863131E+02  0.64393863131E+02  0.00000000000E+00 0.  1.
         25    2    1    2    0    0  0.20607028708E+01 -0.32319988130E+02  0.13757586108E+03  0.18873804788E+03  0.12508439167E+03 0.  0.
         23    2    1    2    0    0 -0.20607028708E+01  0.32319988130E+02  0.19820447581E+02  0.97445987037E+02  0.89744315242E+02 0.  0.
          5    1    3    3  502    0 -0.57259164559E+02  0.10432851607E+01  0.41168769300E+02  0.70654372375E+02  0.41800000000E+01 0.  1.
         -5    1    3    3    0  502  0.59319867430E+02 -0.33363273291E+02  0.96407091778E+02  0.11808367551E+03  0.41800000000E+01 0.  1.
        -11    1    4    4    0    0 -0.26787910028E+01 -0.21958184092E+02 -0.20239294478E+02  0.29982775236E+02  0.00000000000E+00 0.  1.
         11    1    4    4    0    0  0.61808813193E+00  0.54278172222E+02  0.40059742058E+02  0.67463211801E+02  0.00000000000E+00 0. -1.
</event>
<event>
 8    1  0.6832629E-009  0.1190226E+03  0.7561462E-02  0.1244718E+00
         -2   -1    0    0    0  501 -0.00000000000E+00  0.00000000000E+00  0.49955124506E+02  0.49955124506E+02  0.00000000000E+00 0.  1.
          2   -1    0    0  501    0  0.00000000000E+00 -0.00000000000E+00 -0.42086923594E+03  0.42086923594E+03  0.00000000000E+00 0. -1.
         25    2    1    2    0    0  0.59637752238E+02  0.78969896391E+02 -0.20664056676E+03  0.26103816517E+03  0.12509074233E+03 0.  0.
         23    2    1    2    0    0 -0.59637752238E+02 -0.78969896391E+02 -0.16427354467E+03  0.20978619527E+03  0.85038486694E+02 0.  0.
          5    1    3    3  502    0 -0.15852139577E+02  0.57954857830E+02 -0.15706787156E+03  0.16821963189E+03  0.41800000000E+01 0.  1.
         -5    1    3    3    0  502  0.75489891815E+02  0.21015038561E+02 -0.49572695195E+02  0.92818533283E+02  0.41800000000E+01 0.  1.
        -11    1    4    4    0    0 -0.40749652869E+02 -0.46941296210E+02 -0.27364830793E+02  0.67917990717E+02  0.00000000000E+00 0.  1.
         11    1    4    4    0    0 -0.18888099369E+02 -0.32028600181E+02 -0.13690871388E+03  0.14186820455E+03  0.00000000000E+00 0. -1.
</event>
<event>
 8    1  0.6832629E-009  0.1025994E+03  0.7561462E-02  0.1274923E+00
          1   -1    0    0  501    0  0.00000000000E+00  0.00000000000E+00  0.47760592091E+03  0.47760592091E+03  0.00000000000E+00 0. -1.
         -1   -1    0    0    0  501 -0.00000000000E+00 -0.00000000000E+00 -0.32049159064E+02  0.32049159064E+02  0.00000000000E+00 0.  1.
         25    2    1    2    0    0  0.53962513345E+02  0.12297903214E+02  0.20891338254E+03  0.24971106396E+03  0.12509045843E+03 0.  0.
         23    2    1    2    0    0 -0.53962513345E+02 -0.12297903214E+02  0.23664337931E+03  0.25994401602E+03  0.92236712978E+02 0.  0.
          5    1    3    3  502    0  0.12987811919E+02 -0.34507987677E+02  0.61941377140E+01  0.37620794967E+02  0.41800000000E+01 0. -1.
         -5    1    3    3    0  502  0.40974701426E+02  0.46805890892E+02  0.20271924482E+03  0.21209026899E+03  0.41800000000E+01 0. -1.
        -11    1    4    4    0    0 -0.65053462380E+01  0.36852173950E+02  0.62082101184E+02  0.72488547661E+02  0.00000000000E+00 0.  1.
         11    1    4    4    0    0 -0.47457167107E+02 -0.49150077165E+02  0.17456127813E+03  0.18745546835E+03  0.00000000000E+00 0. -1.
</event>
<event>
 8    1  0.6832629E-009  0.1780902E+03  0.7561462E-02  0.1169664E+00
          2   -1    0    0  501    0  0.00000000000E+00  0.00000000000E+00  0.25186775053E+03  0.25186775053E+03  0.00000000000E+00 0. -1.
         -2   -1    0    0    0  501 -0.00000000000E+00 -0.00000000000E+00 -0.15925220213E+03  0.15925220213E+03  0.00000000000E+00 0.  1.
         25    2    1    2    0    0  0.56243152824E+02  0.15755157690E+03  0.48216005735E+02  0.21437370187E+03  0.12508200999E+03 0.  0.
         23    2    1    2    0    0 -0.56243152824E+02 -0.15755157690E+03  0.44399542665E+02  0.19674625079E+03  0.93551997239E+02 0.  0.
          5    1    3    3  502    0  0.27557581836E+02  0.15070868145E+03  0.78241671069E+02  0.17208067432E+03  0.41800000000E+01 0. -1.
         -5    1    3    3    0  502  0.28685570988E+02  0.68428954477E+01 -0.30025665334E+02  0.42293027555E+02  0.41800000000E+01 0. -1.
        -11    1    4    4    0    0 -0.22409477500E+02 -0.12204568028E+03 -0.87892290306E+01  0.12439687819E+03  0.00000000000E+00 0.  1.
         11    1    4    4    0    0 -0.33833675324E+02 -0.35505896619E+02  0.53188771695E+02  0.72349372596E+02  0.00000000000E+00 0. -1.
</event>
<event>
 8    1  0.6832629E-009  0.1643025E+03  0.7561462E-02  0.1183923E+00
          3   -1    0    0  501    0  0.00000000000E+00  0.00000000000E+00  0.20296447553E+03  0.20296447553E+03  0.00000000000E+00 0. -1.
         -3   -1    0    0    0  501 -0.00000000000E+00 -0.00000000000E+00 -0.16293225398E+03  0.16293225398E+03  0.00000000000E+00 0.  1.
         25    2    1    2    0    0 -0.11116387422E+03 -0.62516800699E+02  0.92170018143E+02  0.20102207639E+03  0.12509518636E+03 0.  0.
         23    2    1    2    0    0  0.11116387422E+03  0.62516800699E+02 -0.52137796595E+02  0.16487465312E+03  0.90551334101E+02 0.  0.
          5    1    3    3  502    0 -0.15966190863E+02 -0.76039371852E+02  0.18929094501E+02  0.80079262864E+02  0.41800000000E+01 0.  1.
         -5    1    3    3    0  502 -0.95197683358E+02  0.13522571153E+02  0.73240923641E+02  0.12094281352E+03  0.41800000000E+01 0.  1.
        -11    1    4    4    0    0  0.16579765228E+02  0.57490504181E+02 -0.32689631720E+02  0.68181072945E+02  0.00000000000E+00 0.  1.
         11    1    4    4    0    0  0.94584108994E+02  0.50262965181E+01 -0.19448164875E+02  0.96693580179E+02  0.00000000000E+00 0. -1.
</event>
<event>
 8    1  0.6832629E-009  0.1446496E+03  0.7561462E-02  0.1207206E+00
          2   -1    0    0  501    0  0.00000000000E+00  0.00000000000E+00  0.42556035697E+03  0.42556035697E+03  0.00000000000E+00 0.  1.
         -2   -1    0    0    0  501 -0.00000000000E+00 -0.00000000000E+00 -0.10143161435E+03  0.10143161435E+03  0.00000000000E+00 0. -1.
         25    2    1    2    0    0 -0.11342442780E+03  0.11816029078E+02  0.34148689174E+03  0.38113542008E+03  0.12508473867E+03 0.  0.
         23    2    1    2    0    0  0.11342442780E+03 -0.11816029078E+02 -0.17358149117E+02  0.14585655124E+03  0.89264264042E+02 0.  0.
          5    1    3    3  502    0 -0.36993757922E+02 -0.38186061298E+02  0.41647360489E+02  0.67666006520E+02  0.41800000000E+01 0. -1.
         -5    1    3    3    0  502 -0.76430669879E+02  0.50002090376E+02  0.29983953125E+03  0.31346941356E+03  0.41800000000E+01 0. -1.
        -11    1    4    4    0    0  0.78062546895E+02  0.35263763961E+02 -0.58181348515E+01  0.85855372397E+02  0.00000000000E+00 0.  1.
         11    1    4    4    0    0  0.35361880906E+02 -0.47079793038E+02 -0.11540014265E+02  0.60001178847E+02  0.00000000000E+00 0. -1.
</event>
<event>
 8    1  0.6832629E-009  0.9867965E+02  0.7561462E-02  0.1283097E+00
          2   -1    0    0  501    0  0.00000000000E+00  0.00000000000E+00  0.12755644208E+03  0.12755644208E+03  0.00000000000E+00 0. -1.
         -2   -1    0    0    0  501 -0.00000000000E+00 -0.00000000000E+00 -0.12663163414E+03  0.12663163414E+03  0.00000000000E+00 0.  1.
         25    2    1    2    0    0  0.31504540974E+02 -0.21274303366E+02  0.54042461995E+02  0.14146841244E+03  0.12509033510E+03 0.  0.
         23    2    1    2    0    0 -0.31504540974E+02  0.21274303366E+02 -0.53117654047E+02  0.11271966378E+03  0.91864603332E+02 0.  0.
          5    1    3    3  502    0  0.18527440711E+02  0.47821940241E+02 -0.19528467182E+01  0.51492621199E+02  0.41800000000E+01 0.  1.
         -5    1    3    3    0  502  0.12977100263E+02 -0.69096243606E+02  0.55995308713E+02  0.89975791242E+02  0.41800000000E+01 0.  1.
        -11    1    4    4    0    0 -0.51790998031E+02  0.11966866404E+02 -0.67688128111E+02  0.86065068731E+02  0.00000000000E+00 0.  1.
         11    1    4    4    0    0  0.20286457057E+02  0.93074369618E+01  0.14570474064E+02  0.26654595048E+02  0.00000000000E+00 0. -1.
</event>
<event>
 8    1  0.6832629E-009  0.2594590E+03  0.7561462E-02  0.1107469E+00
          1   -1    0    0  501    0  0.00000000000E+00  0.00000000000E+00  0.29376308168E+03  0.29376308168E+03  0.00000000000E+00 0. -1.
         -1   -1    0    0    0  501 -0.00000000000E+00 -0.00000000000E+00 -0.27635042628E+03  0.27635042628E+03  0.00000000000E+00 0.  1.
         25    2    1    2    0    0  0.23733097484E+03 -0.38459176705E+02  0.11578675431E+03  0.29471923172E+03  0.12509097961E+03 0.  0.
         23    2    1    2    0    0 -0.23733097484E+03  0.38459176705E+02 -0.98374098913E+02  0.27539427625E+03  0.91429995983E+02 0.  0.
          5    1    3    3  502    0  0.33423233972E+02  0.31580543093E+02  0.52642638811E+02  0.70022589871E+02  0.41800000000E+01 0. -1.
         -5    1    3    3    0  502  0.20390774086E+03 -0.70039719799E+02  0.63144115502E+02  0.22469664185E+03  0.41800000000E+01 0. -1.
        -11    1    4    4    0    0 -0.22576682652E+03  0.95517628357E+01 -0.89185843162E+02  0.24293211140E+03  0.00000000000E+00 0. -1.
         11    1    4    4    0    0 -0.11564148317E+02  0.28907413870E+02 -0.91882557513E+01  0.32462164849E+02  0.00000000000E+00 0.  1.
</event>
<event>
 8    1  0.6832629E-009  0.1422756E+03  0.7561462E-02  0.1210299E+00
         -1   -1    0    0    0  501 -0.00000000000E+00  0.00000000000E+00  0.98790432969E+02  0.98790432969E+02  0.00000000000E+00 0.  1.
          1   -1    0    0  501    0  0.00000000000E+00 -0.00000000000E+00 -0.24480212296E+03  0.24480212296E+03  0.00000000000E+00 0. -1.
         25    2    1    2    0    0  0.10678184665E+03 -0.13394156150E+02 -0.47919485480E+02  0.17183146526E+03  0.12509200283E+03 0.  0.
         23    2    1    2    0    0 -0.10678184665E+03  0.13394156150E+02 -0.98092204516E+02  0.17176109067E+03  0.91093498611E+02 0.  0.
          5    1    3    3  502    0  0.53372982815E+02  0.54759277505E+02 -0.10070918274E+02  0.77240854231E+02  0.41800000000E+01 0.  1.
         -5    1    3    3    0  502  0.53408863837E+02 -0.68153433655E+02 -0.37848567206E+02  0.94590611029E+02  0.41800000000E+01 0.  1.
        -11    1    4    4    0    0 -0.80085981002E+02  0.34548345777E+02 -0.24385784711E+02  0.90564999006E+02  0.00000000000E+00 0.  1.
         11    1    4    4    0    0 -0.26695865650E+02 -0.21154189627E+02 -0.73706419805E+02  0.81196091667E+02  0.00000000000E+00 0. -1.
</event>
<event>
 8    1  0.6832629E-009  0.1142710E+03  0.7561462E-02  0.1252859E+00
         -2   -1    0    0    0  501 -0.00000000000E+00  0.00000000000E+00  0.17737791593E+03  0.17737791593E+03  0.00000000000E+00 0.  1.
          2   -1    0    0  501    0  0.00000000000E+00 -0.00000000000E+00 -0.10436543458E+03  0.10436543458E+03  0.00000000000E+00 0. -1.
         25    2    1    2    0    0 -0.19602942359E+02  0.77494426086E+02  0.56901047076E+02  0.15898027626E+03  0.12508931872E+03 0.  0.
         23    2    1    2    0    0  0.19602942359E+02 -0.77494426086E+02  0.16111434270E+02  0.12276307425E+03  0.91768909016E+02 0.  0.
          5    1    3    3  502    0 -0.34394861124E+02  0.90982779701E+02 -0.12220941201E+01  0.97364462654E+02  0.41800000000E+01 0. -1.
         -5    1    3    3    0  502  0.14791918765E+02 -0.13488353615E+02  0.58123141196E+02  0.61615813607E+02  0.41800000000E+01 0. -1.
        -11    1    4    4    0    0  0.24870715989E+02  0.71882107188E+01  0.26781124151E+02  0.37248510010E+02  0.00000000000E+00 0. -1.
         11    1    4    4    0    0 -0.52677736305E+01 -0.84682636805E+02 -0.10669689882E+02  0.85514564242E+02  0.00000000000E+00 0.  1.
</event>
<event>
 8    1  0.6832629E-009  0.4886558E+03  0.7561462E-02  0.1016783E+00
         -1   -1    0    0    0  501 -0.00000000000E+00  0.00000000000E+00  0.22562399529E+03  0.22562399529E+03  0.00000000000E+00 0.  1.
          1   -1    0    0  501    0  0.00000000000E+00 -0.00000000000E+00 -0.12572816962E+04  0.12572816962E+04  0.00000000000E+00 0. -1.
         25    2    1    2    0    0 -0.17271016064E+03 -0.45341896381E+03 -0.25429753614E+03  0.56190091788E+03  0.12509135978E+03 0.  0.
         23    2    1    2    0    0  0.17271016064E+03  0.45341896381E+03 -0.77736016476E+03  0.92100477362E+03  0.92430573577E+02 0.  0.
          5    1    3    3  502    0 -0.36934261306E+02 -0.19842912263E+03 -0.16124046907E+03  0.25836837583E+03  0.41800000000E+01 0.  1.
         -5    1    3    3    0  502 -0.13577589933E+03 -0.25498984119E+03 -0.93057067069E+02  0.30353254204E+03  0.41800000000E+01 0.  1.
        -11    1    4    4    0    0  0.16100654310E+03  0.38836600331E+03 -0.60795997371E+03  0.73916614444E+03  0.00000000000E+00 0.  1.
         11    1    4    4    0    0  0.11703617541E+02  0.65052960505E+02 -0.16940019105E+03  0.18183862918E+03  0.00000000000E+00 0. -1.
</event>
<event>
 8    1  0.6832629E-009  0.9630403E+02  0.7561462E-02  0.1288266E+00
         -2   -1    0    0    0  501 -0.00000000000E+00  0.00000000000E+00  0.37315755980E+03  0.37315755980E+03  0.00000000000E+00 0.  1.
          2   -1    0    0  501    0  0.00000000000E+00 -0.00000000000E+00 -0.40997765008E+02  0.40997765008E+02  0.00000000000E+00 0. -1.
         25    2    1    2    0    0 -0.34715561325E+02  0.91324433895E+01  0.26577755905E+03  0.29593087329E+03  0.12509516038E+03 0.  0.
         23    2    1    2    0    0  0.34715561325E+02 -0.91324433895E+01  0.66382235740E+02  0.11822445152E+03  0.91004659189E+02 0.  0.
          5    1    3    3  502    0 -0.72026197866E+01  0.64927224461E+02  0.16390054010E+03  0.17648875786E+03  0.41800000000E+01 0.  1.
         -5    1    3    3    0  502 -0.27512941539E+02 -0.55794781072E+02  0.10187701895E+03  0.11944211543E+03  0.41800000000E+01 0.  1.
        -11    1    4    4    0    0  0.26047940029E+02 -0.31462547339E+02 -0.66326280209E+01  0.41380899208E+02  0.00000000000E+00 0. -1.
         11    1    4    4    0    0  0.86676212964E+01  0.22330103949E+02  0.73014863761E+02  0.76843552308E+02  0.00000000000E+00 0.  1.
</event>
<event>
 8    1  0.6832629E-009  0.1660432E+03  0.7561462E-02  0.1182038E+00
         -1   -1    0    0    0  501 -0.00000000000E+00  0.00000000000E+00  0.64173546398E+02  0.64173546398E+02  0.00000000000E+00 0.  1.
          1   -1    0    0  501    0  0.00000000000E+00 -0.00000000000E+00 -0.95931946529E+03  0.95931946529E+03  0.00000000000E+00 0. -1.
         25    2    1    2    0    0 -0.26058529630E+01  0.15414241877E+03 -0.79165669546E+03  0.81617063090E+03  0.12508996576E+03 0.  0.
         23    2    1    2    0    0  0.26058529630E+01 -0.15414241877E+03 -0.10348922343E+03  0.20732238079E+03  0.92227297891E+02 0.  0.
          5    1    3    3  502    0  0.21367888344E+02  0.45458080477E+01 -0.20459080567E+02  0.30220810723E+02  0.41800000000E+01 0.  1.
         -5    1    3    3    0  502 -0.23973741307E+02  0.14959661072E+03 -0.77119761490E+03  0.78594982018E+03  0.41800000000E+01 0.  1.
        -11    1    4    4    0    0  0.18832781608E+02 -0.64981606034E+02 -0.94542440801E+02  0.11625642304E+03  0.00000000000E+00 0. -1.
         11    1    4    4    0    0 -0.16226928645E+02 -0.89160812737E+02 -0.89467826270E+01  0.91065957748E+02  0.00000000000E+00 0.  1.
</event>
<event>
 8    1  0.6832629E-009  0.1214547E+03  0.7561462E-02  0.1240716E+00
          1   -1    0    0  501    0  0.00000000000E+00  0.00000000000E+00  0.40799482365E+03  0.40799482365E+03  0.00000000000E+00 0. -1.
         -1   -1    0    0    0  501 -0.00000000000E+00 -0.00000000000E+00 -0.49572414868E+02  0.49572414868E+02  0.00000000000E+00 0.  1.
         25    2    1    2    0    0  0.27587889469E+02 -0.79744533886E+02  0.14525002982E+03  0.20943818960E+03  0.12508597750E+03 0.  0.
         23    2    1    2    0    0 -0.27587889469E+02  0.79744533886E+02  0.21317237896E+03  0.24812904892E+03  0.94896150805E+02 0.  0.
          5    1    3    3  502    0 -0.44292602075E+02 -0.45357496862E+02  0.32650000247E+02  0.71432709848E+02  0.41800000000E+01 0.  1.
         -5    1    3    3    0  502  0.71880491544E+02 -0.34387037024E+02  0.11260002958E+03  0.13800547975E+03  0.41800000000E+01 0.  1.
        -11    1    4    4    0    0 -0.43111389367E+02  0.66095342036E+02  0.21333031139E+03  0.22745770571E+03  0.00000000000E+00 0. -1.
         11    1    4    4    0    0  0.15523499898E+02  0.13649191851E+02 -0.15793243086E+00  0.20671343206E+02  0.00000000000E+00 0.  1.
</event>
<event>
 8    1  0.6832629E-009  0.7058983E+02  0.7561462E-02  0.1358099E+00
          1   -1    0    0  501    0  0.00000000000E+00  0.00000000000E+00  0.17228491081E+03  0.17228491081E+03  0.00000000000E+00 0. -1.
         -1   -1    0    0    0  501 -0.00000000000E+00 -0.00000000000E+00 -0.72297070670E+02  0.72297070670E+02  0.00000000000E+00 0.  1.
         25    2    1    2    0    0  0.12593950544E+02  0.13463632454E+02  0.67224148149E+02  0.14320141649E+03  0.12509069750E+03 0.  0.
         23    2    1    2    0    0 -0.12593950544E+02 -0.13463632454E+02  0.32763691989E+02  0.10138056499E+03  0.94152442647E+02 0.  0.
          5    1    3    3  502    0  0.31802966169E+02 -0.10579274492E+02  0.95440544092E+02  0.10124089867E+03  0.41800000000E+01 0.  1.
         -5    1    3    3    0  502 -0.19209015625E+02  0.24042906946E+02 -0.28216395943E+02  0.41960517820E+02  0.41800000000E+01 0.  1.
        -11    1    4    4    0    0 -0.31786844868E+02 -0.35147279023E+02 -0.11239606044E+02  0.48703834278E+02  0.00000000000E+00 0.  1.
         11    1    4    4    0    0  0.19192894324E+02  0.21683646569E+02  0.44003298033E+02  0.52676730715E+02  0.00000000000E+00 0. -1.
</event>
<event>
 8    1  0.6832629E-009  0.1486675E+03  0.7561462E-02  0.1202120E+00
         -2   -1    0    0    0  501 -0.00000000000E+00  0.00000000000E+00  0.21399705413E+03  0.21399705413E+03  0.00000000000E+00 0.  1.
          2   -1    0    0  501    0  0.00000000000E+00 -0.00000000000E+00 -0.14257725219E+03  0.14257725219E+03  0.00000000000E+00 0. -1.
         25    2    1    2    0    0  0.61044304739E+02 -0.10096344536E+03  0.10788967799E+03  0.20299640082E+03  0.12508929486E+03 0.  0.
         23    2    1    2    0    0 -0.61044304739E+02  0.10096344536E+03 -0.36469876057E+02  0.15357790550E+03  0.91302227568E+02 0.  0.
          5    1    3    3  502    0 -0.29536047319E+02 -0.60418518301E+02  0.68664542152E+02  0.96203259788E+02  0.41800000000E+01 0. -1.
         -5    1    3    3    0  502  0.90580352058E+02 -0.40544927061E+02  0.39225135837E+02  0.10679314103E+03  0.41800000000E+01 0. -1.
        -11    1    4    4    0    0 -0.63336710057E+02  0.52943364552E+02 -0.58013681962E+02  0.10089661038E+03  0.00000000000E+00 0. -1.
         11    1    4    4    0    0  0.22924053190E+01  0.48020080811E+02  0.21543805905E+02  0.52681295126E+02  0.00000000000E+00 0.  1.
</event>
<event>
 8    1  0.6832629E-009  0.1225170E+03  0.7561462E-02  0.1239002E+00
         -2   -1    0    0    0  501 -0.00000000000E+00  0.00000000000E+00  0.62889932400E+02  0.62889932400E+02  0.00000000000E+00 0.  1.
          2   -1    0    0  501    0  0.00000000000E+00 -0.00000000000E+00 -0.27990789246E+03  0.27990789246E+03  0.00000000000E+00 0. -1.
         25    2    1    2    0    0 -0.46393213949E+01  0.71666339084E+02 -0.15520002284E+03  0.21187601141E+03  0.12508720822E+03 0.  0.
         23    2    1    2    0    0  0.46393213949E+01 -0.71666339084E+02 -0.61817937223E+02  0.13092181346E+03  0.90340890051E+02 0.  0.
          5    1    3    3  502    0  0.16493712151E+02 -0.26918217589E+02 -0.79762831745E+02  0.85884892191E+02  0.41800000000E+01 0.  1.
         -5    1    3    3    0  502 -0.21133033546E+02  0.98584556673E+02 -0.75437191093E+02  0.12599111922E+03  0.41800000000E+01 0.  1.
        -11    1    4    4    0    0 -0.33210060795E+02 -0.66164062088E+02 -0.25836926733E+02  0.78410063340E+02  0.00000000000E+00 0. -1.
         11    1    4    4    0    0  0.37849382190E+02 -0.55022769958E+01 -0.35981010490E+02  0.52511750115E+02  0.00000000000E+00 0.  1.
</event>
<event>
 8    1  0.6832629E-009  0.8553482E+02  0.7561462E-02  0.1314040E+00
          1   -1    0    0  501    0  0.00000000000E+00  0.00000000000E+00  0.21470526710E+03  0.21470526710E+03  0.00000000000E+00 0. -1.
         -1   -1    0    0    0  501 -0.00000000000E+00 -0.00000000000E+00 -0.66645294337E+02  0.66645294337E+02  0.00000000000E+00 0.  1.
         25    2    1    2    0    0  0.23019591827E+02  0.38132350964E+02  0.11139967537E+03  0.17333096082E+03  0.12509898685E+03 0.  0.
         23    2    1    2    0    0 -0.23019591827E+02 -0.38132350964E+02  0.36660297395E+02  0.10801960061E+03  0.91325127504E+02 0.  0.
          5    1    3    3  502    0  0.46561588872E+02 -0.64550464659E+00  0.11834715641E+03  0.12724747567E+03  0.41800000000E+01 0. -1.
         -5    1    3    3    0  502 -0.23541997045E+02  0.38777855611E+02 -0.69474810453E+01  0.46083485149E+02  0.41800000000E+01 0. -1.
        -11    1    4    4    0    0  0.12147010302E+02  0.12293451641E+02 -0.18576428255E+02  0.25372475229E+02  0.00000000000E+00 0.  1.
         11    1    4    4    0    0 -0.35166602130E+02 -0.50425802605E+02  0.55236725650E+02  0.82647125384E+02  0.00000000000E+00 0. -1.
</event>
<event>
 8    1  0.6832629E-009  0.5527604E+02  0.7561462E-02  0.1418798E+00
         -2   -1    0    0    0  501 -0.00000000000E+00  0.00000000000E+00  0.18575395639E+02  0.18575395639E+02  0.00000000000E+00 0.  1.
          2   -1    0    0  501    0  0.00000000000E+00 -0.00000000000E+00 -0.63086298570E+03  0.63086298570E+03  0.00000000000E+00 0. -1.
         25    2    1    2    0    0  0.14546033637E+00  0.34276544146E+02 -0.38809267996E+03  0.40919327193E+03  0.12509317694E+03 0.  0.
         23    2    1    2    0    0 -0.14546033637E+00 -0.34276544146E+02 -0.22419491010E+03  0.24024510941E+03  0.79242994907E+02 0.  0.
          5    1    3    3  502    0  0.20798421453E+02  0.12591054513E+01 -0.36086661808E+03  0.36149183687E+03  0.41800000000E+01 0. -1.
         -5    1    3    3    0  502 -0.20652961117E+02  0.33017438695E+02 -0.27226061875E+02  0.47701435053E+02  0.41800000000E+01 0. -1.
        -11    1    4    4    0    0 -0.88664245718E+01  0.48080983972E+01  0.22103471069E+01  0.10325547405E+02  0.00000000000E+00 0.  1.
         11    1    4    4    0    0  0.87209642355E+01 -0.39084642543E+02 -0.22640525721E+03  0.22991956200E+03  0.00000000000E+00 0. -1.
</event>
<event>
 8    1  0.6832629E-009  0.1087988E+03  0.7561462E-02  0.1262811E+00
         -1   -1    0    0    0  501 -0.00000000000E+00  0.00000000000E+00  0.15503073628E+03  0.15503073628E+03  0.00000000000E+00 0.  1.
          1   -1    0    0  501    0  0.00000000000E+00 -0.00000000000E+00 -0.18000374338E+03  0.18000374338E+03  0.00000000000E+00 0. -1.
         25    2    1    2    0    0 -0.38518018871E+02 -0.24751133974E+01  0.10826486149E+03  0.16987810082E+03  0.12509006732E+03 0.  0.
         23    2    1    2    0    0  0.38518018871E+02  0.24751133974E+01 -0.13323786858E+03  0.16515637884E+03  0.89635572638E+02 0.  0.
          5    1    3    3  502    0 -0.88128999213E+01 -0.62706539526E+02  0.56757661786E+02  0.85139191186E+02  0.41800000000E+01 0. -1.
         -5    1    3    3    0  502 -0.29705118950E+02  0.60231426128E+02  0.51507199703E+02  0.84738909638E+02  0.41800000000E+01 0. -1.
        -11    1    4    4    0    0  0.39025124225E+02 -0.33159598567E+02 -0.11326248230E+03  0.12430168621E+03  0.00000000000E+00 0. -1.
         11    1    4    4    0    0 -0.50710535414E+00  0.35634711964E+02 -0.19975386286E+02  0.40854692630E+02  0.00000000000E+00 0.  1.
</event>
<event>
 8    1  0.6832629E-009  0.1000542E+03  0.7561462E-02  0.1280182E+00
          2   -1    0    0  501    0  0.00000000000E+00  0.00000000000E+00  0.55263895820E+03  0.55263895820E+03  0.00000000000E+00 0. -1.
         -2   -1    0    0    0  501 -0.00000000000E+00 -0.00000000000E+00 -0.31041335092E+02  0.31041335092E+02  0.00000000000E+00 0.  1.
         25    2    1    2    0    0 -0.62241321328E+02 -0.34139059556E+02  0.33042774393E+03  0.36037399917E+03  0.12508983911E+03 0.  0.
         23    2    1    2    0    0  0.62241321328E+02  0.34139059556E+02  0.19116987917E+03  0.22330629412E+03  0.90996268181E+02 0.  0.
          5    1    3    3  502    0 -0.41777383414E+02  0.85033620406E+01  0.21709142960E+02  0.48025162353E+02  0.41800000000E+01 0. -1.
         -5    1    3    3    0  502 -0.20463937914E+02 -0.42642421596E+02  0.30871860097E+03  0.31234883682E+03  0.41800000000E+01 0. -1.
        -11    1    4    4    0    0  0.12923962524E+02  0.54809822314E+02  0.63401741934E+02  0.84799329653E+02  0.00000000000E+00 0.  1.
         11    1    4    4    0    0  0.49317358804E+02 -0.20670762758E+02  0.12776813724E+03  0.13850696447E+03  0.00000000000E+00 0. -1.
</event>
<event>
 8    1  0.6832629E-009  0.1562883E+03  0.7561462E-02  0.1192952E+00
          2   -1    0    0  501    0  0.00000000000E+00  0.00000000000E+00  0.49515514805E+03  0.49515514805E+03  0.00000000000E+00 0. -1.
         -2   -1    0    0    0  501 -0.00000000000E+00 -0.00000000000E+00 -0.89799655876E+02  0.89799655876E+02  0.00000000000E+00 0.  1.
         25    2    1    2    0    0  0.57787477381E+01 -0.12520177261E+03  0.38973961272E+03  0.42807948535E+03  0.12508478028E+03 0.  0.
         23    2    1    2    0    0 -0.57787477381E+01  0.12520177261E+03  0.15615879455E+02  0.15687531858E+03  0.93043710695E+02 0.  0.
          5    1    3    3  502    0 -0.43958167010E+02 -0.56724752146E+02  0.82766381657E+02  0.10962556401E+03  0.41800000000E+01 0.  1.
         -5    1    3    3    0  502  0.49736914749E+02 -0.68477020463E+02  0.30697323107E+03  0.31845392133E+03  0.41800000000E+01 0.  1.
        -11    1    4    4    0    0 -0.34903387534E+02  0.88431176507E+01  0.79581065068E+00  0.36015003897E+02  0.00000000000E+00 0. -1.
         11    1    4    4    0    0  0.29124639796E+02  0.11635865496E+03  0.14820068804E+02  0.12086031469E+03  0.00000000000E+00 0.  1.
</event>
<event>
 8    1  0.6832629E-009  0.1083360E+03  0.7561462E-02  0.1263683E+00
          1   -1    0    0  501    0  0.00000000000E+00  0.00000000000E+00  0.51606726108E+02  0.51606726108E+02  0.00000000000E+00 0. -1.
         -1   -1    0    0    0  501 -0.00000000000E+00 -0.00000000000E+00 -0.30029583256E+03  0.30029583256E+03  0.00000000000E+00 0.  1.
         25    2    1    2    0    0  0.78673636373E+01  0.41421297038E+02 -0.19964928405E+03  0.23934300506E+03  0.12509044005E+03 0.  0.
         23    2    1    2    0    0 -0.78673636373E+01 -0.41421297038E+02 -0.49039822400E+02  0.11255955360E+03  0.92125618955E+02 0.  0.
          5    1    3    3  502    0  0.52198035614E+02 -0.51909753378E+01 -0.14692768629E+03  0.15606664777E+03  0.41800000000E+01 0. -1.
         -5    1    3    3    0  502 -0.44330671977E+02  0.46612272375E+02 -0.52721597763E+02  0.83276357297E+02  0.41800000000E+01 0. -1.
        -11    1    4    4    0    0  0.38601718945E+02 -0.20057893175E+01 -0.91251272578E+01  0.39716291918E+02  0.00000000000E+00 0. -1.
         11    1    4    4    0    0 -0.46469082582E+02 -0.39415507720E+02 -0.39914695142E+02  0.72843261686E+02  0.00000000000E+00 0.  1.
</event>
<event>
 8    1  0.6832629E-009  0.1440810E+03  0.7561462E-02  0.1207941E+00
         -2   -1    0    0    0  501 -0.00000000000E+00  0.00000000000E+00  0.51422272752E+02  0.51422272752E+02  0.00000000000E+00 0.  1.
          2   -1    0    0  501    0  0.00000000000E+00 -0.00000000000E+00 -0.43281217775E+03  0.43281217775E+03  0.00000000000E+00 0. -1.
         25    2    1    2    0    0 -0.37820840531E+02  0.93491586309E+02 -0.23868843645E+03  0.28773120338E+03  0.12508390389E+03 0.  0.
         23    2    1    2    0    0  0.37820840531E+02 -0.93491586309E+02 -0.14270146855E+03  0.19650324712E+03  0.89881724035E+02 0.  0.
          5    1    3    3  502    0  0.41133842929E+02  0.63447696390E+02 -0.12247032329E+03  0.14399324879E+03  0.41800000000E+01 0.  1.
         -5    1    3    3    0  502 -0.78954683459E+02  0.30043889920E+02 -0.11621811316E+03  0.14373795459E+03  0.41800000000E+01 0.  1.
        -11    1    4    4    0    0  0.62505441923E+02 -0.65866475676E+02 -0.12733597586E+03  0.15639620723E+03  0.00000000000E+00 0. -1.
         11    1    4    4    0    0 -0.24684601392E+02 -0.27625110633E+02 -0.15365492685E+02  0.40107039891E+02  0.00000000000E+00 0.  1.
</event>
<event>
 8    1  0.6832629E-009  0.9531768E+02  0.7561462E-02  0.1290462E+00
         -2   -1    0    0    0  501 -0.00000000000E+00  0.00000000000E+00  0.87676965720E+02  0.87676965720E+02  0.00000000000E+00 0.  1.
          2   -1    0    0  501    0  0.00000000000E+00 -0.00000000000E+00 -0.16059389887E+03  0.16059389887E+03  0.00000000000E+00 0. -1.
         25    2    1    2    0    0  0.14547182589E+02  0.40567922486E+01 -0.89544871569E+02  0.15457752694E+03  0.12509136551E+03 0.  0.
         23    2    1    2    0    0 -0.14547182589E+02 -0.40567922486E+01  0.16627938422E+02  0.93693337651E+02  0.90960843770E+02 0.  0.
          5    1    3    3  502    0  0.31256587334E+02  0.44955141591E+02 -0.30618220419E+00  0.54913615387E+02  0.41800000000E+01 0. -1.
         -5    1    3    3    0  502 -0.16709404746E+02 -0.40898349343E+02 -0.89238689365E+02  0.99663911550E+02  0.41800000000E+01 0. -1.
        -11    1    4    4    0    0 -0.26242627450E+02  0.38844539035E+02  0.14913563155E+02  0.49193374292E+02  0.00000000000E+00 0.  1.
         11    1    4    4    0    0  0.11695444861E+02 -0.42901331283E+02  0.17143752665E+01  0.44499963359E+02  0.00000000000E+00 0. -1.
</event>
<event>
 8    1  0.6832629E-009  0.1488253E+03  0.7561462E-02  0.1201924E+00
          1   -1    0    0  501    0  0.00000000000E+00  0.00000000000E+00  0.79177413129E+02  0.79177413129E+02  0.00000000000E+00 0. -1.
         -1   -1    0    0    0  501 -0.00000000000E+00 -0.00000000000E+00 -0.36564501092E+03  0.36564501092E+03  0.00000000000E+00 0.  1.
         25    2    1    2    0    0  0.73776664285E+02 -0.93213872027E+02 -0.80573805978E+02  0.19045228900E+03  0.12509242200E+03 0.  0.
         23    2    1    2    0    0 -0.73776664285E+02  0.93213872027E+02 -0.20589379181E+03  0.25437013505E+03  0.90443849813E+02 0.  0.
          5    1    3    3  502    0  0.89379238847E+02 -0.10487192068E+03 -0.37298958203E+02  0.14281264918E+03  0.41800000000E+01 0. -1.
         -5    1    3    3    0  502 -0.15602574562E+02  0.11658048654E+02 -0.43274847775E+02  0.47639639811E+02  0.41800000000E+01 0. -1.
        -11    1    4    4    0    0 -0.89030540829E+02  0.79987451465E+02 -0.20044540055E+03  0.23345832217E+03  0.00000000000E+00 0.  1.
         11    1    4    4    0    0  0.15253876544E+02  0.13226420562E+02 -0.54483912656E+01  0.20911812879E+02  0.00000000000E+00 0. -1.
</event>
<event>
 8    1  0.6832629E-009  0.1189787E+03  0.7561462E-02  0.1244791E+00
         -1   -1    0    0    0  501 -0.00000000000E+00  0.00000000000E+00  0.52249523171E+02  0.52249523171E+02  0.00000000000E+00 0.  1.
          1   -1    0    0  501    0  0.00000000000E+00 -0.00000000000E+00 -0.28608710387E+03  0.28608710387E+03  0.00000000000E+00 0. -1.
         25    2    1    2    0    0 -0.33036867934E+02  0.33000073219E+02 -0.13782763214E+03  0.19189639738E+03  0.12508929479E+03 0.  0.
         23    2    1    2    0    0  0.33036867934E+02 -0.33000073219E+02 -0.96009948564E+02  0.14644022966E+03  0.10023168743E+03 0.  0.
          5    1    3    3  502    0  0.47194392641E+02  0.14840465962E+02 -0.66144193650E+02  0.82704757302E+02  0.41800000000E+01 0.  1.
         -5    1    3    3    0  502 -0.80231260575E+02  0.18159607257E+02 -0.71683438488E+02  0.10919164008E+03  0.41800000000E+01 0.  1.
        -11    1    4    4    0    0 -0.89157640089E+01  0.29415540912E+02 -0.48711430017E+02  0.57598335994E+02  0.00000000000E+00 0.  1.
         11    1    4    4    0    0  0.41952631942E+02 -0.62415614131E+02 -0.47298518547E+02  0.88841893671E+02  0.00000000000E+00 0. -1.
</event>
<event>
 8    1  0.6832629E-009  0.1807718E+03  0.7561462E-02  0.1167058E+00
         -1   -1    0    0    0  501 -0.00000000000E+00  0.00000000000E+00  0.21811272478E+03  0.21811272478E+03  0.00000000000E+00 0.  1.
          1   -1    0    0  501    0  0.00000000000E+00 -0.00000000000E+00 -0.28034787391E+03  0.28034787391E+03  0.00000000000E+00 0. -1.
         25    2    1    2    0    0  0.18658369201E+02 -0.17285724538E+03  0.10668725049E+03  0.23928601120E+03  0.12509142143E+03 0.  0.
         23    2    1    2    0    0 -0.18658369201E+02  0.17285724538E+03 -0.16892239962E+03  0.25917458749E+03  0.91700205467E+02 0.  0.
          5    1    3    3  502    0 -0.10649127845E+02 -0.10622411469E+03  0.12467169413E+03  0.16418730214E+03  0.41800000000E+01 0. -1.
         -5    1    3    3    0  502  0.29307497046E+02 -0.66633130690E+02 -0.17984443644E+02  0.75098709056E+02  0.41800000000E+01 0. -1.
        -11    1    4    4    0    0 -0.37053800991E+02  0.99876968968E+02 -0.14554307552E+03  0.18036402061E+03  0.00000000000E+00 0. -1.
         11    1    4    4    0    0  0.18395431790E+02  0.72980276416E+02 -0.23379324101E+02  0.78810566880E+02  0.00000000000E+00 0.  1.
</event>
<event>
 8    1  0.6832629E-009  0.1254998E+03  0.7561462E-02  0.1234290E+00
          1   -1    0    0  501    0  0.00000000000E+00  0.00000000000E+00  0.10908349327E+04  0.10908349327E+04  0.00000000000E+00 0. -1.
         -1   -1    0    0    0  501 -0.00000000000E+00 -0.00000000000E+00 -0.28326151318E+02  0.28326151318E+02  0.00000000000E+00 0.  1.
         25    2    1    2    0    0 -0.72005980114E+01 -0.12143784166E+03  0.76987448531E+03  0.78939852028E+03  0.12507718692E+03 0.  0.
         23    2    1    2    0    0  0.72005980114E+01  0.12143784166E+03  0.29263429603E+03  0.32976256370E+03  0.91156564247E+02 0.  0.
          5    1    3    3  502    0 -0.19324947742E+02 -0.10616124222E+03  0.29563686901E+03  0.31474163003E+03  0.41800000000E+01 0.  1.
         -5    1    3    3    0  502  0.12124349730E+02 -0.15276599437E+02  0.47423761629E+03  0.47465689024E+03  0.41800000000E+01 0.  1.
        -11    1    4    4    0    0  0.11687233707E+02  0.44853155954E+02  0.27817427410E+02  0.54057435183E+02  0.00000000000E+00 0.  1.
         11    1    4    4    0    0 -0.44866356960E+01  0.76584685705E+02  0.26481686862E+03  0.27570512852E+03  0.00000000000E+00 0. -1.
</event>
<event>
 8    1  0.6832629E-009  0.1394894E+03  0.7561462E-02  0.1214018E+00
         -1   -1    0    0    0  501 -0.00000000000E+00  0.00000000000E+00  0.36235093722E+02  0.36235093722E+02  0.00000000000E+00 0.  1.
          1   -1    0    0  501    0  0.00000000000E+00 -0.00000000000E+00 -0.82137163809E+03  0.82137163809E+03  0.00000000000E+00 0. -1.
         25    2    1    2    0    0 -0.30365031053E+02  0.85038565259E+02 -0.65846109128E+03  0.67629412123E+03  0.12509651073E+03 0.  0.
         23    2    1    2    0    0  0.30365031053E+02 -0.85038565259E+02 -0.12667545310E+03  0.18131261058E+03  0.93134309720E+02 0.  0.
          5    1    3    3  502    0 -0.77543975105E+02  0.70084193289E+02 -0.44339908319E+03  0.45557115975E+03  0.41800000000E+01 0.  1.
         -5    1    3    3    0  502  0.47178944052E+02  0.14954371970E+02 -0.21506200809E+03  0.22072296148E+03  0.41800000000E+01 0.  1.
        -11    1    4    4    0    0 -0.15217572300E+02 -0.76912363974E+02 -0.54215065314E+02  0.95322397923E+02  0.00000000000E+00 0. -1.
         11    1    4    4    0    0  0.45582603353E+02 -0.81262012852E+01 -0.72460387782E+02  0.85990212660E+02  0.00000000000E+00 0.  1.
</event>
<event>
 8    1  0.6832629E-009  0.1121086E+03  0.7561462E-02  0.1256714E+00
         -1   -1    0    0    0  501 -0.00000000000E+00  0.00000000000E+00  0.60110688905E+02  0.60110688905E+02  0.00000000000E+00 0.  1.
          1   -1    0    0  501    0  0.00000000000E+00 -0.00000000000E+00 -0.33639769768E+03  0.33639769768E+03  0.00000000000E+00 0. -1.
         25    2    1    2    0    0 -0.72887335422E+02  0.43892700667E+02 -0.20766582982E+03  0.25692819190E+03  0.12509143089E+03 0.  0.
         23    2    1    2    0    0  0.72887335422E+02 -0.43892700667E+02 -0.68621178956E+02  0.13958019469E+03  0.86802256368E+02 0.  0.
          5    1    3    3  502    0 -0.29340895284E+02 -0.35805246780E+02 -0.24736790567E+02  0.52652493204E+02  0.41800000000E+01 0. -1.
         -5    1    3    3    0  502 -0.43546440137E+02  0.79697947446E+02 -0.18292903926E+03  0.20427569870E+03  0.41800000000E+01 0. -1.
        -11    1    4    4    0    0  0.14595465639E+02 -0.13511567077E+01  0.20313812172E+02  0.25050034064E+02  0.00000000000E+00 0.  1.
         11    1    4    4    0    0  0.58291869783E+02 -0.42541543959E+02 -0.88934991127E+02  0.11453016062E+03  0.00000000000E+00 0. -1.
</event>
<event>
 8    1  0.6832629E-009  0.1051853E+03  0.7561462E-02  0.1269755E+00
          4   -1    0    0  501    0  0.00000000000E+00  0.00000000000E+00  0.56124483914E+03  0.56124483914E+03  0.00000000000E+00 0. -1.
         -4   -1    0    0    0  501 -0.00000000000E+00 -0.00000000000E+00 -0.23806639291E+02  0.23806639291E+02  0.00000000000E+00 0.  1.
         25    2    1    2    0    0 -0.18727862297E+01 -0.12023614049E+02  0.21648728741E+03  0.25032454477E+03  0.12509019740E+03 0.  0.
         23    2    1    2    0    0  0.18727862297E+01  0.12023614049E+02  0.32095091245E+03  0.33472693366E+03  0.94257929614E+02 0.  0.
          5    1    3    3  502    0 -0.26897464349E+02  0.45856952133E+02  0.53609200255E+02  0.75615821091E+02  0.41800000000E+01 0. -1.
         -5    1    3    3    0  502  0.25024678119E+02 -0.57880566182E+02  0.16287808715E+03  0.17470872368E+03  0.41800000000E+01 0. -1.
        -11    1    4    4    0    0  0.20257020211E+02 -0.36617229303E+02  0.16984376950E+03  0.17492305276E+03  0.00000000000E+00 0.  1.
         11    1    4    4    0    0 -0.18384233981E+02  0.48640843352E+02  0.15110714295E+03  0.15980388090E+03  0.00000000000E+00 0. -1.
</event>
<event>
 8    1  0.6832629E-009  0.9031873E+02  0.7561462E-02  0.1302082E+00
         -2   -1    0    0    0  501 -0.00000000000E+00  0.00000000000E+00  0.11750890496E+03  0.11750890496E+03  0.00000000000E+00 0. -1.
          2   -1    0    0  501    0  0.00000000000E+00 -0.00000000000E+00 -0.24660904007E+03  0.24660904007E+03  0.00000000000E+00 0.  1.
         25    2    1    2    0    0 -0.40035028357E+02  0.26065674503E+02  0.61398324237E+02  0.14731454761E+03  0.12509835665E+03 0.  0.
         23    2    1    2    0    0  0.40035028357E+02 -0.26065674503E+02 -0.19049845934E+03  0.21680339742E+03  0.91824981555E+02 0.  0.
          5    1    3    3  502    0  0.16813596765E+02  0.15559490935E+02  0.82428823994E+02  0.85654995297E+02  0.41800000000E+01 0.  1.
         -5    1    3    3    0  502 -0.56848625122E+02  0.10506183568E+02 -0.21030499756E+02  0.61659552313E+02  0.41800000000E+01 0.  1.
        -11    1    4    4    0    0 -0.90593256001E+01  0.26175585394E+02 -0.83789076251E+02  0.88248750416E+02  0.00000000000E+00 0.  1.
         11    1    4    4    0    0  0.49094353957E+02 -0.52241259898E+02 -0.10670938309E+03  0.12855464700E+03  0.00000000000E+00 0. -1.
</event>
<event>
 8    1  0.6832629E-009  0.6523304E+02  0.7561462E-02  0.1377097E+00
         -1   -1    0    0    0  501 -0.00000000000E+00  0.00000000000E+00  0.54168857022E+02  0.54168857022E+02  0.00000000000E+00 0.  1.
          1   -1    0    0  501    0  0.00000000000E+00 -0.00000000000E+00 -0.27261450340E+03  0.27261450340E+03  0.00000000000E+00 0. -1.
         25    2    1    2    0    0  0.41226838844E+02 -0.14308160310E+02 -0.16662261313E+03  0.21287537296E+03  0.12509377887E+03 0.  0.
         23    2    1    2    0    0 -0.41226838844E+02  0.14308160310E+02 -0.51823033243E+02  0.11390798746E+03  0.91569793820E+02 0.  0.
          5    1    3    3  502    0  0.15641299848E+02  0.26914141130E+02 -0.16079193851E+03  0.16383083087E+03  0.41800000000E+01 0. -1.
         -5    1    3    3    0  502  0.25585538996E+02 -0.41222301440E+02 -0.58306746185E+01  0.49044542084E+02  0.41800000000E+01 0. -1.
        -11    1    4    4    0    0 -0.24613051698E+02 -0.47612693770E+01  0.23555487630E+02  0.34399607519E+02  0.00000000000E+00 0.  1.
         11    1    4    4    0    0 -0.16613787146E+02  0.19069429687E+02 -0.75378520873E+02  0.79508379941E+02  0.00000000000E+00 0. -1.
</event>
<event>
 8    1  0.6832629E-009  0.9967086E+02  0.7561462E-02  0.1280990E+00
         -1   -1    0    0    0  501 -0.00000000000E+00  0.00000000000E+00  0.39025481251E+02  0.39025481251E+02  0.00000000000E+00 0.  1.
          1   -1    0    0  501    0  0.00000000000E+00 -0.00000000000E+00 -0.34771184737E+03  0.34771184737E+03  0.00000000000E+00 0. -1.
         25    2    1    2    0    0 -0.12647462751E+02 -0.70858685975E+01 -0.23661497883E+03  0.26803739112E+03  0.12508887634E+03 0.  0.
         23    2    1    2    0    0  0.12647462751E+02  0.70858685975E+01 -0.72071387280E+02  0.11869993749E+03  0.93194540871E+02 0.  0.
          5    1    3    3  502    0  0.41987624071E+02  0.16940243650E+02 -0.18004405163E+03  0.18569670260E+03  0.41800000000E+01 0. -1.
         -5    1    3    3    0  502 -0.54635086821E+02 -0.24026112247E+02 -0.56570927207E+02  0.82340688525E+02  0.41800000000E+01 0. -1.
        -11    1    4    4    0    0  0.11554374259E+02  0.49896920604E+02 -0.43728463689E+02  0.67345265512E+02  0.00000000000E+00 0. -1.
         11    1    4    4    0    0  0.10930884920E+01 -0.42811052007E+02 -0.28342923591E+02  0.51354671979E+02  0.00000000000E+00 0.  1.
</event>
<event>
 8    1  0.6832629E-009  0.7582262E+02  0.7561462E-02  0.1341342E+00
         -1   -1    0    0    0  501 -0.00000000000E+00  0.00000000000E+00  0.71286998904E+02  0.71286998904E+02  0.00000000000E+00 0.  1.
          1   -1    0    0  501    0  0.00000000000E+00 -0.00000000000E+00 -0.18204518723E+03  0.18204518723E+03  0.00000000000E+00 0. -1.
         25    2    1    2    0    0 -0.26400841263E+02  0.14264559872E+02 -0.37728463618E+02  0.13405872793E+03  0.12509126060E+03 0.  0.
         23    2    1    2    0    0  0.26400841263E+02 -0.14264559872E+02 -0.73029724713E+02  0.11927345821E+03  0.89399860478E+02 0.  0.
          5    1    3    3  502    0 -0.50278818126E+02  0.32555875321E+02 -0.68318622420E+02  0.90954665298E+02  0.41800000000E+01 0.  1.
         -5    1    3    3    0  502  0.23877976864E+02 -0.18291315449E+02  0.30590158802E+02  0.43104062633E+02  0.41800000000E+01 0.  1.
        -11    1    4    4    0    0 -0.15976565607E+02 -0.95027757353E+01 -0.74320341485E+02  0.76609833271E+02  0.00000000000E+00 0. -1.
         11    1    4    4    0    0  0.42377406869E+02 -0.47617841371E+01  0.12906167724E+01  0.42663624937E+02  0.00000000000E+00 0.  1.
</event>
<event>
 8    1  0.6832629E-009  0.1313252E+03  0.7561462E-02  0.1225502E+00
         -2   -1    0    0    0  501 -0.00000000000E+00  0.00000000000E+00  0.24078800337E+03  0.24078800337E+03  0.00000000000E+00 0.  1.
          2   -1    0    0  501    0  0.00000000000E+00 -0.00000000000E+00 -0.96371966167E+02  0.96371966167E+02  0.00000000000E+00 0. -1.
         25    2    1    2    0    0 -0.86179033915E+02 -0.62641520722E+02  0.70471860095E+02  0.17878747903E+03  0.12509154084E+03 0.  0.
         23    2    1    2    0    0  0.86179033915E+02  0.62641520722E+02  0.73944177113E+02  0.15837249051E+03  0.90902796522E+02 0.  0.
          5    1    3    3  502    0 -0.88769985943E+02 -0.71082474535E+02  0.64043607884E+01  0.11397945792E+03  0.41800000000E+01 0. -1.
         -5    1    3    3    0  502  0.25909520276E+01  0.84409538127E+01  0.64067499306E+02  0.64808021116E+02  0.41800000000E+01 0. -1.
        -11    1    4    4    0    0  0.80464204598E+02  0.44251313363E+01  0.51942694540E+02  0.95875510559E+02  0.00000000000E+00 0.  1.
         11    1    4    4    0    0  0.57148293177E+01  0.58216389386E+02  0.22001482573E+02  0.62496979948E+02  0.00000000000E+00 0. -1.
</event>
<event>
 8    1  0.6832629E-009  0.1187074E+03  0.7561462E-02  0.1245245E+00
          1   -1    0    0  501    0  0.00000000000E+00  0.00000000000E+00  0.12048328917E+04  0.12048328917E+04  0.00000000000E+00 0. -1.
         -1   -1    0    0    0  501 -0.00000000000E+00 -0.00000000000E+00 -0.19127640872E+02  0.19127640872E+02  0.00000000000E+00 0.  1.
         25    2    1    2    0    0 -0.21361745384E+02  0.57249072007E+02  0.98898035382E+03  0.99873085608E+03  0.12508957683E+03 0.  0.
         23    2    1    2    0    0  0.21361745384E+02 -0.57249072007E+02  0.19672489697E+03  0.22522967646E+03  0.91071080242E+02 0.  0.
          5    1    3    3  502    0  0.20121787377E+02 -0.33252698929E+02  0.24279087558E+03  0.24591768944E+03  0.41800000000E+01 0. -1.
         -5    1    3    3    0  502 -0.41483532761E+02  0.90501770936E+02  0.74618947823E+03  0.75281316664E+03  0.41800000000E+01 0. -1.
        -11    1    4    4    0    0  0.46356539349E+02 -0.13479722244E+02  0.14577531470E+03  0.15356130381E+03  0.00000000000E+00 0. -1.
         11    1    4    4    0    0 -0.24994793965E+02 -0.43769349763E+02  0.50949582277E+02  0.71668372650E+02  0.00000000000E+00 0.  1.
</event>
<event>
 8    1  0.6832629E-009  0.8602735E+02  0.7561462E-02  0.1312768E+00
         -2   -1    0    0    0  501 -0.00000000000E+00  0.00000000000E+00  0.33048134502E+02  0.33048134502E+02  0.00000000000E+00 0.  1.
          2   -1    0    0  501    0  0.00000000000E+00 -0.00000000000E+00 -0.65960407990E+03  0.65960407990E+03  0.00000000000E+00 0. -1.
         25    2    1    2    0    0  0.13561973213E+02 -0.59358449797E+02 -0.52527855182E+03  0.54339010088E+03  0.12509153470E+03 0.  0.
         23    2    1    2    0    0 -0.13561973213E+02  0.59358449797E+02 -0.10127739358E+03  0.14926211352E+03  0.91185061295E+02 0.  0.
          5    1    3    3  502    0  0.27280221076E+01 -0.36032035083E+02 -0.29249560316E+02  0.46677176816E+02  0.41800000000E+01 0.  1.
         -5    1    3    3    0  502  0.10833951105E+02 -0.23326414714E+02 -0.49602899151E+03  0.49671292407E+03  0.41800000000E+01 0.  1.
        -11    1    4    4    0    0  0.15817581022E+02 -0.19709476981E+02 -0.22054288184E+02  0.33541779612E+02  0.00000000000E+00 0. -1.
         11    1    4    4    0    0 -0.29379554235E+02  0.79067926778E+02 -0.79223105392E+02  0.11572033391E+03  0.00000000000E+00 0.  1.
</event>
<event>
 8    1  0.6832629E-009  0.2766180E+03  0.7561462E-02  0.1097551E+00
          2   -1    0    0  501    0  0.00000000000E+00  0.00000000000E+00  0.49048023820E+03  0.49048023820E+03  0.00000000000E+00 0.  1.
         -2   -1    0    0    0  501 -0.00000000000E+00 -0.00000000000E+00 -0.17902273095E+03  0.17902273095E+03  0.00000000000E+00 0. -1.
         25    2    1    2    0    0  0.23517428277E+03 -0.13492144738E+03  0.10493608618E+03  0.31649563499E+03  0.12508862675E+03 0.  0.
         23    2    1    2    0    0 -0.23517428277E+03  0.13492144738E+03  0.20652142107E+03  0.35300733416E+03  0.91936610623E+02 0.  0.
          5    1    3    3  502    0  0.12213058691E+03 -0.68411373992E+02  0.11997601446E+03  0.18441180221E+03  0.41800000000E+01 0. -1.
         -5    1    3    3    0  502  0.11304369587E+03 -0.66510073384E+02 -0.15039928284E+02  0.13208383277E+03  0.41800000000E+01 0. -1.
        -11    1    4    4    0    0 -0.14209331277E+03  0.12335278332E+03  0.16565205281E+03  0.25069308185E+03  0.00000000000E+00 0.  1.
         11    1    4    4    0    0 -0.93080970005E+02  0.11568664058E+02  0.40869368257E+02  0.10231425232E+03  0.00000000000E+00 0. -1.
</event>
<event>
 8    1  0.6832629E-009  0.1515135E+03  0.7561462E-02  0.1198625E+00
         -1   -1    0    0    0  501 -0.00000000000E+00  0.00000000000E+00  0.11600528978E+04  0.11600528978E+04  0.00000000000E+00 0.  1.
          1   -1    0    0  501    0  0.00000000000E+00 -0.00000000000E+00 -0.21102307653E+02  0.21102307653E+02  0.00000000000E+00 0. -1.
         25    2    1    2    0    0 -0.10677956070E+03  0.33492953153E+02  0.56797833290E+03  0.59225842025E+03  0.12508795792E+03 0.  0.
         23    2    1    2    0    0  0.10677956070E+03 -0.33492953153E+02  0.57097225725E+03  0.58889678520E+03  0.90920034002E+02 0.  0.
          5    1    3    3  502    0 -0.95352815997E+02  0.72198181236E+02  0.48944544472E+03  0.50386412122E+03  0.41800000000E+01 0. -1.
         -5    1    3    3    0  502 -0.11426744707E+02 -0.38705228083E+02  0.78532888178E+02  0.88394299030E+02  0.41800000000E+01 0. -1.
        -11    1    4    4    0    0  0.12164577890E+03 -0.21180047519E+02  0.51811673455E+03  0.53262673661E+03  0.00000000000E+00 0.  1.
         11    1    4    4    0    0 -0.14866218196E+02 -0.12312905634E+02  0.52855522702E+02  0.56270048593E+02  0.00000000000E+00 0. -1.
</event>
<event>
 8    1  0.6832629E-009  0.1128626E+03  0.7561462E-02  0.1255359E+00
         -2   -1    0    0    0  501 -0.00000000000E+00  0.00000000000E+00  0.39349053022E+02  0.39349053022E+02  0.00000000000E+00 0.  1.
          2   -1    0    0  501    0  0.00000000000E+00 -0.00000000000E+00 -0.52786418476E+03  0.52786418476E+03  0.00000000000E+00 0. -1.
         25    2    1    2    0    0  0.92106278989E+02  0.14711775628E+02 -0.28589155665E+03  0.32570241167E+03  0.12509226928E+03 0.  0.
         23    2    1    2    0    0 -0.92106278989E+02 -0.14711775628E+02 -0.20262357509E+03  0.24151082611E+03  0.92580575582E+02 0.  0.
          5    1    3    3  502    0  0.20399825819E+02  0.43280786418E+02 -0.26118631347E+02  0.54672064803E+02  0.41800000000E+01 0. -1.
         -5    1    3    3    0  502  0.71706453170E+02 -0.28569010790E+02 -0.25977292530E+03  0.27103034687E+03  0.41800000000E+01 0. -1.
        -11    1    4    4    0    0 -0.37650046403E+02 -0.24700860003E+02 -0.17541945174E+02  0.48325752136E+02  0.00000000000E+00 0.  1.
         11    1    4    4    0    0 -0.54456232586E+02  0.99890843747E+01 -0.18508162992E+03  0.19318507397E+03  0.00000000000E+00 0. -1.
</event>
<event>
 8    1  0.6832629E-009  0.1780953E+03  0.7561462E-02  0.1169659E+00
          1   -1    0    0  501    0  0.00000000000E+00  0.00000000000E+00  0.48481005757E+03  0.48481005757E+03  0.00000000000E+00 0. -1.
         -1   -1    0    0    0  501 -0.00000000000E+00 -0.00000000000E+00 -0.96010877663E+02  0.96010877663E+02  0.00000000000E+00 0.  1.
         25    2    1    2    0    0 -0.37619822250E+02  0.14071293480E+03  0.45813207312E+02  0.19738379423E+03  0.12508449630E+03 0.  0.
         23    2    1    2    0    0  0.37619822250E+02 -0.14071293480E+03  0.34298597260E+03  0.38343714101E+03  0.90384084103E+02 0.  0.
          5    1    3    3  502    0 -0.61192509868E+02  0.13837361604E+02  0.15467697948E+02  0.64751200142E+02  0.41800000000E+01 0.  1.
         -5    1    3    3    0  502  0.23572687618E+02  0.12687557320E+03  0.30345509364E+02  0.13263259409E+03  0.41800000000E+01 0.  1.
        -11    1    4    4    0    0 -0.22913647851E+02 -0.27289764657E+02  0.36174512825E+02  0.50777572716E+02  0.00000000000E+00 0.  1.
         11    1    4    4    0    0  0.60533470101E+02 -0.11342317014E+03  0.30681145977E+03  0.33265956829E+03  0.00000000000E+00 0. -1.
</event>
<event>
 8    1  0.6832629E-009  0.2314987E+03  0.7561462E-02  0.1125589E+00
          3   -1    0    0  501    0  0.00000000000E+00  0.00000000000E+00  0.24688697908E+03  0.24688697908E+03  0.00000000000E+00 0. -1.
         -3   -1    0    0    0  501 -0.00000000000E+00 -0.00000000000E+00 -0.24241787619E+03  0.24241787619E+03  0.00000000000E+00 0.  1.
         25    2    1    2    0    0  0.20320209313E+03 -0.73468684732E+02  0.17034490644E+02  0.25025238104E+03  0.12508933630E+03 0.  0.
         23    2    1    2    0    0 -0.20320209313E+03  0.73468684732E+02 -0.12565387754E+02  0.23905247424E+03  0.10148624626E+03 0.  0.
          5    1    3    3  502    0  0.13993485736E+03  0.11972737492E+02 -0.87316312292E+01  0.14077934697E+03  0.41800000000E+01 0.  1.
         -5    1    3    3    0  502  0.63267235769E+02 -0.85441422224E+02  0.25766121873E+02  0.10947303408E+03  0.41800000000E+01 0.  1.
        -11    1    4    4    0    0 -0.29471028698E+02  0.11635881076E+02  0.36397158410E+02  0.48256485587E+02  0.00000000000E+00 0. -1.
         11    1    4    4    0    0 -0.17373106443E+03  0.61832803656E+02 -0.48962546164E+02  0.19079598865E+03  0.00000000000E+00 0.  1.
</event>
<event>
 8    1  0.6832629E-009  0.1154604E+03  0.7561462E-02  0.1250780E+00
         -1   -1    0    0    0  501 -0.00000000000E+00  0.00000000000E+00  0.71629955004E+03  0.71629955004E+03  0.00000000000E+00 0.  1.
          1   -1    0    0  501    0  0.00000000000E+00 -0.00000000000E+00 -0.26377602594E+02  0.26377602594E+02  0.00000000000E+00 0. -1.
         25    2    1    2    0    0  0.49017601167E+02  0.68368316129E+02  0.36128862005E+03  0.39147680988E+03  0.12509066242E+03 0.  0.
         23    2    1    2    0    0 -0.49017601167E+02 -0.68368316129E+02  0.32863332740E+03  0.35120034276E+03  0.90911302915E+02 0.  0.
          5    1    3    3  502    0 -0.36112262621E+02  0.46135335012E+01  0.15587194879E+03  0.16012156951E+03  0.41800000000E+01 0.  1.
         -5    1    3    3    0  502  0.85129863788E+02  0.63754782628E+02  0.20541667125E+03  0.23135524037E+03  0.41800000000E+01 0.  1.
        -11    1    4    4    0    0 -0.79116604378E+00 -0.18309796149E+02  0.34221510408E+01  0.18643650299E+02  0.00000000000E+00 0. -1.
         11    1    4    4    0    0 -0.48226435123E+02 -0.50058519980E+02  0.32521117636E+03  0.33255669246E+03  0.00000000000E+00 0.  1.
</event>
<event>
 8    1  0.6832629E-009  0.1108582E+03  0.7561462E-02  0.1258989E+00
         -2   -1    0    0    0  501 -0.00000000000E+00  0.00000000000E+00  0.16629064781E+02  0.16629064781E+02  0.00000000000E+00 0.  1.
          2   -1    0    0  501    0  0.00000000000E+00 -0.00000000000E+00 -0.11540442125E+04  0.11540442125E+04  0.00000000000E+00 0. -1.
         25    2    1    2    0    0 -0.41960267009E+02 -0.49681858615E+02 -0.85761294329E+03  0.86912493731E+03  0.12509694270E+03 0.  0.
         23    2    1    2    0    0  0.41960267009E+02  0.49681858615E+02 -0.27980220447E+03  0.30154834001E+03  0.91723370280E+02 0.  0.
          5    1    3    3  502    0 -0.30180022000E+02  0.36842663407E+02 -0.19527143442E+03  0.20103885464E+03  0.41800000000E+01 0. -1.
         -5    1    3    3    0  502 -0.11780245009E+02 -0.86524522022E+02 -0.66234150887E+03  0.66808608267E+03  0.41800000000E+01 0. -1.
        -11    1    4    4    0    0  0.14686350063E+02  0.56495083022E+02 -0.26165649353E+03  0.26808861201E+03  0.00000000000E+00 0. -1.
         11    1    4    4    0    0  0.27273916946E+02 -0.68132244073E+01 -0.18145710939E+02  0.33459728001E+02  0.00000000000E+00 0.  1.
</event>
<event>
 8    1  0.6832629E-009  0.1028570E+03  0.7561462E-02  0.1274400E+00
         -1   -1    0    0    0  501 -0.00000000000E+00  0.00000000000E+00  0.39677978445E+03  0.39677978445E+03  0.00000000000E+00 0.  1.
          1   -1    0    0  501    0  0.00000000000E+00 -0.00000000000E+00 -0.33544089517E+02  0.33544089517E+02  0.00000000000E+00 0. -1.
         25    2    1    2    0    0 -0.27340572567E+02 -0.87847891177E+01  0.25900522821E+03  0.28906015626E+03  0.12508951303E+03 0.  0.
         23    2    1    2    0    0  0.27340572567E+02  0.87847891177E+01  0.10423046673E+03  0.14126371771E+03  0.90921770323E+02 0.  0.
          5    1    3    3  502    0  0.47275176140E+02 -0.11653252076E+02  0.14220730471E+03  0.15036997864E+03  0.41800000000E+01 0. -1.
         -5    1    3    3    0  502 -0.74615748707E+02  0.28684629586E+01  0.11679792349E+03  0.13869017762E+03  0.41800000000E+01 0. -1.
        -11    1    4    4    0    0  0.70956998485E+01 -0.33995534190E+02  0.81844829394E+02  0.88907937776E+02  0.00000000000E+00 0.  1.
         11    1    4    4    0    0  0.20244872719E+02  0.42780323307E+02  0.22385637338E+02  0.52355779936E+02  0.00000000000E+00 0. -1.
</event>
<event>
 8    1  0.6832629E-009  0.7476974E+02  0.7561462E-02  0.1344586E+00
          2   -1    0    0  501    0  0.00000000000E+00  0.00000000000E+00  0.16490919213E+03  0.16490919213E+03  0.00000000000E+00 0. -1.
         -2   -1    0    0    0  501 -0.00000000000E+00 -0.00000000000E+00 -0.74454589671E+02  0.74454589671E+02  0.00000000000E+00 0.  1.
         25    2    1    2    0    0  0.85325381451E+01 -0.18746392773E+02  0.57688719171E+02  0.13928159903E+03  0.12508854488E+03 0.  0.
         23    2    1    2    0    0 -0.85325381451E+01  0.18746392773E+02  0.32765883284E+02  0.10008218277E+03  0.92296309517E+02 0.  0.
          5    1    3    3  502    0 -0.13304344334E+02  0.24041950498E+02  0.81062719646E+02  0.85695145010E+02  0.41800000000E+01 0. -1.
         -5    1    3    3    0  502  0.21836882479E+02 -0.42788343271E+02 -0.23374000475E+02  0.53586454021E+02  0.41800000000E+01 0. -1.
        -11    1    4    4    0    0  0.21818729638E+02 -0.16247233408E+02  0.44627687064E+02  0.52265284933E+02  0.00000000000E+00 0. -1.
         11    1    4    4    0    0 -0.30351267783E+02  0.34993626182E+02 -0.11861803780E+02  0.47816897833E+02  0.00000000000E+00 0.  1.
</event>
<event>
 8    1  0.6832629E-009  0.1046684E+03  0.7561462E-02  0.1270774E+00
          2   -1    0    0  501    0  0.00000000000E+00  0.00000000000E+00  0.38399858121E+03  0.38399858121E+03  0.00000000000E+00 0. -1.
         -2   -1    0    0    0  501 -0.00000000000E+00 -0.00000000000E+00 -0.37717146348E+02  0.37717146348E+02  0.00000000000E+00 0.  1.
         25    2    1    2    0    0 -0.36079157519E+02  0.35539503361E+02  0.21963805566E+03  0.25778422435E+03  0.12508824455E+03 0.  0.
         23    2    1    2    0    0  0.36079157519E+02 -0.35539503361E+02  0.12664337920E+03  0.16393150320E+03  0.90940806797E+02 0.  0.
          5    1    3    3  502    0  0.33184927305E+02  0.54504836930E+01  0.15386384462E+03  0.15755158601E+03  0.41800000000E+01 0. -1.
         -5    1    3    3    0  502 -0.69264084824E+02  0.30089019668E+02  0.65774211036E+02  0.10023263834E+03  0.41800000000E+01 0. -1.
        -11    1    4    4    0    0  0.64574412433E+02 -0.21581032013E+02  0.10631542047E+03  0.12624802697E+03  0.00000000000E+00 0.  1.
         11    1    4    4    0    0 -0.28495254914E+02 -0.13958471347E+02  0.20327958731E+02  0.37683476235E+02  0.00000000000E+00 0. -1.
</event>
<event>
 8    1  0.6832629E-009  0.8858172E+02  0.7561462E-02  0.1306323E+00
          2   -1    0    0  501    0  0.00000000000E+00  0.00000000000E+00  0.14420298925E+03  0.14420298925E+03  0.00000000000E+00 0. -1.
         -2   -1    0    0    0  501 -0.00000000000E+00 -0.00000000000E+00 -0.12682138907E+03  0.12682138907E+03  0.00000000000E+00 0.  1.
         25    2    1    2    0    0 -0.61372258712E+02  0.27751654421E+02 -0.31024752660E+02  0.14541942913E+03  0.12509023395E+03 0.  0.
         23    2    1    2    0    0  0.61372258712E+02 -0.27751654421E+02  0.48406352844E+02  0.12560494918E+03  0.94322424701E+02 0.  0.
          5    1    3    3  502    0 -0.37698722299E+02  0.85833624744E+01 -0.79220873538E+02  0.88251271824E+02  0.41800000000E+01 0.  1.
         -5    1    3    3    0  502 -0.23673536413E+02  0.19168291947E+02  0.48196120879E+02  0.57168157310E+02  0.41800000000E+01 0.  1.
        -11    1    4    4    0    0  0.53104913777E+02  0.21716844690E+02  0.48994744250E+02  0.75446922897E+02  0.00000000000E+00 0. -1.
         11    1    4    4    0    0  0.82673449347E+01 -0.49468499111E+02 -0.58839140641E+00  0.50158026287E+02  0.00000000000E+00 0.  1.
</event>
<event>
 8    1  0.6832629E-009  0.1088523E+03  0.7561462E-02  0.1262710E+00
          2   -1    0    0  501    0  0.00000000000E+00  0.00000000000E+00  0.70072038802E+03  0.70072038802E+03  0.00000000000E+00 0. -1.
         -2   -1    0    0    0  501 -0.00000000000E+00 -0.00000000000E+00 -0.27562077993E+02  0.27562077993E+02  0.00000000000E+00 0.  1.
         25    2    1    2    0    0  0.26647234237E+01 -0.59659522273E+02  0.53189579395E+03  0.54966088362E+03  0.12509033538E+03 0.  0.
         23    2    1    2    0    0 -0.26647234237E+01  0.59659522273E+02  0.14126251607E+03  0.17862158239E+03  0.91565342245E+02 0.  0.
          5    1    3    3  502    0 -0.37563955862E+02  0.14313357163E+01  0.52538819420E+02  0.64737156626E+02  0.41800000000E+01 0. -1.
         -5    1    3    3    0  502  0.40228679286E+02 -0.61090857990E+02  0.47935697453E+03  0.48492372699E+03  0.41800000000E+01 0. -1.
        -11    1    4    4    0    0 -0.14172503386E+02 -0.20892412326E+02  0.18328058595E+02  0.31197283165E+02  0.00000000000E+00 0. -1.
         11    1    4    4    0    0  0.11507779962E+02  0.80551934599E+02  0.12293445748E+03  0.14742429923E+03  0.00000000000E+00 0.  1.
</event>
<event>
 8    1  0.6832629E-009  0.1051204E+03  0.7561462E-02  0.1269883E+00
         -1   -1    0    0    0  501 -0.00000000000E+00  0.00000000000E+00  0.24680772235E+02  0.24680772235E+02  0.00000000000E+00 0.  1.
          1   -1    0    0  501    0  0.00000000000E+00 -0.00000000000E+00 -0.76081044124E+03  0.76081044124E+03  0.00000000000E+00 0. -1.
         25    2    1    2    0    0  0.62018367623E+02 -0.39134878557E+01 -0.56285948214E+03  0.57993155516E+03  0.12509284042E+03 0.  0.
         23    2    1    2    0    0 -0.62018367623E+02  0.39134878557E+01 -0.17327018686E+03  0.20555965832E+03  0.91491104276E+02 0.  0.
          5    1    3    3  502    0  0.10002314354E+03 -0.11246791863E+02 -0.40845720457E+03  0.42069689794E+03  0.41800000000E+01 0. -1.
         -5    1    3    3    0  502 -0.38004775920E+02  0.73333040068E+01 -0.15440227757E+03  0.15923465722E+03  0.41800000000E+01 0. -1.
        -11    1    4    4    0    0 -0.54905244692E+02 -0.91813161392E+01 -0.18057691722E+03  0.18896270926E+03  0.00000000000E+00 0. -1.
         11    1    4    4    0    0 -0.71131229315E+01  0.13094803995E+02  0.73067303513E+01  0.16596949055E+02  0.00000000000E+00 0.  1.
</event>
<event>
 8    1  0.6832629E-009  0.1419991E+03  0.7561462E-02  0.1210664E+00
          2   -1    0    0  501    0  0.00000000000E+00  0.00000000000E+00  0.12511722886E+03  0.12511722886E+03  0.00000000000E+00 0. -1.
         -2   -1    0    0    0  501 -0.00000000000E+00 -0.00000000000E+00 -0.25114159925E+03  0.25114159925E+03  0.00000000000E+00 0.  1.
         25    2    1    2    0    0 -0.52603702193E+02 -0.10612261676E+03 -0.14674183228E+03  0.22629750967E+03  0.12509291854E+03 0.  0.
         23    2    1    2    0    0  0.52603702193E+02  0.10612261676E+03  0.20717461895E+02  0.14996131843E+03  0.89610404122E+02 0.  0.
          5    1    3    3  502    0 -0.49625776447E+02 -0.13525592733E+02  0.12823860446E+01  0.51621470928E+02  0.41800000000E+01 0. -1.
         -5    1    3    3    0  502 -0.29779257462E+01 -0.92597024026E+02 -0.14802421833E+03  0.17467603874E+03  0.41800000000E+01 0. -1.
        -11    1    4    4    0    0  0.57335078593E+02  0.32553007552E+02  0.35336433939E+02  0.74804231842E+02  0.00000000000E+00 0.  1.
         11    1    4    4    0    0 -0.47313763992E+01  0.73569609207E+02 -0.14618972044E+02  0.75157086592E+02  0.00000000000E+00 0. -1.
</event>
<event>
 8    1  0.6832629E-009  0.1315320E+03  0.7561462E-02  0.1225200E+00
          1   -1    0    0  501    0  0.00000000000E+00  0.00000000000E+00  0.88106411967E+03  0.88106411967E+03  0.00000000000E+00 0. -1.
         -1   -1    0    0    0  501 -0.00000000000E+00 -0.00000000000E+00 -0.28126642360E+02  0.28126642360E+02  0.00000000000E+00 0.  1.
         25    2    1    2    0    0  0.12954655012E+02 -0.10529634365E+03  0.57221959385E+03  0.59526281059E+03  0.12508959594E+03 0.  0.
         23    2    1    2    0    0 -0.12954655012E+02  0.10529634365E+03  0.28071788346E+03  0.31392795144E+03  0.92157937967E+02 0.  0.
          5    1    3    3  502    0 -0.47866700301E+02 -0.23463640571E+02  0.29611324116E+03  0.30090245499E+03  0.41800000000E+01 0. -1.
         -5    1    3    3    0  502  0.60821355312E+02 -0.81832703074E+02  0.27610635269E+03  0.29436035560E+03  0.41800000000E+01 0. -1.
        -11    1    4    4    0    0 -0.15822249445E+02  0.56713536510E+02  0.47398575681E+02  0.75586994765E+02  0.00000000000E+00 0.  1.
         11    1    4    4    0    0  0.28675944334E+01  0.48582807135E+02  0.23331930778E+03  0.23834095668E+03  0.00000000000E+00 0. -1.
</event>
<event>
 8    1  0.6832629E-009  0.1670358E+03  0.7561462E-02  0.1180975E+00
         -2   -1    0    0    0  501 -0.00000000000E+00  0.00000000000E+00  0.10478269217E+03  0.10478269217E+03  0.00000000000E+00 0.  1.
          2   -1    0    0  501    0  0.00000000000E+00 -0.00000000000E+00 -0.38800457484E+03  0.38800457484E+03  0.00000000000E+00 0. -1.
         25    2    1    2    0    0  0.12697296822E+03  0.83754089662E+02 -0.56583170995E+02  0.20490778180E+03  0.12509461063E+03 0.  0.
         23    2    1    2    0    0 -0.12697296822E+03 -0.83754089662E+02 -0.22663871168E+03  0.28787948521E+03  0.91501968167E+02 0.  0.
          5    1    3    3  502    0  0.72826956970E+02  0.79909006591E+02 -0.90249830986E+02  0.14089612979E+03  0.41800000000E+01 0. -1.
         -5    1    3    3    0  502  0.54146011254E+02  0.38450830711E+01  0.33666659991E+02  0.64011652013E+02  0.41800000000E+01 0. -1.
        -11    1    4    4    0    0 -0.93528142580E+02 -0.97649541861E+02 -0.20535112387E+03  0.24586994643E+03  0.00000000000E+00 0. -1.
         11    1    4    4    0    0 -0.33444825644E+02  0.13895452199E+02 -0.21287587808E+02  0.42009538784E+02  0.00000000000E+00 0.  1.
</event>
<event>
 8    1  0.6832629E-009  0.1384177E+03  0.7561462E-02  0.1215474E+00
         -1   -1    0    0    0  501 -0.00000000000E+00  0.00000000000E+00  0.63370733868E+02  0.63370733868E+02  0.00000000000E+00 0.  1.
          1   -1    0    0  501    0  0.00000000000E+00 -0.00000000000E+00 -0.33698815983E+03  0.33698815983E+03  0.00000000000E+00 0. -1.
         25    2    1    2    0    0  0.22500959889E+02  0.96274708915E+02 -0.12121131179E+03  0.20027865658E+03  0.12507695791E+03 0.  0.
         23    2    1    2    0    0 -0.22500959889E+02 -0.96274708915E+02 -0.15240611417E+03  0.20008023712E+03  0.83841307702E+02 0.  0.
          5    1    3    3  502    0  0.99578800940E+01 -0.27650329241E+02 -0.54475584192E+01  0.30180264674E+02  0.41800000000E+01 0. -1.
         -5    1    3    3    0  502  0.12543079795E+02  0.12392503816E+03 -0.11576375338E+03  0.17009839190E+03  0.41800000000E+01 0. -1.
        -11    1    4    4    0    0 -0.48703465802E+02 -0.71135362400E+02 -0.73769493621E+02  0.11346455638E+03  0.00000000000E+00 0.  1.
         11    1    4    4    0    0  0.26202505913E+02 -0.25139346515E+02 -0.78636620545E+02  0.86615680740E+02  0.00000000000E+00 0. -1.
</event>
<event>
 8    1  0.6832629E-009  0.1559123E+03  0.7561462E-02  0.1193391E+00
          1   -1    0    0  501    0  0.00000000000E+00  0.00000000000E+00  0.56049524684E+03  0.56049524684E+03  0.00000000000E+00 0. -1.
         -1   -1    0    0    0  501 -0.00000000000E+00 -0.00000000000E+00 -0.49674340786E+02  0.49674340786E+02  0.00000000000E+00 0.  1.
         25    2    1    2    0    0  0.12015211581E+03 -0.43323988161E+01  0.20080648447E+03  0.26537542503E+03  0.12508225851E+03 0.  0.
         23    2    1    2    0    0 -0.12015211581E+03  0.43323988161E+01  0.31001442159E+03  0.34479416260E+03  0.91207304296E+02 0.  0.
          5    1    3    3  502    0  0.34756746256E+02 -0.58968115786E+02  0.10762335234E+03  0.12761476584E+03  0.41800000000E+01 0.  1.
         -5    1    3    3    0  502  0.85395369550E+02  0.54635716970E+02  0.93183132125E+02  0.13776065920E+03  0.41800000000E+01 0.  1.
        -11    1    4    4    0    0 -0.55657729127E+02 -0.35467596772E+02  0.86642343631E+02  0.10891569649E+03  0.00000000000E+00 0. -1.
         11    1    4    4    0    0 -0.64494386678E+02  0.39799995588E+02  0.22337207796E+03  0.23587846610E+03  0.00000000000E+00 0.  1.
</event>
<event>
 8    1  0.6832629E-009  0.2267306E+03  0.7561462E-02  0.1128962E+00
         -2   -1    0    0    0  501 -0.00000000000E+00  0.00000000000E+00  0.90046819561E+02  0.90046819561E+02  0.00000000000E+00 0.  1.
          2   -1    0    0  501    0  0.00000000000E+00 -0.00000000000E+00 -0.76995665937E+03  0.76995665937E+03  0.00000000000E+00 0. -1.
         25    2    1    2    0    0  0.22042805485E+01  0.21622503593E+03 -0.17973537442E+03  0.30775125072E+03  0.12509157640E+03 0.  0.
         23    2    1    2    0    0 -0.22042805485E+01 -0.21622503593E+03 -0.50017446539E+03  0.55225222821E+03  0.89721250142E+02 0.  0.
          5    1    3    3  502    0 -0.37818879069E+02  0.80956115891E+02 -0.13063526591E+03  0.15832626255E+03  0.41800000000E+01 0.  1.
         -5    1    3    3    0  502  0.40023159618E+02  0.13526892004E+03 -0.49100108515E+02  0.14942498817E+03  0.41800000000E+01 0.  1.
        -11    1    4    4    0    0 -0.13011630191E+02 -0.10094847445E+02 -0.75212288051E+01  0.18104622280E+02  0.00000000000E+00 0.  1.
         11    1    4    4    0    0  0.10807349642E+02 -0.20613018848E+03 -0.49265323658E+03  0.53414760593E+03  0.00000000000E+00 0. -1.
</event>
<event>
 8    1  0.6832629E-009  0.1237127E+03  0.7561462E-02  0.1237095E+00
          2   -1    0    0  501    0  0.00000000000E+00  0.00000000000E+00  0.32823152325E+03  0.32823152325E+03  0.00000000000E+00 0. -1.
         -2   -1    0    0    0  501 -0.00000000000E+00 -0.00000000000E+00 -0.48041185262E+02  0.48041185262E+02  0.00000000000E+00 0.  1.
         25    2    1    2    0    0 -0.56620675186E+02 -0.21964630938E+02  0.18152415483E+03  0.22866162519E+03  0.12508706640E+03 0.  0.
         23    2    1    2    0    0  0.56620675186E+02  0.21964630938E+02  0.98666183160E+02  0.14761108332E+03  0.91464038549E+02 0.  0.
          5    1    3    3  502    0  0.38985543544E+02 -0.14281376884E+02  0.70119339182E+02  0.81596718429E+02  0.41800000000E+01 0.  1.
         -5    1    3    3    0  502 -0.95606218730E+02 -0.76832540542E+01  0.11140481564E+03  0.14706490676E+03  0.41800000000E+01 0.  1.
        -11    1    4    4    0    0  0.58222710618E+02 -0.24522541929E+02  0.59922067740E+02  0.87074067876E+02  0.00000000000E+00 0.  1.
         11    1    4    4    0    0 -0.16020354316E+01  0.46487172867E+02  0.38744115420E+02  0.60537015440E+02  0.00000000000E+00 0. -1.
</event>
<event>
 8    1  0.6832629E-009  0.8187564E+02  0.7561462E-02  0.1323811E+00
          2   -1    0    0  501    0  0.00000000000E+00  0.00000000000E+00  0.17812523957E+03  0.17812523957E+03  0.00000000000E+00 0. -1.
         -2   -1    0    0    0  501 -0.00000000000E+00 -0.00000000000E+00 -0.19815577128E+03  0.19815577128E+03  0.00000000000E+00 0.  1.
         25    2    1    2    0    0  0.69159509280E+01 -0.90197831381E+01 -0.16332952557E+03  0.20604404243E+03  0.12509367145E+03 0.  0.
         23    2    1    2    0    0 -0.69159509280E+01  0.90197831381E+01  0.14329899386E+03  0.17023696841E+03  0.91196693526E+02 0.  0.
          5    1    3    3  502    0 -0.51251259604E+02  0.18994593266E+02 -0.10715580157E+03  0.12036330169E+03  0.41800000000E+01 0.  1.
         -5    1    3    3    0  502  0.58167210532E+02 -0.28014376404E+02 -0.56173723998E+02  0.85680740743E+02  0.41800000000E+01 0.  1.
        -11    1    4    4    0    0 -0.51295537215E+01  0.26334861672E+02  0.14940136121E+03  0.15179131725E+03  0.00000000000E+00 0. -1.
         11    1    4    4    0    0 -0.17863972065E+01 -0.17315078534E+02 -0.61023673545E+01  0.18445651166E+02  0.00000000000E+00 0.  1.
</event>
<event>
 8    1  0.6832629E-009  0.1075682E+03  0.7561462E-02  0.1265141E+00
         -1   -1    0    0    0  501 -0.00000000000E+00  0.00000000000E+00  0.45041103960E+02  0.45041103960E+02  0.00000000000E+00 0.  1.
          1   -1    0    0  501    0  0.00000000000E+00 -0.00000000000E+00 -0.28190366652E+03  0.28190366652E+03  0.00000000000E+00 0. -1.
         25    2    1    2    0    0  0.62342077880E+01 -0.14499638241E+02 -0.17851612808E+03  0.21854868145E+03  0.12508562396E+03 0.  0.
         23    2    1    2    0    0 -0.62342077880E+01  0.14499638241E+02 -0.58346434483E+02  0.10839608903E+03  0.89979446793E+02 0.  0.
          5    1    3    3  502    0 -0.57652419734E+02 -0.21497895112E+02 -0.87730027576E+02  0.10723801161E+03  0.41800000000E+01 0. -1.
         -5    1    3    3    0  502  0.63886627522E+02  0.69982568715E+01 -0.90786100500E+02  0.11131066984E+03  0.41800000000E+01 0. -1.
        -11    1    4    4    0    0 -0.46831888863E+02  0.12211068494E+02 -0.19556977396E+02  0.52199725796E+02  0.00000000000E+00 0.  1.
         11    1    4    4    0    0  0.40597681075E+02  0.22885697472E+01 -0.38789457087E+02  0.56196363239E+02  0.00000000000E+00 0. -1.
</event>
<event>
 8    1  0.6832629E-009  0.1048890E+03  0.7561462E-02  0.1270339E+00
          1   -1    0    0  501    0  0.00000000000E+00  0.00000000000E+00  0.23362138128E+03  0.23362138128E+03  0.00000000000E+00 0.  1.
         -1   -1    0    0    0  501 -0.00000000000E+00 -0.00000000000E+00 -0.59874679846E+02  0.59874679846E+02  0.00000000000E+00 0. -1.
         25    2    1    2    0    0 -0.24451581522E+02  0.52194823136E+01  0.47023300938E+02  0.13595320553E+03  0.12508781087E+03 0.  0.
         23    2    1    2    0    0  0.24451581522E+02 -0.52194823136E+01  0.12672340049E+03  0.15754285559E+03  0.90198715520E+02 0.  0.
          5    1    3    3  502    0 -0.67344951492E+02  0.32694298011E+02  0.17736889998E+02  0.77047578032E+02  0.41800000000E+01 0. -1.
         -5    1    3    3    0  502  0.42893369970E+02 -0.27474815697E+02  0.29286410940E+02  0.58905627496E+02  0.41800000000E+01 0. -1.
        -11    1    4    4    0    0  0.52739380544E+02  0.63654346962E+01  0.11124838828E+03  0.12328083757E+03  0.00000000000E+00 0.  1.
         11    1    4    4    0    0 -0.28287799022E+02 -0.11584917010E+02  0.15475012218E+02  0.34262018020E+02  0.00000000000E+00 0. -1.
</event>
<event>
 8    1  0.6832629E-009  0.9586497E+02  0.7561462E-02  0.1289240E+00
          2   -1    0    0  501    0  0.00000000000E+00  0.00000000000E+00  0.60488530992E+02  0.60488530992E+02  0.00000000000E+00 0. -1.
         -2   -1    0    0    0  501 -0.00000000000E+00 -0.00000000000E+00 -0.21566197851E+03  0.21566197851E+03  0.00000000000E+00 0.  1.
         25    2    1    2    0    0 -0.18884832208E+02  0.17762682983E+00 -0.12463486242E+03  0.17759893834E+03  0.12510341933E+03 0.  0.
         23    2    1    2    0    0  0.18884832208E+02 -0.17762682983E+00 -0.30538585095E+02  0.98551571164E+02  0.91777658286E+02 0.  0.
          5    1    3    3  502    0 -0.51259796290E+01 -0.61898421498E+02 -0.53324657643E+02  0.81967565316E+02  0.41800000000E+01 0.  1.
         -5    1    3    3    0  502 -0.13758852579E+02  0.62076048328E+02 -0.71310204780E+02  0.95631373022E+02  0.41800000000E+01 0.  1.
        -11    1    4    4    0    0  0.29940717206E+02 -0.24729562955E+02  0.18187135706E+02  0.42880878442E+02  0.00000000000E+00 0. -1.
         11    1    4    4    0    0 -0.11055884998E+02  0.24551936125E+02 -0.48725720801E+02  0.55670692722E+02  0.00000000000E+00 0.  1.
</event>
<event>
 8    1  0.6832629E-009  0.1086433E+03  0.7561462E-02  0.1263103E+00
         -1   -1    0    0    0  501 -0.00000000000E+00  0.00000000000E+00  0.78764080548E+02  0.78764080548E+02  0.00000000000E+00 0.  1.
          1   -1    0    0  501    0  0.00000000000E+00 -0.00000000000E+00 -0.16753093280E+03  0.16753093280E+03  0.00000000000E+00 0. -1.
         25    2    1    2    0    0  0.37999375861E+01 -0.34287091302E+02 -0.67042115868E+02  0.14605579397E+03  0.12509038930E+03 0.  0.
         23    2    1    2    0    0 -0.37999375861E+01  0.34287091302E+02 -0.21724736388E+02  0.10023921938E+03  0.91574520341E+02 0.  0.
          5    1    3    3  502    0  0.57632830001E+02  0.55935872881E+01 -0.50443033878E+02  0.76907758903E+02  0.41800000000E+01 0.  1.
         -5    1    3    3    0  502 -0.53832892415E+02 -0.39880678590E+02 -0.16599081989E+02  0.69148035066E+02  0.41800000000E+01 0.  1.
        -11    1    4    4    0    0 -0.46347324401E+01 -0.28721022663E+02  0.85600776862E+01  0.30325778104E+02  0.00000000000E+00 0.  1.
         11    1    4    4    0    0  0.83479485392E+00  0.63008113965E+02 -0.30284814074E+02  0.69913441279E+02  0.00000000000E+00 0. -1.
</event>
<event>
 8    1  0.6832629E-009  0.1445854E+03  0.7561462E-02  0.1207289E+00
          2   -1    0    0  501    0  0.00000000000E+00  0.00000000000E+00  0.63184679529E+03  0.63184679529E+03  0.00000000000E+00 0. -1.
         -2   -1    0    0    0  501 -0.00000000000E+00 -0.00000000000E+00 -0.50296874301E+02  0.50296874301E+02  0.00000000000E+00 0.  1.
         25    2    1    2    0    0  0.12478451158E+03  0.80652058947E+01  0.18251426112E+03  0.25415369052E+03  0.12508565472E+03 0.  0.
         23    2    1    2    0    0 -0.12478451158E+03 -0.80652058947E+01  0.39903565987E+03  0.42798997907E+03  0.91157788835E+02 0.  0.
          5    1    3    3  502    0  0.28945174442E+02 -0.43635386311E+02  0.15567571443E+02  0.54787697000E+02  0.41800000000E+01 0. -1.
         -5    1    3    3    0  502  0.95839337134E+02  0.51700592206E+02  0.16694668968E+03  0.19936599352E+03  0.41800000000E+01 0. -1.
        -11    1    4    4    0    0 -0.58244228031E+02  0.90916431598E+01  0.68437315497E+02  0.90325601170E+02  0.00000000000E+00 0.  1.
         11    1    4    4    0    0 -0.66540283545E+02 -0.17156849055E+02  0.33059834437E+03  0.33766437790E+03  0.00000000000E+00 0. -1.
</event>
<event>
 8    1  0.6832629E-009  0.1140221E+03  0.7561462E-02  0.1253298E+00
          2   -1    0    0  501    0  0.00000000000E+00  0.00000000000E+00  0.41707710295E+02  0.41707710295E+02  0.00000000000E+00 0. -1.
         -2   -1    0    0    0  501 -0.00000000000E+00 -0.00000000000E+00 -0.52552071218E+03  0.52552071218E+03  0.00000000000E+00 0.  1.
         25    2    1    2    0    0 -0.45599704733E+02 -0.78080298246E+02 -0.34643690361E+03  0.37926596034E+03  0.12509306312E+03 0.  0.
         23    2    1    2    0    0  0.45599704733E+02  0.78080298246E+02 -0.13737609827E+03  0.18796246213E+03  0.91004553455E+02 0.  0.
          5    1    3    3  502    0 -0.59505690369E+02 -0.55449398527E+02 -0.89828415652E+02  0.12125254489E+03  0.41800000000E+01 0.  1.
         -5    1    3    3    0  502  0.13905985636E+02 -0.22630899719E+02 -0.25660848796E+03  0.25801341545E+03  0.41800000000E+01 0.  1.
        -11    1    4    4    0    0  0.65970448640E+02  0.41783301490E+02 -0.54517344726E+02  0.95236995191E+02  0.00000000000E+00 0.  1.
         11    1    4    4    0    0 -0.20370743907E+02  0.36296996757E+02 -0.82858753544E+02  0.92725466943E+02  0.00000000000E+00 0. -1.
</event>
<event>
 8    1  0.6832629E-009  0.8697415E+02  0.7561462E-02  0.1310349E+00
          2   -1    0    0  501    0  0.00000000000E+00  0.00000000000E+00  0.12500085541E+03  0.12500085541E+03  0.00000000000E+00 0. -1.
         -2   -1    0    0    0  501 -0.00000000000E+00 -0.00000000000E+00 -0.11959470613E+03  0.11959470613E+03  0.00000000000E+00 0.  1.
         25    2    1    2    0    0  0.37510210067E+02  0.38445822517E+02  0.19464060782E+02  0.13751928812E+03  0.12509039857E+03 0.  0.
         23    2    1    2    0    0 -0.37510210067E+02 -0.38445822517E+02 -0.14057911500E+02  0.10707627342E+03  0.91556574453E+02 0.  0.
          5    1    3    3  502    0 -0.14252139305E+02  0.27361281973E+01  0.60471489418E+02  0.62328832050E+02  0.41800000000E+01 0. -1.
         -5    1    3    3    0  502  0.51762349373E+02  0.35709694319E+02 -0.41007428636E+02  0.75190456072E+02  0.41800000000E+01 0. -1.
        -11    1    4    4    0    0 -0.62313598625E+02 -0.32655935307E+02 -0.30586250723E+02  0.76713189333E+02  0.00000000000E+00 0. -1.
         11    1    4    4    0    0  0.24803388558E+02 -0.57898872099E+01  0.16528339223E+02  0.30363084088E+02  0.00000000000E+00 0.  1.
</event>
<event>
 8    1  0.6832629E-009  0.1024195E+03  0.7561462E-02  0.1275289E+00
          2   -1    0    0  501    0  0.00000000000E+00  0.00000000000E+00  0.37651699547E+02  0.37651699547E+02  0.00000000000E+00 0. -1.
         -2   -1    0    0    0  501 -0.00000000000E+00 -0.00000000000E+00 -0.33601843537E+03  0.33601843537E+03  0.00000000000E+00 0.  1.
         25    2    1    2    0    0  0.16027214701E+02  0.59345969655E+01 -0.20610597964E+03  0.24169750436E+03  0.12508364288E+03 0.  0.
         23    2    1    2    0    0 -0.16027214701E+02 -0.59345969655E+01 -0.92260756180E+02  0.13197263056E+03  0.92804294259E+02 0.  0.
          5    1    3    3  502    0  0.48335121340E+02  0.42569256587E+02 -0.62067654475E+02  0.89544914391E+02  0.41800000000E+01 0. -1.
         -5    1    3    3    0  502 -0.32307906639E+02 -0.36634659622E+02 -0.14403832516E+03  0.15215258997E+03  0.41800000000E+01 0. -1.
        -11    1    4    4    0    0  0.35965954355E+02 -0.14118322911E+02 -0.56085603693E+02  0.68106327578E+02  0.00000000000E+00 0.  1.
         11    1    4    4    0    0 -0.51993169055E+02  0.81837259456E+01 -0.36175152487E+02  0.63866302979E+02  0.00000000000E+00 0. -1.
</event>
<event>
 8    1  0.6832629E-009  0.1102828E+03  0.7561462E-02  0.1260047E+00
         -1   -1    0    0    0  501 -0.00000000000E+00  0.00000000000E+00  0.17741912525E+03  0.17741912525E+03  0.00000000000E+00 0.  1.
          1   -1    0    0  501    0  0.00000000000E+00 -0.00000000000E+00 -0.84234819893E+02  0.84234819893E+02  0.00000000000E+00 0. -1.
         25    2    1    2    0    0  0.24004466199E+02 -0.87408884143E+01 -0.15012934029E+01  0.12768387827E+03  0.12509317072E+03 0.  0.
         23    2    1    2    0    0 -0.24004466199E+02  0.87408884143E+01  0.94685598755E+02  0.13397006687E+03  0.91268826428E+02 0.  0.
          5    1    3    3  502    0  0.53286860107E+02 -0.51278421704E+02  0.96205817774E+01  0.74692663537E+02  0.41800000000E+01 0.  1.
         -5    1    3    3    0  502 -0.29282393908E+02  0.42537533290E+02 -0.11121875180E+02  0.52991214733E+02  0.41800000000E+01 0.  1.
        -11    1    4    4    0    0 -0.57107397701E+02 -0.78704812148E+01  0.60514885093E+02  0.83577812035E+02  0.00000000000E+00 0.  1.
         11    1    4    4    0    0  0.33102931503E+02  0.16611369629E+02  0.34170713662E+02  0.50392254834E+02  0.00000000000E+00 0. -1.
</event>
<event>
 8    1  0.6832629E-009  0.1115692E+03  0.7561462E-02  0.1257691E+00
          1   -1    0    0  501    0  0.00000000000E+00  0.00000000000E+00  0.18211917091E+04  0.18211917091E+04  0.00000000000E+00 0. -1.
         -1   -1    0    0    0  501 -0.00000000000E+00 -0.00000000000E+00 -0.12487367588E+02  0.12487367588E+02  0.00000000000E+00 0.  1.
         25    2    1    2    0    0  0.91581770730E+02  0.21095470727E+02  0.12510926345E+04  0.12608381218E+04  0.12509096474E+03 0.  0.
         23    2    1    2    0    0 -0.91581770730E+02 -0.21095470727E+02  0.55761170695E+03  0.57284095491E+03  0.91562570290E+02 0.  0.
          5    1    3    3  502    0  0.55558014347E+02  0.22063803415E+02  0.11751320206E+04  0.11766589321E+04  0.41800000000E+01 0.  1.
         -5    1    3    3    0  502  0.36023756383E+02 -0.96833268754E+00  0.75960613947E+02  0.84179189610E+02  0.41800000000E+01 0.  1.
        -11    1    4    4    0    0  0.96790295428E+01 -0.23742857383E+02  0.64040593701E+02  0.68982639346E+02  0.00000000000E+00 0.  1.
         11    1    4    4    0    0 -0.10126080027E+03  0.26473866558E+01  0.49357111325E+03  0.50385831556E+03  0.00000000000E+00 0. -1.
</event>
<event>
 8    1  0.6832629E-009  0.2016718E+03  0.7561462E-02  0.1148336E+00
         -1   -1    0    0    0  501 -0.00000000000E+00  0.00000000000E+00  0.85500370581E+03  0.85500370581E+03  0.00000000000E+00 0.  1.
          1   -1    0    0  501    0  0.00000000000E+00 -0.00000000000E+00 -0.72776558771E+02  0.72776558771E+02  0.00000000000E+00 0. -1.
         25    2    1    2    0    0 -0.14125506639E+03  0.13494127865E+03  0.61781424075E+03  0.65992684510E+03  0.12508741882E+03 0.  0.
         23    2    1    2    0    0  0.14125506639E+03 -0.13494127865E+03  0.16441290629E+03  0.26785341948E+03  0.80942622330E+02 0.  0.
          5    1    3    3  502    0 -0.14440457529E+03  0.13806065374E+03  0.45437876293E+03  0.49637783802E+03  0.41800000000E+01 0. -1.
         -5    1    3    3    0  502  0.31495088978E+01 -0.31193750905E+01  0.16343547782E+03  0.16354900708E+03  0.41800000000E+01 0. -1.
        -11    1    4    4    0    0  0.76542262309E+02 -0.53423212215E+02  0.30395045761E+02  0.98166268797E+02  0.00000000000E+00 0. -1.
         11    1    4    4    0    0  0.64712804081E+02 -0.81518066431E+02  0.13401786053E+03  0.16968715068E+03  0.00000000000E+00 0.  1.
</event>
<event>
 8    1  0.6832629E-009  0.1038926E+03  0.7561462E-02  0.1272317E+00
         -3   -1    0    0    0  501 -0.00000000000E+00  0.00000000000E+00  0.48001756994E+02  0.48001756994E+02  0.00000000000E+00 0.  1.
          3   -1    0    0  501    0  0.00000000000E+00 -0.00000000000E+00 -0.28083164827E+03  0.28083164827E+03  0.00000000000E+00 0. -1.
         25    2    1    2    0    0  0.27035440123E+02 -0.35789051446E+02 -0.12772945247E+03  0.18432480136E+03  0.12509615558E+03 0.  0.
         23    2    1    2    0    0 -0.27035440123E+02  0.35789051446E+02 -0.10510043881E+03  0.14450860391E+03  0.88458256484E+02 0.  0.
          5    1    3    3  502    0  0.56316258205E+01  0.39350804448E+02 -0.87830767538E+02  0.96498275355E+02  0.41800000000E+01 0.  1.
         -5    1    3    3    0  502  0.21403814303E+02 -0.75139855894E+02 -0.39898684935E+02  0.87826526004E+02  0.41800000000E+01 0.  1.
        -11    1    4    4    0    0 -0.48054646000E+02  0.45717639072E+02 -0.45224102297E+02  0.80278085136E+02  0.00000000000E+00 0.  1.
         11    1    4    4    0    0  0.21019205877E+02 -0.99285876269E+01 -0.59876336509E+02  0.64230518772E+02  0.00000000000E+00 0. -1.
</event>
<event>
 8    1  0.6832629E-009  0.2074951E+03  0.7561462E-02  0.1143565E+00
          2   -1    0    0  501    0  0.00000000000E+00  0.00000000000E+00  0.12226971813E+04  0.12226971813E+04  0.00000000000E+00 0. -1.
         -2   -1    0    0    0  501 -0.00000000000E+00 -0.00000000000E+00 -0.40897286259E+02  0.40897286259E+02  0.00000000000E+00 0.  1.
         25    2    1    2    0    0 -0.13316230152E+03  0.13080433288E+03  0.46280814304E+03  0.51447192142E+03  0.12509200059E+03 0.  0.
         23    2    1    2    0    0  0.13316230152E+03 -0.13080433288E+03  0.71899175199E+03  0.74912254613E+03  0.96919954867E+02 0.  0.
          5    1    3    3  502    0 -0.45118033915E+02 -0.18871797451E+02  0.76282088780E+02  0.90709487883E+02  0.41800000000E+01 0.  1.
         -5    1    3    3    0  502 -0.88044267607E+02  0.14967613033E+03  0.38652605426E+03  0.42376243353E+03  0.41800000000E+01 0.  1.
        -11    1    4    4    0    0  0.40267959195E+02 -0.13282199197E+02  0.60972459414E+02  0.74266857751E+02  0.00000000000E+00 0.  1.
         11    1    4    4    0    0  0.92894342326E+02 -0.11752213368E+03  0.65801929257E+03  0.67485568838E+03  0.00000000000E+00 0. -1.
</event>
<event>
 8    1  0.6832629E-009  0.1584386E+03  0.7561462E-02  0.1190471E+00
          3   -1    0    0  501    0  0.00000000000E+00  0.00000000000E+00  0.26103199007E+03  0.26103199007E+03  0.00000000000E+00 0. -1.
         -3   -1    0    0    0  501 -0.00000000000E+00 -0.00000000000E+00 -0.10715776270E+03  0.10715776270E+03  0.00000000000E+00 0.  1.
         25    2    1    2    0    0 -0.51943569292E+00  0.12665323807E+03  0.79120978177E+02  0.19480547974E+03  0.12509089984E+03 0.  0.
         23    2    1    2    0    0  0.51943569292E+00 -0.12665323807E+03  0.74753249187E+02  0.17338427303E+03  0.91829980643E+02 0.  0.
          5    1    3    3  502    0  0.17465428400E+02  0.13911811632E+03  0.33773109623E+02  0.14428093017E+03  0.41800000000E+01 0.  1.
         -5    1    3    3    0  502 -0.17984864093E+02 -0.12464878256E+02  0.45347868554E+02  0.50524549565E+02  0.41800000000E+01 0.  1.
        -11    1    4    4    0    0  0.26933588654E+02 -0.12499171227E+03  0.50455292015E+02  0.13745574861E+03  0.00000000000E+00 0.  1.
         11    1    4    4    0    0 -0.26414152961E+02 -0.16615258002E+01  0.24297957172E+02  0.35928524425E+02  0.00000000000E+00 0. -1.
</event>
<event>
 8    1  0.6832629E-009  0.1599620E+03  0.7561462E-02  0.1188740E+00
          4   -1    0    0  501    0  0.00000000000E+00  0.00000000000E+00  0.28229143730E+02  0.28229143730E+02  0.00000000000E+00 0. -1.
         -4   -1    0    0    0  501 -0.00000000000E+00 -0.00000000000E+00 -0.12245811367E+04  0.12245811367E+04  0.00000000000E+00 0.  1.
         25    2    1    2    0    0  0.14611410748E+03  0.31369343455E+02 -0.57652397236E+03  0.60857242208E+03  0.12508850506E+03 0.  0.
         23    2    1    2    0    0 -0.14611410748E+03 -0.31369343455E+02 -0.61982802059E+03  0.64423785833E+03  0.92316168035E+02 0.  0.
          5    1    3    3  502    0  0.24036410005E+02  0.39744597796E+02 -0.51568939604E+02  0.69528483313E+02  0.41800000000E+01 0. -1.
         -5    1    3    3    0  502  0.12207769748E+03 -0.83752543410E+01 -0.52495503275E+03  0.53904393877E+03  0.41800000000E+01 0. -1.
        -11    1    4    4    0    0 -0.16224778599E+02 -0.10425654835E+02 -0.12873958922E+02  0.23187853235E+02  0.00000000000E+00 0. -1.
         11    1    4    4    0    0 -0.12988932888E+03 -0.20943688620E+02 -0.60695406167E+03  0.62105000510E+03  0.00000000000E+00 0.  1.
</event>
<event>
 8    1  0.6832629E-009  0.1060566E+03  0.7561462E-02  0.1268052E+00
          1   -1    0    0  501    0  0.00000000000E+00  0.00000000000E+00  0.11717177212E+04  0.11717177212E+04  0.00000000000E+00 0. -1.
         -1   -1    0    0    0  501 -0.00000000000E+00 -0.00000000000E+00 -0.10288008053E+02  0.10288008053E+02  0.00000000000E+00 0.  1.
         25    2    1    2    0    0 -0.28680717001E+01 -0.56947511759E+01  0.77198274154E+03  0.78207748535E+03  0.12508870384E+03 0.  0.
         23    2    1    2    0    0  0.28680717001E+01  0.56947511759E+01  0.38944697159E+03  0.39992824389E+03  0.90735883487E+02 0.  0.
          5    1    3    3  502    0 -0.63299609656E+02 -0.10159616499E+02  0.42218521301E+03  0.42704553022E+03  0.41800000000E+01 0. -1.
         -5    1    3    3    0  502  0.60431537956E+02  0.44648653235E+01  0.34979752852E+03  0.35503195513E+03  0.41800000000E+01 0. -1.
        -11    1    4    4    0    0  0.34115008179E+02  0.31627893983E+02  0.26416160158E+03  0.26822660049E+03  0.00000000000E+00 0. -1.
         11    1    4    4    0    0 -0.31246936479E+02 -0.25933142807E+02  0.12528537001E+03  0.13170164340E+03  0.00000000000E+00 0.  1.
</event>
<event>
 8    1  0.6832629E-009  0.1418512E+03  0.7561462E-02  0.1210860E+00
          2   -1    0    0  501    0  0.00000000000E+00  0.00000000000E+00  0.11405055527E+04  0.11405055527E+04  0.00000000000E+00 0. -1.
         -2   -1    0    0    0  501 -0.00000000000E+00 -0.00000000000E+00 -0.28046946109E+02  0.28046946109E+02  0.00000000000E+00 0.  1.
         25    2    1    2    0    0  0.11134137804E+03  0.17410809342E+02  0.87154163916E+03  0.88765401116E+03  0.12507907897E+03 0.  0.
         23    2    1    2    0    0 -0.11134137804E+03 -0.17410809342E+02  0.24091696740E+03  0.28089848761E+03  0.90348970210E+02 0.  0.
          5    1    3    3  502    0 -0.11740182052E+02  0.20422541753E+02  0.38557768572E+03  0.38631921544E+03  0.41800000000E+01 0. -1.
         -5    1    3    3    0  502  0.12308156009E+03 -0.30117324106E+01  0.48596395343E+03  0.50133479572E+03  0.41800000000E+01 0. -1.
        -11    1    4    4    0    0 -0.11082045662E+03  0.80592390893E+01  0.22477735686E+03  0.25074087242E+03  0.00000000000E+00 0. -1.
         11    1    4    4    0    0 -0.52092141561E+00 -0.25470048432E+02  0.16139610532E+02  0.30157615197E+02  0.00000000000E+00 0.  1.
</event>
<event>
 8    1  0.6832629E-009  0.7541465E+02  0.7561462E-02  0.1342592E+00
         -1   -1    0    0    0  501 -0.00000000000E+00  0.00000000000E+00  0.66694971171E+02  0.66694971171E+02  0.00000000000E+00 0.  1.
          1   -1    0    0  501    0  0.00000000000E+00 -0.00000000000E+00 -0.22379602539E+03  0.22379602539E+03  0.00000000000E+00 0. -1.
         25    2    1    2    0    0  0.33464696954E+02  0.29726084821E+02 -0.48383176372E+02  0.14138729952E+03  0.12508361463E+03 0.  0.
         23    2    1    2    0    0 -0.33464696954E+02 -0.29726084821E+02 -0.10871787784E+03  0.14910369704E+03  0.91699560778E+02 0.  0.
          5    1    3    3  502    0  0.31082496248E+02  0.30722705523E+02  0.36052378487E+02  0.56808913052E+02  0.41800000000E+01 0. -1.
         -5    1    3    3    0  502  0.23822007058E+01 -0.99662070214E+00 -0.84435554859E+02  0.84578386467E+02  0.41800000000E+01 0. -1.
        -11    1    4    4    0    0 -0.21381995847E+02  0.32346773147E+02 -0.39637686741E+02  0.55449523800E+02  0.00000000000E+00 0.  1.
         11    1    4    4    0    0 -0.12082701107E+02 -0.62072857968E+02 -0.69080191102E+02  0.93654173238E+02  0.00000000000E+00 0. -1.
</event>
<event>
 8    1  0.6832629E-009  0.8858591E+02  0.7561462E-02  0.1306313E+00
         -2   -1    0    0    0  501 -0.00000000000E+00  0.00000000000E+00  0.25964679130E+03  0.25964679130E+03  0.00000000000E+00 0. -1.
          2   -1    0    0  501    0  0.00000000000E+00 -0.00000000000E+00 -0.52589920049E+02  0.52589920049E+02  0.00000000000E+00 0.  1.
         25    2    1    2    0    0 -0.42522932126E+02 -0.86369219545E+01  0.11254613085E+03  0.17377330078E+03  0.12509089622E+03 0.  0.
         23    2    1    2    0    0  0.42522932126E+02  0.86369219545E+01  0.94510740402E+02  0.13846341057E+03  0.91416846575E+02 0.  0.
          5    1    3    3  502    0  0.25427309650E+02  0.39983483999E+02  0.29948274547E+02  0.56210307036E+02  0.41800000000E+01 0.  1.
         -5    1    3    3    0  502 -0.67950241776E+02 -0.48620405954E+02  0.82597856302E+02  0.11756299375E+03  0.41800000000E+01 0.  1.
        -11    1    4    4    0    0  0.18392712430E+02  0.11429618299E+02  0.10835927356E+03  0.11050185614E+03  0.00000000000E+00 0. -1.
         11    1    4    4    0    0  0.24130219696E+02 -0.27926963445E+01 -0.13848533155E+02  0.27961554427E+02  0.00000000000E+00 0.  1.
</event>
<event>
 8    1  0.6832629E-009  0.1864070E+03  0.7561462E-02  0.1161742E+00
          2   -1    0    0  501    0  0.00000000000E+00  0.00000000000E+00  0.12578767306E+04  0.12578767306E+04  0.00000000000E+00 0. -1.
         -2   -1    0    0    0  501 -0.00000000000E+00 -0.00000000000E+00 -0.38365781094E+02  0.38365781094E+02  0.00000000000E+00 0.  1.
         25    2    1    2    0    0  0.16039782020E+03  0.21687631382E+02  0.33636592485E+03  0.39368638134E+03  0.12509643230E+03 0.  0.
         23    2    1    2    0    0 -0.16039782020E+03 -0.21687631382E+02  0.88314502467E+03  0.90255613036E+03  0.92003368285E+02 0.  0.
          5    1    3    3  502    0  0.15841536456E+03  0.45121805590E+02  0.33018440069E+03  0.36901302948E+03  0.41800000000E+01 0.  1.
         -5    1    3    3    0  502  0.19824556449E+01 -0.23434174208E+02  0.61815241595E+01  0.24673351862E+02  0.41800000000E+01 0.  1.
        -11    1    4    4    0    0 -0.75834740814E+02  0.33789300747E+02  0.33309134153E+03  0.34328190538E+03  0.00000000000E+00 0. -1.
         11    1    4    4    0    0 -0.84563079389E+02 -0.55476932129E+02  0.55005368314E+03  0.55927422498E+03  0.00000000000E+00 0.  1.
</event>
<event>
 8    1  0.6832629E-009  0.9989089E+02  0.7561462E-02  0.1280526E+00
          4   -1    0    0  501    0  0.00000000000E+00  0.00000000000E+00  0.55902848403E+02  0.55902848403E+02  0.00000000000E+00 0. -1.
         -4   -1    0    0    0  501 -0.00000000000E+00 -0.00000000000E+00 -0.24324192340E+03  0.24324192340E+03  0.00000000000E+00 0.  1.
         25    2    1    2    0    0 -0.41302159940E+02 -0.79081475816E+01 -0.94622460616E+02  0.16238363454E+03  0.12508648009E+03 0.  0.
         23    2    1    2    0    0  0.41302159940E+02  0.79081475816E+01 -0.92716614383E+02  0.13676113726E+03  0.91317199193E+02 0.  0.
          5    1    3    3  502    0  0.27290247667E+02  0.27763802477E+02  0.12206590143E+01  0.39173316864E+02  0.41800000000E+01 0. -1.
         -5    1    3    3    0  502 -0.68592407607E+02 -0.35671950058E+02 -0.95843119630E+02  0.12321031768E+03  0.41800000000E+01 0. -1.
        -11    1    4    4    0    0  0.12228307894E+02 -0.31752128473E+02 -0.78523465390E+02  0.85578407285E+02  0.00000000000E+00 0.  1.
         11    1    4    4    0    0  0.29073852046E+02  0.39660276055E+02 -0.14193148994E+02  0.51182729977E+02  0.00000000000E+00 0. -1.
</event>
<event>
 8    1  0.6832629E-009  0.1107416E+03  0.7561462E-02  0.1259203E+00
          1   -1    0    0  501    0  0.00000000000E+00  0.00000000000E+00  0.27560671764E+03  0.27560671764E+03  0.00000000000E+00 0. -1.
         -1   -1    0    0    0  501 -0.00000000000E+00 -0.00000000000E+00 -0.82556189361E+02  0.82556189361E+02  0.00000000000E+00 0.  1.
         25    2    1    2    0    0  0.25408599495E+02 -0.35487988561E+02  0.21635384097E+03  0.25369389105E+03  0.12508641650E+03 0.  0.
         23    2    1    2    0    0 -0.25408599495E+02  0.35487988561E+02 -0.23303312697E+02  0.10446901594E+03  0.92009437827E+02 0.  0.
          5    1    3    3  502    0 -0.57441764951E+01  0.38580851994E+02  0.26082360779E+02  0.47108806480E+02  0.41800000000E+01 0. -1.
         -5    1    3    3    0  502  0.31152775990E+02 -0.74068840555E+02  0.19027148019E+03  0.20658508457E+03  0.41800000000E+01 0. -1.
        -11    1    4    4    0    0  0.31983709570E+01  0.62419956845E+02 -0.15820169936E+02  0.64472927389E+02  0.00000000000E+00 0.  1.
         11    1    4    4    0    0 -0.28606970452E+02 -0.26931968284E+02 -0.74831427615E+01  0.39996088555E+02  0.00000000000E+00 0. -1.
</event>
<event>
 8    1  0.6832629E-009  0.1219009E+03  0.7561462E-02  0.1239994E+00
         -1   -1    0    0    0  501 -0.00000000000E+00  0.00000000000E+00  0.12510409453E+03  0.12510409453E+03  0.00000000000E+00 0.  1.
          1   -1    0    0  501    0  0.00000000000E+00 -0.00000000000E+00 -0.16563833406E+03  0.16563833406E+03  0.00000000000E+00 0. -1.
         25    2    1    2    0    0 -0.34874911643E+02  0.64017544513E+02 -0.81832970620E+02  0.16631092337E+03  0.12509269637E+03 0.  0.
         23    2    1    2    0    0  0.34874911643E+02 -0.64017544513E+02  0.41298731085E+02  0.12443150522E+03  0.91995156584E+02 0.  0.
          5    1    3    3  502    0 -0.57014598085E+02 -0.16067755272E+02 -0.48559773200E+02  0.76709589541E+02  0.41800000000E+01 0.  1.
         -5    1    3    3    0  502  0.22139686442E+02  0.80085299784E+02 -0.33273197420E+02  0.89601333828E+02  0.41800000000E+01 0.  1.
        -11    1    4    4    0    0  0.24500774703E+01 -0.68454058483E+02  0.56075157282E+02  0.88523354357E+02  0.00000000000E+00 0.  1.
         11    1    4    4    0    0  0.32424834173E+02  0.44365139705E+01 -0.14776426197E+02  0.35908150865E+02  0.00000000000E+00 0. -1.
</event>
<event>
 8    1  0.6832629E-009  0.9193344E+02  0.7561462E-02  0.1298236E+00
         -1   -1    0    0    0  501 -0.00000000000E+00  0.00000000000E+00  0.60546106602E+03  0.60546106602E+03  0.00000000000E+00 0.  1.
          1   -1    0    0  501    0  0.00000000000E+00 -0.00000000000E+00 -0.30990765727E+02  0.30990765727E+02  0.00000000000E+00 0. -1.
         25    2    1    2    0    0 -0.78027378925E+02 -0.21496788643E+02  0.32368683738E+03  0.35633098460E+03  0.12509283795E+03 0.  0.
         23    2    1    2    0    0  0.78027378925E+02  0.21496788643E+02  0.25078346291E+03  0.28012084715E+03  0.94999789225E+02 0.  0.
          5    1    3    3  502    0 -0.79705042734E+02 -0.13971449401E+02  0.33348109348E+03  0.34318392641E+03  0.41800000000E+01 0. -1.
         -5    1    3    3    0  502  0.16776638092E+01 -0.75253392426E+01 -0.97942560983E+01  0.13147058192E+02  0.41800000000E+01 0. -1.
        -11    1    4    4    0    0  0.71010700867E+02 -0.46578131881E+00  0.24668577591E+03  0.25670334751E+03  0.00000000000E+00 0.  1.
         11    1    4    4    0    0  0.70166780582E+01  0.21962569962E+02  0.40976870044E+01  0.23417499634E+02  0.00000000000E+00 0. -1.
</event>
<event>
 8    1  0.6832629E-009  0.1821963E+03  0.7561462E-02  0.1165694E+00
         -3   -1    0    0    0  501 -0.00000000000E+00  0.00000000000E+00  0.69780117348E+02  0.69780117348E+02  0.00000000000E+00 0.  1.
          3   -1    0    0  501    0  0.00000000000E+00 -0.00000000000E+00 -0.63491792944E+03  0.63491792944E+03  0.00000000000E+00 0. -1.
         25    2    1    2    0    0  0.18068299842E+02  0.15632184328E+03 -0.14794886723E+03  0.24960349469E+03  0.12510018026E+03 0.  0.
         23    2    1    2    0    0 -0.18068299842E+02 -0.15632184328E+03 -0.41718894486E+03  0.45509455209E+03  0.91112312480E+02 0.  0.
          5    1    3    3  502    0 -0.36908730137E+02  0.10602407997E+03 -0.13191437541E+03  0.17326925501E+03  0.41800000000E+01 0. -1.
         -5    1    3    3    0  502  0.54977029979E+02  0.50297763311E+02 -0.16034491825E+02  0.76334239680E+02  0.41800000000E+01 0. -1.
        -11    1    4    4    0    0  0.26855552953E+02 -0.10863074936E+03 -0.21230915501E+03  0.23999382853E+03  0.00000000000E+00 0.  1.
         11    1    4    4    0    0 -0.44923852795E+02 -0.47691093927E+02 -0.20487978985E+03  0.21510072357E+03  0.00000000000E+00 0. -1.
</event>
<event>
 8    1  0.6832629E-009  0.1001381E+03  0.7561462E-02  0.1280006E+00
          3   -1    0    0  501    0  0.00000000000E+00  0.00000000000E+00  0.47653433265E+03  0.47653433265E+03  0.00000000000E+00 0. -1.
         -3   -1    0    0    0  501 -0.00000000000E+00 -0.00000000000E+00 -0.34922462654E+02  0.34922462654E+02  0.00000000000E+00 0.  1.
         25    2    1    2    0    0 -0.55297120081E+02  0.27389126328E+02  0.17833712556E+03  0.22640595614E+03  0.12509033094E+03 0.  0.
         23    2    1    2    0    0  0.55297120081E+02 -0.27389126328E+02  0.26327474444E+03  0.28505083916E+03  0.90180120415E+02 0.  0.
          5    1    3    3  502    0 -0.54845783674E+02  0.46217238359E+02  0.19050194632E+03  0.20359901046E+03  0.41800000000E+01 0. -1.
         -5    1    3    3    0  502 -0.45133640732E+00 -0.18828112031E+02 -0.12164820762E+02  0.22806945683E+02  0.41800000000E+01 0. -1.
        -11    1    4    4    0    0  0.70228984895E+02 -0.46990237455E+02  0.20951414038E+03  0.22591230102E+03  0.00000000000E+00 0. -1.
         11    1    4    4    0    0 -0.14931864814E+02  0.19601111128E+02  0.53760604063E+02  0.59138538141E+02  0.00000000000E+00 0.  1.
</event>
<event>
 8    1  0.6832629E-009  0.1255652E+03  0.7561462E-02  0.1234189E+00
         -1   -1    0    0    0  501 -0.00000000000E+00  0.00000000000E+00  0.45224111666E+02  0.45224111666E+02  0.00000000000E+00 0.  1.
          1   -1    0    0  501    0  0.00000000000E+00 -0.00000000000E+00 -0.52321872564E+03  0.52321872564E+03  0.00000000000E+00 0. -1.
         25    2    1    2    0    0  0.82473559141E+02 -0.70086134286E+02 -0.27828811452E+03  0.32373257119E+03  0.12507817071E+03 0.  0.
         23    2    1    2    0    0 -0.82473559141E+02  0.70086134286E+02 -0.19970649945E+03  0.24471026612E+03  0.91030073291E+02 0.  0.
          5    1    3    3  502    0  0.21039559641E+02 -0.70162699208E+02 -0.24060105856E+03  0.25153888210E+03  0.41800000000E+01 0.  1.
         -5    1    3    3    0  502  0.61433999500E+02  0.76564922037E-01 -0.37687055965E+02  0.72193689088E+02  0.41800000000E+01 0.  1.
        -11    1    4    4    0    0 -0.41839093814E+01  0.26004637348E+02 -0.68477295881E+00  0.26347963400E+02  0.00000000000E+00 0.  1.
         11    1    4    4    0    0 -0.78289649759E+02  0.44081496938E+02 -0.19902172649E+03  0.21836230272E+03  0.00000000000E+00 0. -1.
</event>
<event>
 8    1  0.6832629E-009  0.2311408E+03  0.7561462E-02  0.1125839E+00
         -2   -1    0    0    0  501 -0.00000000000E+00  0.00000000000E+00  0.34186745386E+02  0.34186745386E+02  0.00000000000E+00 0. -1.
          2   -1    0    0  501    0  0.00000000000E+00 -0.00000000000E+00 -0.16672393849E+04  0.16672393849E+04  0.00000000000E+00 0.  1.
         25    2    1    2    0    0 -0.13984157214E+03 -0.15426016455E+03 -0.69113350477E+03  0.73257421686E+03  0.12509035984E+03 0.  0.
         23    2    1    2    0    0  0.13984157214E+03  0.15426016455E+03 -0.94191913470E+03  0.96885191339E+03  0.90058370462E+02 0.  0.
          5    1    3    3  502    0 -0.13348139101E+02 -0.10391451048E+03 -0.34589158106E+03  0.36143444295E+03  0.41800000000E+01 0. -1.
         -5    1    3    3    0  502 -0.12649343304E+03 -0.50345654066E+02 -0.34524192371E+03  0.37113977390E+03  0.41800000000E+01 0. -1.
        -11    1    4    4    0    0  0.36199748951E+02  0.95388283243E+02 -0.32923857678E+03  0.34468447433E+03  0.00000000000E+00 0. -1.
         11    1    4    4    0    0  0.10364182319E+03  0.58871881302E+02 -0.61268055792E+03  0.62416743906E+03  0.00000000000E+00 0.  1.
</event>
<event>
 8    1  0.6832629E-009  0.2003081E+03  0.7561462E-02  0.1149479E+00
          2   -1    0    0  501    0  0.00000000000E+00  0.00000000000E+00  0.59550589044E+03  0.59550589044E+03  0.00000000000E+00 0.  1.
         -2   -1    0    0    0  501 -0.00000000000E+00 -0.00000000000E+00 -0.81825900239E+02  0.81825900239E+02  0.00000000000E+00 0. -1.
         25    2    1    2    0    0  0.12982918084E+03  0.14148135716E+03  0.26392319764E+03  0.34953592596E+03  0.12508924278E+03 0.  0.
         23    2    1    2    0    0 -0.12982918084E+03 -0.14148135716E+03  0.24975679256E+03  0.32779586472E+03  0.90548787282E+02 0.  0.
          5    1    3    3  502    0  0.34597387447E+02  0.46854518510E+01  0.13292659961E+03  0.13749867622E+03  0.41800000000E+01 0. -1.
         -5    1    3    3    0  502  0.95231793390E+02  0.13679590531E+03  0.13099659803E+03  0.21203724974E+03  0.41800000000E+01 0. -1.
        -11    1    4    4    0    0 -0.44317810911E+02 -0.16507006786E+02  0.17280635971E+02  0.50350471860E+02  0.00000000000E+00 0.  1.
         11    1    4    4    0    0 -0.85511369927E+02 -0.12497435037E+03  0.23247615659E+03  0.27744539286E+03  0.00000000000E+00 0. -1.
</event>
<event>
 8    1  0.6832629E-009  0.1203500E+03  0.7561462E-02  0.1242521E+00
          1   -1    0    0  501    0  0.00000000000E+00  0.00000000000E+00  0.35014568279E+03  0.35014568279E+03  0.00000000000E+00 0. -1.
         -1   -1    0    0    0  501 -0.00000000000E+00 -0.00000000000E+00 -0.44947400961E+02  0.44947400961E+02  0.00000000000E+00 0.  1.
         25    2    1    2    0    0  0.16925318179E+02  0.54607588917E+02  0.12519701220E+03  0.18598537984E+03  0.12509122466E+03 0.  0.
         23    2    1    2    0    0 -0.16925318179E+02 -0.54607588917E+02  0.18000126962E+03  0.20910770391E+03  0.89761459467E+02 0.  0.
          5    1    3    3  502    0  0.21954485363E+02  0.93656417106E+02  0.74975965356E+02  0.12203438726E+03  0.41800000000E+01 0. -1.
         -5    1    3    3    0  502 -0.50291671834E+01 -0.39048828189E+02  0.50221046848E+02  0.63950992580E+02  0.41800000000E+01 0. -1.
        -11    1    4    4    0    0 -0.53168918632E+02 -0.34368165028E+02  0.90477508741E+02  0.11042773322E+03  0.00000000000E+00 0.  1.
         11    1    4    4    0    0  0.36243600452E+02 -0.20239423889E+02  0.89523760882E+02  0.98679970691E+02  0.00000000000E+00 0. -1.
</event>
<event>
 8    1  0.6832629E-009  0.1425970E+03  0.7561462E-02  0.1209877E+00
         -2   -1    0    0    0  501 -0.00000000000E+00  0.00000000000E+00  0.21136010640E+03  0.21136010640E+03  0.00000000000E+00 0. -1.
          2   -1    0    0  501    0  0.00000000000E+00 -0.00000000000E+00 -0.11914575288E+03  0.11914575288E+03  0.00000000000E+00 0.  1.
         25    2    1    2    0    0 -0.11532413830E+03  0.10217359644E+02  0.43163241883E+02  0.17582911734E+03  0.12509501086E+03 0.  0.
         23    2    1    2    0    0  0.11532413830E+03 -0.10217359644E+02  0.49051111640E+02  0.15467674194E+03  0.90082360267E+02 0.  0.
          5    1    3    3  502    0 -0.74576864744E+02 -0.44549485072E+02  0.59673803025E+02  0.10547417003E+03  0.41800000000E+01 0. -1.
         -5    1    3    3    0  502 -0.40747273555E+02  0.54766844717E+02 -0.16510561142E+02  0.70354947315E+02  0.41800000000E+01 0. -1.
        -11    1    4    4    0    0 -0.44828474281E+01 -0.89610687522E+01 -0.15594335733E+02  0.18535910585E+02  0.00000000000E+00 0.  1.
         11    1    4    4    0    0  0.11980698573E+03 -0.12562908922E+01  0.64645447373E+02  0.13614083136E+03  0.00000000000E+00 0. -1.
</event>
<event>
 8    1  0.6832629E-009  0.8255256E+02  0.7561462E-02  0.1321960E+00
         -3   -1    0    0    0  501 -0.00000000000E+00  0.00000000000E+00  0.30154421464E+03  0.30154421464E+03  0.00000000000E+00 0.  1.
          3   -1    0    0  501    0  0.00000000000E+00 -0.00000000000E+00 -0.61382255757E+02  0.61382255757E+02  0.00000000000E+00 0. -1.
         25    2    1    2    0    0 -0.10022512290E+02  0.23168333552E+02  0.23507225721E+03  0.26747823822E+03  0.12509364243E+03 0.  0.
         23    2    1    2    0    0  0.10022512290E+02 -0.23168333552E+02  0.50897016740E+01  0.95448232182E+02  0.91908854477E+02 0.  0.
          5    1    3    3  502    0 -0.35338259693E+02  0.29840554889E+02  0.19643242465E+02  0.50424009051E+02  0.41800000000E+01 0. -1.
         -5    1    3    3    0  502  0.25315747403E+02 -0.66722213376E+01  0.21542901475E+03  0.21705422917E+03  0.41800000000E+01 0. -1.
        -11    1    4    4    0    0  0.49403862706E+02 -0.85079578975E+01 -0.93879159933E+01  0.51002548609E+02  0.00000000000E+00 0. -1.
         11    1    4    4    0    0 -0.39381350416E+02 -0.14660375654E+02  0.14477617667E+02  0.44445683573E+02  0.00000000000E+00 0.  1.
</event>
<event>
 8    1  0.6832629E-009  0.1691759E+03  0.7561462E-02  0.1178710E+00
         -4   -1    0    0    0  501 -0.00000000000E+00  0.00000000000E+00  0.99447152976E+02  0.99447152976E+02  0.00000000000E+00 0. -1.
          4   -1    0    0  501    0  0.00000000000E+00 -0.00000000000E+00 -0.31586195074E+03  0.31586195074E+03  0.00000000000E+00 0.  1.
         25    2    1    2    0    0 -0.87894908931E+02  0.10813725344E+03 -0.10648356123E+03  0.21541950772E+03  0.12509050682E+03 0.  0.
         23    2    1    2    0    0  0.87894908931E+02 -0.10813725344E+03 -0.10993123654E+03  0.19988959600E+03  0.91933634888E+02 0.  0.
          5    1    3    3  502    0  0.38634904204E+01  0.91706890970E+02 -0.68797185438E+02  0.11478504055E+03  0.41800000000E+01 0.  1.
         -5    1    3    3    0  502 -0.91758399351E+02  0.16430362469E+02 -0.37686375787E+02  0.10063446717E+03  0.41800000000E+01 0.  1.
        -11    1    4    4    0    0  0.98080109994E+02 -0.95125535311E+02 -0.11886893426E+03  0.18110328263E+03  0.00000000000E+00 0.  1.
         11    1    4    4    0    0 -0.10185201063E+02 -0.13011718128E+02  0.89376977293E+01  0.18786313370E+02  0.00000000000E+00 0. -1.
</event>
<event>
 8    1  0.6832629E-009  0.1446458E+03  0.7561462E-02  0.1207211E+00
          1   -1    0    0  501    0  0.00000000000E+00  0.00000000000E+00  0.18901055751E+03  0.18901055751E+03  0.00000000000E+00 0. -1.
         -1   -1    0    0    0  501 -0.00000000000E+00 -0.00000000000E+00 -0.18471885026E+03  0.18471885026E+03  0.00000000000E+00 0.  1.
         25    2    1    2    0    0 -0.11195478948E+03 -0.51214050378E+01 -0.99988728519E+02  0.19546347646E+03  0.12509245029E+03 0.  0.
         23    2    1    2    0    0  0.11195478948E+03  0.51214050378E+01  0.10428043577E+03  0.17826593132E+03  0.91346753125E+02 0.  0.
          5    1    3    3  502    0 -0.25998670189E+02 -0.43234839746E+02 -0.86718137611E+02  0.10041259886E+03  0.41800000000E+01 0.  1.
         -5    1    3    3    0  502 -0.85956119288E+02  0.38113434708E+02 -0.13270590908E+02  0.95050877594E+02  0.41800000000E+01 0.  1.
        -11    1    4    4    0    0 -0.98056519596E+01  0.19614633591E+02  0.14445092491E+02  0.26259195691E+02  0.00000000000E+00 0.  1.
         11    1    4    4    0    0  0.12176044144E+03 -0.14493228553E+02  0.89835343282E+02  0.15200673562E+03  0.00000000000E+00 0. -1.
</event>
<event>
 8    1  0.6832629E-009  0.1723850E+03  0.7561462E-02  0.1175383E+00
         -2   -1    0    0    0  501 -0.00000000000E+00  0.00000000000E+00  0.29608186049E+03  0.29608186049E+03  0.00000000000E+00 0.  1.
          2   -1    0    0  501    0  0.00000000000E+00 -0.00000000000E+00 -0.11786290884E+03  0.11786290884E+03  0.00000000000E+00 0. -1.
         25    2    1    2    0    0  0.68767711411E+02 -0.13096765219E+03  0.57642258758E+02  0.20212167013E+03  0.12509602507E+03 0.  0.
         23    2    1    2    0    0 -0.68767711411E+02  0.13096765219E+03  0.12057669290E+03  0.21182309921E+03  0.91917149848E+02 0.  0.
          5    1    3    3  502    0  0.79778840699E+02 -0.29889871764E+02  0.52650205639E+02  0.10023763969E+03  0.41800000000E+01 0. -1.
         -5    1    3    3    0  502 -0.11011129288E+02 -0.10107778042E+03  0.49920531187E+01  0.10188403043E+03  0.41800000000E+01 0. -1.
        -11    1    4    4    0    0 -0.49471962480E+02  0.36985344366E+02  0.93627699722E+02  0.11216745038E+03  0.00000000000E+00 0.  1.
         11    1    4    4    0    0 -0.19295748931E+02  0.93982307820E+02  0.26948993173E+02  0.99655648827E+02  0.00000000000E+00 0. -1.
</event>
<event>
 8    1  0.6832629E-009  0.6920739E+02  0.7561462E-02  0.1362809E+00
          3   -1    0    0  501    0  0.00000000000E+00  0.00000000000E+00  0.11948506966E+03  0.11948506966E+03  0.00000000000E+00 0. -1.
         -3   -1    0    0    0  501 -0.00000000000E+00 -0.00000000000E+00 -0.11554296116E+03  0.11554296116E+03  0.00000000000E+00 0.  1.
         25    2    1    2    0    0  0.27288490551E+02  0.27899416315E+02  0.27146614959E+02  0.13382844411E+03  0.12510025820E+03 0.  0.
         23    2    1    2    0    0 -0.27288490551E+02 -0.27899416315E+02 -0.23204506461E+02  0.10119958671E+03  0.90442623158E+02 0.  0.
          5    1    3    3  502    0 -0.94619758418E+01  0.53443679321E+02  0.57817407624E+02  0.79410835977E+02  0.41800000000E+01 0. -1.
         -5    1    3    3    0  502  0.36750466393E+02 -0.25544263006E+02 -0.30670792666E+02  0.54417608137E+02  0.41800000000E+01 0. -1.
        -11    1    4    4    0    0 -0.19515210836E+02 -0.19679432280E+02 -0.58177741486E+02  0.64442013573E+02  0.00000000000E+00 0.  1.
         11    1    4    4    0    0 -0.77732797153E+01 -0.82199840350E+01  0.34973235025E+02  0.36757573141E+02  0.00000000000E+00 0. -1.
</event>
<event>
 8    1  0.6832629E-009  0.2788447E+03  0.7561462E-02  0.1096322E+00
         -1   -1    0    0    0  501 -0.00000000000E+00  0.00000000000E+00  0.40210037692E+03  0.40210037692E+03  0.00000000000E+00 0.  1.
          1   -1    0    0  501    0  0.00000000000E+00 -0.00000000000E+00 -0.19554660137E+03  0.19554660137E+03  0.00000000000E+00 0. -1.
         25    2    1    2    0    0 -0.18693334047E+03  0.17808898578E+03  0.97120901987E+02  0.30288305849E+03  0.12508363955E+03 0.  0.
         23    2    1    2    0    0  0.18693334047E+03 -0.17808898578E+03  0.10943287356E+03  0.29476391980E+03  0.90832009589E+02 0.  0.
          5    1    3    3  502    0 -0.35633474390E+01 -0.16153040739E+02  0.16727836752E+02  0.23893745887E+02  0.41800000000E+01 0. -1.
         -5    1    3    3    0  502 -0.18336999303E+03  0.19424202652E+03  0.80393065235E+02  0.27898931260E+03  0.41800000000E+01 0. -1.
        -11    1    4    4    0    0  0.11987352055E+03 -0.52012606978E+02  0.58256419205E+02  0.14306915318E+03  0.00000000000E+00 0.  1.
         11    1    4    4    0    0  0.67059819919E+02 -0.12607637880E+03  0.51176454356E+02  0.15169476662E+03  0.00000000000E+00 0. -1.
</event>
<event>
 8    1  0.6832629E-009  0.1311836E+03  0.7561462E-02  0.1225710E+00
         -1   -1    0    0    0  501 -0.00000000000E+00  0.00000000000E+00  0.58739152502E+02  0.58739152502E+02  0.00000000000E+00 0.  1.
          1   -1    0    0  501    0  0.00000000000E+00 -0.00000000000E+00 -0.37144793615E+03  0.37144793615E+03  0.00000000000E+00 0. -1.
         25    2    1    2    0    0 -0.42543538769E+02 -0.71993578399E+02 -0.25404579778E+03  0.29526144574E+03  0.12508807278E+03 0.  0.
         23    2    1    2    0    0  0.42543538769E+02  0.71993578399E+02 -0.58662985877E+02  0.13492564292E+03  0.88150752592E+02 0.  0.
          5    1    3    3  502    0  0.26342227400E+02  0.16428810015E+02 -0.24471724636E+02  0.39751181738E+02  0.41800000000E+01 0. -1.
         -5    1    3    3    0  502 -0.68885766168E+02 -0.88422388414E+02 -0.22957407314E+03  0.25551026400E+03  0.41800000000E+01 0. -1.
        -11    1    4    4    0    0  0.68568293953E+02  0.51800907653E+02 -0.54410224429E+02  0.10171242545E+03  0.00000000000E+00 0.  1.
         11    1    4    4    0    0 -0.26024755184E+02  0.20192670745E+02 -0.42527614477E+01  0.33213217462E+02  0.00000000000E+00 0. -1.
</event>
<event>
 8    1  0.6832629E-009  0.1331161E+03  0.7561462E-02  0.1222904E+00
         -2   -1    0    0    0  501 -0.00000000000E+00  0.00000000000E+00  0.24499300329E+02  0.24499300329E+02  0.00000000000E+00 0.  1.
          2   -1    0    0  501    0  0.00000000000E+00 -0.00000000000E+00 -0.78405363881E+03  0.78405363881E+03  0.00000000000E+00 0. -1.
         25    2    1    2    0    0 -0.72504687953E+02  0.37507074102E+02 -0.33410153101E+03  0.36597148584E+03  0.12509030756E+03 0.  0.
         23    2    1    2    0    0  0.72504687953E+02 -0.37507074102E+02 -0.42545280748E+03  0.44258145330E+03  0.90578921567E+02 0.  0.
          5    1    3    3  502    0  0.33064407615E+02  0.27155125707E+02 -0.87472657119E+02  0.97465860929E+02  0.41800000000E+01 0. -1.
         -5    1    3    3    0  502 -0.10556909557E+03  0.10351948394E+02 -0.24662887389E+03  0.26850562491E+03  0.41800000000E+01 0. -1.
        -11    1    4    4    0    0  0.45896497085E+01  0.24617430852E+02 -0.48856351675E+02  0.54900144674E+02  0.00000000000E+00 0.  1.
         11    1    4    4    0    0  0.67915038245E+02 -0.62124504954E+02 -0.37659645580E+03  0.38768130862E+03  0.00000000000E+00 0. -1.
</event>
<event>
 8    1  0.6832629E-009  0.9698351E+02  0.7561462E-02  0.1286770E+00
         -2   -1    0    0    0  501 -0.00000000000E+00  0.00000000000E+00  0.20010736322E+02  0.20010736322E+02  0.00000000000E+00 0.  1.
          2   -1    0    0  501    0  0.00000000000E+00 -0.00000000000E+00 -0.10413255576E+04  0.10413255576E+04  0.00000000000E+00 0. -1.
         25    2    1    2    0    0  0.90220775811E+02  0.14420023228E+02 -0.64279237291E+03  0.66119440655E+03  0.12509309778E+03 0.  0.
         23    2    1    2    0    0 -0.90220775811E+02 -0.14420023228E+02 -0.37852244841E+03  0.40014188742E+03  0.92122530700E+02 0.  0.
          5    1    3    3  502    0  0.48757766127E+02 -0.12578717357E+02 -0.57471707814E+03  0.57693390973E+03  0.41800000000E+01 0.  1.
         -5    1    3    3    0  502  0.41463009684E+02  0.26998740585E+02 -0.68075294772E+02  0.84260496815E+02  0.41800000000E+01 0.  1.
        -11    1    4    4    0    0 -0.29846380370E+02 -0.15008959232E+02 -0.25590327069E+02  0.42082539347E+02  0.00000000000E+00 0.  1.
         11    1    4    4    0    0 -0.60374395441E+02  0.58893600414E+00 -0.35293212134E+03  0.35805934807E+03  0.00000000000E+00 0. -1.
</event>
<event>
 8    1  0.6832629E-009  0.1390669E+03  0.7561462E-02  0.1214590E+00
         -1   -1    0    0    0  501 -0.00000000000E+00  0.00000000000E+00  0.14711429132E+02  0.14711429132E+02  0.00000000000E+00 0.  1.
          1   -1    0    0  501    0  0.00000000000E+00 -0.00000000000E+00 -0.14045158192E+04  0.14045158192E+04  0.00000000000E+00 0. -1.
         25    2    1    2    0    0  0.39994219408E+02  0.83752523857E+02 -0.83978786172E+03  0.85411132683E+03  0.12509389712E+03 0.  0.
         23    2    1    2    0    0 -0.39994219408E+02 -0.83752523857E+02 -0.55001652835E+03  0.56511592150E+03  0.90685172082E+02 0.  0.
          5    1    3    3  502    0 -0.28891268575E+02 -0.11158982352E+02 -0.30515386419E+03  0.30675003100E+03  0.41800000000E+01 0. -1.
         -5    1    3    3    0  502  0.68885487983E+02  0.94911506209E+02 -0.53463399753E+03  0.54736129584E+03  0.41800000000E+01 0. -1.
        -11    1    4    4    0    0 -0.52411219881E+02 -0.82994413597E+01 -0.20901213696E+03  0.21564296903E+03  0.00000000000E+00 0.  1.
         11    1    4    4    0    0  0.12417000473E+02 -0.75453082498E+02 -0.34100439140E+03  0.34947295247E+03  0.00000000000E+00 0. -1.
</event>
<event>
 8    1  0.6832629E-009  0.6714241E+02  0.7561462E-02  0.1370089E+00
         -1   -1    0    0    0  501 -0.00000000000E+00  0.00000000000E+00  0.17290793745E+03  0.17290793745E+03  0.00000000000E+00 0.  1.
          1   -1    0    0  501    0  0.00000000000E+00 -0.00000000000E+00 -0.91472106298E+02  0.91472106298E+02  0.00000000000E+00 0. -1.
         25    2    1    2    0    0 -0.21681598246E+01  0.57412577291E+02  0.20261445803E+02  0.13913718816E+03  0.12509087095E+03 0.  0.
         23    2    1    2    0    0  0.21681598246E+01 -0.57412577291E+02  0.61174385348E+02  0.12524285558E+03  0.92965383364E+02 0.  0.
          5    1    3    3  502    0 -0.23309965070E+01  0.64499807536E+02 -0.41489143367E+02  0.76840615134E+02  0.41800000000E+01 0.  1.
         -5    1    3    3    0  502  0.16283668238E+00 -0.70872302449E+01  0.61750589170E+02  0.62296573029E+02  0.41800000000E+01 0.  1.
        -11    1    4    4    0    0  0.96063167778E+01 -0.49862486489E+02  0.85086523371E+02  0.99087160320E+02  0.00000000000E+00 0.  1.
         11    1    4    4    0    0 -0.74381569532E+01 -0.75500908018E+01 -0.23912138023E+02  0.26155695265E+02  0.00000000000E+00 0. -1.
</event>
<event>
 8    1  0.6832629E-009  0.1219545E+03  0.7561462E-02  0.1239907E+00
         -1   -1    0    0    0  501 -0.00000000000E+00  0.00000000000E+00  0.10650372756E+04  0.10650372756E+04  0.00000000000E+00 0.  1.
          1   -1    0    0  501    0  0.00000000000E+00 -0.00000000000E+00 -0.21227595335E+02  0.21227595335E+02  0.00000000000E+00 0. -1.
         25    2    1    2    0    0 -0.29751410105E+02  0.99786233707E+02  0.55207396517E+03  0.57556582815E+03  0.12509164910E+03 0.  0.
         23    2    1    2    0    0  0.29751410105E+02 -0.99786233707E+02  0.49173571513E+03  0.51069904282E+03  0.90371787426E+02 0.  0.
          5    1    3    3  502    0 -0.30708618927E+02  0.69246533050E+02  0.53492727770E+03  0.54028026657E+03  0.41800000000E+01 0. -1.
         -5    1    3    3    0  502  0.95720882226E+00  0.30539700657E+02  0.17146687471E+02  0.35285561583E+02  0.41800000000E+01 0. -1.
        -11    1    4    4    0    0 -0.29476513815E+02 -0.56893613552E+02  0.20470253040E+03  0.21449679271E+03  0.00000000000E+00 0. -1.
         11    1    4    4    0    0  0.59227923920E+02 -0.42892620155E+02  0.28703318472E+03  0.29620225010E+03  0.00000000000E+00 0.  1.
</event>
<event>
 8    1  0.6832629E-009  0.1095913E+03  0.7561462E-02  0.1261329E+00
         -2   -1    0    0    0  501 -0.00000000000E+00  0.00000000000E+00  0.43013812145E+02  0.43013812145E+02  0.00000000000E+00 0.  1.
          2   -1    0    0  501    0  0.00000000000E+00 -0.00000000000E+00 -0.47175081660E+03  0.47175081660E+03  0.00000000000E+00 0. -1.
         25    2    1    2    0    0  0.89298637077E+02  0.12019643499E+02 -0.19487312646E+03  0.24847917332E+03  0.12509055019E+03 0.  0.
         23    2    1    2    0    0 -0.89298637077E+02 -0.12019643499E+02 -0.23386387800E+03  0.26628545542E+03  0.89982842390E+02 0.  0.
          5    1    3    3  502    0  0.10168941971E+03  0.17850250077E+02 -0.20592291229E+03  0.23039333262E+03  0.41800000000E+01 0.  1.
         -5    1    3    3    0  502 -0.12390782630E+02 -0.58306065779E+01  0.11049785829E+02  0.18085840708E+02  0.41800000000E+01 0.  1.
        -11    1    4    4    0    0 -0.61149913468E+02  0.14518445547E+02 -0.55731401431E+02  0.84000513592E+02  0.00000000000E+00 0.  1.
         11    1    4    4    0    0 -0.28148723609E+02 -0.26538089046E+02 -0.17813247657E+03  0.18228494183E+03  0.00000000000E+00 0. -1.
</event>
<event>
 8    1  0.6832629E-009  0.1027406E+03  0.7561462E-02  0.1274636E+00
         -1   -1    0    0    0  501 -0.00000000000E+00  0.00000000000E+00  0.10268293961E+03  0.10268293961E+03  0.00000000000E+00 0.  1.
          1   -1    0    0  501    0  0.00000000000E+00 -0.00000000000E+00 -0.12582251788E+03  0.12582251788E+03  0.00000000000E+00 0. -1.
         25    2    1    2    0    0  0.27243414745E+02  0.15359175314E+02 -0.22992090105E+02  0.13097287318E+03  0.12508856618E+03 0.  0.
         23    2    1    2    0    0 -0.27243414745E+02 -0.15359175314E+02 -0.14748815870E+00  0.97532584306E+02  0.92382224131E+02 0.  0.
          5    1    3    3  502    0 -0.34158628439E+02 -0.17821704552E+02  0.25044685652E+02  0.46142537093E+02  0.41800000000E+01 0. -1.
         -5    1    3    3    0  502  0.61402043184E+02  0.33180879866E+02 -0.48036775758E+02  0.84830336089E+02  0.41800000000E+01 0. -1.
        -11    1    4    4    0    0 -0.40817753916E+02  0.29226119708E+02 -0.60050258457E+01  0.50560018229E+02  0.00000000000E+00 0.  1.
         11    1    4    4    0    0  0.13574339171E+02 -0.44585295022E+02  0.58575376870E+01  0.46972566077E+02  0.00000000000E+00 0. -1.
</event>
<event>
 8    1  0.6832629E-009  0.1052189E+03  0.7561462E-02  0.1269689E+00
         -2   -1    0    0    0  501 -0.00000000000E+00  0.00000000000E+00  0.68130790003E+02  0.68130790003E+02  0.00000000000E+00 0.  1.
          2   -1    0    0  501    0  0.00000000000E+00 -0.00000000000E+00 -0.20820939433E+03  0.20820939433E+03  0.00000000000E+00 0. -1.
         25    2    1    2    0    0  0.23879600693E+02  0.38713648232E+02 -0.67927125657E+02  0.14943294428E+03  0.12508848287E+03 0.  0.
         23    2    1    2    0    0 -0.23879600693E+02 -0.38713648232E+02 -0.72151478668E+02  0.12690724005E+03  0.93971430843E+02 0.  0.
          5    1    3    3  502    0  0.61469168156E+02  0.26082047998E+02 -0.83173367837E+02  0.10674274392E+03  0.41800000000E+01 0.  1.
         -5    1    3    3    0  502 -0.37589567462E+02  0.12631600234E+02  0.15246242180E+02  0.42690200363E+02  0.41800000000E+01 0.  1.
        -11    1    4    4    0    0  0.12364675747E+02  0.26391616503E+02 -0.13705510619E+02  0.32206267236E+02  0.00000000000E+00 0. -1.
         11    1    4    4    0    0 -0.36244276441E+02 -0.65105264734E+02 -0.58445968049E+02  0.94700972815E+02  0.00000000000E+00 0.  1.
</event>
<event>
 8    1  0.6832629E-009  0.1412032E+03  0.7561462E-02  0.1211719E+00
          3   -1    0    0  501    0  0.00000000000E+00  0.00000000000E+00  0.82014594595E+02  0.82014594595E+02  0.00000000000E+00 0. -1.
         -3   -1    0    0    0  501 -0.00000000000E+00 -0.00000000000E+00 -0.26727748145E+03  0.26727748145E+03  0.00000000000E+00 0.  1.
         25    2    1    2    0    0  0.41582900362E+02  0.90471133692E+02 -0.11814908328E+03  0.19879534334E+03  0.12508484728E+03 0.  0.
         23    2    1    2    0    0 -0.41582900362E+02 -0.90471133692E+02 -0.67113803572E+02  0.15049673270E+03  0.90723978585E+02 0.  0.
          5    1    3    3  502    0 -0.41679676523E+02  0.55276666998E+02 -0.53136899007E+02  0.87371092391E+02  0.41800000000E+01 0. -1.
         -5    1    3    3    0  502  0.83262576886E+02  0.35194466694E+02 -0.65012184273E+02  0.11142425095E+03  0.41800000000E+01 0. -1.
        -11    1    4    4    0    0 -0.50815023778E+02 -0.25350885596E+02 -0.62675529473E+02  0.84575741420E+02  0.00000000000E+00 0.  1.
         11    1    4    4    0    0  0.92321234153E+01 -0.65120248096E+02 -0.44382740995E+01  0.65920991284E+02  0.00000000000E+00 0. -1.
</event>
<event>
 8    1  0.6832629E-009  0.2107226E+03  0.7561462E-02  0.1140995E+00
         -1   -1    0    0    0  501 -0.00000000000E+00  0.00000000000E+00  0.85512568782E+02  0.85512568782E+02  0.00000000000E+00 0.  1.
          1   -1    0    0  501    0  0.00000000000E+00 -0.00000000000E+00 -0.61734109732E+03  0.61734109732E+03  0.00000000000E+00 0. -1.
         25    2    1    2    0    0 -0.57711230884E+02  0.19253815295E+03 -0.31295670332E+03  0.39241643496E+03  0.12508890345E+03 0.  0.
         23    2    1    2    0    0  0.57711230884E+02 -0.19253815295E+03 -0.21887182522E+03  0.31043723114E+03  0.89804632904E+02 0.  0.
          5    1    3    3  502    0 -0.47632793574E+02  0.12791240013E+03 -0.29403676773E+03  0.32419987400E+03  0.41800000000E+01 0. -1.
         -5    1    3    3    0  502 -0.10078437310E+02  0.64625752821E+02 -0.18919935595E+02  0.68216560960E+02  0.41800000000E+01 0. -1.
        -11    1    4    4    0    0  0.57355466082E+02 -0.47949197728E+02 -0.62285799161E+02  0.97305168565E+02  0.00000000000E+00 0. -1.
         11    1    4    4    0    0  0.35576480243E+00 -0.14458895522E+03 -0.15658602606E+03  0.21313206257E+03  0.00000000000E+00 0.  1.
</event>
<event>
 8    1  0.6832629E-009  0.1141664E+03  0.7561462E-02  0.1253043E+00
         -2   -1    0    0    0  501 -0.00000000000E+00  0.00000000000E+00  0.23098852252E+02  0.23098852252E+02  0.00000000000E+00 0.  1.
          2   -1    0    0  501    0  0.00000000000E+00 -0.00000000000E+00 -0.79587312469E+03  0.79587312469E+03  0.00000000000E+00 0. -1.
         25    2    1    2    0    0  0.70221696435E+02 -0.14174329840E+02 -0.55585175411E+03  0.57423964810E+03  0.12509197665E+03 0.  0.
         23    2    1    2    0    0 -0.70221696435E+02  0.14174329840E+02 -0.21692251832E+03  0.24473232884E+03  0.87786875711E+02 0.  0.
          5    1    3    3  502    0  0.10487282334E+03  0.93192460676E+00 -0.43813859382E+03  0.45053532309E+03  0.41800000000E+01 0. -1.
         -5    1    3    3    0  502 -0.34651126909E+02 -0.15106254446E+02 -0.11771316029E+03  0.12370432501E+03  0.41800000000E+01 0. -1.
        -11    1    4    4    0    0 -0.23270760677E+02 -0.17143489816E+02 -0.10529325799E+02  0.30761896030E+02  0.00000000000E+00 0.  1.
         11    1    4    4    0    0 -0.46950935758E+02  0.31317819656E+02 -0.20639319252E+03  0.21397043281E+03  0.00000000000E+00 0. -1.
</event>
<event>
 8    1  0.6832629E-009  0.1276199E+03  0.7561462E-02  0.1231031E+00
          2   -1    0    0  501    0  0.00000000000E+00  0.00000000000E+00  0.25354618371E+03  0.25354618371E+03  0.00000000000E+00 0. -1.
         -2   -1    0    0    0  501 -0.00000000000E+00 -0.00000000000E+00 -0.73842760246E+02  0.73842760246E+02  0.00000000000E+00 0.  1.
         25    2    1    2    0    0 -0.33134389914E+02  0.57231243314E+02  0.39894044592E+02  0.14701181745E+03  0.12509051391E+03 0.  0.
         23    2    1    2    0    0  0.33134389914E+02 -0.57231243314E+02  0.13980937887E+03  0.18037712651E+03  0.92822100490E+02 0.  0.
          5    1    3    3  502    0 -0.79600741461E+02  0.21414504394E+02  0.26528417598E+02  0.86695376923E+02  0.41800000000E+01 0.  1.
         -5    1    3    3    0  502  0.46466351547E+02  0.35816738920E+02  0.13365626994E+02  0.60316440527E+02  0.41800000000E+01 0.  1.
        -11    1    4    4    0    0  0.65596836178E+02 -0.33366487473E+02  0.86998078444E+02  0.11395145043E+03  0.00000000000E+00 0.  1.
         11    1    4    4    0    0 -0.32462446263E+02 -0.23864755841E+02  0.52811300429E+02  0.66425676073E+02  0.00000000000E+00 0. -1.
</event>
<event>
 8    1  0.6832629E-009  0.8910174E+02  0.7561462E-02  0.1305042E+00
         -1   -1    0    0    0  501 -0.00000000000E+00  0.00000000000E+00  0.11662204089E+03  0.11662204089E+03  0.00000000000E+00 0. -1.
          1   -1    0    0  501    0  0.00000000000E+00 -0.00000000000E+00 -0.12918780487E+03  0.12918780487E+03  0.00000000000E+00 0.  1.
         25    2    1    2    0    0 -0.18133635293E+02 -0.12435090946E+02 -0.60579193505E+02  0.14071255386E+03  0.12508686547E+03 0.  0.
         23    2    1    2    0    0  0.18133635293E+02  0.12435090946E+02  0.48013429525E+02  0.10509729189E+03  0.90866336630E+02 0.  0.
          5    1    3    3  502    0  0.92755316233E+00 -0.65984588566E+02 -0.49628457288E+02  0.82675767041E+02  0.41800000000E+01 0. -1.
         -5    1    3    3    0  502 -0.19061188455E+02  0.53549497620E+02 -0.10950736216E+02  0.58036786820E+02  0.41800000000E+01 0. -1.
        -11    1    4    4    0    0 -0.56976002153E+00 -0.18730263737E+02  0.63040408387E+02  0.65766560619E+02  0.00000000000E+00 0. -1.
         11    1    4    4    0    0  0.18703395314E+02  0.31165354682E+02 -0.15026978861E+02  0.39330731273E+02  0.00000000000E+00 0.  1.
</event>
<event>
 8    1  0.6832629E-009  0.1388495E+03  0.7561462E-02  0.1214886E+00
         -2   -1    0    0    0  501 -0.00000000000E+00  0.00000000000E+00  0.14139551940E+03  0.14139551940E+03  0.00000000000E+00 0.  1.
          2   -1    0    0  501    0  0.00000000000E+00 -0.00000000000E+00 -0.23620915834E+03  0.23620915834E+03  0.00000000000E+00 0. -1.
         25    2    1    2    0    0  0.23034009194E+02 -0.96344105261E+02  0.61217579065E+02  0.17090260207E+03  0.12508938888E+03 0.  0.
         23    2    1    2    0    0 -0.23034009194E+02  0.96344105261E+02 -0.15603121800E+03  0.20670207566E+03  0.92559466794E+02 0.  0.
          5    1    3    3  502    0  0.81417966445E+01 -0.11840109124E+03  0.75188333851E+02  0.14055555914E+03  0.41800000000E+01 0. -1.
         -5    1    3    3    0  502  0.14892212550E+02  0.22056985977E+02 -0.13970754787E+02  0.30347042926E+02  0.41800000000E+01 0. -1.
        -11    1    4    4    0    0 -0.56621772567E+02  0.58838330607E+02 -0.72640467941E+02  0.10929140799E+03  0.00000000000E+00 0. -1.
         11    1    4    4    0    0  0.33587763373E+02  0.37505774654E+02 -0.83390750063E+02  0.97410667674E+02  0.00000000000E+00 0.  1.
</event>
<event>
 8    1  0.6832629E-009  0.1199682E+03  0.7561462E-02  0.1243149E+00
          2   -1    0    0  501    0  0.00000000000E+00  0.00000000000E+00  0.24057481546E+04  0.24057481546E+04  0.00000000000E+00 0. -1.
         -2   -1    0    0    0  501 -0.00000000000E+00 -0.00000000000E+00 -0.20784508772E+02  0.20784508772E+02  0.00000000000E+00 0.  1.
         25    2    1    2    0    0  0.37567157816E+02 -0.74152045926E+02  0.21942171438E+04  0.21993514521E+04  0.12509243963E+03 0.  0.
         23    2    1    2    0    0 -0.37567157816E+02  0.74152045926E+02  0.19074650203E+03  0.22718121127E+03  0.91198999210E+02 0.  0.
          5    1    3    3  502    0  0.75085389865E+02 -0.59203915909E+02  0.10329204259E+04  0.10373451682E+04  0.41800000000E+01 0.  1.
         -5    1    3    3    0  502 -0.37518232049E+02 -0.14948130017E+02  0.11612967179E+04  0.11620062838E+04  0.41800000000E+01 0.  1.
        -11    1    4    4    0    0  0.17078954784E+02  0.12045561061E+02  0.10862193868E+03  0.11061424773E+03  0.00000000000E+00 0. -1.
         11    1    4    4    0    0 -0.54646112601E+02  0.62106484865E+02  0.82124563354E+02  0.11656696355E+03  0.00000000000E+00 0.  1.
</event>
<event>
 8    1  0.6832629E-009  0.1330931E+03  0.7561462E-02  0.1222937E+00
         -1   -1    0    0    0  501 -0.00000000000E+00  0.00000000000E+00  0.30799912579E+02  0.30799912579E+02  0.00000000000E+00 0.  1.
          1   -1    0    0  501    0  0.00000000000E+00 -0.00000000000E+00 -0.64918427833E+03  0.64918427833E+03  0.00000000000E+00 0. -1.
         25    2    1    2    0    0 -0.54508353416E+02  0.52737735814E+02 -0.23250240352E+03  0.27469542224E+03  0.12509107876E+03 0.  0.
         23    2    1    2    0    0  0.54508353416E+02 -0.52737735814E+02 -0.38588196223E+03  0.40528876867E+03  0.97988100628E+02 0.  0.
          5    1    3    3  502    0 -0.68729613619E+02 -0.17187874247E+02 -0.84596760883E+02  0.11042312784E+03  0.41800000000E+01 0.  1.
         -5    1    3    3    0  502  0.14221260202E+02  0.69925610061E+02 -0.14790564264E+03  0.16427229441E+03  0.41800000000E+01 0.  1.
        -11    1    4    4    0    0  0.15213282584E+02 -0.76378666176E+02 -0.25310564600E+03  0.26481618653E+03  0.00000000000E+00 0. -1.
         11    1    4    4    0    0  0.39295070833E+02  0.23640930362E+02 -0.13277631623E+03  0.14047258213E+03  0.00000000000E+00 0.  1.
</event>
<event>
 8    1  0.6832629E-009  0.1781759E+03  0.7561462E-02  0.1169580E+00
          2   -1    0    0  501    0  0.00000000000E+00  0.00000000000E+00  0.23785011913E+04  0.23785011913E+04  0.00000000000E+00 0. -1.
         -2   -1    0    0    0  501 -0.00000000000E+00 -0.00000000000E+00 -0.36033195933E+02  0.36033195933E+02  0.00000000000E+00 0.  1.
         25    2    1    2    0    0  0.12518845943E+03  0.65181618686E+02  0.21524376805E+04  0.21606842123E+04  0.12508997975E+03 0.  0.
         23    2    1    2    0    0 -0.12518845943E+03 -0.65181618686E+02  0.19003031482E+03  0.25385017490E+03  0.91692949310E+02 0.  0.
          5    1    3    3  502    0  0.14776299030E+03  0.72092791093E+02  0.18480818089E+04  0.18553854361E+04  0.41800000000E+01 0. -1.
         -5    1    3    3    0  502 -0.22574530868E+02 -0.69111724073E+01  0.30435587159E+03  0.30529877615E+03  0.41800000000E+01 0. -1.
        -11    1    4    4    0    0 -0.83342492384E+02 -0.87202519271E+02  0.12845063412E+03  0.17620957922E+03  0.00000000000E+00 0.  1.
         11    1    4    4    0    0 -0.41845967049E+02  0.22020900586E+02  0.61579680709E+02  0.77640595677E+02  0.00000000000E+00 0. -1.
</event>
<event>
 8    1  0.6832629E-009  0.4759283E+02  0.7561462E-02  0.1458775E+00
         -1   -1    0    0    0  501 -0.00000000000E+00  0.00000000000E+00  0.34165813215E+02  0.34165813215E+02  0.00000000000E+00 0.  1.
          1   -1    0    0  501    0  0.00000000000E+00 -0.00000000000E+00 -0.62171779674E+03  0.62171779674E+03  0.00000000000E+00 0. -1.
         25    2    1    2    0    0  0.36042213996E+01 -0.23200669665E+02 -0.52898957018E+03  0.54408640542E+03  0.12509512266E+03 0.  0.
         23    2    1    2    0    0 -0.36042213996E+01  0.23200669665E+02 -0.58562413342E+02  0.11179720454E+03  0.92291912977E+02 0.  0.
          5    1    3    3  502    0  0.10846946087E+02 -0.20810769938E+02 -0.11398707419E+02  0.26422477470E+02  0.41800000000E+01 0. -1.
         -5    1    3    3    0  502 -0.72427246877E+01 -0.23898997271E+01 -0.51759086276E+03  0.51766392795E+03  0.41800000000E+01 0. -1.
        -11    1    4    4    0    0 -0.17693284805E+02 -0.14198690938E+02  0.15613674708E+02  0.27539825516E+02  0.00000000000E+00 0.  1.
         11    1    4    4    0    0  0.14089063405E+02  0.37399360603E+02 -0.74176088050E+02  0.84257379021E+02  0.00000000000E+00 0. -1.
</event>
<event>
 8    1  0.6832629E-009  0.1299150E+03  0.7561462E-02  0.1227582E+00
         -3   -1    0    0    0  501 -0.00000000000E+00  0.00000000000E+00  0.28333912342E+03  0.28333912342E+03  0.00000000000E+00 0.  1.
          3   -1    0    0  501    0  0.00000000000E+00 -0.00000000000E+00 -0.65365744224E+02  0.65365744224E+02  0.00000000000E+00 0. -1.
         25    2    1    2    0    0  0.47407800151E+02  0.59000751415E+02  0.80788886581E+02  0.16704188942E+03  0.12509020923E+03 0.  0.
         23    2    1    2    0    0 -0.47407800151E+02 -0.59000751415E+02  0.13718449262E+03  0.18166297822E+03  0.91941636158E+02 0.  0.
          5    1    3    3  502    0  0.20236545828E+02 -0.37492006435E+02  0.40472298517E+02  0.58912203157E+02  0.41800000000E+01 0. -1.
         -5    1    3    3    0  502  0.27171254323E+02  0.96492757850E+02  0.40316588065E+02  0.10812968627E+03  0.41800000000E+01 0. -1.
        -11    1    4    4    0    0 -0.73970136153E+02 -0.40655568666E+02  0.11432179325E+03  0.14210534373E+03  0.00000000000E+00 0.  1.
         11    1    4    4    0    0  0.26562336002E+02 -0.18345182749E+02  0.22862699371E+02  0.39557634491E+02  0.00000000000E+00 0. -1.
</event>
<event>
 8    1  0.6832629E-009  0.9898737E+02  0.7561462E-02  0.1282440E+00
          1   -1    0    0  501    0  0.00000000000E+00  0.00000000000E+00  0.26518819165E+03  0.26518819165E+03  0.00000000000E+00 0. -1.
         -1   -1    0    0    0  501 -0.00000000000E+00 -0.00000000000E+00 -0.56398829417E+02  0.56398829417E+02  0.00000000000E+00 0.  1.
         25    2    1    2    0    0 -0.12442067478E+02  0.27161534873E+02  0.54316118884E+02  0.13960936577E+03  0.12509188711E+03 0.  0.
         23    2    1    2    0    0  0.12442067478E+02 -0.27161534873E+02  0.15447324335E+03  0.18197765530E+03  0.91440308926E+02 0.  0.
          5    1    3    3  502    0  0.21303018175E+00 -0.50030354838E+02  0.18959871885E+02  0.53665919623E+02  0.41800000000E+01 0.  1.
         -5    1    3    3    0  502 -0.12655097660E+02  0.77191889712E+02  0.35356246999E+02  0.85943446149E+02  0.41800000000E+01 0.  1.
        -11    1    4    4    0    0  0.15775720187E+02  0.18123661823E+02  0.12624419452E+03  0.12851045528E+03  0.00000000000E+00 0. -1.
         11    1    4    4    0    0 -0.33336527089E+01 -0.45285196696E+02  0.28229048831E+02  0.53467200021E+02  0.00000000000E+00 0.  1.
</event>
<event>
 8    1  0.6832629E-009  0.8803430E+02  0.7561462E-02  0.1307683E+00
          1   -1    0    0  501    0  0.00000000000E+00  0.00000000000E+00  0.44194171762E+02  0.44194171762E+02  0.00000000000E+00 0. -1.
         -1   -1    0    0    0  501 -0.00000000000E+00 -0.00000000000E+00 -0.31647365680E+03  0.31647365680E+03  0.00000000000E+00 0.  1.
         25    2    1    2    0    0 -0.32341758371E+02  0.34375423769E+02 -0.14622234086E+03  0.19813315027E+03  0.12509241853E+03 0.  0.
         23    2    1    2    0    0  0.32341758371E+02 -0.34375423769E+02 -0.12605714417E+03  0.16253467829E+03  0.91101366381E+02 0.  0.
          5    1    3    3  502    0 -0.18080205594E+02 -0.14151630492E+02 -0.14551700970E+03  0.14737650760E+03  0.41800000000E+01 0. -1.
         -5    1    3    3    0  502 -0.14261552777E+02  0.48527054261E+02 -0.70533116151E+00  0.50756642668E+02  0.41800000000E+01 0. -1.
        -11    1    4    4    0    0 -0.32030553753E+01 -0.58777384464E+02 -0.63813817171E+02  0.86817300984E+02  0.00000000000E+00 0. -1.
         11    1    4    4    0    0  0.35544813746E+02  0.24401960695E+02 -0.62243327004E+02  0.75717377309E+02  0.00000000000E+00 0.  1.
</event>
<event>
 8    1  0.6832629E-009  0.1412656E+03  0.7561462E-02  0.1211636E+00
         -1   -1    0    0    0  501 -0.00000000000E+00  0.00000000000E+00  0.37552829765E+02  0.37552829765E+02  0.00000000000E+00 0.  1.
          1   -1    0    0  501    0  0.00000000000E+00 -0.00000000000E+00 -0.78766754940E+03  0.78766754940E+03  0.00000000000E+00 0. -1.
         25    2    1    2    0    0  0.86943124482E+02  0.74104060771E+02 -0.55475033663E+03  0.58003789677E+03  0.12508200104E+03 0.  0.
         23    2    1    2    0    0 -0.86943124482E+02 -0.74104060771E+02 -0.19536438301E+03  0.24518248240E+03  0.94322260410E+02 0.  0.
          5    1    3    3  502    0  0.66140528474E+02 -0.21957202731E+02 -0.26500690836E+03  0.27404894114E+03  0.41800000000E+01 0. -1.
         -5    1    3    3    0  502  0.20802596009E+02  0.96061263502E+02 -0.28974342826E+03  0.30598895563E+03  0.41800000000E+01 0. -1.
        -11    1    4    4    0    0 -0.58007792138E+02 -0.46439493310E+02 -0.19096091676E+03  0.20490876559E+03  0.00000000000E+00 0. -1.
         11    1    4    4    0    0 -0.28935332344E+02 -0.27664567460E+02 -0.44034662570E+01  0.40273716810E+02  0.00000000000E+00 0.  1.
</event>
<event>
 8    1  0.6832629E-009  0.2078817E+03  0.7561462E-02  0.1143255E+00
         -2   -1    0    0    0  501 -0.00000000000E+00  0.00000000000E+00  0.56860582799E+03  0.56860582799E+03  0.00000000000E+00 0.  1.
          2   -1    0    0  501    0  0.00000000000E+00 -0.00000000000E+00 -0.87536020330E+02  0.87536020330E+02  0.00000000000E+00 0. -1.
         25    2    1    2    0    0  0.10842466462E+03 -0.15526802561E+03  0.31540579473E+03  0.38857968833E+03  0.12509712691E+03 0.  0.
         23    2    1    2    0    0 -0.10842466462E+03  0.15526802561E+03  0.16566401293E+03  0.26756215999E+03  0.90999322009E+02 0.  0.
          5    1    3    3  502    0  0.82042276606E+02 -0.16312063651E+03  0.20428449719E+03  0.27402354898E+03  0.41800000000E+01 0. -1.
         -5    1    3    3    0  502  0.26382388009E+02  0.78526108995E+01  0.11112129754E+03  0.11455613935E+03  0.41800000000E+01 0. -1.
        -11    1    4    4    0    0 -0.48504627925E+02  0.13264408534E+03  0.13907187083E+03  0.19821235472E+03  0.00000000000E+00 0.  1.
         11    1    4    4    0    0 -0.59920036690E+02  0.22623940269E+02  0.26592142096E+02  0.69349805273E+02  0.00000000000E+00 0. -1.
</event>
<event>
 8    1  0.6832629E-009  0.1124980E+03  0.7561462E-02  0.1256013E+00
         -1   -1    0    0    0  501 -0.00000000000E+00  0.00000000000E+00  0.63423489528E+02  0.63423489528E+02  0.00000000000E+00 0.  1.
          1   -1    0    0  501    0  0.00000000000E+00 -0.00000000000E+00 -0.25995588177E+03  0.25995588177E+03  0.00000000000E+00 0. -1.
         25    2    1    2    0    0  0.71063456076E+02  0.91735865240E+01 -0.11764045278E+03  0.18606714143E+03  0.12509010956E+03 0.  0.
         23    2    1    2    0    0 -0.71063456076E+02 -0.91735865240E+01 -0.78891939467E+02  0.13731222987E+03  0.86582566839E+02 0.  0.
          5    1    3    3  502    0  0.36715575016E+02 -0.57617072716E+02 -0.48421759519E+02  0.83844497208E+02  0.41800000000E+01 0.  1.
         -5    1    3    3    0  502  0.34347881060E+02  0.66790659240E+02 -0.69218693259E+02  0.10222264422E+03  0.41800000000E+01 0.  1.
        -11    1    4    4    0    0 -0.45007039269E+02  0.13284597216E+02  0.44627805454E+01  0.47138418696E+02  0.00000000000E+00 0.  1.
         11    1    4    4    0    0 -0.26056416807E+02 -0.22458183740E+02 -0.83354720013E+02  0.90173811177E+02  0.00000000000E+00 0. -1.
</event>
<event>
 8    1  0.6832629E-009  0.8662946E+02  0.7561462E-02  0.1311226E+00
          1   -1    0    0  501    0  0.00000000000E+00  0.00000000000E+00  0.23596452972E+03  0.23596452972E+03  0.00000000000E+00 0. -1.
         -1   -1    0    0    0  501 -0.00000000000E+00 -0.00000000000E+00 -0.54082327875E+02  0.54082327875E+02  0.00000000000E+00 0.  1.
         25    2    1    2    0    0  0.18812792147E+02 -0.21354365143E+02  0.86736669278E+02  0.15485837131E+03  0.12509170760E+03 0.  0.
         23    2    1    2    0    0 -0.18812792147E+02  0.21354365143E+02  0.95145532569E+02  0.13518848628E+03  0.91724175640E+02 0.  0.
          5    1    3    3  502    0 -0.28275772665E+02 -0.14323209511E+01  0.98206670909E+02  0.10229170775E+03  0.41800000000E+01 0. -1.
         -5    1    3    3    0  502  0.47088564812E+02 -0.19922044192E+02 -0.11470001631E+02  0.52566663564E+02  0.41800000000E+01 0. -1.
        -11    1    4    4    0    0 -0.22069476510E+02  0.55142659124E+02  0.44485416691E+02  0.74207324078E+02  0.00000000000E+00 0.  1.
         11    1    4    4    0    0  0.32566843628E+01 -0.33788293980E+02  0.50660115878E+02  0.60981162205E+02  0.00000000000E+00 0. -1.
</event>
<event>
 8    1  0.6832629E-009  0.1574856E+03  0.7561462E-02  0.1191565E+00
          3   -1    0    0  501    0  0.00000000000E+00  0.00000000000E+00  0.24817986896E+03  0.24817986896E+03  0.00000000000E+00 0. -1.
         -3   -1    0    0    0  501 -0.00000000000E+00 -0.00000000000E+00 -0.12790234583E+03  0.12790234583E+03  0.00000000000E+00 0.  1.
         25    2    1    2    0    0 -0.11394588213E+03  0.56699701178E+02 -0.27364044687E+01  0.17847714146E+03  0.12509229372E+03 0.  0.
         23    2    1    2    0    0  0.11394588213E+03 -0.56699701178E+02  0.12301392760E+03  0.19760507332E+03  0.87845423620E+02 0.  0.
          5    1    3    3  502    0  0.14853533119E+02  0.23907620774E+02  0.30191016119E+02  0.41487005574E+02  0.41800000000E+01 0.  1.
         -5    1    3    3    0  502 -0.12879941525E+03  0.32792080403E+02 -0.32927420588E+02  0.13699013589E+03  0.41800000000E+01 0.  1.
        -11    1    4    4    0    0  0.40896287162E+02  0.21773307919E+02  0.48296003341E+02  0.66925982847E+02  0.00000000000E+00 0.  1.
         11    1    4    4    0    0  0.73049594964E+02 -0.78473009097E+02  0.74717924261E+02  0.13067909047E+03  0.00000000000E+00 0. -1.
</event>
<event>
 8    1  0.6832629E-009  0.1133426E+03  0.7561462E-02  0.1254502E+00
          3   -1    0    0  501    0  0.00000000000E+00  0.00000000000E+00  0.31456577107E+03  0.31456577107E+03  0.00000000000E+00 0. -1.
         -3   -1    0    0    0  501 -0.00000000000E+00 -0.00000000000E+00 -0.97409854757E+02  0.97409854757E+02  0.00000000000E+00 0.  1.
         25    2    1    2    0    0  0.70382954454E+02  0.36469310546E+02 -0.16124702873E+02  0.14897007681E+03  0.12509319267E+03 0.  0.
         23    2    1    2    0    0 -0.70382954454E+02 -0.36469310546E+02  0.23328061918E+03  0.26300554901E+03  0.92023370060E+02 0.  0.
          5    1    3    3  502    0 -0.12201599350E+02 -0.30475990139E+02  0.17442072240E+02  0.37408064446E+02  0.41800000000E+01 0. -1.
         -5    1    3    3    0  502  0.82584553804E+02  0.66945300685E+02 -0.33566775113E+02  0.11156201236E+03  0.41800000000E+01 0. -1.
        -11    1    4    4    0    0 -0.14648335441E+02 -0.26928099151E+02  0.93539466086E+01  0.32049845121E+02  0.00000000000E+00 0.  1.
         11    1    4    4    0    0 -0.55734619013E+02 -0.95412113949E+01  0.22392667257E+03  0.23095570389E+03  0.00000000000E+00 0. -1.
</event>
<event>
 8    1  0.6832629E-009  0.1052297E+03  0.7561462E-02  0.1269668E+00
          3   -1    0    0  501    0  0.00000000000E+00  0.00000000000E+00  0.59300630657E+02  0.59300630657E+02  0.00000000000E+00 0. -1.
         -3   -1    0    0    0  501 -0.00000000000E+00 -0.00000000000E+00 -0.27070140843E+03  0.27070140843E+03  0.00000000000E+00 0.  1.
         25    2    1    2    0    0  0.12346709807E+02  0.43094122185E+02 -0.53889544688E+02  0.14339236157E+03  0.12509093381E+03 0.  0.
         23    2    1    2    0    0 -0.12346709807E+02 -0.43094122185E+02 -0.15751123309E+03  0.18660967752E+03  0.89464174869E+02 0.  0.
          5    1    3    3  502    0  0.40116243444E+02  0.66860578170E+02  0.70669175678E-01  0.78084103987E+02  0.41800000000E+01 0. -1.
         -5    1    3    3    0  502 -0.27769533637E+02 -0.23766455985E+02 -0.53960213864E+02  0.65308257585E+02  0.41800000000E+01 0. -1.
        -11    1    4    4    0    0 -0.44908560365E+02 -0.45645886726E+01 -0.10233619383E+03  0.11184950081E+03  0.00000000000E+00 0. -1.
         11    1    4    4    0    0  0.32561850558E+02 -0.38529533512E+02 -0.55175039256E+02  0.74760176707E+02  0.00000000000E+00 0.  1.
</event>
<event>
 8    1  0.6832629E-009  0.1258816E+03  0.7561462E-02  0.1233698E+00
         -2   -1    0    0    0  501 -0.00000000000E+00  0.00000000000E+00  0.71456067404E+02  0.71456067404E+02  0.00000000000E+00 0. -1.
          2   -1    0    0  501    0  0.00000000000E+00 -0.00000000000E+00 -0.34738069215E+03  0.34738069215E+03  0.00000000000E+00 0.  1.
         25    2    1    2    0    0  0.95930064241E+02 -0.11628644272E+02 -0.71817144544E+02  0.17361503158E+03  0.12508666735E+03 0.  0.
         23    2    1    2    0    0 -0.95930064241E+02  0.11628644272E+02 -0.20410748021E+03  0.24522172798E+03  0.95582581061E+02 0.  0.
          5    1    3    3  502    0 -0.21040147345E+01  0.34559947994E+02 -0.53148580650E+02  0.63569339374E+02  0.41800000000E+01 0.  1.
         -5    1    3    3    0  502  0.98034078975E+02 -0.46188592266E+02 -0.18668563894E+02  0.11004569221E+03  0.41800000000E+01 0.  1.
        -11    1    4    4    0    0 -0.78021725919E+02 -0.11841461107E+02 -0.20051085180E+03  0.21548134863E+03  0.00000000000E+00 0.  1.
         11    1    4    4    0    0 -0.17908338321E+02  0.23470105379E+02 -0.35966284078E+01  0.29740379350E+02  0.00000000000E+00 0. -1.
</event>
<event>
 8    1  0.6832629E-009  0.1373160E+03  0.7561462E-02  0.1216987E+00
         -2   -1    0    0    0  501 -0.00000000000E+00  0.00000000000E+00  0.70027699268E+02  0.70027699268E+02  0.00000000000E+00 0.  1.
          2   -1    0    0  501    0  0.00000000000E+00 -0.00000000000E+00 -0.33472350949E+03  0.33472350949E+03  0.00000000000E+00 0. -1.
         25    2    1    2    0    0 -0.84521759130E+02 -0.28075240988E+02 -0.66100815353E+02  0.16717992208E+03  0.12509061369E+03 0.  0.
         23    2    1    2    0    0  0.84521759130E+02  0.28075240988E+02 -0.19859499487E+03  0.23757128668E+03  0.95226032912E+02 0.  0.
          5    1    3    3  502    0 -0.17184011819E+02 -0.65369345325E+02 -0.58909092834E+02  0.89756310023E+02  0.41800000000E+01 0.  1.
         -5    1    3    3    0  502 -0.67337747310E+02  0.37294104337E+02 -0.71917225192E+01  0.77423612057E+02  0.41800000000E+01 0.  1.
        -11    1    4    4    0    0  0.36898717566E+02  0.61445180781E+02 -0.12049768805E+03  0.14020241947E+03  0.00000000000E+00 0. -1.
         11    1    4    4    0    0  0.47623041563E+02 -0.33369939792E+02 -0.78097306817E+02  0.97368867209E+02  0.00000000000E+00 0.  1.
</event>
<event>
 8    1  0.6832629E-009  0.1180655E+03  0.7561462E-02  0.1246323E+00
          2   -1    0    0  501    0  0.00000000000E+00  0.00000000000E+00  0.43249824570E+02  0.43249824570E+02  0.00000000000E+00 0. -1.
         -2   -1    0    0    0  501 -0.00000000000E+00 -0.00000000000E+00 -0.32565622233E+03  0.32565622233E+03  0.00000000000E+00 0.  1.
         25    2    1    2    0    0 -0.31951891057E+02  0.38036491740E+02 -0.16441121600E+03  0.21247643685E+03  0.12508992854E+03 0.  0.
         23    2    1    2    0    0  0.31951891057E+02 -0.38036491740E+02 -0.11799518176E+03  0.15642961005E+03  0.89886939743E+02 0.  0.
          5    1    3    3  502    0  0.29362467762E+02 -0.30198869972E+02 -0.59995412364E+02  0.73423757500E+02  0.41800000000E+01 0. -1.
         -5    1    3    3    0  502 -0.61314358818E+02  0.68235361712E+02 -0.10441580364E+03  0.13905267935E+03  0.41800000000E+01 0. -1.
        -11    1    4    4    0    0 -0.30517674997E+02 -0.21564005497E+02 -0.34498780257E+02  0.50857650944E+02  0.00000000000E+00 0. -1.
         11    1    4    4    0    0  0.62469566053E+02 -0.16472486243E+02 -0.83496401504E+02  0.10557195911E+03  0.00000000000E+00 0.  1.
</event>
<event>
 8    1  0.6832629E-009  0.1329626E+03  0.7561462E-02  0.1223125E+00
          1   -1    0    0  501    0  0.00000000000E+00  0.00000000000E+00  0.31893185491E+03  0.31893185491E+03  0.00000000000E+00 0. -1.
         -1   -1    0    0    0  501 -0.00000000000E+00 -0.00000000000E+00 -0.85718435093E+02  0.85718435093E+02  0.00000000000E+00 0.  1.
         25    2    1    2    0    0 -0.62618625156E+02 -0.88958234408E+02  0.19820290930E+03  0.25839173913E+03  0.12508892002E+03 0.  0.
         23    2    1    2    0    0  0.62618625156E+02  0.88958234408E+02  0.35010510519E+02  0.14625855087E+03  0.91275233062E+02 0.  0.
          5    1    3    3  502    0 -0.13297096385E+02 -0.96437634894E+02  0.67791196051E+02  0.11870193283E+03  0.41800000000E+01 0.  1.
         -5    1    3    3    0  502 -0.49321528771E+02  0.74794004863E+01  0.13041171325E+03  0.13968980630E+03  0.41800000000E+01 0.  1.
        -11    1    4    4    0    0  0.13222970579E+02  0.59415468926E+02  0.58191346572E+02  0.84209724584E+02  0.00000000000E+00 0. -1.
         11    1    4    4    0    0  0.49395654577E+02  0.29542765482E+02 -0.23180836053E+02  0.62048826287E+02  0.00000000000E+00 0.  1.
</event>
<event>
 8    1  0.6832629E-009  0.1044053E+03  0.7561462E-02  0.1271296E+00
         -2   -1    0    0    0  501 -0.00000000000E+00  0.00000000000E+00  0.31825793745E+02  0.31825793745E+02  0.00000000000E+00 0.  1.
          2   -1    0    0  501    0  0.00000000000E+00 -0.00000000000E+00 -0.42212700395E+03  0.42212700395E+03  0.00000000000E+00 0. -1.
         25    2    1    2    0    0  0.26650318121E+02  0.26361243676E+01 -0.16204295619E+03  0.20645206445E+03  0.12508935468E+03 0.  0.
         23    2    1    2    0    0 -0.26650318121E+02 -0.26361243676E+01 -0.22825825402E+03  0.24750073325E+03  0.91856376084E+02 0.  0.
          5    1    3    3  502    0  0.52201572294E+02 -0.46268701602E+02 -0.11102882501E+03  0.13118944043E+03  0.41800000000E+01 0. -1.
         -5    1    3    3    0  502 -0.25551254173E+02  0.48904825970E+02 -0.51014131186E+02  0.75262624015E+02  0.41800000000E+01 0. -1.
        -11    1    4    4    0    0 -0.33588872868E+01  0.37252632235E+02 -0.45022407191E+02  0.58532536948E+02  0.00000000000E+00 0.  1.
         11    1    4    4    0    0 -0.23291430834E+02 -0.39888756603E+02 -0.18323584682E+03  0.18896819631E+03  0.00000000000E+00 0. -1.
</event>
<event>
 8    1  0.6832629E-009  0.1435059E+03  0.7561462E-02  0.1208688E+00
          1   -1    0    0  501    0  0.00000000000E+00  0.00000000000E+00  0.10585429047E+04  0.10585429047E+04  0.00000000000E+00 0. -1.
         -1   -1    0    0    0  501 -0.00000000000E+00 -0.00000000000E+00 -0.31206758642E+02  0.31206758642E+02  0.00000000000E+00 0.  1.
         25    2    1    2    0    0  0.98617534396E+02 -0.77986101058E+02  0.32114663108E+03  0.36686553398E+03  0.12509161170E+03 0.  0.
         23    2    1    2    0    0 -0.98617534396E+02  0.77986101058E+02  0.70618951500E+03  0.72288412939E+03  0.89725043187E+02 0.  0.
          5    1    3    3  502    0  0.85991706851E+02 -0.44176242841E+02  0.31561426604E+03  0.33011505783E+03  0.41800000000E+01 0. -1.
         -5    1    3    3    0  502  0.12625827545E+02 -0.33809858217E+02  0.55323650372E+01  0.36750476144E+02  0.41800000000E+01 0. -1.
        -11    1    4    4    0    0 -0.12608859860E+02 -0.19932583141E+02  0.88009384166E+02  0.91114998321E+02  0.00000000000E+00 0.  1.
         11    1    4    4    0    0 -0.86008674536E+02  0.97918684199E+02  0.61818013083E+03  0.63176913107E+03  0.00000000000E+00 0. -1.
</event>
<event>
 8    1  0.6832629E-009  0.1113601E+03  0.7561462E-02  0.1258072E+00
         -1   -1    0    0    0  501 -0.00000000000E+00  0.00000000000E+00  0.51070701305E+03  0.51070701305E+03  0.00000000000E+00 0.  1.
          1   -1    0    0  501    0  0.00000000000E+00 -0.00000000000E+00 -0.26088136784E+02  0.26088136784E+02  0.00000000000E+00 0. -1.
         25    2    1    2    0    0  0.29665876282E+02 -0.38850705845E+01  0.32178611863E+03  0.34653891036E+03  0.12509097593E+03 0.  0.
         23    2    1    2    0    0 -0.29665876282E+02  0.38850705845E+01  0.16283275764E+03  0.19025623948E+03  0.93743115545E+02 0.  0.
          5    1    3    3  502    0 -0.29352427438E+02  0.40836625252E+02  0.17424363596E+03  0.18140427787E+03  0.41800000000E+01 0.  1.
         -5    1    3    3    0  502  0.59018303720E+02 -0.44721695837E+02  0.14754248268E+03  0.16513463249E+03  0.41800000000E+01 0.  1.
        -11    1    4    4    0    0 -0.29338930165E+02 -0.42532746757E+02  0.78180012870E+02  0.93711908434E+02  0.00000000000E+00 0. -1.
         11    1    4    4    0    0 -0.32694611655E+00  0.46417817341E+02  0.84652744768E+02  0.96544331046E+02  0.00000000000E+00 0.  1.
</event>
<event>
 8    1  0.6832629E-009  0.1329578E+03  0.7561462E-02  0.1223132E+00
         -2   -1    0    0    0  501 -0.00000000000E+00  0.00000000000E+00  0.66118645279E+02  0.66118645279E+02  0.00000000000E+00 0.  1.
          2   -1    0    0  501    0  0.00000000000E+00 -0.00000000000E+00 -0.32806151049E+03  0.32806151049E+03  0.00000000000E+00 0. -1.
         25    2    1    2    0    0  0.90270375166E+02 -0.78926511294E+00 -0.19701747555E+03  0.25022498470E+03  0.12508914311E+03 0.  0.
         23    2    1    2    0    0 -0.90270375166E+02  0.78926511294E+00 -0.64925389656E+02  0.14395517106E+03  0.91424403097E+02 0.  0.
          5    1    3    3  502    0  0.14567490255E+02  0.56446915147E+02 -0.62784368396E+02  0.85777708741E+02  0.41800000000E+01 0.  1.
         -5    1    3    3    0  502  0.75702884911E+02 -0.57236180260E+02 -0.13423310716E+03  0.16444727596E+03  0.41800000000E+01 0.  1.
        -11    1    4    4    0    0 -0.31289828767E+02 -0.32195570312E+02 -0.61694155244E+02  0.76300569613E+02  0.00000000000E+00 0. -1.
         11    1    4    4    0    0 -0.58980546399E+02  0.32984835424E+02 -0.32312344119E+01  0.67654601450E+02  0.00000000000E+00 0.  1.
</event>
<event>
 8    1  0.6832629E-009  0.1169557E+03  0.7561462E-02  0.1248205E+00
         -1   -1    0    0    0  501 -0.00000000000E+00  0.00000000000E+00  0.38849750002E+02  0.38849750002E+02  0.00000000000E+00 0.  1.
          1   -1    0    0  501    0  0.00000000000E+00 -0.00000000000E+00 -0.54967766504E+03  0.54967766504E+03  0.00000000000E+00 0. -1.
         25    2    1    2    0    0 -0.27399653177E+02 -0.91788821523E+02 -0.31397678247E+03  0.35129049009E+03  0.12509060613E+03 0.  0.
         23    2    1    2    0    0  0.27399653177E+02  0.91788821523E+02 -0.19685113257E+03  0.23723692496E+03  0.91406025077E+02 0.  0.
          5    1    3    3  502    0 -0.50526920777E+02 -0.61225722249E+02 -0.75216638714E+02  0.10943753436E+03  0.41800000000E+01 0. -1.
         -5    1    3    3    0  502  0.23127267601E+02 -0.30563099274E+02 -0.23876014376E+03  0.24185295572E+03  0.41800000000E+01 0. -1.
        -11    1    4    4    0    0  0.40775439971E+02  0.25174726544E+02 -0.28651782882E+02  0.55833037027E+02  0.00000000000E+00 0.  1.
         11    1    4    4    0    0 -0.13375786794E+02  0.66614094979E+02 -0.16819934969E+03  0.18140388793E+03  0.00000000000E+00 0. -1.
</event>
<event>
 8    1  0.6832629E-009  0.1031596E+03  0.7561462E-02  0.1273789E+00
          3   -1    0    0  501    0  0.00000000000E+00  0.00000000000E+00  0.55534450339E+02  0.55534450339E+02  0.00000000000E+00 0. -1.
         -3   -1    0    0    0  501 -0.00000000000E+00 -0.00000000000E+00 -0.25171579313E+03  0.25171579313E+03  0.00000000000E+00 0.  1.
         25    2    1    2    0    0  0.40750854112E+02  0.74058217553E+01 -0.85171052091E+02  0.15689792295E+03  0.12508945521E+03 0.  0.
         23    2    1    2    0    0 -0.40750854112E+02 -0.74058217553E+01 -0.11101029070E+03  0.15035232052E+03  0.92558399611E+02 0.  0.
          5    1    3    3  502    0  0.64590011356E+01 -0.56928966355E+02 -0.48510621549E+02  0.75188953371E+02  0.41800000000E+01 0. -1.
         -5    1    3    3    0  502  0.34291852976E+02  0.64334788111E+02 -0.36660430542E+02  0.81708969577E+02  0.41800000000E+01 0. -1.
        -11    1    4    4    0    0 -0.95918194987E+01 -0.33725112445E+02 -0.33469058649E+01  0.35221981625E+02  0.00000000000E+00 0. -1.
         11    1    4    4    0    0 -0.31159034613E+02  0.26319290690E+02 -0.10766338484E+03  0.11513033890E+03  0.00000000000E+00 0.  1.
</event>
<event>
 8    1  0.6832629E-009  0.1018738E+03  0.7561462E-02  0.1276404E+00
          1   -1    0    0  501    0  0.00000000000E+00  0.00000000000E+00  0.59559014896E+03  0.59559014896E+03  0.00000000000E+00 0. -1.
         -1   -1    0    0    0  501 -0.00000000000E+00 -0.00000000000E+00 -0.22609113886E+02  0.22609113886E+02  0.00000000000E+00 0.  1.
         25    2    1    2    0    0 -0.30961333486E+02  0.15468059160E+02  0.25890192135E+03  0.28961550097E+03  0.12509623693E+03 0.  0.
         23    2    1    2    0    0  0.30961333486E+02 -0.15468059160E+02  0.31407911372E+03  0.32858376188E+03  0.90131758388E+02 0.  0.
          5    1    3    3  502    0  0.46483961159E+02 -0.84062732231E+01  0.76974065760E+02  0.90409641488E+02  0.41800000000E+01 0.  1.
         -5    1    3    3    0  502 -0.77445294645E+02  0.23874332383E+02  0.18192785559E+03  0.19920585948E+03  0.41800000000E+01 0.  1.
        -11    1    4    4    0    0 -0.21126224223E+02 -0.11571585501E+01  0.18487763232E+02  0.28097219705E+02  0.00000000000E+00 0.  1.
         11    1    4    4    0    0  0.52087557709E+02 -0.14310900610E+02  0.29559135049E+03  0.30048654217E+03  0.00000000000E+00 0. -1.
</event>
<event>
 8    1  0.6832629E-009  0.1688582E+03  0.7561462E-02  0.1179044E+00
          3   -1    0    0  501    0  0.00000000000E+00  0.00000000000E+00  0.14379579737E+03  0.14379579737E+03  0.00000000000E+00 0. -1.
         -3   -1    0    0    0  501 -0.00000000000E+00 -0.00000000000E+00 -0.23018745990E+03  0.23018745990E+03  0.00000000000E+00 0.  1.
         25    2    1    2    0    0 -0.13412698502E+02 -0.14512861592E+03 -0.35246227267E+02  0.19527381299E+03  0.12508936750E+03 0.  0.
         23    2    1    2    0    0  0.13412698502E+02  0.14512861592E+03 -0.51145435261E+02  0.17870944429E+03  0.89883225852E+02 0.  0.
          5    1    3    3  502    0 -0.44433049389E+02 -0.14711664482E+03 -0.83614058040E+01  0.15396424444E+03  0.41800000000E+01 0. -1.
         -5    1    3    3    0  502  0.31020350887E+02  0.19880288998E+01 -0.26884821463E+02  0.41309568542E+02  0.41800000000E+01 0. -1.
        -11    1    4    4    0    0  0.11450102252E+02  0.50349173427E+01 -0.35610500492E+02  0.37743383255E+02  0.00000000000E+00 0. -1.
         11    1    4    4    0    0  0.19625962501E+01  0.14009369857E+03 -0.15534934770E+02  0.14096606103E+03  0.00000000000E+00 0.  1.
</event>
<event>
 8    1  0.6832629E-009  0.3378551E+03  0.7561462E-02  0.1067713E+00
          2   -1    0    0  501    0  0.00000000000E+00  0.00000000000E+00  0.60084036486E+03  0.60084036486E+03  0.00000000000E+00 0. -1.
         -2   -1    0    0    0  501 -0.00000000000E+00 -0.00000000000E+00 -0.21506521795E+03  0.21506521795E+03  0.00000000000E+00 0.  1.
         25    2    1    2    0    0 -0.15668773281E+03  0.28150532394E+03  0.65247760656E+02  0.35171036564E+03  0.12508644214E+03 0.  0.
         23    2    1    2    0    0  0.15668773281E+03 -0.28150532394E+03  0.32052738625E+03  0.46419521718E+03  0.94567971822E+02 0.  0.
          5    1    3    3  502    0  0.33540228733E+01  0.98979042921E+02  0.42522385023E+02  0.10785975169E+03  0.41800000000E+01 0. -1.
         -5    1    3    3    0  502 -0.16004175569E+03  0.18252628101E+03  0.22725375634E+02  0.24385061395E+03  0.41800000000E+01 0. -1.
        -11    1    4    4    0    0  0.95382813024E+00 -0.75718484614E+02  0.52657490198E+02  0.92233453661E+02  0.00000000000E+00 0.  1.
         11    1    4    4    0    0  0.15573390468E+03 -0.20578683932E+03  0.26786989605E+03  0.37196176352E+03  0.00000000000E+00 0. -1.
</event>
<event>
 8    1  0.6832629E-009  0.7526237E+02  0.7561462E-02  0.1343060E+00
         -3   -1    0    0    0  501 -0.00000000000E+00  0.00000000000E+00  0.75264967996E+02  0.75264967996E+02  0.00000000000E+00 0.  1.
          3   -1    0    0  501    0  0.00000000000E+00 -0.00000000000E+00 -0.20706200082E+03  0.20706200082E+03  0.00000000000E+00 0. -1.
         25    2    1    2    0    0  0.29321240666E+01 -0.26162394701E+02 -0.12763556970E+03  0.18063241925E+03  0.12507663244E+03 0.  0.
         23    2    1    2    0    0 -0.29321240666E+01  0.26162394701E+02 -0.41614631189E+01  0.10169454956E+03  0.98139672853E+02 0.  0.
          5    1    3    3  502    0  0.22337862043E+02 -0.30362517585E+02 -0.14746369806E+03  0.15226252724E+03  0.41800000000E+01 0.  1.
         -5    1    3    3    0  502 -0.19405737977E+02  0.42001228836E+01  0.19828128358E+02  0.28369892014E+02  0.41800000000E+01 0.  1.
        -11    1    4    4    0    0  0.42741624006E+02  0.14932560273E+02 -0.23296449190E+02  0.50917112289E+02  0.00000000000E+00 0. -1.
         11    1    4    4    0    0 -0.45673748073E+02  0.11229834428E+02  0.19134986071E+02  0.50777437275E+02  0.00000000000E+00 0.  1.
</event>
<event>
 8    1  0.6832629E-009  0.2440121E+03  0.7561462E-02  0.1117149E+00
          1   -1    0    0  501    0  0.00000000000E+00  0.00000000000E+00  0.16708043315E+04  0.16708043315E+04  0.00000000000E+00 0. -1.
         -1   -1    0    0    0  501 -0.00000000000E+00 -0.00000000000E+00 -0.45601185686E+02  0.45601185686E+02  0.00000000000E+00 0.  1.
         25    2    1    2    0    0  0.10284646948E+03 -0.20821803773E+03  0.11441083634E+04  0.11741231402E+04  0.12509617770E+03 0.  0.
         23    2    1    2    0    0 -0.10284646948E+03  0.20821803773E+03  0.48109478246E+03  0.54228237701E+03  0.93197849691E+02 0.  0.
          5    1    3    3  502    0  0.77546304509E+02 -0.20640311452E+03  0.11083891198E+04  0.11301148563E+04  0.41800000000E+01 0.  1.
         -5    1    3    3    0  502  0.25300164974E+02 -0.18149232056E+01  0.35719243563E+02  0.44008283932E+02  0.41800000000E+01 0.  1.
        -11    1    4    4    0    0 -0.82596184215E+02  0.91251465725E+02  0.17476260568E+03  0.21375436367E+03  0.00000000000E+00 0.  1.
         11    1    4    4    0    0 -0.20250285269E+02  0.11696657200E+03  0.30633217678E+03  0.32852801334E+03  0.00000000000E+00 0. -1.
</event>
<event>
 8    1  0.6832629E-009  0.1345657E+03  0.7561462E-02  0.1220834E+00
          1   -1    0    0  501    0  0.00000000000E+00  0.00000000000E+00  0.81718169136E+03  0.81718169136E+03  0.00000000000E+00 0. -1.
         -1   -1    0    0    0  501 -0.00000000000E+00 -0.00000000000E+00 -0.26736088623E+02  0.26736088623E+02  0.00000000000E+00 0.  1.
         25    2    1    2    0    0  0.88113885692E+02 -0.34152152147E+02  0.33440336760E+03  0.36932878080E+03  0.12509080589E+03 0.  0.
         23    2    1    2    0    0 -0.88113885692E+02  0.34152152147E+02  0.45604223514E+03  0.47458899918E+03  0.91267582233E+02 0.  0.
          5    1    3    3  502    0  0.11329287350E+03 -0.11671561345E+01  0.26687280798E+03  0.28995724767E+03  0.41800000000E+01 0.  1.
         -5    1    3    3    0  502 -0.25178987805E+02 -0.32984996013E+02  0.67530559619E+02  0.79371533129E+02  0.41800000000E+01 0.  1.
        -11    1    4    4    0    0 -0.47961986507E+02 -0.15304951206E+02  0.90711162834E+02  0.10374540348E+03  0.00000000000E+00 0.  1.
         11    1    4    4    0    0 -0.40151899185E+02  0.49457103353E+02  0.36533107230E+03  0.37084359570E+03  0.00000000000E+00 0. -1.
</event>
<event>
 8    1  0.6832629E-009  0.8896328E+02  0.7561462E-02  0.1305382E+00
          1   -1    0    0  501    0  0.00000000000E+00  0.00000000000E+00  0.46459496809E+03  0.46459496809E+03  0.00000000000E+00 0. -1.
         -1   -1    0    0    0  501 -0.00000000000E+00 -0.00000000000E+00 -0.25945661109E+02  0.25945661109E+02  0.00000000000E+00 0.  1.
         25    2    1    2    0    0 -0.22582716930E+02  0.16820639361E+01  0.24355475340E+03  0.27473485409E+03  0.12509002240E+03 0.  0.
         23    2    1    2    0    0  0.22582716930E+02 -0.16820639361E+01  0.19509455358E+03  0.21580577511E+03  0.89428403157E+02 0.  0.
          5    1    3    3  502    0 -0.34016740072E+02  0.41206041016E+02  0.22144631037E+03  0.22783989378E+03  0.41800000000E+01 0.  1.
         -5    1    3    3    0  502  0.11434023143E+02 -0.39523977079E+02  0.22108443036E+02  0.46894960314E+02  0.41800000000E+01 0.  1.
        -11    1    4    4    0    0 -0.21476561070E+02 -0.25135594989E+02  0.12788559443E+03  0.13208999233E+03  0.00000000000E+00 0. -1.
         11    1    4    4    0    0  0.44059277999E+02  0.23453531053E+02  0.67208959157E+02  0.83715782787E+02  0.00000000000E+00 0.  1.
</event>
<event>
 8    1  0.6832629E-009  0.1696219E+03  0.7561462E-02  0.1178243E+00
          1   -1    0    0  501    0  0.00000000000E+00  0.00000000000E+00  0.79726468287E+03  0.79726468287E+03  0.00000000000E+00 0. -1.
         -1   -1    0    0    0  501 -0.00000000000E+00 -0.00000000000E+00 -0.49037676680E+02  0.49037676680E+02  0.00000000000E+00 0.  1.
         25    2    1    2    0    0 -0.13964783859E+03 -0.43914039318E+02  0.55633581302E+03  0.58872019595E+03  0.12510783586E+03 0.  0.
         23    2    1    2    0    0  0.13964783859E+03  0.43914039318E+02  0.19189119317E+03  0.25758216361E+03  0.89979882853E+02 0.  0.
          5    1    3    3  502    0 -0.23071152564E+02 -0.69223218956E+02  0.20149127322E+03  0.21433697233E+03  0.41800000000E+01 0. -1.
         -5    1    3    3    0  502 -0.11657668603E+03  0.25309179638E+02  0.35484453980E+03  0.37438322362E+03  0.41800000000E+01 0. -1.
        -11    1    4    4    0    0  0.87712654805E+01  0.56613428023E+01 -0.96718834958E+01  0.14231346767E+02  0.00000000000E+00 0.  1.
         11    1    4    4    0    0  0.13087657311E+03  0.38252696516E+02  0.20156307667E+03  0.24335081684E+03  0.00000000000E+00 0. -1.
</event>
<event>
 8    1  0.6832629E-009  0.1107697E+03  0.7561462E-02  0.1259151E+00
          2   -1    0    0  501    0  0.00000000000E+00  0.00000000000E+00  0.12409238016E+04  0.12409238016E+04  0.00000000000E+00 0. -1.
         -2   -1    0    0    0  501 -0.00000000000E+00 -0.00000000000E+00 -0.13671933567E+02  0.13671933567E+02  0.00000000000E+00 0.  1.
         25    2    1    2    0    0 -0.64279385312E+02  0.40587269258E+01  0.84542885935E+03  0.85705652533E+03  0.12509044230E+03 0.  0.
         23    2    1    2    0    0  0.64279385312E+02 -0.40587269258E+01  0.38182300871E+03  0.39753920986E+03  0.90001670851E+02 0.  0.
          5    1    3    3  502    0 -0.44427816569E+02 -0.48137105513E+02  0.66261071306E+03  0.66585391887E+03  0.41800000000E+01 0. -1.
         -5    1    3    3    0  502 -0.19851568742E+02  0.52195832438E+02  0.18281814629E+03  0.19120260646E+03  0.41800000000E+01 0. -1.
        -11    1    4    4    0    0 -0.27018606505E+00 -0.30241832564E+02  0.49607409798E+02  0.58099367847E+02  0.00000000000E+00 0.  1.
         11    1    4    4    0    0  0.64549571377E+02  0.26183105639E+02  0.33221559891E+03  0.33943984201E+03  0.00000000000E+00 0. -1.
</event>
<event>
 8    1  0.6832629E-009  0.1545818E+03  0.7561462E-02  0.1194953E+00
          1   -1    0    0  501    0  0.00000000000E+00  0.00000000000E+00  0.16897766654E+04  0.16897766654E+04  0.00000000000E+00 0. -1.
         -1   -1    0    0    0  501 -0.00000000000E+00 -0.00000000000E+00 -0.24232961224E+02  0.24232961224E+02  0.00000000000E+00 0.  1.
         25    2    1    2    0    0 -0.11913954357E+03  0.18332075544E+02  0.13640671331E+04  0.13750842720E+04  0.12508923084E+03 0.  0.
         23    2    1    2    0    0  0.11913954357E+03 -0.18332075544E+02  0.30147657103E+03  0.33892535458E+03  0.97221279858E+02 0.  0.
          5    1    3    3  502    0  0.26228762796E+02  0.79503782397E+01  0.19512659107E+03  0.19708631473E+03  0.41800000000E+01 0.  1.
         -5    1    3    3    0  502 -0.14536830637E+03  0.10381697305E+02  0.11689405420E+04  0.11779979573E+04  0.41800000000E+01 0.  1.
        -11    1    4    4    0    0  0.70927614905E+02  0.20394311761E+02  0.79410841679E+02  0.10841003775E+03  0.00000000000E+00 0.  1.
         11    1    4    4    0    0  0.48211928668E+02 -0.38726387305E+02  0.22206572935E+03  0.23051531683E+03  0.00000000000E+00 0. -1.
</event>
<event>
 8    1  0.6832629E-009  0.7133050E+02  0.7561462E-02  0.1355626E+00
          1   -1    0    0  501    0  0.00000000000E+00  0.00000000000E+00  0.71640364634E+02  0.71640364634E+02  0.00000000000E+00 0. -1.
         -1   -1    0    0    0  501 -0.00000000000E+00 -0.00000000000E+00 -0.18852628274E+03  0.18852628274E+03  0.00000000000E+00 0.  1.
         25    2    1    2    0    0  0.34094408494E+02  0.40772429387E+02 -0.62143294559E+02  0.14944194974E+03  0.12508512139E+03 0.  0.
         23    2    1    2    0    0 -0.34094408494E+02 -0.40772429387E+02 -0.54742623543E+02  0.11072469763E+03  0.80239542275E+02 0.  0.
          5    1    3    3  502    0  0.42920572868E+01  0.22340621686E+02 -0.97071724190E+02  0.99789364014E+02  0.41800000000E+01 0.  1.
         -5    1    3    3    0  502  0.29802351207E+02  0.18431807702E+02  0.34928429631E+02  0.49652585725E+02  0.41800000000E+01 0.  1.
        -11    1    4    4    0    0  0.12565265075E+02 -0.35046934427E+02  0.16991264032E+01  0.37270102356E+02  0.00000000000E+00 0. -1.
         11    1    4    4    0    0 -0.46659673568E+02 -0.57254949604E+01 -0.56441749946E+02  0.73454595275E+02  0.00000000000E+00 0.  1.
</event>
<event>
 8    1  0.6832629E-009  0.1440974E+03  0.7561462E-02  0.1207920E+00
         -2   -1    0    0    0  501 -0.00000000000E+00  0.00000000000E+00  0.25805007384E+03  0.25805007384E+03  0.00000000000E+00 0.  1.
          2   -1    0    0  501    0  0.00000000000E+00 -0.00000000000E+00 -0.12445500226E+03  0.12445500226E+03  0.00000000000E+00 0. -1.
         25    2    1    2    0    0  0.36189630764E+02  0.13722561986E+03  0.56370569054E+02  0.19739620727E+03  0.12508821475E+03 0.  0.
         23    2    1    2    0    0 -0.36189630764E+02 -0.13722561986E+03  0.77224502525E+02  0.18510886882E+03  0.90338858767E+02 0.  0.
          5    1    3    3  502    0  0.14299107686E+02  0.50436337304E+02 -0.39798535109E+02  0.65952137176E+02  0.41800000000E+01 0. -1.
         -5    1    3    3    0  502  0.21890523078E+02  0.86789282560E+02  0.96169104163E+02  0.13144407010E+03  0.41800000000E+01 0. -1.
        -11    1    4    4    0    0  0.59112766260E+01 -0.34140428244E+02  0.64259748720E+02  0.73005666476E+02  0.00000000000E+00 0.  1.
         11    1    4    4    0    0 -0.42100907390E+02 -0.10308519162E+03  0.12964753805E+02  0.11210320234E+03  0.00000000000E+00 0. -1.
</event>
<event>
 8    1  0.6832629E-009  0.1132805E+03  0.7561462E-02  0.1254613E+00
          2   -1    0    0  501    0  0.00000000000E+00  0.00000000000E+00  0.10969929391E+03  0.10969929391E+03  0.00000000000E+00 0. -1.
         -2   -1    0    0    0  501 -0.00000000000E+00 -0.00000000000E+00 -0.19254465639E+03  0.19254465639E+03  0.00000000000E+00 0.  1.
         25    2    1    2    0    0 -0.67666607967E+02  0.58760766726E+02 -0.79746993848E+02  0.17331722461E+03  0.12509068622E+03 0.  0.
         23    2    1    2    0    0  0.67666607967E+02 -0.58760766726E+02 -0.30983686358E+01  0.12892672569E+03  0.92633164520E+02 0.  0.
          5    1    3    3  502    0  0.17155820860E+02 -0.12611031657E+02  0.15853945716E+02  0.26873412578E+02  0.41800000000E+01 0. -1.
         -5    1    3    3    0  502 -0.84822428828E+02  0.71371798382E+02 -0.95600939565E+02  0.14644381203E+03  0.41800000000E+01 0. -1.
        -11    1    4    4    0    0  0.55122642005E+01 -0.19845711167E+02 -0.41366297365E+02  0.46210473554E+02  0.00000000000E+00 0.  1.
         11    1    4    4    0    0  0.62154343767E+02 -0.38915055559E+02  0.38267928729E+02  0.82716252136E+02  0.00000000000E+00 0. -1.
</event>
<event>
 8    1  0.6832629E-009  0.2636055E+03  0.7561462E-02  0.1104996E+00
         -1   -1    0    0    0  501 -0.00000000000E+00  0.00000000000E+00  0.82907999887E+03  0.82907999887E+03  0.00000000000E+00 0.  1.
          1   -1    0    0  501    0  0.00000000000E+00 -0.00000000000E+00 -0.18695541575E+03  0.18695541575E+03  0.00000000000E+00 0. -1.
         25    2    1    2    0    0 -0.47756900633E+02  0.25014796886E+03 -0.36039907940E+02  0.28600829727E+03  0.12508854168E+03 0.  0.
         23    2    1    2    0    0  0.47756900633E+02 -0.25014796886E+03  0.67816449106E+03  0.73002711736E+03  0.90431118887E+02 0.  0.
          5    1    3    3  502    0  0.24085349112E+02  0.12094223077E+03  0.25201128929E+02  0.12593528706E+03  0.41800000000E+01 0.  1.
         -5    1    3    3    0  502 -0.71842249745E+02  0.12920573808E+03 -0.61241036868E+02  0.16007301021E+03  0.41800000000E+01 0.  1.
        -11    1    4    4    0    0  0.42818741779E+01 -0.86429653540E+02  0.35221395197E+03  0.36268869215E+03  0.00000000000E+00 0.  1.
         11    1    4    4    0    0  0.43475026455E+02 -0.16371831532E+03  0.32595053909E+03  0.36733842520E+03  0.00000000000E+00 0. -1.
</event>
<event>
 8    1  0.6832629E-009  0.1024497E+03  0.7561462E-02  0.1275227E+00
          2   -1    0    0  501    0  0.00000000000E+00  0.00000000000E+00  0.18794354559E+03  0.18794354559E+03  0.00000000000E+00 0. -1.
         -2   -1    0    0    0  501 -0.00000000000E+00 -0.00000000000E+00 -0.67535197818E+02  0.67535197818E+02  0.00000000000E+00 0.  1.
         25    2    1    2    0    0 -0.25003752096E+02 -0.24339589584E+02  0.56157113101E+02  0.14147958679E+03  0.12508096932E+03 0.  0.
         23    2    1    2    0    0  0.25003752096E+02  0.24339589584E+02  0.64251234666E+02  0.11399915662E+03  0.87464183032E+02 0.  0.
          5    1    3    3  502    0 -0.65100886244E+02  0.52238830343E+01 -0.11205921768E+01  0.65453361034E+02  0.41800000000E+01 0. -1.
         -5    1    3    3    0  502  0.40097134148E+02 -0.29563472618E+02  0.57277705278E+02  0.76026225752E+02  0.41800000000E+01 0. -1.
        -11    1    4    4    0    0 -0.58714222332E+01  0.49369097645E+02  0.17665888630E+02  0.52762344740E+02  0.00000000000E+00 0.  1.
         11    1    4    4    0    0  0.30875174329E+02 -0.25029508062E+02  0.46585346036E+02  0.61236811878E+02  0.00000000000E+00 0. -1.
</event>
<event>
 8    1  0.6832629E-009  0.7869425E+02  0.7561462E-02  0.1332798E+00
         -1   -1    0    0    0  501 -0.00000000000E+00  0.00000000000E+00  0.64348523416E+02  0.64348523416E+02  0.00000000000E+00 0.  1.
          1   -1    0    0  501    0  0.00000000000E+00 -0.00000000000E+00 -0.23103725050E+03  0.23103725050E+03  0.00000000000E+00 0. -1.
         25    2    1    2    0    0  0.49014720287E+01 -0.23357282137E+02 -0.15587298608E+03  0.20127906255E+03  0.12508911295E+03 0.  0.
         23    2    1    2    0    0 -0.49014720287E+01  0.23357282137E+02 -0.10815741004E+02  0.94106711357E+02  0.90385318565E+02 0.  0.
          5    1    3    3  502    0 -0.25677440899E+02  0.44450548490E+02 -0.49686835337E+02  0.71564210594E+02  0.41800000000E+01 0.  1.
         -5    1    3    3    0  502  0.30578912928E+02 -0.67807830627E+02 -0.10618615074E+03  0.12971485196E+03  0.41800000000E+01 0.  1.
        -11    1    4    4    0    0 -0.12868022637E+02  0.16063674779E+02  0.38481520480E+02  0.43640062700E+02  0.00000000000E+00 0.  1.
         11    1    4    4    0    0  0.79665506087E+01  0.72936073580E+01 -0.49297261484E+02  0.50466648657E+02  0.00000000000E+00 0. -1.
</event>
<event>
 8    1  0.6832629E-009  0.2199223E+03  0.7561462E-02  0.1133941E+00
          1   -1    0    0  501    0  0.00000000000E+00  0.00000000000E+00  0.94387239679E+03  0.94387239679E+03  0.00000000000E+00 0. -1.
         -1   -1    0    0    0  501 -0.00000000000E+00 -0.00000000000E+00 -0.70065933844E+02  0.70065933844E+02  0.00000000000E+00 0.  1.
         25    2    1    2    0    0  0.17573009902E+03 -0.85776163469E+02  0.19918821440E+03  0.30587740843E+03  0.12508567589E+03 0.  0.
         23    2    1    2    0    0 -0.17573009902E+03  0.85776163469E+02  0.67461824854E+03  0.70806092221E+03  0.89453174154E+02 0.  0.
          5    1    3    3  502    0  0.14396423878E+03 -0.11683799279E+03  0.17560397302E+03  0.25540369290E+03  0.41800000000E+01 0. -1.
         -5    1    3    3    0  502  0.31765860233E+02  0.31061829326E+02  0.23584241383E+02  0.50473715526E+02  0.41800000000E+01 0. -1.
        -11    1    4    4    0    0 -0.10354496915E+03  0.83108362775E+01  0.25631911168E+03  0.27656846828E+03  0.00000000000E+00 0.  1.
         11    1    4    4    0    0 -0.72185129864E+02  0.77465327191E+02  0.41829913687E+03  0.43149245392E+03  0.00000000000E+00 0. -1.
</event>
<event>
 8    1  0.6832629E-009  0.1487266E+03  0.7561462E-02  0.1202046E+00
          1   -1    0    0  501    0  0.00000000000E+00  0.00000000000E+00  0.10373178359E+04  0.10373178359E+04  0.00000000000E+00 0. -1.
         -1   -1    0    0    0  501 -0.00000000000E+00 -0.00000000000E+00 -0.33114684762E+02  0.33114684762E+02  0.00000000000E+00 0.  1.
         25    2    1    2    0    0 -0.12635767424E+03 -0.48769748518E+02  0.34638965576E+03  0.39240058357E+03  0.12509066373E+03 0.  0.
         23    2    1    2    0    0  0.12635767424E+03  0.48769748518E+02  0.65781349542E+03  0.67803193714E+03  0.93080410512E+02 0.  0.
          5    1    3    3  502    0 -0.46869030219E+02 -0.12257195171E+02  0.16910554392E+02  0.51481881055E+02  0.41800000000E+01 0. -1.
         -5    1    3    3    0  502 -0.79488644018E+02 -0.36512553347E+02  0.32947910137E+03  0.34091870251E+03  0.41800000000E+01 0. -1.
        -11    1    4    4    0    0  0.10985307560E+03  0.73029554228E+02  0.58144015800E+03  0.59621612805E+03  0.00000000000E+00 0. -1.
         11    1    4    4    0    0  0.16504598639E+02 -0.24259805711E+02  0.76373337417E+02  0.81815809093E+02  0.00000000000E+00 0.  1.
</event>
<event>
 8    1  0.6832629E-009  0.1128101E+03  0.7561462E-02  0.1255453E+00
         -1   -1    0    0    0  501 -0.00000000000E+00  0.00000000000E+00  0.35128938299E+02  0.35128938299E+02  0.00000000000E+00 0.  1.
          1   -1    0    0  501    0  0.00000000000E+00 -0.00000000000E+00 -0.46804893205E+03  0.46804893205E+03  0.00000000000E+00 0. -1.
         25    2    1    2    0    0 -0.41804946128E+02  0.21395860814E+02 -0.14519434567E+03  0.19731946523E+03  0.12509251362E+03 0.  0.
         23    2    1    2    0    0  0.41804946128E+02 -0.21395860814E+02 -0.28772564809E+03  0.30585840512E+03  0.92508805193E+02 0.  0.
          5    1    3    3  502    0  0.32542081511E+02  0.40204027346E+02 -0.85626966982E+02  0.10012392700E+03  0.41800000000E+01 0.  1.
         -5    1    3    3    0  502 -0.74347027640E+02 -0.18808166533E+02 -0.59567378689E+02  0.97195538226E+02  0.41800000000E+01 0.  1.
        -11    1    4    4    0    0  0.66204371196E+02 -0.28296324479E+01 -0.13876284715E+03  0.15377305790E+03  0.00000000000E+00 0. -1.
         11    1    4    4    0    0 -0.24399425068E+02 -0.18566228366E+02 -0.14896280093E+03  0.15208534722E+03  0.00000000000E+00 0.  1.
</event>
<event>
 8    1  0.6832629E-009  0.7845887E+02  0.7561462E-02  0.1333483E+00
          2   -1    0    0  501    0  0.00000000000E+00  0.00000000000E+00  0.52829921134E+03  0.52829921134E+03  0.00000000000E+00 0.  1.
         -2   -1    0    0    0  501 -0.00000000000E+00 -0.00000000000E+00 -0.23090534665E+02  0.23090534665E+02  0.00000000000E+00 0. -1.
         25    2    1    2    0    0  0.88655054664E+01 -0.20660268941E+01  0.24740113315E+03  0.27737578674E+03  0.12508853158E+03 0.  0.
         23    2    1    2    0    0 -0.88655054664E+01  0.20660268941E+01  0.25780754353E+03  0.27401395927E+03  0.92390771817E+02 0.  0.
          5    1    3    3  502    0 -0.29002564688E+02 -0.12410721440E+02  0.23329258154E+03  0.23545291624E+03  0.41800000000E+01 0.  1.
         -5    1    3    3    0  502  0.37868070154E+02  0.10344694546E+02  0.14108551606E+02  0.41922870499E+02  0.41800000000E+01 0.  1.
        -11    1    4    4    0    0 -0.40384817442E+02  0.24221047722E+02  0.87123834211E+02  0.99036130378E+02  0.00000000000E+00 0. -1.
         11    1    4    4    0    0  0.31519311976E+02 -0.22155020828E+02  0.17068370932E+03  0.17497782889E+03  0.00000000000E+00 0.  1.
</event>
<event>
 8    1  0.6832629E-009  0.1146300E+03  0.7561462E-02  0.1252228E+00
          1   -1    0    0  501    0  0.00000000000E+00  0.00000000000E+00  0.73493964319E+03  0.73493964319E+03  0.00000000000E+00 0. -1.
         -1   -1    0    0    0  501 -0.00000000000E+00 -0.00000000000E+00 -0.25154138551E+02  0.25154138551E+02  0.00000000000E+00 0.  1.
         25    2    1    2    0    0 -0.18572922419E+02  0.59381420987E+02  0.54314956138E+03  0.56083021629E+03  0.12509188172E+03 0.  0.
         23    2    1    2    0    0  0.18572922419E+02 -0.59381420987E+02  0.16663594326E+03  0.19926356545E+03  0.89818285022E+02 0.  0.
          5    1    3    3  502    0  0.28614828602E+02  0.66528579107E+02  0.17300601656E+03  0.18759907895E+03  0.41800000000E+01 0.  1.
         -5    1    3    3    0  502 -0.47187751021E+02 -0.71471581208E+01  0.37014354482E+03  0.37323113735E+03  0.41800000000E+01 0.  1.
        -11    1    4    4    0    0  0.54238016550E+02 -0.26779786211E+02  0.10157190873E+03  0.11821916948E+03  0.00000000000E+00 0.  1.
         11    1    4    4    0    0 -0.35665094131E+02 -0.32601634776E+02  0.65064034527E+02  0.81044395971E+02  0.00000000000E+00 0. -1.
</event>
<event>
 8    1  0.6832629E-009  0.4585640E+03  0.7561462E-02  0.1025199E+00
         -1   -1    0    0    0  501 -0.00000000000E+00  0.00000000000E+00  0.32223876366E+03  0.32223876366E+03  0.00000000000E+00 0.  1.
          1   -1    0    0  501    0  0.00000000000E+00 -0.00000000000E+00 -0.11205875922E+04  0.11205875922E+04  0.00000000000E+00 0. -1.
         25    2    1    2    0    0  0.19759445118E+01 -0.45525190887E+03  0.51283835447E+02  0.47490532830E+03  0.12508730625E+03 0.  0.
         23    2    1    2    0    0 -0.19759445118E+01  0.45525190887E+03 -0.84963266398E+03  0.96792102756E+03  0.87961622312E+02 0.  0.
          5    1    3    3  502    0 -0.69093421415E+01 -0.39752432731E+03  0.82487386549E+00  0.39760719640E+03  0.41800000000E+01 0.  1.
         -5    1    3    3    0  502  0.88852866534E+01 -0.57727581563E+02  0.50458961582E+02  0.77298131905E+02  0.41800000000E+01 0.  1.
        -11    1    4    4    0    0 -0.34043917155E+02  0.32688743140E+03 -0.55631312282E+03  0.64614137131E+03  0.00000000000E+00 0.  1.
         11    1    4    4    0    0  0.32067972643E+02  0.12836447747E+03 -0.29331954117E+03  0.32177965625E+03  0.00000000000E+00 0. -1.
</event>
<event>
 8    1  0.6832629E-009  0.1360073E+03  0.7561462E-02  0.1218805E+00
         -2   -1    0    0    0  501 -0.00000000000E+00  0.00000000000E+00  0.72493376960E+02  0.72493376960E+02  0.00000000000E+00 0.  1.
          2   -1    0    0  501    0  0.00000000000E+00 -0.00000000000E+00 -0.25689223171E+03  0.25689223171E+03  0.00000000000E+00 0. -1.
         25    2    1    2    0    0 -0.55625288223E+02 -0.59807894353E+02 -0.90156901284E+02  0.17449183820E+03  0.12509187756E+03 0.  0.
         23    2    1    2    0    0  0.55625288223E+02  0.59807894353E+02 -0.94241953469E+02  0.15489377047E+03  0.91866084174E+02 0.  0.
          5    1    3    3  502    0 -0.95911151276E+02 -0.39063860502E+02 -0.67193189994E+02  0.12352057042E+03  0.41800000000E+01 0. -1.
         -5    1    3    3    0  502  0.40285863052E+02 -0.20744033852E+02 -0.22963711290E+02  0.50971267774E+02  0.41800000000E+01 0. -1.
        -11    1    4    4    0    0  0.72152592033E+02  0.13118583378E+02 -0.53844910872E+02  0.90980042832E+02  0.00000000000E+00 0.  1.
         11    1    4    4    0    0 -0.16527303810E+02  0.46689310976E+02 -0.40397042597E+02  0.63913727642E+02  0.00000000000E+00 0. -1.
</event>
<event>
 8    1  0.6832629E-009  0.1080770E+03  0.7561462E-02  0.1264173E+00
         -1   -1    0    0    0  501 -0.00000000000E+00  0.00000000000E+00  0.26625976186E+03  0.26625976186E+03  0.00000000000E+00 0.  1.
          1   -1    0    0  501    0  0.00000000000E+00 -0.00000000000E+00 -0.58411142611E+02  0.58411142611E+02  0.00000000000E+00 0. -1.
         25    2    1    2    0    0  0.42171130667E+02 -0.44959789357E+02  0.10063149128E+03  0.17196752385E+03  0.12508535206E+03 0.  0.
         23    2    1    2    0    0 -0.42171130667E+02  0.44959789357E+02  0.10721712797E+03  0.15270338062E+03  0.89571329132E+02 0.  0.
          5    1    3    3  502    0  0.51534432735E+02  0.31650783429E+02  0.31741133213E+02  0.68429100436E+02  0.41800000000E+01 0. -1.
         -5    1    3    3    0  502 -0.93633020673E+01 -0.76610572786E+02  0.68890358067E+02  0.10353842341E+03  0.41800000000E+01 0. -1.
        -11    1    4    4    0    0 -0.52334007977E+02  0.30528360682E+02  0.20127581703E+02  0.63843157363E+02  0.00000000000E+00 0.  1.
         11    1    4    4    0    0  0.10162877310E+02  0.14431428675E+02  0.87089546263E+02  0.88860223256E+02  0.00000000000E+00 0. -1.
</event>
<event>
 8    1  0.6832629E-009  0.1127737E+03  0.7561462E-02  0.1255518E+00
         -2   -1    0    0    0  501 -0.00000000000E+00  0.00000000000E+00  0.95090107094E+02  0.95090107094E+02  0.00000000000E+00 0.  1.
          2   -1    0    0  501    0  0.00000000000E+00 -0.00000000000E+00 -0.18121121659E+03  0.18121121659E+03  0.00000000000E+00 0. -1.
         25    2    1    2    0    0 -0.68706681639E+02  0.20557106626E+02 -0.51725851645E+02  0.15319033287E+03  0.12509401113E+03 0.  0.
         23    2    1    2    0    0  0.68706681639E+02 -0.20557106626E+02 -0.34395257847E+02  0.12311099081E+03  0.93968503026E+02 0.  0.
          5    1    3    3  502    0 -0.12238773193E+02  0.68662257698E+02 -0.26512018047E+02  0.74730533936E+02  0.41800000000E+01 0. -1.
         -5    1    3    3    0  502 -0.56467908446E+02 -0.48105151072E+02 -0.25213833598E+02  0.78459798934E+02  0.41800000000E+01 0. -1.
        -11    1    4    4    0    0  0.62592440373E+02 -0.30561470754E+02  0.15917130159E+02  0.71450487185E+02  0.00000000000E+00 0.  1.
         11    1    4    4    0    0  0.61142412662E+01  0.10004364128E+02 -0.50312388005E+02  0.51660503624E+02  0.00000000000E+00 0. -1.
</event>
<event>
 8    1  0.6832629E-009  0.1027599E+03  0.7561462E-02  0.1274597E+00
          3   -1    0    0  501    0  0.00000000000E+00  0.00000000000E+00  0.84976818173E+02  0.84976818173E+02  0.00000000000E+00 0. -1.
         -3   -1    0    0    0  501 -0.00000000000E+00 -0.00000000000E+00 -0.22497628387E+03  0.22497628387E+03  0.00000000000E+00 0.  1.
         25    2    1    2    0    0 -0.21999776267E+02 -0.70015111229E+02 -0.31580309669E+02  0.14842809232E+03  0.12508987439E+03 0.  0.
         23    2    1    2    0    0  0.21999776267E+02  0.70015111229E+02 -0.10841915603E+03  0.16152500972E+03  0.94601846794E+02 0.  0.
          5    1    3    3  502    0 -0.45662295855E+02 -0.18859620641E+02 -0.65776923258E+02  0.82369937397E+02  0.41800000000E+01 0.  1.
         -5    1    3    3    0  502  0.23662519588E+02 -0.51155490588E+02  0.34196613588E+02  0.66058154920E+02  0.41800000000E+01 0.  1.
        -11    1    4    4    0    0 -0.22009313885E+02  0.41520466068E+02 -0.97121338993E+02  0.10789306506E+03  0.00000000000E+00 0.  1.
         11    1    4    4    0    0  0.44009090152E+02  0.28494645161E+02 -0.11297817033E+02  0.53631944665E+02  0.00000000000E+00 0. -1.
</event>
<event>
 8    1  0.6832629E-009  0.4292985E+03  0.7561462E-02  0.1034082E+00
         -2   -1    0    0    0  501 -0.00000000000E+00  0.00000000000E+00  0.20443857202E+04  0.20443857202E+04  0.00000000000E+00 0. -1.
          2   -1    0    0  501    0  0.00000000000E+00 -0.00000000000E+00 -0.10838855272E+03  0.10838855272E+03  0.00000000000E+00 0.  1.
         25    2    1    2    0    0 -0.33039591264E+03  0.27000650710E+03  0.59630046017E+03  0.74383245530E+03  0.12509000674E+03 0.  0.
         23    2    1    2    0    0  0.33039591264E+03 -0.27000650710E+03  0.13396967073E+04  0.14089418176E+04  0.90910972295E+02 0.  0.
          5    1    3    3  502    0 -0.29851883581E+03  0.21464313415E+03  0.43082148509E+03  0.56640073692E+03  0.41800000000E+01 0. -1.
         -5    1    3    3    0  502 -0.31877076832E+02  0.55363372947E+02  0.16547897508E+03  0.17743171837E+03  0.41800000000E+01 0. -1.
        -11    1    4    4    0    0  0.84398700463E+02 -0.61972947474E+02  0.21711068760E+03  0.24104115318E+03  0.00000000000E+00 0.  1.
         11    1    4    4    0    0  0.24599721218E+03 -0.20803355962E+03  0.11225860197E+04  0.11679006645E+04  0.00000000000E+00 0. -1.
</event>
<event>
 8    1  0.6832629E-009  0.1151171E+03  0.7561462E-02  0.1251377E+00
         -1   -1    0    0    0  501 -0.00000000000E+00  0.00000000000E+00  0.17768255191E+02  0.17768255191E+02  0.00000000000E+00 0.  1.
          1   -1    0    0  501    0  0.00000000000E+00 -0.00000000000E+00 -0.12171430195E+04  0.12171430195E+04  0.00000000000E+00 0. -1.
         25    2    1    2    0    0 -0.24797818908E+02 -0.59501165352E+02 -0.96701376062E+03  0.97719964273E+03  0.12509279762E+03 0.  0.
         23    2    1    2    0    0  0.24797818908E+02  0.59501165352E+02 -0.23236100370E+03  0.25771163198E+03  0.90930350896E+02 0.  0.
          5    1    3    3  502    0 -0.44634297462E+02 -0.87563187228E+02 -0.54809164604E+03  0.55684958213E+03  0.41800000000E+01 0. -1.
         -5    1    3    3    0  502  0.19836478555E+02  0.28062021876E+02 -0.41892211459E+03  0.42035006060E+03  0.41800000000E+01 0. -1.
        -11    1    4    4    0    0  0.42603510517E+02  0.87941533166E+01 -0.44160911188E+02  0.61988566026E+02  0.00000000000E+00 0.  1.
         11    1    4    4    0    0 -0.17805691609E+02  0.50707012035E+02 -0.18820009251E+03  0.19572306595E+03  0.00000000000E+00 0. -1.
</event>
<event>
 8    1  0.6832629E-009  0.1189354E+03  0.7561462E-02  0.1244864E+00
          1   -1    0    0  501    0  0.00000000000E+00  0.00000000000E+00  0.25814621247E+02  0.25814621247E+02  0.00000000000E+00 0. -1.
         -1   -1    0    0    0  501 -0.00000000000E+00 -0.00000000000E+00 -0.62549514751E+03  0.62549514751E+03  0.00000000000E+00 0.  1.
         25    2    1    2    0    0 -0.23394783200E+02  0.54144098608E+02 -0.34905151648E+03  0.37545198977E+03  0.12509330984E+03 0.  0.
         23    2    1    2    0    0  0.23394783200E+02 -0.54144098608E+02 -0.25062900979E+03  0.27585777899E+03  0.99013708089E+02 0.  0.
          5    1    3    3  502    0  0.47679226643E+02  0.60016478816E+01 -0.84608447320E+02  0.97392967860E+02  0.41800000000E+01 0.  1.
         -5    1    3    3    0  502 -0.71074009844E+02  0.48142450727E+02 -0.26444306916E+03  0.27805902191E+03  0.41800000000E+01 0.  1.
        -11    1    4    4    0    0  0.42478183590E+02  0.38332700157E+01 -0.47885812700E+02  0.64125978340E+02  0.00000000000E+00 0. -1.
         11    1    4    4    0    0 -0.19083400390E+02 -0.57977368624E+02 -0.20274319709E+03  0.21173180065E+03  0.00000000000E+00 0.  1.
</event>
<event>
 8    1  0.6832629E-009  0.1185622E+03  0.7561462E-02  0.1245488E+00
         -1   -1    0    0    0  501 -0.00000000000E+00  0.00000000000E+00  0.11685053007E+02  0.11685053007E+02  0.00000000000E+00 0.  1.
          1   -1    0    0  501    0  0.00000000000E+00 -0.00000000000E+00 -0.15805642434E+04  0.15805642434E+04  0.00000000000E+00 0. -1.
         25    2    1    2    0    0  0.72927710059E+02 -0.62975837062E+01 -0.11024828910E+04  0.11119687191E+04  0.12509115349E+03 0.  0.
         23    2    1    2    0    0 -0.72927710059E+02  0.62975837062E+01 -0.46639629930E+03  0.48028057729E+03  0.88237262352E+02 0.  0.
          5    1    3    3  502    0  0.19822390930E+02  0.45395527352E+02 -0.75556744915E+03  0.75720097972E+03  0.41800000000E+01 0.  1.
         -5    1    3    3    0  502  0.53105319129E+02 -0.51693111059E+02 -0.34691544190E+03  0.35476773935E+03  0.41800000000E+01 0.  1.
        -11    1    4    4    0    0 -0.85559287824E+02  0.26315996838E+02 -0.33413256397E+03  0.34591544304E+03  0.00000000000E+00 0.  1.
         11    1    4    4    0    0  0.12631577765E+02 -0.20018413132E+02 -0.13226373532E+03  0.13436513425E+03  0.00000000000E+00 0. -1.
</event>
<event>
 8    1  0.6832629E-009  0.1283216E+03  0.7561462E-02  0.1229968E+00
          2   -1    0    0  501    0  0.00000000000E+00  0.00000000000E+00  0.84356898266E+02  0.84356898266E+02  0.00000000000E+00 0. -1.
         -2   -1    0    0    0  501 -0.00000000000E+00 -0.00000000000E+00 -0.21850827572E+03  0.21850827572E+03  0.00000000000E+00 0.  1.
         25    2    1    2    0    0 -0.78306455464E+02  0.29736151113E+02 -0.91886882862E+02  0.17637194038E+03  0.12509085683E+03 0.  0.
         23    2    1    2    0    0  0.78306455464E+02 -0.29736151113E+02 -0.42264494589E+02  0.12649323360E+03  0.84841681939E+02 0.  0.
          5    1    3    3  502    0 -0.77187646726E+02  0.67156958719E+02 -0.93504504846E+02  0.13866706436E+03  0.41800000000E+01 0. -1.
         -5    1    3    3    0  502 -0.11188087379E+01 -0.37420807606E+02  0.16176219846E+01  0.37704876021E+02  0.41800000000E+01 0. -1.
        -11    1    4    4    0    0  0.27533102166E+02 -0.53762995151E+02 -0.35115770526E+02  0.69868796341E+02  0.00000000000E+00 0.  1.
         11    1    4    4    0    0  0.50773353298E+02  0.24026844038E+02 -0.71487240630E+01  0.56624437262E+02  0.00000000000E+00 0. -1.
</event>
<event>
 8    1  0.6832629E-009  0.1063057E+03  0.7561462E-02  0.1267568E+00
         -2   -1    0    0    0  501 -0.00000000000E+00  0.00000000000E+00  0.26817148194E+03  0.26817148194E+03  0.00000000000E+00 0.  1.
          2   -1    0    0  501    0  0.00000000000E+00 -0.00000000000E+00 -0.47935525687E+02  0.47935525687E+02  0.00000000000E+00 0. -1.
         25    2    1    2    0    0 -0.76285216664E+01 -0.52965081382E+01  0.99348936777E+02  0.16001216853E+03  0.12508970980E+03 0.  0.
         23    2    1    2    0    0  0.76285216664E+01  0.52965081382E+01  0.12088701948E+03  0.15609483909E+03  0.98314190086E+02 0.  0.
          5    1    3    3  502    0  0.26207473400E+02  0.48293539417E+02  0.72475338305E+02  0.91045289136E+02  0.41800000000E+01 0. -1.
         -5    1    3    3    0  502 -0.33835995067E+02 -0.53590047555E+02  0.26873598473E+02  0.68966879398E+02  0.41800000000E+01 0. -1.
        -11    1    4    4    0    0 -0.33821546134E+02  0.30446774277E+02  0.82640835382E+02  0.94341988104E+02  0.00000000000E+00 0.  1.
         11    1    4    4    0    0  0.41450067800E+02 -0.25150266139E+02  0.38246184094E+02  0.61752850989E+02  0.00000000000E+00 0. -1.
</event>
<event>
 8    1  0.6832629E-009  0.1933149E+03  0.7561462E-02  0.1155505E+00
          1   -1    0    0  501    0  0.00000000000E+00  0.00000000000E+00  0.80160710259E+03  0.80160710259E+03  0.00000000000E+00 0. -1.
         -1   -1    0    0    0  501 -0.00000000000E+00 -0.00000000000E+00 -0.12534249175E+03  0.12534249175E+03  0.00000000000E+00 0.  1.
         25    2    1    2    0    0  0.12003650014E+03 -0.11685821464E+03 -0.14637997238E+02  0.20959054852E+03  0.12509725564E+03 0.  0.
         23    2    1    2    0    0 -0.12003650014E+03  0.11685821464E+03  0.69090260807E+03  0.71735904582E+03  0.95880045336E+02 0.  0.
          5    1    3    3  502    0  0.13462282025E+03 -0.11970211025E+03  0.10050655746E+02  0.18047267664E+03  0.41800000000E+01 0.  1.
         -5    1    3    3    0  502 -0.14586320108E+02  0.28438956142E+01 -0.24688652984E+02  0.29117871878E+02  0.41800000000E+01 0.  1.
        -11    1    4    4    0    0  0.88086013608E+01  0.40029292294E+02  0.19511110157E+03  0.19936970094E+03  0.00000000000E+00 0. -1.
         11    1    4    4    0    0 -0.12884510151E+03  0.76828922346E+02  0.49579150650E+03  0.51798934488E+03  0.00000000000E+00 0.  1.
</event>
<event>
 8    1  0.6832629E-009  0.1493633E+03  0.7561462E-02  0.1201258E+00
         -1   -1    0    0    0  501 -0.00000000000E+00  0.00000000000E+00  0.75425240657E+02  0.75425240657E+02  0.00000000000E+00 0.  1.
          1   -1    0    0  501    0  0.00000000000E+00 -0.00000000000E+00 -0.32256802560E+03  0.32256802560E+03  0.00000000000E+00 0. -1.
         25    2    1    2    0    0  0.99422831838E+02 -0.48427363896E+02 -0.11943129533E+03  0.20528185485E+03  0.12508675614E+03 0.  0.
         23    2    1    2    0    0 -0.99422831838E+02  0.48427363896E+02 -0.12771148961E+03  0.19271141141E+03  0.92721919971E+02 0.  0.
          5    1    3    3  502    0  0.38952282689E+02  0.36828842987E+02 -0.11518601452E+02  0.54989040561E+02  0.41800000000E+01 0.  1.
         -5    1    3    3    0  502  0.60470549149E+02 -0.85256206883E+02 -0.10791269388E+03  0.15029281429E+03  0.41800000000E+01 0.  1.
        -11    1    4    4    0    0  0.28064042387E+01 -0.18141357307E+02 -0.36457527927E+01  0.18715668920E+02  0.00000000000E+00 0.  1.
         11    1    4    4    0    0 -0.10222923608E+03  0.66568721203E+02 -0.12406573682E+03  0.17399574249E+03  0.00000000000E+00 0. -1.
</event>
<event>
 8    1  0.6832629E-009  0.1261043E+03  0.7561462E-02  0.1233353E+00
         -1   -1    0    0    0  501 -0.00000000000E+00  0.00000000000E+00  0.26755996687E+02  0.26755996687E+02  0.00000000000E+00 0.  1.
          1   -1    0    0  501    0  0.00000000000E+00 -0.00000000000E+00 -0.61433638664E+03  0.61433638664E+03  0.00000000000E+00 0. -1.
         25    2    1    2    0    0  0.63244364785E+02 -0.24205193617E+02 -0.34457730936E+03  0.37278531775E+03  0.12509848091E+03 0.  0.
         23    2    1    2    0    0 -0.63244364785E+02  0.24205193617E+02 -0.24300308059E+03  0.26830706558E+03  0.91391701964E+02 0.  0.
          5    1    3    3  502    0 -0.18672069901E+02  0.35699936335E+02 -0.10681712297E+03  0.11423879292E+03  0.41800000000E+01 0. -1.
         -5    1    3    3    0  502  0.81916434686E+02 -0.59905129951E+02 -0.23776018640E+03  0.25854652483E+03  0.41800000000E+01 0. -1.
        -11    1    4    4    0    0 -0.20542930513E+02  0.54192579089E+02 -0.93982752880E+02  0.11041560334E+03  0.00000000000E+00 0. -1.
         11    1    4    4    0    0 -0.42701434272E+02 -0.29987385473E+02 -0.14902032771E+03  0.15789146224E+03  0.00000000000E+00 0.  1.
</event>
<event>
 8    1  0.6832629E-009  0.2995476E+03  0.7561462E-02  0.1085467E+00
          2   -1    0    0  501    0  0.00000000000E+00  0.00000000000E+00  0.32430504027E+03  0.32430504027E+03  0.00000000000E+00 0. -1.
         -2   -1    0    0    0  501 -0.00000000000E+00 -0.00000000000E+00 -0.51383449557E+03  0.51383449557E+03  0.00000000000E+00 0.  1.
         25    2    1    2    0    0 -0.11355957573E+03  0.27613243597E+03  0.16670633783E+03  0.36412014340E+03  0.12509027268E+03 0.  0.
         23    2    1    2    0    0  0.11355957573E+03 -0.27613243597E+03 -0.35623579313E+03  0.47401939245E+03  0.92981421097E+02 0.  0.
          5    1    3    3  502    0 -0.48481957326E+02  0.14148677487E+03  0.15282114104E+03  0.21387094520E+03  0.41800000000E+01 0. -1.
         -5    1    3    3    0  502 -0.65077618407E+02  0.13464566110E+03  0.13885196788E+02  0.15024919820E+03  0.41800000000E+01 0. -1.
        -11    1    4    4    0    0  0.56810696415E+02 -0.10242008665E+03 -0.20801199448E+03  0.23871807477E+03  0.00000000000E+00 0.  1.
         11    1    4    4    0    0  0.56748879317E+02 -0.17371234932E+03 -0.14822379865E+03  0.23530131767E+03  0.00000000000E+00 0. -1.
</event>
<event>
 8    1  0.6832629E-009  0.1093457E+03  0.7561462E-02  0.1261786E+00
          3   -1    0    0  501    0  0.00000000000E+00  0.00000000000E+00  0.88387935034E+02  0.88387935034E+02  0.00000000000E+00 0. -1.
         -3   -1    0    0    0  501 -0.00000000000E+00 -0.00000000000E+00 -0.17696004186E+03  0.17696004186E+03  0.00000000000E+00 0.  1.
         25    2    1    2    0    0  0.24356266592E+02 -0.17048592843E+02  0.68847923608E+01  0.12875686819E+03  0.12508816291E+03 0.  0.
         23    2    1    2    0    0 -0.24356266592E+02  0.17048592843E+02 -0.95456899188E+02  0.13659110870E+03  0.93065724806E+02 0.  0.
          5    1    3    3  502    0 -0.25713244690E+02  0.38266834035E+02 -0.18475574643E+02  0.49843161998E+02  0.41800000000E+01 0.  1.
         -5    1    3    3    0  502  0.50069511282E+02 -0.55315426879E+02  0.25360367003E+02  0.78913706194E+02  0.41800000000E+01 0.  1.
        -11    1    4    4    0    0  0.26877693665E+02  0.34331093122E+02 -0.40993339882E+02  0.59845536896E+02  0.00000000000E+00 0.  1.
         11    1    4    4    0    0 -0.51233960257E+02 -0.17282500279E+02 -0.54463559307E+02  0.76745571806E+02  0.00000000000E+00 0. -1.
</event>
<event>
 8    1  0.6832629E-009  0.1468968E+03  0.7561462E-02  0.1204339E+00
          2   -1    0    0  501    0  0.00000000000E+00  0.00000000000E+00  0.54532097050E+03  0.54532097050E+03  0.00000000000E+00 0. -1.
         -2   -1    0    0    0  501 -0.00000000000E+00 -0.00000000000E+00 -0.49230286068E+02  0.49230286068E+02  0.00000000000E+00 0.  1.
         25    2    1    2    0    0  0.99024983698E+02 -0.70062710881E+02  0.23235715798E+03  0.29043807994E+03  0.12509875525E+03 0.  0.
         23    2    1    2    0    0 -0.99024983698E+02  0.70062710881E+02  0.26373352646E+03  0.30411317663E+03  0.90635094582E+02 0.  0.
          5    1    3    3  502    0  0.11196593990E+03 -0.12756583565E+02  0.12784553776E+03  0.17047303613E+03  0.41800000000E+01 0.  1.
         -5    1    3    3    0  502 -0.12940956206E+02 -0.57306127316E+02  0.10451162022E+03  0.11996504381E+03  0.41800000000E+01 0.  1.
        -11    1    4    4    0    0 -0.69829639228E+02  0.57017681502E+02  0.89728629772E+02  0.12719442409E+03  0.00000000000E+00 0.  1.
         11    1    4    4    0    0 -0.29195344470E+02  0.13045029379E+02  0.17400489668E+03  0.17691875254E+03  0.00000000000E+00 0. -1.
</event>
<event>
 8    1  0.6832629E-009  0.8508315E+02  0.7561462E-02  0.1315215E+00
         -2   -1    0    0    0  501 -0.00000000000E+00  0.00000000000E+00  0.79915050846E+02  0.79915050846E+02  0.00000000000E+00 0.  1.
          2   -1    0    0  501    0  0.00000000000E+00 -0.00000000000E+00 -0.21236912385E+03  0.21236912385E+03  0.00000000000E+00 0. -1.
         25    2    1    2    0    0 -0.31659552359E+02 -0.32222813950E+02 -0.13709020972E+03  0.19100189994E+03  0.12508942075E+03 0.  0.
         23    2    1    2    0    0  0.31659552359E+02  0.32222813950E+02  0.46361367181E+01  0.10128227476E+03  0.90531587982E+02 0.  0.
          5    1    3    3  502    0  0.99612919686E+01 -0.27631008343E+02 -0.14515394231E+03  0.14815478166E+03  0.41800000000E+01 0.  1.
         -5    1    3    3    0  502 -0.41620844328E+02 -0.45918056073E+01  0.80637325903E+01  0.42847118276E+02  0.41800000000E+01 0.  1.
        -11    1    4    4    0    0  0.62213793518E+02  0.18369976995E+02 -0.81524780414E+01  0.65379469690E+02  0.00000000000E+00 0.  1.
         11    1    4    4    0    0 -0.30554241159E+02  0.13852836954E+02  0.12788614759E+02  0.35902805071E+02  0.00000000000E+00 0. -1.
</event>
<event>
 8    1  0.6832629E-009  0.1043959E+03  0.7561462E-02  0.1271314E+00
         -2   -1    0    0    0  501 -0.00000000000E+00  0.00000000000E+00  0.12848997611E+02  0.12848997611E+02  0.00000000000E+00 0.  1.
          2   -1    0    0  501    0  0.00000000000E+00 -0.00000000000E+00 -0.13186551449E+04  0.13186551449E+04  0.00000000000E+00 0. -1.
         25    2    1    2    0    0  0.17132259589E+01 -0.27415653787E+02 -0.10683232145E+04  0.10759722217E+04  0.12508868026E+03 0.  0.
         23    2    1    2    0    0 -0.17132259589E+01  0.27415653787E+02 -0.23748293280E+03  0.25553192086E+03  0.90243370905E+02 0.  0.
          5    1    3    3  502    0 -0.40833527921E+02 -0.56882493439E+02 -0.44552044616E+03  0.45100879749E+03  0.41800000000E+01 0.  1.
         -5    1    3    3    0  502  0.42546753880E+02  0.29466839651E+02 -0.62280276836E+03  0.62496342420E+03  0.41800000000E+01 0.  1.
        -11    1    4    4    0    0  0.64456691408E+01  0.56320708894E+02 -0.10136406027E+03  0.11613888933E+03  0.00000000000E+00 0.  1.
         11    1    4    4    0    0 -0.81588950996E+01 -0.28905055107E+02 -0.13611887253E+03  0.13939303153E+03  0.00000000000E+00 0. -1.
</event>
<event>
 8    1  0.6832629E-009  0.1225218E+03  0.7561462E-02  0.1238994E+00
         -1   -1    0    0    0  501 -0.00000000000E+00  0.00000000000E+00  0.40088628626E+02  0.40088628626E+02  0.00000000000E+00 0.  1.
          1   -1    0    0  501    0  0.00000000000E+00 -0.00000000000E+00 -0.46253289226E+03  0.46253289226E+03  0.00000000000E+00 0. -1.
         25    2    1    2    0    0  0.72246753717E+02  0.33863423334E+02 -0.19485732300E+03  0.24492192216E+03  0.12510414368E+03 0.  0.
         23    2    1    2    0    0 -0.72246753717E+02 -0.33863423334E+02 -0.22758694064E+03  0.25769959873E+03  0.90812679587E+02 0.  0.
          5    1    3    3  502    0 -0.16269470677E+02 -0.18040586851E+02 -0.10690500402E+03  0.10971012139E+03  0.41800000000E+01 0. -1.
         -5    1    3    3    0  502  0.88516224394E+02  0.51904010185E+02 -0.87952318975E+02  0.13521180077E+03  0.41800000000E+01 0. -1.
        -11    1    4    4    0    0 -0.30576734874E+01 -0.47145195586E+02 -0.63670624093E+02  0.79284091761E+02  0.00000000000E+00 0.  1.
         11    1    4    4    0    0 -0.69189080230E+02  0.13281772251E+02 -0.16391631655E+03  0.17841550697E+03  0.00000000000E+00 0. -1.
</event>
<event>
 8    1  0.6832629E-009  0.3283765E+03  0.7561462E-02  0.1071857E+00
          1   -1    0    0  501    0  0.00000000000E+00  0.00000000000E+00  0.45765793614E+03  0.45765793614E+03  0.00000000000E+00 0. -1.
         -1   -1    0    0    0  501 -0.00000000000E+00 -0.00000000000E+00 -0.29443020516E+03  0.29443020516E+03  0.00000000000E+00 0.  1.
         25    2    1    2    0    0 -0.50787505799E+02 -0.30587471376E+03  0.24842321495E+03  0.41652835779E+03  0.12507225056E+03 0.  0.
         23    2    1    2    0    0  0.50787505799E+02  0.30587471376E+03 -0.85195483976E+02  0.33555978350E+03  0.95934282481E+02 0.  0.
          5    1    3    3  502    0 -0.36114479518E+01 -0.27639624717E+03  0.22318911554E+03  0.35530097341E+03  0.41800000000E+01 0. -1.
         -5    1    3    3    0  502 -0.47176057847E+02 -0.29478466583E+02  0.25234099407E+02  0.61227384388E+02  0.41800000000E+01 0. -1.
        -11    1    4    4    0    0  0.40584129756E+02  0.35414257806E+02 -0.11991849648E+02  0.55181932749E+02  0.00000000000E+00 0. -1.
         11    1    4    4    0    0  0.10203376043E+02  0.27046045595E+03 -0.73203634328E+02  0.28037785076E+03  0.00000000000E+00 0.  1.
</event>
<event>
 8    1  0.6832629E-009  0.9286325E+02  0.7561462E-02  0.1296062E+00
          1   -1    0    0  501    0  0.00000000000E+00  0.00000000000E+00  0.40679436328E+02  0.40679436328E+02  0.00000000000E+00 0. -1.
         -1   -1    0    0    0  501 -0.00000000000E+00 -0.00000000000E+00 -0.43294129200E+03  0.43294129200E+03  0.00000000000E+00 0.  1.
         25    2    1    2    0    0 -0.17469963152E+02 -0.12156567964E+02 -0.85271276392E+02  0.15287593763E+03  0.12508748927E+03 0.  0.
         23    2    1    2    0    0  0.17469963152E+02  0.12156567964E+02 -0.30699057928E+03  0.32074479070E+03  0.90449009036E+02 0.  0.
          5    1    3    3  502    0  0.10219399506E+02 -0.54645591409E+02 -0.85402882776E+02  0.10198873258E+03  0.41800000000E+01 0.  1.
         -5    1    3    3    0  502 -0.27689362658E+02  0.42489023444E+02  0.13160638417E+00  0.50887205051E+02  0.41800000000E+01 0.  1.
        -11    1    4    4    0    0  0.42866252870E+02  0.26030433967E+02 -0.26527712318E+03  0.26997601969E+03  0.00000000000E+00 0.  1.
         11    1    4    4    0    0 -0.25396289718E+02 -0.13873866003E+02 -0.41713456103E+02  0.50768771005E+02  0.00000000000E+00 0. -1.
</event>
<event>
 8    1  0.6832629E-009  0.2562842E+03  0.7561462E-02  0.1109397E+00
          2   -1    0    0  501    0  0.00000000000E+00  0.00000000000E+00  0.19259347181E+04  0.19259347181E+04  0.00000000000E+00 0.  1.
         -2   -1    0    0    0  501 -0.00000000000E+00 -0.00000000000E+00 -0.38363682466E+02  0.38363682466E+02  0.00000000000E+00 0. -1.
         25    2    1    2    0    0 -0.18112851493E+03  0.15808140926E+03  0.11937318921E+04  0.12241078879E+04  0.12508804984E+03 0.  0.
         23    2    1    2    0    0  0.18112851493E+03 -0.15808140926E+03  0.69383914359E+03  0.74019051269E+03  0.93123396739E+02 0.  0.
          5    1    3    3  502    0 -0.26414099346E+02  0.74592402824E+02  0.58963478766E+03  0.59493561535E+03  0.41800000000E+01 0.  1.
         -5    1    3    3    0  502 -0.15471441558E+03  0.83489006437E+02  0.60409710441E+03  0.62917227255E+03  0.41800000000E+01 0.  1.
        -11    1    4    4    0    0  0.83730335756E+02 -0.13255625671E+03  0.44092522143E+03  0.46797113288E+03  0.00000000000E+00 0.  1.
         11    1    4    4    0    0  0.97398179172E+02 -0.25525152554E+02  0.25291392216E+03  0.27221937980E+03  0.00000000000E+00 0. -1.
</event>
<event>
 8    1  0.6832629E-009  0.1720158E+03  0.7561462E-02  0.1175762E+00
         -2   -1    0    0    0  501 -0.00000000000E+00  0.00000000000E+00  0.13954690879E+03  0.13954690879E+03  0.00000000000E+00 0. -1.
          2   -1    0    0  501    0  0.00000000000E+00 -0.00000000000E+00 -0.31194160138E+03  0.31194160138E+03  0.00000000000E+00 0.  1.
         25    2    1    2    0    0  0.14265663840E+03  0.58193992791E+02  0.61889527349E+01  0.19855286425E+03  0.12508988565E+03 0.  0.
         23    2    1    2    0    0 -0.14265663840E+03 -0.58193992791E+02 -0.17858364533E+03  0.25293564591E+03  0.91361180586E+02 0.  0.
          5    1    3    3  502    0  0.14625101059E+03  0.78046376254E+02  0.28419070475E+02  0.16824301148E+03  0.41800000000E+01 0. -1.
         -5    1    3    3    0  502 -0.35943721915E+01 -0.19852383463E+02 -0.22230117740E+02  0.30309852777E+02  0.41800000000E+01 0. -1.
        -11    1    4    4    0    0 -0.84884043936E+01 -0.13946042229E+02  0.85755360826E+01  0.18441391545E+02  0.00000000000E+00 0. -1.
         11    1    4    4    0    0 -0.13416823400E+03 -0.44247950562E+02 -0.18715918141E+03  0.23449425437E+03  0.00000000000E+00 0.  1.
</event>
<event>
 8    1  0.6832629E-009  0.9642624E+02  0.7561462E-02  0.1287996E+00
          1   -1    0    0  501    0  0.00000000000E+00  0.00000000000E+00  0.50355232940E+03  0.50355232940E+03  0.00000000000E+00 0. -1.
         -1   -1    0    0    0  501 -0.00000000000E+00 -0.00000000000E+00 -0.32802716525E+02  0.32802716525E+02  0.00000000000E+00 0.  1.
         25    2    1    2    0    0  0.62373908790E+02  0.52166770215E+01  0.27978774016E+03  0.31280457098E+03  0.12509117421E+03 0.  0.
         23    2    1    2    0    0 -0.62373908790E+02 -0.52166770215E+01  0.19096187271E+03  0.22355047494E+03  0.97931914105E+02 0.  0.
          5    1    3    3  502    0  0.46142038153E+02  0.52692657840E+02  0.78372192867E+02  0.10519161987E+03  0.41800000000E+01 0. -1.
         -5    1    3    3    0  502  0.16231870637E+02 -0.47475980818E+02  0.20141554729E+03  0.20761295111E+03  0.41800000000E+01 0. -1.
        -11    1    4    4    0    0 -0.52332356250E+01 -0.13614277702E+02 -0.78192792068E+01  0.16549212663E+02  0.00000000000E+00 0.  1.
         11    1    4    4    0    0 -0.57140673165E+02  0.83976006804E+01  0.19878115192E+03  0.20700126228E+03  0.00000000000E+00 0. -1.
</event>
<event>
 8    1  0.6832629E-009  0.1398848E+03  0.7561462E-02  0.1213484E+00
          2   -1    0    0  501    0  0.00000000000E+00  0.00000000000E+00  0.27096936026E+02  0.27096936026E+02  0.00000000000E+00 0. -1.
         -2   -1    0    0    0  501 -0.00000000000E+00 -0.00000000000E+00 -0.10158086377E+04  0.10158086377E+04  0.00000000000E+00 0.  1.
         25    2    1    2    0    0  0.14422649678E+02 -0.12423894770E+03 -0.52590738924E+03  0.55486004505E+03  0.12509100121E+03 0.  0.
         23    2    1    2    0    0 -0.14422649678E+02  0.12423894770E+03 -0.46280431248E+03  0.48804552873E+03  0.91418146487E+02 0.  0.
          5    1    3    3  502    0  0.20994265559E+02  0.35395278085E+01 -0.11093678494E+02  0.24368618057E+02  0.41800000000E+01 0. -1.
         -5    1    3    3    0  502 -0.65716158817E+01 -0.12777847551E+03 -0.51481371074E+03  0.53049142699E+03  0.41800000000E+01 0. -1.
        -11    1    4    4    0    0 -0.26430053895E+02  0.87651599969E+02 -0.42249148849E+03  0.43229666732E+03  0.00000000000E+00 0.  1.
         11    1    4    4    0    0  0.12007404217E+02  0.36587347733E+02 -0.40312823990E+02  0.55748861407E+02  0.00000000000E+00 0. -1.
</event>
<event>
 8    1  0.6832629E-009  0.1709256E+03  0.7561462E-02  0.1176886E+00
          1   -1    0    0  501    0  0.00000000000E+00  0.00000000000E+00  0.97547757098E+03  0.97547757098E+03  0.00000000000E+00 0.  1.
         -1   -1    0    0    0  501 -0.00000000000E+00 -0.00000000000E+00 -0.34136669211E+02  0.34136669211E+02  0.00000000000E+00 0. -1.
         25    2    1    2    0    0  0.11645093275E+03  0.88473195845E+02  0.47872196159E+03  0.51595665422E+03  0.12509287111E+03 0.  0.
         23    2    1    2    0    0 -0.11645093275E+03 -0.88473195845E+02  0.46261894018E+03  0.49365758597E+03  0.91067020663E+02 0.  0.
          5    1    3    3  502    0  0.10893462425E+03  0.11836340151E+03  0.38774269892E+03  0.41980771806E+03  0.41800000000E+01 0.  1.
         -5    1    3    3    0  502  0.75163085054E+01 -0.29890205670E+02  0.90979262668E+02  0.96148936157E+02  0.41800000000E+01 0.  1.
        -11    1    4    4    0    0 -0.59902580702E+02 -0.25243425715E+02  0.87134639495E+02  0.10871060259E+03  0.00000000000E+00 0. -1.
         11    1    4    4    0    0 -0.56548352049E+02 -0.63229770130E+02  0.37548430068E+03  0.38494698337E+03  0.00000000000E+00 0.  1.
</event>
<event>
 8    1  0.6832629E-009  0.1183569E+03  0.7561462E-02  0.1245833E+00
          2   -1    0    0  501    0  0.00000000000E+00  0.00000000000E+00  0.96288246266E+03  0.96288246266E+03  0.00000000000E+00 0.  1.
         -2   -1    0    0    0  501 -0.00000000000E+00 -0.00000000000E+00 -0.20186611293E+02  0.20186611293E+02  0.00000000000E+00 0. -1.
         25    2    1    2    0    0 -0.33881890857E+02 -0.70995980126E+02  0.37624087296E+03  0.40421870954E+03  0.12508860433E+03 0.  0.
         23    2    1    2    0    0  0.33881890857E+02  0.70995980126E+02  0.56645497841E+03  0.57885036442E+03  0.89487932695E+02 0.  0.
          5    1    3    3  502    0 -0.60167911911E+02 -0.67932888131E+02  0.14280706650E+03  0.16925243147E+03  0.41800000000E+01 0.  1.
         -5    1    3    3    0  502  0.26286021054E+02 -0.30630919948E+01  0.23343380646E+03  0.23496627807E+03  0.41800000000E+01 0.  1.
        -11    1    4    4    0    0 -0.19612508740E+01  0.81659148596E+02  0.37918200788E+03  0.38788021109E+03  0.00000000000E+00 0. -1.
         11    1    4    4    0    0  0.35843141731E+02 -0.10663168470E+02  0.18727297053E+03  0.19097015332E+03  0.00000000000E+00 0.  1.
</event>
<event>
 8    1  0.6832629E-009  0.8770536E+02  0.7561462E-02  0.1308506E+00
         -1   -1    0    0    0  501 -0.00000000000E+00  0.00000000000E+00  0.26689193801E+03  0.26689193801E+03  0.00000000000E+00 0.  1.
          1   -1    0    0  501    0  0.00000000000E+00 -0.00000000000E+00 -0.67580940812E+02  0.67580940812E+02  0.00000000000E+00 0. -1.
         25    2    1    2    0    0  0.16906637686E+02  0.53938857491E+02  0.44469844703E+02  0.14428932916E+03  0.12508640484E+03 0.  0.
         23    2    1    2    0    0 -0.16906637686E+02 -0.53938857491E+02  0.15484115249E+03  0.19018354967E+03  0.94861822208E+02 0.  0.
          5    1    3    3  502    0  0.30370887366E+02  0.65768930037E+02 -0.21595428134E+02  0.75708505955E+02  0.41800000000E+01 0.  1.
         -5    1    3    3    0  502 -0.13464249680E+02 -0.11830072546E+02  0.66065272837E+02  0.68580823201E+02  0.41800000000E+01 0.  1.
        -11    1    4    4    0    0  0.20815415048E+02 -0.29584501161E+01 -0.18884424510E+01  0.21109243132E+02  0.00000000000E+00 0. -1.
         11    1    4    4    0    0 -0.37722052734E+02 -0.50980407375E+02  0.15672959495E+03  0.16907430653E+03  0.00000000000E+00 0.  1.
</event>
<event>
 8    1  0.6832629E-009  0.9311787E+02  0.7561462E-02  0.1295472E+00
         -2   -1    0    0    0  501 -0.00000000000E+00  0.00000000000E+00  0.39223764091E+02  0.39223764091E+02  0.00000000000E+00 0.  1.
          2   -1    0    0  501    0  0.00000000000E+00 -0.00000000000E+00 -0.31185920595E+03  0.31185920595E+03  0.00000000000E+00 0. -1.
         25    2    1    2    0    0 -0.17816267958E+00  0.17482437901E+02 -0.19021314686E+03  0.22832968341E+03  0.12509090978E+03 0.  0.
         23    2    1    2    0    0  0.17816267958E+00 -0.17482437901E+02 -0.82422294996E+02  0.12275328663E+03  0.89270752707E+02 0.  0.
          5    1    3    3  502    0 -0.39545038406E+01 -0.53342720265E+02 -0.64200274991E+02  0.83667386805E+02  0.41800000000E+01 0.  1.
         -5    1    3    3    0  502  0.37763411611E+01  0.70825158166E+02 -0.12601287187E+03  0.14466229660E+03  0.41800000000E+01 0.  1.
        -11    1    4    4    0    0  0.15528917671E+02  0.17461458758E+02  0.79249823309E+01  0.24674990799E+02  0.00000000000E+00 0.  1.
         11    1    4    4    0    0 -0.15350754992E+02 -0.34943896659E+02 -0.90347277327E+02  0.98078295830E+02  0.00000000000E+00 0. -1.
</event>
<event>
 8    1  0.6832629E-009  0.2157057E+03  0.7561462E-02  0.1137126E+00
         -1   -1    0    0    0  501 -0.00000000000E+00  0.00000000000E+00  0.82613536511E+02  0.82613536511E+02  0.00000000000E+00 0.  1.
          1   -1    0    0  501    0  0.00000000000E+00 -0.00000000000E+00 -0.91860010835E+03  0.91860010835E+03  0.00000000000E+00 0. -1.
         25    2    1    2    0    0  0.18598690399E+03  0.14118058806E+02 -0.73847558669E+03  0.77187054688E+03  0.12508997146E+03 0.  0.
         23    2    1    2    0    0 -0.18598690399E+03 -0.14118058806E+02 -0.97510985143E+02  0.22934309798E+03  0.91101132415E+02 0.  0.
          5    1    3    3  502    0  0.18765703757E+03 -0.21065150613E+02 -0.60839166827E+03  0.63703751753E+03  0.41800000000E+01 0. -1.
         -5    1    3    3    0  502 -0.16701335876E+01  0.35183209419E+02 -0.13008391842E+03  0.13483302935E+03  0.41800000000E+01 0. -1.
        -11    1    4    4    0    0 -0.13166414173E+03  0.32342547752E+02 -0.71498951051E+02  0.15327617758E+03  0.00000000000E+00 0.  1.
         11    1    4    4    0    0 -0.54322762259E+02 -0.46460606558E+02 -0.26012034092E+02  0.76066920398E+02  0.00000000000E+00 0. -1.
</event>
<event>
 8    1  0.6832629E-009  0.1111718E+03  0.7561462E-02  0.1258415E+00
         -1   -1    0    0    0  501 -0.00000000000E+00  0.00000000000E+00  0.40262116606E+02  0.40262116606E+02  0.00000000000E+00 0.  1.
          1   -1    0    0  501    0  0.00000000000E+00 -0.00000000000E+00 -0.47731536372E+03  0.47731536372E+03  0.00000000000E+00 0. -1.
         25    2    1    2    0    0  0.79941430874E+02  0.26531374675E+02 -0.21288406161E+03  0.26088457897E+03  0.12508634476E+03 0.  0.
         23    2    1    2    0    0 -0.79941430874E+02 -0.26531374675E+02 -0.22416918551E+03  0.25669290136E+03  0.92438496656E+02 0.  0.
          5    1    3    3  502    0  0.13946998306E+02  0.47092689026E+02 -0.17528962168E+03  0.18208834117E+03  0.41800000000E+01 0. -1.
         -5    1    3    3    0  502  0.65994432568E+02 -0.20561314352E+02 -0.37594439927E+02  0.78796237799E+02  0.41800000000E+01 0. -1.
        -11    1    4    4    0    0  0.74186085407E+01  0.70266643055E+01  0.32897283153E+01  0.10734620456E+02  0.00000000000E+00 0.  1.
         11    1    4    4    0    0 -0.87360039415E+02 -0.33558038980E+02 -0.22745891382E+03  0.24595828090E+03  0.00000000000E+00 0. -1.
</event>
<event>
 8    1  0.6832629E-009  0.1357202E+03  0.7561462E-02  0.1219207E+00
         -1   -1    0    0    0  501 -0.00000000000E+00  0.00000000000E+00  0.41678684318E+02  0.41678684318E+02  0.00000000000E+00 0.  1.
          1   -1    0    0  501    0  0.00000000000E+00 -0.00000000000E+00 -0.64064763292E+03  0.64064763292E+03  0.00000000000E+00 0. -1.
         25    2    1    2    0    0 -0.11282096410E+03 -0.43496980095E+02 -0.29276505511E+03  0.34055717209E+03  0.12508897935E+03 0.  0.
         23    2    1    2    0    0  0.11282096410E+03  0.43496980095E+02 -0.30620389350E+03  0.34176914515E+03  0.91786529317E+02 0.  0.
          5    1    3    3  502    0 -0.50932934101E+02 -0.66548727311E+02 -0.73575074206E+02  0.11159597138E+03  0.41800000000E+01 0. -1.
         -5    1    3    3    0  502 -0.61888029997E+02  0.23051747216E+02 -0.21918998090E+03  0.22896120072E+03  0.41800000000E+01 0. -1.
        -11    1    4    4    0    0  0.68789162064E+02  0.21059810544E+02 -0.27278374350E+03  0.28211067891E+03  0.00000000000E+00 0. -1.
         11    1    4    4    0    0  0.44031802034E+02  0.22437169551E+02 -0.33420149998E+02  0.59658466236E+02  0.00000000000E+00 0.  1.
</event>
<event>
 8    1  0.6832629E-009  0.1101770E+03  0.7561462E-02  0.1260243E+00
          2   -1    0    0  501    0  0.00000000000E+00  0.00000000000E+00  0.54614350036E+03  0.54614350036E+03  0.00000000000E+00 0. -1.
         -2   -1    0    0    0  501 -0.00000000000E+00 -0.00000000000E+00 -0.28078905216E+02  0.28078905216E+02  0.00000000000E+00 0.  1.
         25    2    1    2    0    0 -0.56258718794E+02 -0.17461574751E+01  0.24713388520E+03  0.28264882358E+03  0.12508839973E+03 0.  0.
         23    2    1    2    0    0  0.56258718794E+02  0.17461574751E+01  0.27093070994E+03  0.29157358200E+03  0.91889126801E+02 0.  0.
          5    1    3    3  502    0 -0.66855970782E+02  0.36639143641E+02  0.79210609789E+02  0.11001791117E+03  0.41800000000E+01 0.  1.
         -5    1    3    3    0  502  0.10597251989E+02 -0.38385301116E+02  0.16792327541E+03  0.17263091240E+03  0.41800000000E+01 0.  1.
        -11    1    4    4    0    0  0.44620272914E-01 -0.36160938157E+02  0.60428701717E+02  0.70421895960E+02  0.00000000000E+00 0.  1.
         11    1    4    4    0    0  0.56214098521E+02  0.37907095632E+02  0.21050200822E+03  0.22115168604E+03  0.00000000000E+00 0. -1.
</event>
<event>
 8    1  0.6832629E-009  0.1110153E+03  0.7561462E-02  0.1258701E+00
          4   -1    0    0  501    0  0.00000000000E+00  0.00000000000E+00  0.12954218398E+02  0.12954218398E+02  0.00000000000E+00 0. -1.
         -4   -1    0    0    0  501 -0.00000000000E+00 -0.00000000000E+00 -0.10541119691E+04  0.10541119691E+04  0.00000000000E+00 0.  1.
         25    2    1    2    0    0  0.32017178980E+02  0.12478564474E+02 -0.74129920898E+03  0.75256457263E+03  0.12509238356E+03 0.  0.
         23    2    1    2    0    0 -0.32017178980E+02 -0.12478564474E+02 -0.29985854170E+03  0.31450161485E+03  0.88404221550E+02 0.  0.
          5    1    3    3  502    0 -0.38292412129E+02  0.36229785052E+02 -0.38327101934E+03  0.38690186458E+03  0.41800000000E+01 0.  1.
         -5    1    3    3    0  502  0.70309591109E+02 -0.23751220578E+02 -0.35802818964E+03  0.36566270805E+03  0.41800000000E+01 0.  1.
        -11    1    4    4    0    0 -0.20807949706E+02  0.37885092991E+02 -0.13284953391E+03  0.13970415063E+03  0.00000000000E+00 0.  1.
         11    1    4    4    0    0 -0.11209229275E+02 -0.50363657465E+02 -0.16700900779E+03  0.17479746422E+03  0.00000000000E+00 0. -1.
</event>
<event>
 8    1  0.6832629E-009  0.1219001E+03  0.7561462E-02  0.1239995E+00
          4   -1    0    0  501    0  0.00000000000E+00  0.00000000000E+00  0.54020220482E+02  0.54020220482E+02  0.00000000000E+00 0. -1.
         -4   -1    0    0    0  501 -0.00000000000E+00 -0.00000000000E+00 -0.49073230541E+03  0.49073230541E+03  0.00000000000E+00 0.  1.
         25    2    1    2    0    0 -0.86672020940E+02  0.67136564472E+02 -0.15449191789E+03  0.22701358085E+03  0.12509218878E+03 0.  0.
         23    2    1    2    0    0  0.86672020940E+02 -0.67136564472E+02 -0.28222016703E+03  0.31773894504E+03  0.96387016821E+02 0.  0.
          5    1    3    3  502    0 -0.10033260173E+03  0.64633669905E+02 -0.16871259943E+03  0.20670161069E+03  0.41800000000E+01 0.  1.
         -5    1    3    3    0  502  0.13660580785E+02  0.25028945672E+01  0.14220681537E+02  0.20311970165E+02  0.41800000000E+01 0.  1.
        -11    1    4    4    0    0  0.52482559542E+02 -0.45103978513E+02 -0.59284338146E+02  0.91123107296E+02  0.00000000000E+00 0. -1.
         11    1    4    4    0    0  0.34189461398E+02 -0.22032585958E+02 -0.22293582889E+03  0.22661583774E+03  0.00000000000E+00 0.  1.
</event>
<event>
 8    1  0.6832629E-009  0.7395649E+02  0.7561462E-02  0.1347133E+00
          2   -1    0    0  501    0  0.00000000000E+00  0.00000000000E+00  0.19212623016E+03  0.19212623016E+03  0.00000000000E+00 0.  1.
         -2   -1    0    0    0  501 -0.00000000000E+00 -0.00000000000E+00 -0.73851666190E+02  0.73851666190E+02  0.00000000000E+00 0. -1.
         25    2    1    2    0    0 -0.34436856161E+02 -0.32884872088E+02  0.79607897117E+02  0.15572944506E+03  0.12508769284E+03 0.  0.
         23    2    1    2    0    0  0.34436856161E+02  0.32884872088E+02  0.38666666856E+02  0.11024845130E+03  0.91609486479E+02 0.  0.
          5    1    3    3  502    0 -0.88203718348E+01 -0.35173622858E+01  0.10726160662E+03  0.10776221718E+03  0.41800000000E+01 0.  1.
         -5    1    3    3    0  502 -0.25616484327E+02 -0.29367509802E+02 -0.27653709501E+02  0.47967227879E+02  0.41800000000E+01 0.  1.
        -11    1    4    4    0    0  0.58283582798E+02  0.69999699726E+00  0.60667339680E+01  0.58602655918E+02  0.00000000000E+00 0. -1.
         11    1    4    4    0    0 -0.23846726637E+02  0.32184875091E+02  0.32599932888E+02  0.51645795378E+02  0.00000000000E+00 0.  1.
</event>
<event>
 8    1  0.6832629E-009  0.1048490E+03  0.7561462E-02  0.1270417E+00
         -1   -1    0    0    0  501 -0.00000000000E+00  0.00000000000E+00  0.44815077998E+02  0.44815077998E+02  0.00000000000E+00 0.  1.
          1   -1    0    0  501    0  0.00000000000E+00 -0.00000000000E+00 -0.30688725436E+03  0.30688725436E+03  0.00000000000E+00 0. -1.
         25    2    1    2    0    0  0.34279091294E+02  0.13667793243E+02 -0.11323648355E+03  0.17271561514E+03  0.12508524227E+03 0.  0.
         23    2    1    2    0    0 -0.34279091294E+02 -0.13667793243E+02 -0.14883569281E+03  0.17898671722E+03  0.92316395157E+02 0.  0.
          5    1    3    3  502    0 -0.43238387272E+01 -0.52157126130E+02 -0.59143601263E+02  0.79085392822E+02  0.41800000000E+01 0. -1.
         -5    1    3    3    0  502  0.38602930021E+02  0.65824919373E+02 -0.54092882288E+02  0.93630222316E+02  0.41800000000E+01 0. -1.
        -11    1    4    4    0    0 -0.54972544835E+02 -0.20957209985E+02 -0.48399119996E+02  0.76181757346E+02  0.00000000000E+00 0.  1.
         11    1    4    4    0    0  0.20693453541E+02  0.72894167420E+01 -0.10043657282E+03  0.10280495988E+03  0.00000000000E+00 0. -1.
</event>
<event>
 8    1  0.6832629E-009  0.1064958E+03  0.7561462E-02  0.1267200E+00
         -1   -1    0    0    0  501 -0.00000000000E+00  0.00000000000E+00  0.38792105665E+02  0.38792105665E+02  0.00000000000E+00 0.  1.
          1   -1    0    0  501    0  0.00000000000E+00 -0.00000000000E+00 -0.47972092976E+03  0.47972092976E+03  0.00000000000E+00 0. -1.
         25    2    1    2    0    0 -0.77389356651E+02 -0.21829876728E+02 -0.28137763032E+03  0.31825701291E+03  0.12509396221E+03 0.  0.
         23    2    1    2    0    0  0.77389356651E+02  0.21829876728E+02 -0.15955119377E+03  0.20025602251E+03  0.90444652014E+02 0.  0.
          5    1    3    3  502    0 -0.93883232584E+01  0.26010109359E+02 -0.35091523146E+01  0.28186041801E+02  0.41800000000E+01 0.  1.
         -5    1    3    3    0  502 -0.68001033392E+02 -0.47839986087E+02 -0.27786847801E+03  0.29007097111E+03  0.41800000000E+01 0.  1.
        -11    1    4    4    0    0 -0.84313699631E+00 -0.15199685039E+02  0.35321962785E+01  0.15627466712E+02  0.00000000000E+00 0.  1.
         11    1    4    4    0    0  0.78232493647E+02  0.37029561767E+02 -0.16308339005E+03  0.18462855580E+03  0.00000000000E+00 0. -1.
</event>
<event>
 8    1  0.6832629E-009  0.1998282E+03  0.7561462E-02  0.1149884E+00
         -1   -1    0    0    0  501 -0.00000000000E+00  0.00000000000E+00  0.34482317704E+02  0.34482317704E+02  0.00000000000E+00 0.  1.
          1   -1    0    0  501    0  0.00000000000E+00 -0.00000000000E+00 -0.11612994226E+04  0.11612994226E+04  0.00000000000E+00 0. -1.
         25    2    1    2    0    0  0.12043428822E+03  0.11569656248E+03 -0.57922080729E+03  0.61565796285E+03  0.12509145164E+03 0.  0.
         23    2    1    2    0    0 -0.12043428822E+03 -0.11569656248E+03 -0.54759629757E+03  0.58012377742E+03  0.93764490421E+02 0.  0.
          5    1    3    3  502    0  0.10649138241E+03  0.14255249901E+03 -0.48661079243E+03  0.51814010191E+03  0.41800000000E+01 0.  1.
         -5    1    3    3    0  502  0.13942905813E+02 -0.26855936528E+02 -0.92610014862E+02  0.97517860939E+02  0.41800000000E+01 0.  1.
        -11    1    4    4    0    0 -0.72215640634E+02 -0.12272424160E+03 -0.39103459713E+03  0.41615429156E+03  0.00000000000E+00 0. -1.
         11    1    4    4    0    0 -0.48218647587E+02  0.70276791190E+01 -0.15656170044E+03  0.16396948586E+03  0.00000000000E+00 0.  1.
</event>
<event>
 8    1  0.6832629E-009  0.1050738E+03  0.7561462E-02  0.1269974E+00
          2   -1    0    0  501    0  0.00000000000E+00  0.00000000000E+00  0.87497808259E+02  0.87497808259E+02  0.00000000000E+00 0.  1.
         -2   -1    0    0    0  501 -0.00000000000E+00 -0.00000000000E+00 -0.16403898772E+03  0.16403898772E+03  0.00000000000E+00 0. -1.
         25    2    1    2    0    0 -0.42302557678E+01 -0.51013906395E+02 -0.26346533604E+02  0.13770548545E+03  0.12509335386E+03 0.  0.
         23    2    1    2    0    0  0.42302557678E+01  0.51013906395E+02 -0.50194645855E+02  0.11383131053E+03  0.88418047222E+02 0.  0.
          5    1    3    3  502    0 -0.31734635703E+02 -0.81116866520E+02 -0.37952145253E+02  0.95104526004E+02  0.41800000000E+01 0.  1.
         -5    1    3    3    0  502  0.27504379935E+02  0.30102960125E+02  0.11605611649E+02  0.42600959445E+02  0.41800000000E+01 0.  1.
        -11    1    4    4    0    0  0.33110336263E+02  0.16633611100E+02  0.10333350227E+02  0.38467512431E+02  0.00000000000E+00 0.  1.
         11    1    4    4    0    0 -0.28880080496E+02  0.34380295295E+02 -0.60527996082E+02  0.75363798098E+02  0.00000000000E+00 0. -1.
</event>
<event>
 8    1  0.6832629E-009  0.1163293E+03  0.7561462E-02  0.1249278E+00
          1   -1    0    0  501    0  0.00000000000E+00  0.00000000000E+00  0.12566053033E+03  0.12566053033E+03  0.00000000000E+00 0. -1.
         -1   -1    0    0    0  501 -0.00000000000E+00 -0.00000000000E+00 -0.17950459088E+03  0.17950459088E+03  0.00000000000E+00 0.  1.
         25    2    1    2    0    0 -0.32547162328E+01 -0.80272067874E+02  0.36645892481E+02  0.15311755644E+03  0.12509143294E+03 0.  0.
         23    2    1    2    0    0  0.32547162328E+01  0.80272067874E+02 -0.90489953033E+02  0.15204756478E+03  0.92064283497E+02 0.  0.
          5    1    3    3  502    0 -0.56672293596E+02 -0.63427261236E+02  0.45024249501E+02  0.96329755385E+02  0.41800000000E+01 0. -1.
         -5    1    3    3    0  502  0.53417577363E+02 -0.16844806638E+02 -0.83783570196E+01  0.56787801052E+02  0.41800000000E+01 0. -1.
        -11    1    4    4    0    0  0.21815126215E+02  0.25809944146E+02  0.10866405641E+02  0.35498334048E+02  0.00000000000E+00 0. -1.
         11    1    4    4    0    0 -0.18560409982E+02  0.54462123727E+02 -0.10135635867E+03  0.11654923073E+03  0.00000000000E+00 0.  1.
</event>
<event>
 8    1  0.6832629E-009  0.9872757E+02  0.7561462E-02  0.1282995E+00
          3   -1    0    0  501    0  0.00000000000E+00  0.00000000000E+00  0.81823163559E+02  0.81823163559E+02  0.00000000000E+00 0. -1.
         -3   -1    0    0    0  501 -0.00000000000E+00 -0.00000000000E+00 -0.23427751507E+03  0.23427751507E+03  0.00000000000E+00 0.  1.
         25    2    1    2    0    0  0.61412983843E+02  0.58090330593E+02 -0.63682426891E+02  0.16385709175E+03  0.12509058290E+03 0.  0.
         23    2    1    2    0    0 -0.61412983843E+02 -0.58090330593E+02 -0.88771924621E+02  0.15224358688E+03  0.90286289391E+02 0.  0.
          5    1    3    3  502    0  0.27930805893E+02  0.69870201010E+02  0.15538792739E+02  0.76947393632E+02  0.41800000000E+01 0.  1.
         -5    1    3    3    0  502  0.33482177950E+02 -0.11779870417E+02 -0.79221219631E+02  0.86909698119E+02  0.41800000000E+01 0.  1.
        -11    1    4    4    0    0 -0.51780368796E+02 -0.38505023381E+02 -0.10623121426E+03  0.12429366155E+03  0.00000000000E+00 0.  1.
         11    1    4    4    0    0 -0.96326150467E+01 -0.19585307212E+02  0.17459289639E+02  0.27949925329E+02  0.00000000000E+00 0. -1.
</event>
<event>
 8    1  0.6832629E-009  0.8962230E+02  0.7561462E-02  0.1303769E+00
          1   -1    0    0  501    0  0.00000000000E+00  0.00000000000E+00  0.12068599837E+03  0.12068599837E+03  0.00000000000E+00 0. -1.
         -1   -1    0    0    0  501 -0.00000000000E+00 -0.00000000000E+00 -0.13770807387E+03  0.13770807387E+03  0.00000000000E+00 0.  1.
         25    2    1    2    0    0  0.20419365517E+02  0.66369833944E+02 -0.99014535533E+01  0.14341166188E+03  0.12508781169E+03 0.  0.
         23    2    1    2    0    0 -0.20419365517E+02 -0.66369833944E+02 -0.71206219443E+01  0.11498241036E+03  0.91369284168E+02 0.  0.
          5    1    3    3  502    0 -0.85989284295E+01  0.36785130684E+01  0.50514716043E+02  0.51543010831E+02  0.41800000000E+01 0.  1.
         -5    1    3    3    0  502  0.29018293947E+02  0.62691320876E+02 -0.60416169597E+02  0.91868651049E+02  0.41800000000E+01 0.  1.
        -11    1    4    4    0    0 -0.25084662772E+02  0.71821578447E+01 -0.28108481912E+02  0.38352450419E+02  0.00000000000E+00 0.  1.
         11    1    4    4    0    0  0.46652972548E+01 -0.73551991789E+02  0.20987859968E+02  0.76629959942E+02  0.00000000000E+00 0. -1.
</event>
<event>
 8    1  0.6832629E-009  0.1070276E+03  0.7561462E-02  0.1266175E+00
         -1   -1    0    0    0  501 -0.00000000000E+00  0.00000000000E+00  0.82804578580E+02  0.82804578580E+02  0.00000000000E+00 0.  1.
          1   -1    0    0  501    0  0.00000000000E+00 -0.00000000000E+00 -0.33758550174E+03  0.33758550174E+03  0.00000000000E+00 0. -1.
         25    2    1    2    0    0  0.32764670707E+02 -0.73869387578E+02 -0.13052099424E+02  0.14949294950E+03  0.12509026574E+03 0.  0.
         23    2    1    2    0    0 -0.32764670707E+02  0.73869387578E+02 -0.24172882374E+03  0.27089713083E+03  0.91772660390E+02 0.  0.
          5    1    3    3  502    0  0.16524818475E+02 -0.82254764686E+02  0.40135140883E+02  0.93097894030E+02  0.41800000000E+01 0.  1.
         -5    1    3    3    0  502  0.16239852232E+02  0.83853771077E+01 -0.53187240307E+02  0.56395055468E+02  0.41800000000E+01 0.  1.
        -11    1    4    4    0    0 -0.24328390374E+02 -0.10511711201E+02 -0.11771472775E+03  0.12066119417E+03  0.00000000000E+00 0. -1.
         11    1    4    4    0    0 -0.84362803330E+01  0.84381098779E+02 -0.12401409599E+03  0.15023593665E+03  0.00000000000E+00 0.  1.
</event>
<event>
 8    1  0.6832629E-009  0.9436709E+02  0.7561462E-02  0.1292608E+00
         -3   -1    0    0    0  501 -0.00000000000E+00  0.00000000000E+00  0.59270463446E+03  0.59270463446E+03  0.00000000000E+00 0.  1.
          3   -1    0    0  501    0  0.00000000000E+00 -0.00000000000E+00 -0.20235343828E+02  0.20235343828E+02  0.00000000000E+00 0. -1.
         25    2    1    2    0    0 -0.13484343892E+02 -0.10406770198E+01  0.35124429275E+03  0.37309883555E+03  0.12508907769E+03 0.  0.
         23    2    1    2    0    0  0.13484343892E+02  0.10406770198E+01  0.22122499788E+03  0.23984114274E+03  0.91653497070E+02 0.  0.
          5    1    3    3  502    0  0.20744726498E+01 -0.54946863934E+02  0.87551749421E+02  0.10347097429E+03  0.41800000000E+01 0. -1.
         -5    1    3    3    0  502 -0.15558816542E+02  0.53906186914E+02  0.26369254333E+03  0.26962786126E+03  0.41800000000E+01 0. -1.
        -11    1    4    4    0    0  0.45206927737E+02 -0.32126706022E+01  0.18924403261E+03  0.19459519893E+03  0.00000000000E+00 0.  1.
         11    1    4    4    0    0 -0.31722583845E+02  0.42533476221E+01  0.31980965269E+02  0.45245943810E+02  0.00000000000E+00 0. -1.
</event>
<event>
 8    1  0.6832629E-009  0.1223598E+03  0.7561462E-02  0.1239254E+00
         -1   -1    0    0    0  501 -0.00000000000E+00  0.00000000000E+00  0.14791853473E+03  0.14791853473E+03  0.00000000000E+00 0.  1.
          1   -1    0    0  501    0  0.00000000000E+00 -0.00000000000E+00 -0.11764318229E+03  0.11764318229E+03  0.00000000000E+00 0. -1.
         25    2    1    2    0    0 -0.24420523857E+02 -0.56715772366E+02  0.56820152304E+02  0.15062809905E+03  0.12508898311E+03 0.  0.
         23    2    1    2    0    0  0.24420523857E+02  0.56715772366E+02 -0.26544799864E+02  0.11493361796E+03  0.93231267919E+02 0.  0.
          5    1    3    3  502    0  0.15908473424E+02  0.34729089532E+02  0.24203621352E+02  0.45414500690E+02  0.41800000000E+01 0. -1.
         -5    1    3    3    0  502 -0.40328997281E+02 -0.91444861898E+02  0.32616530952E+02  0.10521359836E+03  0.41800000000E+01 0. -1.
        -11    1    4    4    0    0  0.52194718005E+02  0.11894372451E+02  0.45381468756E+01  0.53724849564E+02  0.00000000000E+00 0.  1.
         11    1    4    4    0    0 -0.27774194148E+02  0.44821399915E+02 -0.31082946740E+02  0.61208768399E+02  0.00000000000E+00 0. -1.
</event>
<event>
 8    1  0.6832629E-009  0.1215826E+03  0.7561462E-02  0.1240509E+00
          1   -1    0    0  501    0  0.00000000000E+00  0.00000000000E+00  0.32991701228E+03  0.32991701228E+03  0.00000000000E+00 0. -1.
         -1   -1    0    0    0  501 -0.00000000000E+00 -0.00000000000E+00 -0.57319128000E+02  0.57319128000E+02  0.00000000000E+00 0.  1.
         25    2    1    2    0    0  0.66279276644E+02  0.35357955690E+02  0.20330739263E+03  0.25024877207E+03  0.12508966577E+03 0.  0.
         23    2    1    2    0    0 -0.66279276644E+02 -0.35357955690E+02  0.69290491642E+02  0.13698736820E+03  0.91220826965E+02 0.  0.
          5    1    3    3  502    0  0.79765544457E+02 -0.12146833686E+02  0.17601501193E+03  0.19367200231E+03  0.41800000000E+01 0. -1.
         -5    1    3    3    0  502 -0.13486267813E+02  0.47504789376E+02  0.27292380701E+02  0.56576769769E+02  0.41800000000E+01 0. -1.
        -11    1    4    4    0    0 -0.57820907440E+02  0.16611589609E+02  0.57095237151E+02  0.82940149215E+02  0.00000000000E+00 0. -1.
         11    1    4    4    0    0 -0.84583692032E+01 -0.51969545299E+02  0.12195254491E+02  0.54047218987E+02  0.00000000000E+00 0.  1.
</event>
<event>
 8    1  0.6832629E-009  0.1069271E+03  0.7561462E-02  0.1266369E+00
         -2   -1    0    0    0  501 -0.00000000000E+00  0.00000000000E+00  0.64264944359E+02  0.64264944359E+02  0.00000000000E+00 0.  1.
          2   -1    0    0  501    0  0.00000000000E+00 -0.00000000000E+00 -0.23255166414E+03  0.23255166414E+03  0.00000000000E+00 0. -1.
         25    2    1    2    0    0 -0.50965360963E+02  0.24391723045E+02 -0.95043887416E+02  0.16695110943E+03  0.12508760224E+03 0.  0.
         23    2    1    2    0    0  0.50965360963E+02 -0.24391723045E+02 -0.73242832369E+02  0.12986549907E+03  0.91148840829E+02 0.  0.
          5    1    3    3  502    0  0.92352196584E+01 -0.31682258084E+02 -0.75184599591E+02  0.82214665207E+02  0.41800000000E+01 0.  1.
         -5    1    3    3    0  502 -0.60200580621E+02  0.56073981129E+02 -0.19859287825E+02  0.84736444224E+02  0.41800000000E+01 0.  1.
        -11    1    4    4    0    0 -0.57048564786E+01 -0.39221917873E+02 -0.50308594124E+01  0.39952644161E+02  0.00000000000E+00 0.  1.
         11    1    4    4    0    0  0.56670217442E+02  0.14830194828E+02 -0.68211972956E+02  0.89912854910E+02  0.00000000000E+00 0. -1.
</event>
<event>
 8    1  0.6832629E-009  0.9867151E+02  0.7561462E-02  0.1283115E+00
         -1   -1    0    0    0  501 -0.00000000000E+00  0.00000000000E+00  0.20082037445E+03  0.20082037445E+03  0.00000000000E+00 0.  1.
          1   -1    0    0  501    0  0.00000000000E+00 -0.00000000000E+00 -0.88633055471E+02  0.88633055471E+02  0.00000000000E+00 0. -1.
         25    2    1    2    0    0 -0.28032381568E+02 -0.45563791037E+02  0.20399839548E+01  0.13606449980E+03  0.12509001999E+03 0.  0.
         23    2    1    2    0    0  0.28032381568E+02  0.45563791037E+02  0.11014733502E+03  0.15338893012E+03  0.92378866640E+02 0.  0.
          5    1    3    3  502    0  0.27475379757E+02  0.77136462686E+01 -0.39202057207E+02  0.48668989314E+02  0.41800000000E+01 0.  1.
         -5    1    3    3    0  502 -0.55507761325E+02 -0.53277437305E+02  0.41242041162E+02  0.87395510481E+02  0.41800000000E+01 0.  1.
        -11    1    4    4    0    0  0.85409517454E+01 -0.20691862672E+02  0.70027174186E+02  0.73518066909E+02  0.00000000000E+00 0.  1.
         11    1    4    4    0    0  0.19491429822E+02  0.66255653709E+02  0.40120160834E+02  0.79870863212E+02  0.00000000000E+00 0. -1.
</event>
<event>
 8    1  0.6832629E-009  0.1932984E+03  0.7561462E-02  0.1155520E+00
          3   -1    0    0  501    0  0.00000000000E+00  0.00000000000E+00  0.39452905104E+02  0.39452905104E+02  0.00000000000E+00 0. -1.
         -3   -1    0    0    0  501 -0.00000000000E+00 -0.00000000000E+00 -0.11850575812E+04  0.11850575812E+04  0.00000000000E+00 0.  1.
         25    2    1    2    0    0 -0.14610991832E+03  0.63652937119E+02 -0.86884796040E+03  0.89215730618E+03  0.12509227012E+03 0.  0.
         23    2    1    2    0    0  0.14610991832E+03 -0.63652937119E+02 -0.27675671567E+03  0.33235318010E+03  0.92003000050E+02 0.  0.
          5    1    3    3  502    0 -0.13372919329E+03 -0.38223978331E+01 -0.56744685836E+03  0.58301931128E+03  0.41800000000E+01 0.  1.
         -5    1    3    3    0  502 -0.12380725028E+02  0.67475334952E+02 -0.30140110204E+03  0.30913799490E+03  0.41800000000E+01 0.  1.
        -11    1    4    4    0    0  0.76207406171E+02  0.16181032752E+02 -0.11607679122E+03  0.13979705303E+03  0.00000000000E+00 0.  1.
         11    1    4    4    0    0  0.69902512147E+02 -0.79833969871E+02 -0.16067992445E+03  0.19255612707E+03  0.00000000000E+00 0. -1.
</event>
<event>
 8    1  0.6832629E-009  0.1392498E+03  0.7561462E-02  0.1214342E+00
          1   -1    0    0  501    0  0.00000000000E+00  0.00000000000E+00  0.51407160493E+03  0.51407160493E+03  0.00000000000E+00 0. -1.
         -1   -1    0    0    0  501 -0.00000000000E+00 -0.00000000000E+00 -0.50229457711E+02  0.50229457711E+02  0.00000000000E+00 0.  1.
         25    2    1    2    0    0  0.87871684547E+02 -0.71508317239E+02  0.29765566595E+03  0.34217231673E+03  0.12509247176E+03 0.  0.
         23    2    1    2    0    0 -0.87871684547E+02  0.71508317239E+02  0.16618648127E+03  0.22212874590E+03  0.94278103608E+02 0.  0.
          5    1    3    3  502    0  0.10759804953E+03 -0.19928000591E+02  0.23000760794E+03  0.25474582937E+03  0.41800000000E+01 0.  1.
         -5    1    3    3    0  502 -0.19726364986E+02 -0.51580316648E+02  0.67648058008E+02  0.87426487367E+02  0.41800000000E+01 0.  1.
        -11    1    4    4    0    0 -0.75481543253E+02  0.57356966446E+02  0.55493333645E+02  0.10984896472E+03  0.00000000000E+00 0.  1.
         11    1    4    4    0    0 -0.12390141294E+02  0.14151350793E+02  0.11069314762E+03  0.11227978118E+03  0.00000000000E+00 0. -1.
</event>
<event>
 8    1  0.6832629E-009  0.1192971E+03  0.7561462E-02  0.1244261E+00
          2   -1    0    0  501    0  0.00000000000E+00  0.00000000000E+00  0.66916725867E+03  0.66916725867E+03  0.00000000000E+00 0. -1.
         -2   -1    0    0    0  501 -0.00000000000E+00 -0.00000000000E+00 -0.26429826428E+02  0.26429826428E+02  0.00000000000E+00 0.  1.
         25    2    1    2    0    0 -0.41647815101E+02  0.51641194873E+02  0.25119621116E+03  0.28835310937E+03  0.12508647278E+03 0.  0.
         23    2    1    2    0    0  0.41647815101E+02 -0.51641194873E+02  0.39154122108E+03  0.40724397572E+03  0.90231781810E+02 0.  0.
          5    1    3    3  502    0 -0.78755497374E+02  0.16404403146E+02  0.98434847942E+02  0.12719443580E+03  0.41800000000E+01 0. -1.
         -5    1    3    3    0  502  0.37107682273E+02  0.35236791727E+02  0.15276136322E+03  0.16115867357E+03  0.41800000000E+01 0. -1.
        -11    1    4    4    0    0  0.36663283754E+02  0.15186165325E+02  0.21028161976E+03  0.21399340083E+03  0.00000000000E+00 0.  1.
         11    1    4    4    0    0  0.49845313463E+01 -0.66827360197E+02  0.18125960132E+03  0.19325057489E+03  0.00000000000E+00 0. -1.
</event>
<event>
 8    1  0.6832629E-009  0.1637138E+03  0.7561462E-02  0.1184567E+00
         -2   -1    0    0    0  501 -0.00000000000E+00  0.00000000000E+00  0.17139267902E+03  0.17139267902E+03  0.00000000000E+00 0.  1.
          2   -1    0    0  501    0  0.00000000000E+00 -0.00000000000E+00 -0.20235703818E+03  0.20235703818E+03  0.00000000000E+00 0. -1.
         25    2    1    2    0    0 -0.65237963833E+02  0.13417233374E+03  0.32636106633E+01  0.19472454365E+03  0.12509512252E+03 0.  0.
         23    2    1    2    0    0  0.65237963833E+02 -0.13417233374E+03 -0.34227969818E+02  0.17902517355E+03  0.92845311037E+02 0.  0.
          5    1    3    3  502    0 -0.53153911672E+01  0.85545370928E+02  0.54814649706E+02  0.10182525273E+03  0.41800000000E+01 0.  1.
         -5    1    3    3    0  502 -0.59922572666E+02  0.48626962809E+02 -0.51551039043E+02  0.92899290920E+02  0.41800000000E+01 0.  1.
        -11    1    4    4    0    0 -0.14738762821E+02 -0.17501647832E+02 -0.29713434528E+02  0.37502359896E+02  0.00000000000E+00 0. -1.
         11    1    4    4    0    0  0.79976726654E+02 -0.11667068591E+03 -0.45145352902E+01  0.14152281366E+03  0.00000000000E+00 0.  1.
</event>
<event>
 8    1  0.6832629E-009  0.1339707E+03  0.7561462E-02  0.1221680E+00
         -2   -1    0    0    0  501 -0.00000000000E+00  0.00000000000E+00  0.11603858774E+02  0.11603858774E+02  0.00000000000E+00 0.  1.
          2   -1    0    0  501    0  0.00000000000E+00 -0.00000000000E+00 -0.18734040722E+04  0.18734040722E+04  0.00000000000E+00 0. -1.
         25    2    1    2    0    0 -0.20403627012E+02  0.96779504739E+02 -0.10724111301E+04  0.10842045133E+04  0.12510481256E+03 0.  0.
         23    2    1    2    0    0  0.20403627012E+02 -0.96779504739E+02 -0.78938908331E+03  0.80080341768E+03  0.91479005140E+02 0.  0.
          5    1    3    3  502    0  0.34090592283E+02  0.22674158091E+02 -0.67549825376E+03  0.67675080285E+03  0.41800000000E+01 0.  1.
         -5    1    3    3    0  502 -0.54494219295E+02  0.74105346648E+02 -0.39691287633E+03  0.40745371042E+03  0.41800000000E+01 0.  1.
        -11    1    4    4    0    0 -0.35953433215E+02 -0.49283332524E+02 -0.36426463843E+03  0.36933754620E+03  0.00000000000E+00 0. -1.
         11    1    4    4    0    0  0.56357060226E+02 -0.47496172215E+02 -0.42512444488E+03  0.43146587148E+03  0.00000000000E+00 0.  1.
</event>
<event>
 8    1  0.6832629E-009  0.1219919E+03  0.7561462E-02  0.1239847E+00
         -2   -1    0    0    0  501 -0.00000000000E+00  0.00000000000E+00  0.50072773218E+02  0.50072773218E+02  0.00000000000E+00 0.  1.
          2   -1    0    0  501    0  0.00000000000E+00 -0.00000000000E+00 -0.52815687276E+03  0.52815687276E+03  0.00000000000E+00 0. -1.
         25    2    1    2    0    0 -0.95906452164E+02 -0.40438990106E+02 -0.37707364127E+03  0.41069059229E+03  0.12509545220E+03 0.  0.
         23    2    1    2    0    0  0.95906452164E+02  0.40438990106E+02 -0.10101045827E+03  0.16753905369E+03  0.83862162770E+02 0.  0.
          5    1    3    3  502    0 -0.47450355424E+02  0.73322263482E+01 -0.31444444103E+03  0.31811645143E+03  0.41800000000E+01 0. -1.
         -5    1    3    3    0  502 -0.48456096740E+02 -0.47771216454E+02 -0.62629200240E+02  0.92574140858E+02  0.41800000000E+01 0. -1.
        -11    1    4    4    0    0 -0.12128857955E+02  0.89857477297E+01 -0.32416542072E+02  0.35758706037E+02  0.00000000000E+00 0. -1.
         11    1    4    4    0    0  0.10803531012E+03  0.31453242376E+02 -0.68593916197E+02  0.13178034765E+03  0.00000000000E+00 0.  1.
</event>
<event>
 8    1  0.6832629E-009  0.1280022E+03  0.7561462E-02  0.1230451E+00
          1   -1    0    0  501    0  0.00000000000E+00  0.00000000000E+00  0.56907355377E+03  0.56907355377E+03  0.00000000000E+00 0. -1.
         -1   -1    0    0    0  501 -0.00000000000E+00 -0.00000000000E+00 -0.35496295076E+02  0.35496295076E+02  0.00000000000E+00 0.  1.
         25    2    1    2    0    0  0.43653696986E+02 -0.67630361457E+02  0.39210257442E+03  0.41936993840E+03  0.12508878971E+03 0.  0.
         23    2    1    2    0    0 -0.43653696986E+02  0.67630361457E+02  0.14147468427E+03  0.18519991045E+03  0.88342568954E+02 0.  0.
          5    1    3    3  502    0 -0.34471827827E+02 -0.49852160976E+02  0.23800622708E+03  0.24563790708E+03  0.41800000000E+01 0.  1.
         -5    1    3    3    0  502  0.78125524813E+02 -0.17778200482E+02  0.15409634734E+03  0.17373203131E+03  0.41800000000E+01 0.  1.
        -11    1    4    4    0    0 -0.51570714014E+02  0.49133265857E+01  0.89283550999E+02  0.10322418225E+03  0.00000000000E+00 0.  1.
         11    1    4    4    0    0  0.79170170279E+01  0.62717034872E+02  0.52191133273E+02  0.81975728201E+02  0.00000000000E+00 0. -1.
</event>
<event>
 8    1  0.6832629E-009  0.1197237E+03  0.7561462E-02  0.1243554E+00
          4   -1    0    0  501    0  0.00000000000E+00  0.00000000000E+00  0.12737163474E+03  0.12737163474E+03  0.00000000000E+00 0. -1.
         -4   -1    0    0    0  501 -0.00000000000E+00 -0.00000000000E+00 -0.12277701715E+03  0.12277701715E+03  0.00000000000E+00 0.  1.
         25    2    1    2    0    0  0.59082702623E+02 -0.24760482405E+01  0.21651652960E+02  0.14003129816E+03  0.12507227440E+03 0.  0.
         23    2    1    2    0    0 -0.59082702623E+02  0.24760482405E+01 -0.17057035365E+02  0.11011735373E+03  0.91312609062E+02 0.  0.
          5    1    3    3  502    0  0.12280121170E+02 -0.57525138500E+02 -0.12057693317E+02  0.60189727558E+02  0.41800000000E+01 0.  1.
         -5    1    3    3    0  502  0.46802581454E+02  0.55049090260E+02  0.33709346277E+02  0.79841570598E+02  0.41800000000E+01 0.  1.
        -11    1    4    4    0    0 -0.69553056014E+01  0.42070399582E+02 -0.12791724279E+02  0.44518793863E+02  0.00000000000E+00 0.  1.
         11    1    4    4    0    0 -0.52127397022E+02 -0.39594351342E+02 -0.42653110864E+01  0.65598559871E+02  0.00000000000E+00 0. -1.
</event>
<event>
 8    1  0.6832629E-009  0.1515871E+03  0.7561462E-02  0.1198536E+00
          2   -1    0    0  501    0  0.00000000000E+00  0.00000000000E+00  0.83653305756E+03  0.83653305756E+03  0.00000000000E+00 0. -1.
         -2   -1    0    0    0  501 -0.00000000000E+00 -0.00000000000E+00 -0.36051914822E+02  0.36051914822E+02  0.00000000000E+00 0.  1.
         25    2    1    2    0    0  0.65034439028E+02 -0.11914927115E+03  0.41155357727E+03  0.45105471729E+03  0.12509190202E+03 0.  0.
         23    2    1    2    0    0 -0.65034439028E+02  0.11914927115E+03  0.38892756546E+03  0.42153025509E+03  0.89426381470E+02 0.  0.
          5    1    3    3  502    0 -0.22141774155E+02 -0.14691879025E+02  0.12958348879E+02  0.29858008602E+02  0.41800000000E+01 0. -1.
         -5    1    3    3    0  502  0.87176213183E+02 -0.10445739212E+03  0.39859522840E+03  0.42119670869E+03  0.41800000000E+01 0. -1.
        -11    1    4    4    0    0 -0.33116097889E+02  0.27300176375E+02  0.23905769200E+03  0.24287971441E+03  0.00000000000E+00 0. -1.
         11    1    4    4    0    0 -0.31918341139E+02  0.91849094770E+02  0.14986987347E+03  0.17865054068E+03  0.00000000000E+00 0.  1.
</event>
<event>
 8    1  0.6832629E-009  0.1030705E+03  0.7561462E-02  0.1273968E+00
          2   -1    0    0  501    0  0.00000000000E+00  0.00000000000E+00  0.56346343527E+02  0.56346343527E+02  0.00000000000E+00 0. -1.
         -2   -1    0    0    0  501 -0.00000000000E+00 -0.00000000000E+00 -0.29671488823E+03  0.29671488823E+03  0.00000000000E+00 0.  1.
         25    2    1    2    0    0 -0.58159909455E+02  0.19301446938E+02 -0.83774658895E+02  0.16254409930E+03  0.12508904757E+03 0.  0.
         23    2    1    2    0    0  0.58159909455E+02 -0.19301446938E+02 -0.15659388581E+03  0.19051713247E+03  0.89554518409E+02 0.  0.
          5    1    3    3  502    0 -0.94146103520E+02 -0.69549518011E+01 -0.54710239323E+02  0.10919039724E+03  0.41800000000E+01 0.  1.
         -5    1    3    3    0  502  0.35986194065E+02  0.26256398740E+02 -0.29064419572E+02  0.53353702056E+02  0.41800000000E+01 0.  1.
        -11    1    4    4    0    0  0.21067078789E+02  0.61169971086E+01  0.52383234649E+01  0.22553924161E+02  0.00000000000E+00 0. -1.
         11    1    4    4    0    0  0.37092830666E+02 -0.25418444047E+02 -0.16183220928E+03  0.16796320830E+03  0.00000000000E+00 0.  1.
</event>
<event>
 8    1  0.6832629E-009  0.1124152E+03  0.7561462E-02  0.1256162E+00
          2   -1    0    0  501    0  0.00000000000E+00  0.00000000000E+00  0.12901562013E+04  0.12901562013E+04  0.00000000000E+00 0. -1.
         -2   -1    0    0    0  501 -0.00000000000E+00 -0.00000000000E+00 -0.15629527875E+02  0.15629527875E+02  0.00000000000E+00 0.  1.
         25    2    1    2    0    0  0.13115128031E+02  0.81948176673E+02  0.88066516817E+03  0.89336792376E+03  0.12509036150E+03 0.  0.
         23    2    1    2    0    0 -0.13115128031E+02 -0.81948176673E+02  0.39386150526E+03  0.41241780541E+03  0.89855721324E+02 0.  0.
          5    1    3    3  502    0  0.18577834498E+01 -0.15351168406E+02  0.50078583244E+03  0.50104194645E+03  0.41800000000E+01 0. -1.
         -5    1    3    3    0  502  0.11257344581E+02  0.97299345079E+02  0.37987933573E+03  0.39232597731E+03  0.41800000000E+01 0. -1.
        -11    1    4    4    0    0 -0.66841727074E+01  0.13524218152E+02  0.13631970077E+02  0.20332566232E+02  0.00000000000E+00 0.  1.
         11    1    4    4    0    0 -0.64309553237E+01 -0.95472394825E+02  0.38022953518E+03  0.39208523918E+03  0.00000000000E+00 0. -1.
</event>
<event>
 8    1  0.6832629E-009  0.7188697E+02  0.7561462E-02  0.1353791E+00
         -1   -1    0    0    0  501 -0.00000000000E+00  0.00000000000E+00  0.11407120299E+03  0.11407120299E+03  0.00000000000E+00 0.  1.
          1   -1    0    0  501    0  0.00000000000E+00 -0.00000000000E+00 -0.12226792507E+03  0.12226792507E+03  0.00000000000E+00 0. -1.
         25    2    1    2    0    0  0.35820779727E+02  0.34440945599E+02 -0.11232023648E+01  0.13460377143E+03  0.12509039414E+03 0.  0.
         23    2    1    2    0    0 -0.35820779727E+02 -0.34440945599E+02 -0.70735197173E+01  0.10173535662E+03  0.88491474798E+02 0.  0.
          5    1    3    3  502    0  0.32026535637E+02 -0.20830443712E+00 -0.58797745397E+02  0.67084943462E+02  0.41800000000E+01 0. -1.
         -5    1    3    3    0  502  0.37942440899E+01  0.34649250036E+02  0.57674543032E+02  0.67518827968E+02  0.41800000000E+01 0. -1.
        -11    1    4    4    0    0 -0.27210483378E+02  0.11563586150E+02  0.29930463225E+02  0.42070887311E+02  0.00000000000E+00 0.  1.
         11    1    4    4    0    0 -0.86102963488E+01 -0.46004531748E+02 -0.37003982942E+02  0.59664469311E+02  0.00000000000E+00 0. -1.
</event>
<event>
 8    1  0.6832629E-009  0.1342561E+03  0.7561462E-02  0.1221274E+00
          2   -1    0    0  501    0  0.00000000000E+00  0.00000000000E+00  0.31641827406E+03  0.31641827406E+03  0.00000000000E+00 0.  1.
         -2   -1    0    0    0  501 -0.00000000000E+00 -0.00000000000E+00 -0.75709132116E+02  0.75709132116E+02  0.00000000000E+00 0. -1.
         25    2    1    2    0    0 -0.18073449508E+02 -0.88616610538E+02  0.49493775328E+02  0.16210151335E+03  0.12509082138E+03 0.  0.
         23    2    1    2    0    0  0.18073449508E+02  0.88616610538E+02  0.19121536662E+03  0.23002589283E+03  0.90382751119E+02 0.  0.
          5    1    3    3  502    0 -0.10370949182E+02  0.31682419468E+02  0.79048690523E+01  0.34515093003E+02  0.41800000000E+01 0.  1.
         -5    1    3    3    0  502 -0.77025003260E+01 -0.12029903001E+03  0.41588906276E+02  0.12758642035E+03  0.41800000000E+01 0.  1.
        -11    1    4    4    0    0 -0.31717641773E+01  0.92622689031E+02  0.18596369698E+03  0.20777757147E+03  0.00000000000E+00 0.  1.
         11    1    4    4    0    0  0.21245213685E+02 -0.40060784933E+01  0.52516696435E+01  0.22248321363E+02  0.00000000000E+00 0. -1.
</event>
<event>
 8    1  0.6832629E-009  0.1215585E+03  0.7561462E-02  0.1240548E+00
         -2   -1    0    0    0  501 -0.00000000000E+00  0.00000000000E+00  0.25737210166E+03  0.25737210166E+03  0.00000000000E+00 0.  1.
          2   -1    0    0  501    0  0.00000000000E+00 -0.00000000000E+00 -0.82476800137E+02  0.82476800137E+02  0.00000000000E+00 0. -1.
         25    2    1    2    0    0 -0.57707710982E+02  0.15090943763E+02  0.55220950443E+01  0.13869227336E+03  0.12508851532E+03 0.  0.
         23    2    1    2    0    0  0.57707710982E+02 -0.15090943763E+02  0.16937320648E+03  0.20115662844E+03  0.90657540239E+02 0.  0.
          5    1    3    3  502    0  0.21539169522E+02  0.44785288704E+02  0.18056808132E+02  0.53039406368E+02  0.41800000000E+01 0. -1.
         -5    1    3    3    0  502 -0.79246880504E+02 -0.29694344941E+02 -0.12534713088E+02  0.85652866988E+02  0.41800000000E+01 0. -1.
        -11    1    4    4    0    0  0.47790946225E+02  0.33859653960E+02  0.90409342731E+02  0.10772325636E+03  0.00000000000E+00 0.  1.
         11    1    4    4    0    0  0.99167647564E+01 -0.48950597723E+02  0.78963863745E+02  0.93433372080E+02  0.00000000000E+00 0. -1.
</event>
<event>
 8    1  0.6832629E-009  0.1763002E+03  0.7561462E-02  0.1171433E+00
         -2   -1    0    0    0  501 -0.00000000000E+00  0.00000000000E+00  0.64347930681E+03  0.64347930681E+03  0.00000000000E+00 0.  1.
          2   -1    0    0  501    0  0.00000000000E+00 -0.00000000000E+00 -0.70252850750E+02  0.70252850750E+02  0.00000000000E+00 0. -1.
         25    2    1    2    0    0 -0.29062392109E+02  0.16832145938E+03  0.40681791473E+03  0.45861203410E+03  0.12508975082E+03 0.  0.
         23    2    1    2    0    0  0.29062392109E+02 -0.16832145938E+03  0.16640854133E+03  0.25512012345E+03  0.90651742616E+02 0.  0.
          5    1    3    3  502    0 -0.24147155756E+02  0.71230872952E+02  0.31822196225E+03  0.32701622598E+03  0.41800000000E+01 0.  1.
         -5    1    3    3    0  502 -0.49152363524E+01  0.97090586429E+02  0.88595952473E+02  0.13159580813E+03  0.41800000000E+01 0.  1.
        -11    1    4    4    0    0 -0.17137945341E+02 -0.37598783857E+02  0.84562712528E+02  0.94118170765E+02  0.00000000000E+00 0.  1.
         11    1    4    4    0    0  0.46200337450E+02 -0.13072267552E+03  0.81845828799E+02  0.16100195269E+03  0.00000000000E+00 0. -1.
</event>
<event>
 8    1  0.6832629E-009  0.1371533E+03  0.7561462E-02  0.1217212E+00
         -1   -1    0    0    0  501 -0.00000000000E+00  0.00000000000E+00  0.31001590619E+03  0.31001590619E+03  0.00000000000E+00 0.  1.
          1   -1    0    0  501    0  0.00000000000E+00 -0.00000000000E+00 -0.80923791275E+02  0.80923791275E+02  0.00000000000E+00 0. -1.
         25    2    1    2    0    0  0.50208093313E+02  0.76312787100E+02  0.36857677482E+02  0.15921803696E+03  0.12508957108E+03 0.  0.
         23    2    1    2    0    0 -0.50208093313E+02 -0.76312787100E+02  0.19223443743E+03  0.23172166050E+03  0.91631626116E+02 0.  0.
          5    1    3    3  502    0 -0.22435090146E+02  0.74520667970E+02  0.37365186834E+02  0.86430855669E+02  0.41800000000E+01 0.  1.
         -5    1    3    3    0  502  0.72643183459E+02  0.17921191298E+01 -0.50750935140E+00  0.72787181288E+02  0.41800000000E+01 0.  1.
        -11    1    4    4    0    0 -0.33058860706E+02 -0.93580327191E+02  0.17724250755E+03  0.20313806239E+03  0.00000000000E+00 0.  1.
         11    1    4    4    0    0 -0.17149232607E+02  0.17267540092E+02  0.14991929881E+02  0.28583598118E+02  0.00000000000E+00 0. -1.
</event>
<event>
 8    1  0.6832629E-009  0.1389229E+03  0.7561462E-02  0.1214786E+00
         -1   -1    0    0    0  501 -0.00000000000E+00  0.00000000000E+00  0.30543769170E+03  0.30543769170E+03  0.00000000000E+00 0.  1.
          1   -1    0    0  501    0  0.00000000000E+00 -0.00000000000E+00 -0.76190948274E+02  0.76190948274E+02  0.00000000000E+00 0. -1.
         25    2    1    2    0    0  0.93140403112E+02 -0.45118616599E+02  0.15985951578E+03  0.22784629382E+03  0.12509214431E+03 0.  0.
         23    2    1    2    0    0 -0.93140403112E+02  0.45118616599E+02  0.69387227647E+02  0.15378234615E+03  0.90131006714E+02 0.  0.
          5    1    3    3  502    0  0.88161559369E+02 -0.82450110242E+02  0.14055048530E+03  0.18531700555E+03  0.41800000000E+01 0.  1.
         -5    1    3    3    0  502  0.49788437439E+01  0.37331493643E+02  0.19309030478E+02  0.42529288269E+02  0.41800000000E+01 0.  1.
        -11    1    4    4    0    0 -0.82925526536E+02  0.11114937310E+02  0.80974274368E+02  0.11643460779E+03  0.00000000000E+00 0.  1.
         11    1    4    4    0    0 -0.10214876577E+02  0.34003679289E+02 -0.11587046721E+02  0.37347738357E+02  0.00000000000E+00 0. -1.
</event>
<event>
 8    1  0.6832629E-009  0.1262891E+03  0.7561462E-02  0.1233068E+00
         -2   -1    0    0    0  501 -0.00000000000E+00  0.00000000000E+00  0.10344097449E+03  0.10344097449E+03  0.00000000000E+00 0. -1.
          2   -1    0    0  501    0  0.00000000000E+00 -0.00000000000E+00 -0.23150402499E+03  0.23150402499E+03  0.00000000000E+00 0.  1.
         25    2    1    2    0    0 -0.93619576717E+02  0.28253570676E+02 -0.11640951287E+03  0.19687449780E+03  0.12508198830E+03 0.  0.
         23    2    1    2    0    0  0.93619576717E+02 -0.28253570676E+02 -0.11653537634E+02  0.13807050168E+03  0.96771737063E+02 0.  0.
          5    1    3    3  502    0 -0.34746103893E+02  0.72838964791E+02 -0.38734094426E+02  0.89613665244E+02  0.41800000000E+01 0. -1.
         -5    1    3    3    0  502 -0.58873472825E+02 -0.44585394115E+02 -0.77675418441E+02  0.10726083256E+03  0.41800000000E+01 0.  1.
        -11    1    4    4    0    0  0.25824768139E+02 -0.84156251258E+01  0.41548552090E+02  0.49638932063E+02  0.00000000000E+00 0. -1.
         11    1    4    4    0    0  0.67794808579E+02 -0.19837945550E+02 -0.53202089724E+02  0.88431569617E+02  0.00000000000E+00 0.  1.
</event>
<event>
 8    1  0.6832629E-009  0.1239282E+03  0.7561462E-02  0.1236754E+00
         -2   -1    0    0    0  501 -0.00000000000E+00  0.00000000000E+00  0.31641399885E+02  0.31641399885E+02  0.00000000000E+00 0.  1.
          2   -1    0    0  501    0  0.00000000000E+00 -0.00000000000E+00 -0.69567943101E+03  0.69567943101E+03  0.00000000000E+00 0. -1.
         25    2    1    2    0    0  0.54173669250E+02 -0.55809232723E+02 -0.21846710813E+03  0.26349122628E+03  0.12510112748E+03 0.  0.
         23    2    1    2    0    0 -0.54173669250E+02  0.55809232723E+02 -0.44557092300E+03  0.46382960462E+03  0.10273751894E+03 0.  0.
          5    1    3    3  502    0  0.87970228764E+02 -0.35078397176E+02 -0.96923985437E+02  0.13557649667E+03  0.41800000000E+01 0.  1.
         -5    1    3    3    0  502 -0.33796559514E+02 -0.20730835548E+02 -0.12154312269E+03  0.12791472961E+03  0.41800000000E+01 0.  1.
        -11    1    4    4    0    0 -0.53612532667E+02 -0.36421753458E+01 -0.32482712754E+03  0.32924190482E+03  0.00000000000E+00 0. -1.
         11    1    4    4    0    0 -0.56113658234E+00  0.59451408069E+02 -0.12074379546E+03  0.13458769980E+03  0.00000000000E+00 0.  1.
</event>
<event>
 8    1  0.6832629E-009  0.1147269E+03  0.7561462E-02  0.1252059E+00
         -3   -1    0    0    0  501 -0.00000000000E+00  0.00000000000E+00  0.22912645411E+02  0.22912645411E+02  0.00000000000E+00 0.  1.
          3   -1    0    0  501    0  0.00000000000E+00 -0.00000000000E+00 -0.67538438032E+03  0.67538438032E+03  0.00000000000E+00 0. -1.
         25    2    1    2    0    0 -0.44428756257E+02  0.15350299984E+02 -0.25228723129E+03  0.28549183991E+03  0.12508875846E+03 0.  0.
         23    2    1    2    0    0  0.44428756257E+02 -0.15350299984E+02 -0.40018450362E+03  0.41280518582E+03  0.89727021631E+02 0.  0.
          5    1    3    3  502    0  0.36266566376E+02  0.31237534738E+02 -0.64387842555E+02  0.80338745833E+02  0.41800000000E+01 0. -1.
         -5    1    3    3    0  502 -0.80695322632E+02 -0.15887234754E+02 -0.18789938874E+03  0.20515309408E+03  0.41800000000E+01 0. -1.
        -11    1    4    4    0    0  0.70466911215E+02 -0.18428511899E+02 -0.32844880296E+03  0.33642801874E+03  0.00000000000E+00 0. -1.
         11    1    4    4    0    0 -0.26038154958E+02  0.30782119148E+01 -0.71735700662E+02  0.76377167083E+02  0.00000000000E+00 0.  1.
</event>
<event>
 8    1  0.6832629E-009  0.1116704E+03  0.7561462E-02  0.1257508E+00
          1   -1    0    0  501    0  0.00000000000E+00  0.00000000000E+00  0.23177770770E+03  0.23177770770E+03  0.00000000000E+00 0. -1.
         -1   -1    0    0    0  501 -0.00000000000E+00 -0.00000000000E+00 -0.75626995305E+02  0.75626995305E+02  0.00000000000E+00 0.  1.
         25    2    1    2    0    0  0.75442180830E+02 -0.92695738603E+01  0.95474141069E+02  0.17475748663E+03  0.12508964735E+03 0.  0.
         23    2    1    2    0    0 -0.75442180830E+02  0.92695738603E+01  0.60676571331E+02  0.13264721638E+03  0.90200831792E+02 0.  0.
          5    1    3    3  502    0  0.68418249420E+02 -0.36108254146E+02  0.11635197767E+03  0.13978597204E+03  0.41800000000E+01 0. -1.
         -5    1    3    3    0  502  0.70239314103E+01  0.26838680286E+02 -0.20877836600E+02  0.34971514595E+02  0.41800000000E+01 0. -1.
        -11    1    4    4    0    0 -0.80883405924E+02 -0.23787212162E+02  0.46364552997E+02  0.96216571290E+02  0.00000000000E+00 0.  1.
         11    1    4    4    0    0  0.54412250932E+01  0.33056786022E+02  0.14312018334E+02  0.36430645086E+02  0.00000000000E+00 0. -1.
</event>
<event>
 8    1  0.6832629E-009  0.1016977E+03  0.7561462E-02  0.1276766E+00
         -1   -1    0    0    0  501 -0.00000000000E+00  0.00000000000E+00  0.35645533067E+02  0.35645533067E+02  0.00000000000E+00 0.  1.
          1   -1    0    0  501    0  0.00000000000E+00 -0.00000000000E+00 -0.48142535366E+03  0.48142535366E+03  0.00000000000E+00 0. -1.
         25    2    1    2    0    0 -0.56767300592E+02 -0.36422375766E+02 -0.31000687480E+03  0.34103129205E+03  0.12509581871E+03 0.  0.
         23    2    1    2    0    0  0.56767300592E+02  0.36422375766E+02 -0.13577294579E+03  0.17603959468E+03  0.89479216658E+02 0.  0.
          5    1    3    3  502    0 -0.71061873890E+01  0.32849479136E+02 -0.19446432923E+03  0.19739157511E+03  0.41800000000E+01 0. -1.
         -5    1    3    3    0  502 -0.49661113203E+02 -0.69271854903E+02 -0.11554254557E+03  0.14363971694E+03  0.41800000000E+01 0. -1.
        -11    1    4    4    0    0  0.64198569155E+02  0.21818351180E+02 -0.39685208170E+02  0.78564702489E+02  0.00000000000E+00 0.  1.
         11    1    4    4    0    0 -0.74312685629E+01  0.14604024587E+02 -0.96087737624E+02  0.97474892194E+02  0.00000000000E+00 0. -1.
</event>
<event>
 8    1  0.6832629E-009  0.1066252E+03  0.7561462E-02  0.1266950E+00
         -3   -1    0    0    0  501 -0.00000000000E+00  0.00000000000E+00  0.15267167051E+03  0.15267167051E+03  0.00000000000E+00 0.  1.
          3   -1    0    0  501    0  0.00000000000E+00 -0.00000000000E+00 -0.14221679751E+03  0.14221679751E+03  0.00000000000E+00 0. -1.
         25    2    1    2    0    0 -0.39121269357E+02 -0.57870105254E+02 -0.64707033167E+02  0.15720423832E+03  0.12508696817E+03 0.  0.
         23    2    1    2    0    0  0.39121269357E+02  0.57870105254E+02  0.75161906163E+02  0.13768422970E+03  0.91805294897E+02 0.  0.
          5    1    3    3  502    0  0.91628443719E+01 -0.82026114602E+02 -0.61395409592E+02  0.10295197867E+03  0.41800000000E+01 0.  1.
         -5    1    3    3    0  502 -0.48284113729E+02  0.24156009348E+02 -0.33116235754E+01  0.54252259648E+02  0.41800000000E+01 0.  1.
        -11    1    4    4    0    0  0.17399886597E+02  0.32826215250E+01  0.76895881523E+02  0.78908226776E+02  0.00000000000E+00 0.  1.
         11    1    4    4    0    0  0.21721382760E+02  0.54587483729E+02 -0.17339753604E+01  0.58776002922E+02  0.00000000000E+00 0. -1.
</event>
<event>
 8    1  0.6832629E-009  0.1609309E+03  0.7561462E-02  0.1187650E+00
         -1   -1    0    0    0  501 -0.00000000000E+00  0.00000000000E+00  0.33370644327E+02  0.33370644327E+02  0.00000000000E+00 0.  1.
          1   -1    0    0  501    0  0.00000000000E+00 -0.00000000000E+00 -0.92208827782E+03  0.92208827782E+03  0.00000000000E+00 0. -1.
         25    2    1    2    0    0 -0.12258648995E+03  0.39060953654E+02 -0.34460354808E+03  0.38852582134E+03  0.12508997913E+03 0.  0.
         23    2    1    2    0    0  0.12258648995E+03 -0.39060953654E+02 -0.54411408541E+03  0.56693310080E+03  0.93807234410E+02 0.  0.
          5    1    3    3  502    0 -0.33614735073E+01  0.56883640700E+02 -0.13677480478E+03  0.14822910546E+03  0.41800000000E+01 0.  1.
         -5    1    3    3    0  502 -0.11922501644E+03 -0.17822687046E+02 -0.20782874330E+03  0.24029671588E+03  0.41800000000E+01 0.  1.
        -11    1    4    4    0    0  0.10313936422E+03 -0.56831073294E+02 -0.51214160127E+03  0.52550596485E+03  0.00000000000E+00 0. -1.
         11    1    4    4    0    0  0.19447125730E+02  0.17770119641E+02 -0.31972484144E+02  0.41427135956E+02  0.00000000000E+00 0.  1.
</event>
<event>
 8    1  0.6832629E-009  0.1129049E+03  0.7561462E-02  0.1255283E+00
          1   -1    0    0  501    0  0.00000000000E+00  0.00000000000E+00  0.27148570601E+03  0.27148570601E+03  0.00000000000E+00 0. -1.
         -1   -1    0    0    0  501 -0.00000000000E+00 -0.00000000000E+00 -0.61048000958E+02  0.61048000958E+02  0.00000000000E+00 0.  1.
         25    2    1    2    0    0  0.34998227066E+02  0.17412625128E+02  0.18946886297E+03  0.23037946324E+03  0.12509265221E+03 0.  0.
         23    2    1    2    0    0 -0.34998227066E+02 -0.17412625128E+02  0.20968842087E+02  0.10215424373E+03  0.92020224743E+02 0.  0.
          5    1    3    3  502    0 -0.40566675519E+01 -0.50389665093E+02  0.94538019450E+02  0.10728692568E+03  0.41800000000E+01 0.  1.
         -5    1    3    3    0  502  0.39054894618E+02  0.67802290222E+02  0.94930843515E+02  0.12309253756E+03  0.41800000000E+01 0.  1.
        -11    1    4    4    0    0 -0.44394518628E+02  0.26579190070E+02  0.24061713093E+02  0.57063934897E+02  0.00000000000E+00 0.  1.
         11    1    4    4    0    0  0.93962915614E+01 -0.43991815198E+02 -0.30928710057E+01  0.45090308832E+02  0.00000000000E+00 0. -1.
</event>
<event>
 8    1  0.6832629E-009  0.1980234E+03  0.7561462E-02  0.1151417E+00
          1   -1    0    0  501    0  0.00000000000E+00  0.00000000000E+00  0.60515989889E+03  0.60515989889E+03  0.00000000000E+00 0. -1.
         -1   -1    0    0    0  501 -0.00000000000E+00 -0.00000000000E+00 -0.83166970367E+02  0.83166970367E+02  0.00000000000E+00 0.  1.
         25    2    1    2    0    0 -0.40078112871E+02 -0.18163470394E+03  0.36407282449E+03  0.42754284236E+03  0.12508572948E+03 0.  0.
         23    2    1    2    0    0  0.40078112871E+02  0.18163470394E+03  0.15792010403E+03  0.26078402689E+03  0.92044166677E+02 0.  0.
          5    1    3    3  502    0  0.21203889567E+01  0.11369839757E+02 -0.10842558148E+01  0.12345740808E+02  0.41800000000E+01 0.  1.
         -5    1    3    3    0  502 -0.42198501827E+02 -0.19300454369E+03  0.36515708031E+03  0.41519710156E+03  0.41800000000E+01 0.  1.
        -11    1    4    4    0    0  0.33108928125E+02  0.13571622488E+03  0.16229129758E+03  0.21413444396E+03  0.00000000000E+00 0. -1.
         11    1    4    4    0    0  0.69691847453E+01  0.45918479055E+02 -0.43711935540E+01  0.46649582934E+02  0.00000000000E+00 0.  1.
</event>
<event>
 8    1  0.6832629E-009  0.1045592E+03  0.7561462E-02  0.1270991E+00
         -2   -1    0    0    0  501 -0.00000000000E+00  0.00000000000E+00  0.20243452888E+02  0.20243452888E+02  0.00000000000E+00 0.  1.
          2   -1    0    0  501    0  0.00000000000E+00 -0.00000000000E+00 -0.82436686910E+03  0.82436686910E+03  0.00000000000E+00 0. -1.
         25    2    1    2    0    0  0.29822435634E+02 -0.17129540451E+02 -0.64783944865E+03  0.66070297807E+03  0.12509866179E+03 0.  0.
         23    2    1    2    0    0 -0.29822435634E+02  0.17129540451E+02 -0.15628396756E+03  0.18390734392E+03  0.90633513705E+02 0.  0.
          5    1    3    3  502    0 -0.40666200562E+02 -0.35170550889E+02 -0.34675136528E+03  0.35091977607E+03  0.41800000000E+01 0.  1.
         -5    1    3    3    0  502  0.70488636197E+02  0.18041010438E+02 -0.30108808337E+03  0.30978320200E+03  0.41800000000E+01 0.  1.
        -11    1    4    4    0    0  0.25043774081E+02  0.10066065719E+02 -0.12298782388E+02  0.29661024047E+02  0.00000000000E+00 0.  1.
         11    1    4    4    0    0 -0.54866209716E+02  0.70634747314E+01 -0.14398518517E+03  0.15424631987E+03  0.00000000000E+00 0. -1.
</event>
<event>
 8    1  0.6832629E-009  0.1804409E+03  0.7561462E-02  0.1167377E+00
         -2   -1    0    0    0  501 -0.00000000000E+00  0.00000000000E+00  0.28771092893E+02  0.28771092893E+02  0.00000000000E+00 0.  1.
          2   -1    0    0  501    0  0.00000000000E+00 -0.00000000000E+00 -0.13720361979E+04  0.13720361979E+04  0.00000000000E+00 0. -1.
         25    2    1    2    0    0  0.53537338970E+02 -0.15724968490E+03 -0.66689063725E+03  0.69855965485E+03  0.12509500096E+03 0.  0.
         23    2    1    2    0    0 -0.53537338970E+02  0.15724968490E+03 -0.67637446775E+03  0.70224763594E+03  0.89864406131E+02 0.  0.
          5    1    3    3  502    0  0.27321777419E+02 -0.13384266274E+03 -0.63913082834E+03  0.65357939535E+03  0.41800000000E+01 0. -1.
         -5    1    3    3    0  502  0.26215561551E+02 -0.23407022166E+02 -0.27759808912E+02  0.44980259503E+02  0.41800000000E+01 0. -1.
        -11    1    4    4    0    0 -0.34946666103E+02  0.16501535591E+03 -0.59959586407E+03  0.62286959901E+03  0.00000000000E+00 0. -1.
         11    1    4    4    0    0 -0.18590672867E+02 -0.77656710065E+01 -0.76778603674E+02  0.79378036924E+02  0.00000000000E+00 0.  1.
</event>
<event>
 8    1  0.6832629E-009  0.9649625E+02  0.7561462E-02  0.1287841E+00
          2   -1    0    0  501    0  0.00000000000E+00  0.00000000000E+00  0.17970150464E+03  0.17970150464E+03  0.00000000000E+00 0. -1.
         -2   -1    0    0    0  501 -0.00000000000E+00 -0.00000000000E+00 -0.71111073990E+02  0.71111073990E+02  0.00000000000E+00 0.  1.
         25    2    1    2    0    0  0.60923952176E+01 -0.32523912132E+02  0.47776389033E+02  0.13793052406E+03  0.12508926404E+03 0.  0.
         23    2    1    2    0    0 -0.60923952176E+01  0.32523912132E+02  0.60814041616E+02  0.11288205457E+03  0.89157660614E+02 0.  0.
          5    1    3    3  502    0 -0.49735477616E+02 -0.28539558216E+02 -0.88853273195E+01  0.58176847271E+02  0.41800000000E+01 0. -1.
         -5    1    3    3    0  502  0.55827872834E+02 -0.39843539164E+01  0.56661716353E+02  0.79753676789E+02  0.41800000000E+01 0. -1.
        -11    1    4    4    0    0  0.72163007026E+01  0.53797250774E+02  0.67784378387E+02  0.86838592457E+02  0.00000000000E+00 0. -1.
         11    1    4    4    0    0 -0.13308695920E+02 -0.21273338642E+02 -0.69703367708E+01  0.26043462112E+02  0.00000000000E+00 0.  1.
</event>
<event>
 8    1  0.6832629E-009  0.9806842E+02  0.7561462E-02  0.1284411E+00
          1   -1    0    0  501    0  0.00000000000E+00  0.00000000000E+00  0.45007295572E+03  0.45007295572E+03  0.00000000000E+00 0. -1.
         -1   -1    0    0    0  501 -0.00000000000E+00 -0.00000000000E+00 -0.56607614602E+02  0.56607614602E+02  0.00000000000E+00 0.  1.
         25    2    1    2    0    0 -0.54037653981E+02 -0.47583551079E+02  0.67220090702E+02  0.15921944734E+03  0.12509208383E+03 0.  0.
         23    2    1    2    0    0  0.54037653981E+02  0.47583551079E+02  0.32624525042E+03  0.34746112298E+03  0.95441113703E+02 0.  0.
          5    1    3    3  502    0 -0.20541377460E+02 -0.35062551831E+02  0.10155833311E+03  0.10946642477E+03  0.41800000000E+01 0. -1.
         -5    1    3    3    0  502 -0.33496276520E+02 -0.12520999248E+02 -0.34338242406E+02  0.49753022566E+02  0.41800000000E+01 0. -1.
        -11    1    4    4    0    0  0.51430725756E+02  0.75440449245E+02  0.23939264828E+03  0.25621323343E+03  0.00000000000E+00 0. -1.
         11    1    4    4    0    0  0.26069282243E+01 -0.27856898166E+02  0.86852602136E+02  0.91247889554E+02  0.00000000000E+00 0.  1.
</event>
<event>
 8    1  0.6832629E-009  0.1165480E+03  0.7561462E-02  0.1248903E+00
          1   -1    0    0  501    0  0.00000000000E+00  0.00000000000E+00  0.46821691595E+03  0.46821691595E+03  0.00000000000E+00 0. -1.
         -1   -1    0    0    0  501 -0.00000000000E+00 -0.00000000000E+00 -0.54749721460E+02  0.54749721460E+02  0.00000000000E+00 0.  1.
         25    2    1    2    0    0 -0.92928922402E+02 -0.18667307419E+02  0.10728726704E+03  0.19011080152E+03  0.12508919298E+03 0.  0.
         23    2    1    2    0    0  0.92928922402E+02  0.18667307419E+02  0.30617992745E+03  0.33285583589E+03  0.89792018186E+02 0.  0.
          5    1    3    3  502    0 -0.41305602787E+02  0.33567094988E+02  0.10349528687E+03  0.11645449537E+03  0.41800000000E+01 0.  1.
         -5    1    3    3    0  502 -0.51623319614E+02 -0.52234402407E+02  0.37919801795E+01  0.73656306156E+02  0.41800000000E+01 0.  1.
        -11    1    4    4    0    0  0.24789470279E+02  0.27973046933E+02  0.29100573046E+02  0.47369320694E+02  0.00000000000E+00 0.  1.
         11    1    4    4    0    0  0.68139452123E+02 -0.93057395148E+01  0.27707935440E+03  0.28548651520E+03  0.00000000000E+00 0. -1.
</event>
<event>
 8    1  0.6832629E-009  0.1076883E+03  0.7561462E-02  0.1264912E+00
         -1   -1    0    0    0  501 -0.00000000000E+00  0.00000000000E+00  0.13249758728E+03  0.13249758728E+03  0.00000000000E+00 0.  1.
          1   -1    0    0  501    0  0.00000000000E+00 -0.00000000000E+00 -0.96727146437E+02  0.96727146437E+02  0.00000000000E+00 0. -1.
         25    2    1    2    0    0  0.17779042783E+02  0.26064775475E+02  0.11561098934E+02  0.12952612237E+03  0.12509152843E+03 0.  0.
         23    2    1    2    0    0 -0.17779042783E+02 -0.26064775475E+02  0.24209341913E+02  0.99698611350E+02  0.91423487061E+02 0.  0.
          5    1    3    3  502    0  0.40446699383E+02 -0.38421928569E+02  0.22267224938E+02  0.60211973829E+02  0.41800000000E+01 0.  1.
         -5    1    3    3    0  502 -0.22667656600E+02  0.64486704043E+02 -0.10706126004E+02  0.69314148542E+02  0.41800000000E+01 0.  1.
        -11    1    4    4    0    0  0.33283751057E+02 -0.21632974327E+02 -0.60857159792E+01  0.40160049821E+02  0.00000000000E+00 0.  1.
         11    1    4    4    0    0 -0.51062793840E+02 -0.44318011477E+01  0.30295057893E+02  0.59538561529E+02  0.00000000000E+00 0. -1.
</event>
<event>
 8    1  0.6832629E-009  0.9118810E+02  0.7561462E-02  0.1300000E+00
         -2   -1    0    0    0  501 -0.00000000000E+00  0.00000000000E+00  0.52590000756E+02  0.52590000756E+02  0.00000000000E+00 0. -1.
          2   -1    0    0  501    0  0.00000000000E+00 -0.00000000000E+00 -0.29864609293E+03  0.29864609293E+03  0.00000000000E+00 0.  1.
         25    2    1    2    0    0 -0.31936792548E+02  0.13620808900E+02 -0.21256018570E+03  0.24906333654E+03  0.12508088546E+03 0.  0.
         23    2    1    2    0    0  0.31936792548E+02 -0.13620808900E+02 -0.33495906476E+02  0.10217275715E+03  0.90065594986E+02 0.  0.
          5    1    3    3  502    0 -0.32965054977E+01 -0.51761331850E+02 -0.53297491223E+02  0.74486222847E+02  0.41800000000E+01 0.  1.
         -5    1    3    3    0  502 -0.28640287051E+02  0.65382140750E+02 -0.15926269448E+03  0.17457711369E+03  0.41800000000E+01 0.  1.
        -11    1    4    4    0    0 -0.84790482904E+01  0.91302944827E+01 -0.51075503222E+02  0.52573411214E+02  0.00000000000E+00 0.  1.
         11    1    4    4    0    0  0.40415840839E+02 -0.22751103383E+02  0.17579596746E+02  0.49599345939E+02  0.00000000000E+00 0. -1.
</event>
<event>
 8    1  0.6832629E-009  0.1170787E+03  0.7561462E-02  0.1247996E+00
         -2   -1    0    0    0  501 -0.00000000000E+00  0.00000000000E+00  0.97721126410E+03  0.97721126410E+03  0.00000000000E+00 0.  1.
          2   -1    0    0  501    0  0.00000000000E+00 -0.00000000000E+00 -0.14242683183E+02  0.14242683183E+02  0.00000000000E+00 0. -1.
         25    2    1    2    0    0  0.99976504239E+01  0.44882513653E+02  0.55619447606E+03  0.57193973589E+03  0.12509345802E+03 0.  0.
         23    2    1    2    0    0 -0.99976504239E+01 -0.44882513653E+02  0.40677410485E+03  0.41951421139E+03  0.91720271128E+02 0.  0.
          5    1    3    3  502    0  0.55356062324E+02 -0.13865187955E+02  0.19742203315E+03  0.20554675537E+03  0.41800000000E+01 0. -1.
         -5    1    3    3    0  502 -0.45358411900E+02  0.58747701608E+02  0.35877244292E+03  0.36639298051E+03  0.41800000000E+01 0. -1.
        -11    1    4    4    0    0  0.38768119807E+02 -0.40168582260E+01  0.15533721260E+03  0.16015227716E+03  0.00000000000E+00 0.  1.
         11    1    4    4    0    0 -0.48765770231E+02 -0.40865655427E+02  0.25143689226E+03  0.25936193423E+03  0.00000000000E+00 0. -1.
</event>
<event>
 8    1  0.6832629E-009  0.1426790E+03  0.7561462E-02  0.1209769E+00
         -1   -1    0    0    0  501 -0.00000000000E+00  0.00000000000E+00  0.10860694355E+04  0.10860694355E+04  0.00000000000E+00 0.  1.
          1   -1    0    0  501    0  0.00000000000E+00 -0.00000000000E+00 -0.22958211308E+02  0.22958211308E+02  0.00000000000E+00 0. -1.
         25    2    1    2    0    0  0.94219456774E+02 -0.38952391108E+02  0.75274203133E+03  0.76984681322E+03  0.12509578445E+03 0.  0.
         23    2    1    2    0    0 -0.94219456774E+02  0.38952391108E+02  0.31036919285E+03  0.33918083358E+03  0.91214073402E+02 0.  0.
          5    1    3    3  502    0 -0.60559249695E+01 -0.52258862295E+02  0.37814742709E+03  0.38181227315E+03  0.41800000000E+01 0.  1.
         -5    1    3    3    0  502  0.10027538174E+03  0.13306471187E+02  0.37459460424E+03  0.38803454007E+03  0.41800000000E+01 0.  1.
        -11    1    4    4    0    0  0.97614571911E+01 -0.12065972364E+02  0.78194793566E+02  0.79720132190E+02  0.00000000000E+00 0.  1.
         11    1    4    4    0    0 -0.10398091397E+03  0.51018363473E+02  0.23217439929E+03  0.25946070139E+03  0.00000000000E+00 0. -1.
</event>
<event>
 8    1  0.6832629E-009  0.1382155E+03  0.7561462E-02  0.1215750E+00
         -4   -1    0    0    0  501 -0.00000000000E+00  0.00000000000E+00  0.17565833335E+03  0.17565833335E+03  0.00000000000E+00 0.  1.
          4   -1    0    0  501    0  0.00000000000E+00 -0.00000000000E+00 -0.16894606589E+03  0.16894606589E+03  0.00000000000E+00 0. -1.
         25    2    1    2    0    0 -0.84987072299E+02  0.82385385954E+02 -0.57893948498E+02  0.18168197888E+03  0.12508588210E+03 0.  0.
         23    2    1    2    0    0  0.84987072299E+02 -0.82385385954E+02  0.64606215958E+02  0.16292242036E+03  0.91430835282E+02 0.  0.
          5    1    3    3  502    0 -0.91696756603E+02  0.72001428793E+02  0.56628211963E+01  0.11679914753E+03  0.41800000000E+01 0.  1.
         -5    1    3    3    0  502  0.67096843044E+01  0.10383957161E+02 -0.63556769694E+02  0.64882831348E+02  0.41800000000E+01 0.  1.
        -11    1    4    4    0    0  0.34411604111E+02  0.14566858495E+02  0.30916989796E+02  0.48499609503E+02  0.00000000000E+00 0. -1.
         11    1    4    4    0    0  0.50575468188E+02 -0.96952244449E+02  0.33689226162E+02  0.11442281086E+03  0.00000000000E+00 0.  1.
</event>
<event>
 8    1  0.6832629E-009  0.1928488E+03  0.7561462E-02  0.1155917E+00
          1   -1    0    0  501    0  0.00000000000E+00  0.00000000000E+00  0.11615124236E+04  0.11615124236E+04  0.00000000000E+00 0. -1.
         -1   -1    0    0    0  501 -0.00000000000E+00 -0.00000000000E+00 -0.41748420485E+02  0.41748420485E+02  0.00000000000E+00 0.  1.
         25    2    1    2    0    0  0.91847328565E+02  0.16609997873E+03  0.59758824491E+03  0.63936193169E+03  0.12508730765E+03 0.  0.
         23    2    1    2    0    0 -0.91847328565E+02 -0.16609997873E+03  0.52217575819E+03  0.56389891238E+03  0.96381150908E+02 0.  0.
          5    1    3    3  502    0  0.60353706278E+02  0.84522380958E+02  0.48876626163E+03  0.49969644151E+03  0.41800000000E+01 0. -1.
         -5    1    3    3    0  502  0.31493622287E+02  0.81577597769E+02  0.10882198328E+03  0.13966549018E+03  0.41800000000E+01 0. -1.
        -11    1    4    4    0    0 -0.70179199389E+02 -0.84810203775E+02  0.17554404307E+03  0.20720425128E+03  0.00000000000E+00 0.  1.
         11    1    4    4    0    0 -0.21668129176E+02 -0.81289774952E+02  0.34663171512E+03  0.35669466110E+03  0.00000000000E+00 0. -1.
</event>
<event>
 8    1  0.6832629E-009  0.1419760E+03  0.7561462E-02  0.1210695E+00
          4   -1    0    0  501    0  0.00000000000E+00  0.00000000000E+00  0.16428298662E+04  0.16428298662E+04  0.00000000000E+00 0. -1.
         -4   -1    0    0    0  501 -0.00000000000E+00 -0.00000000000E+00 -0.17213185740E+02  0.17213185740E+02  0.00000000000E+00 0.  1.
         25    2    1    2    0    0 -0.45202343212E+02  0.11792672346E+03  0.97327018092E+03  0.98936931439E+03  0.12508729455E+03 0.  0.
         23    2    1    2    0    0  0.45202343212E+02 -0.11792672346E+03  0.65234649951E+03  0.67067373752E+03  0.91089751523E+02 0.  0.
          5    1    3    3  502    0 -0.47313149322E+02  0.12364952715E+03  0.97299501819E+03  0.98196971312E+03  0.41800000000E+01 0.  1.
         -5    1    3    3    0  502  0.21108061104E+01 -0.57228036825E+01  0.27516272569E+00  0.73996012696E+01  0.41800000000E+01 0.  1.
        -11    1    4    4    0    0  0.21447183976E+02 -0.11841247563E+03  0.61307491201E+03  0.62477383413E+03  0.00000000000E+00 0. -1.
         11    1    4    4    0    0  0.23755159235E+02  0.48575217148E+00  0.39271587502E+02  0.45899903381E+02  0.00000000000E+00 0.  1.
</event>
<event>
 8    1  0.6832629E-009  0.1383188E+03  0.7561462E-02  0.1215609E+00
          2   -1    0    0  501    0  0.00000000000E+00  0.00000000000E+00  0.16397109250E+03  0.16397109250E+03  0.00000000000E+00 0. -1.
         -2   -1    0    0    0  501 -0.00000000000E+00 -0.00000000000E+00 -0.19309405411E+03  0.19309405411E+03  0.00000000000E+00 0.  1.
         25    2    1    2    0    0 -0.55111506452E+02  0.10614903372E+03  0.58238076019E+02  0.18260547011E+03  0.12509272046E+03 0.  0.
         23    2    1    2    0    0  0.55111506452E+02 -0.10614903372E+03 -0.87361037624E+02  0.17445967650E+03  0.92191823527E+02 0.  0.
          5    1    3    3  502    0 -0.39616668055E+02  0.35563403535E+02 -0.35534533810E+02  0.64143678970E+02  0.41800000000E+01 0. -1.
         -5    1    3    3    0  502 -0.15494838397E+02  0.70585630186E+02  0.93772609829E+02  0.11846179114E+03  0.41800000000E+01 0. -1.
        -11    1    4    4    0    0  0.64149017854E+02 -0.24448051071E+02 -0.43782509141E+02  0.81423042190E+02  0.00000000000E+00 0.  1.
         11    1    4    4    0    0 -0.90375114019E+01 -0.81700982650E+02 -0.43578528483E+02  0.93036634306E+02  0.00000000000E+00 0. -1.
</event>
<event>
 8    1  0.6832629E-009  0.1653061E+03  0.7561462E-02  0.1182833E+00
          2   -1    0    0  501    0  0.00000000000E+00  0.00000000000E+00  0.11653865880E+04  0.11653865880E+04  0.00000000000E+00 0.  1.
         -2   -1    0    0    0  501 -0.00000000000E+00 -0.00000000000E+00 -0.29091885285E+02  0.29091885285E+02  0.00000000000E+00 0. -1.
         25    2    1    2    0    0 -0.13807772474E+03  0.16986966015E+02  0.43054994855E+03  0.46944004216E+03  0.12508668955E+03 0.  0.
         23    2    1    2    0    0  0.13807772474E+03 -0.16986966015E+02  0.70574475413E+03  0.72503843109E+03  0.90835309733E+02 0.  0.
          5    1    3    3  502    0 -0.11265916378E+03 -0.24753509863E+02  0.38700480198E+03  0.40385023535E+03  0.41800000000E+01 0.  1.
         -5    1    3    3    0  502 -0.25418560958E+02  0.41740475878E+02  0.43545146566E+02  0.65589806808E+02  0.41800000000E+01 0.  1.
        -11    1    4    4    0    0  0.13611662519E+03 -0.40914526948E+02  0.60137859055E+03  0.61794655379E+03  0.00000000000E+00 0.  1.
         11    1    4    4    0    0  0.19610995484E+01  0.23927560933E+02  0.10436616358E+03  0.10709187731E+03  0.00000000000E+00 0. -1.
</event>
<event>
 8    1  0.6832629E-009  0.9829191E+02  0.7561462E-02  0.1283929E+00
         -2   -1    0    0    0  501 -0.00000000000E+00  0.00000000000E+00  0.38910885945E+02  0.38910885945E+02  0.00000000000E+00 0.  1.
          2   -1    0    0  501    0  0.00000000000E+00 -0.00000000000E+00 -0.34355585206E+03  0.34355585206E+03  0.00000000000E+00 0. -1.
         25    2    1    2    0    0  0.36137233690E+02  0.50235974511E+01 -0.17555448649E+03  0.21862612452E+03  0.12508744304E+03 0.  0.
         23    2    1    2    0    0 -0.36137233690E+02 -0.50235974511E+01 -0.12909047963E+03  0.16384061348E+03  0.94065182223E+02 0.  0.
          5    1    3    3  502    0 -0.14370467380E+01  0.59942455891E+02 -0.58264455565E+02  0.83710108732E+02  0.41800000000E+01 0.  1.
         -5    1    3    3    0  502  0.37574280428E+02 -0.54918858440E+02 -0.11729003092E+03  0.13491601579E+03  0.41800000000E+01 0.  1.
        -11    1    4    4    0    0  0.16741096524E+02 -0.15474456099E+01  0.66830307660E+01  0.18092036949E+02  0.00000000000E+00 0.  1.
         11    1    4    4    0    0 -0.52878330214E+02 -0.34761518412E+01 -0.13577351039E+03  0.14574857654E+03  0.00000000000E+00 0. -1.
</event>
<event>
 8    1  0.6832629E-009  0.1084759E+03  0.7561462E-02  0.1263419E+00
          1   -1    0    0  501    0  0.00000000000E+00  0.00000000000E+00  0.56682225878E+03  0.56682225878E+03  0.00000000000E+00 0. -1.
         -1   -1    0    0    0  501 -0.00000000000E+00 -0.00000000000E+00 -0.38547182536E+02  0.38547182536E+02  0.00000000000E+00 0.  1.
         25    2    1    2    0    0  0.55697851128E+02  0.68092913998E+02  0.38358459959E+03  0.41294511268E+03  0.12509046921E+03 0.  0.
         23    2    1    2    0    0 -0.55697851128E+02 -0.68092913998E+02  0.14469047666E+03  0.19242432864E+03  0.91394160972E+02 0.  0.
          5    1    3    3  502    0  0.81601739845E+02  0.53559934289E+02  0.36456370364E+03  0.37742771085E+03  0.41800000000E+01 0. -1.
         -5    1    3    3    0  502 -0.25903888717E+02  0.14532979709E+02  0.19020895949E+02  0.35517401828E+02  0.41800000000E+01 0. -1.
        -11    1    4    4    0    0 -0.10178207736E+02 -0.23158935038E+02 -0.82820576063E+01  0.26618126587E+02  0.00000000000E+00 0.  1.
         11    1    4    4    0    0 -0.45519643392E+02 -0.44933978960E+02  0.15297253427E+03  0.16580620205E+03  0.00000000000E+00 0. -1.
</event>
<event>
 8    1  0.6832629E-009  0.1780019E+03  0.7561462E-02  0.1169751E+00
         -2   -1    0    0    0  501 -0.00000000000E+00  0.00000000000E+00  0.13539051516E+02  0.13539051516E+02  0.00000000000E+00 0.  1.
          2   -1    0    0  501    0  0.00000000000E+00 -0.00000000000E+00 -0.29571875723E+04  0.29571875723E+04  0.00000000000E+00 0. -1.
         25    2    1    2    0    0  0.35717625945E+02  0.15413943791E+03 -0.19524822418E+04  0.19628728739E+04  0.12509316185E+03 0.  0.
         23    2    1    2    0    0 -0.35717625945E+02 -0.15413943791E+03 -0.99116627900E+03  0.10078537500E+04  0.91235265374E+02 0.  0.
          5    1    3    3  502    0  0.14496969621E+02 -0.24495477502E+01 -0.27924091808E+02  0.31833782617E+02  0.41800000000E+01 0. -1.
         -5    1    3    3    0  502  0.21220656324E+02  0.15658898566E+03 -0.19245581500E+04  0.19310390912E+04  0.41800000000E+01 0. -1.
        -11    1    4    4    0    0  0.27623623190E+02 -0.19392387864E+02 -0.18369110735E+03  0.18676603595E+03  0.00000000000E+00 0. -1.
         11    1    4    4    0    0 -0.63341249135E+02 -0.13474705005E+03 -0.80747517165E+03  0.82108771406E+03  0.00000000000E+00 0.  1.
</event>
<event>
 8    1  0.6832629E-009  0.2071779E+03  0.7561462E-02  0.1143820E+00
          2   -1    0    0  501    0  0.00000000000E+00  0.00000000000E+00  0.17212981982E+04  0.17212981982E+04  0.00000000000E+00 0. -1.
         -2   -1    0    0    0  501 -0.00000000000E+00 -0.00000000000E+00 -0.25315916850E+02  0.25315916850E+02  0.00000000000E+00 0.  1.
         25    2    1    2    0    0  0.37909928303E+02  0.17324314633E+03  0.83523253350E+03  0.86296655098E+03  0.12509009822E+03 0.  0.
         23    2    1    2    0    0 -0.37909928303E+02 -0.17324314633E+03  0.86074974784E+03  0.88364756407E+03  0.92154970858E+02 0.  0.
          5    1    3    3  502    0  0.78215303045E+02  0.14629017959E+03  0.58677332761E+03  0.60978591380E+03  0.41800000000E+01 0.  1.
         -5    1    3    3    0  502 -0.40305374741E+02  0.26952966742E+02  0.24845920589E+03  0.25318063718E+03  0.41800000000E+01 0.  1.
        -11    1    4    4    0    0 -0.38529532447E+02 -0.14752017188E+02  0.18980337103E+03  0.19423559544E+03  0.00000000000E+00 0.  1.
         11    1    4    4    0    0  0.61960414319E+00 -0.15849112914E+03  0.67094637682E+03  0.68941196863E+03  0.00000000000E+00 0. -1.
</event>
<event>
 8    1  0.6832629E-009  0.1083576E+03  0.7561462E-02  0.1263642E+00
         -2   -1    0    0    0  501 -0.00000000000E+00  0.00000000000E+00  0.21376329308E+03  0.21376329308E+03  0.00000000000E+00 0.  1.
          2   -1    0    0  501    0  0.00000000000E+00 -0.00000000000E+00 -0.92817679040E+02  0.92817679040E+02  0.00000000000E+00 0. -1.
         25    2    1    2    0    0 -0.12523617293E+02  0.81845886033E+02  0.29833955388E+02  0.15295105118E+03  0.12509344153E+03 0.  0.
         23    2    1    2    0    0  0.12523617293E+02 -0.81845886033E+02  0.91111658648E+02  0.15362992093E+03  0.91897922794E+02 0.  0.
          5    1    3    3  502    0 -0.18534071270E+02  0.85146631796E+02 -0.30247318705E+02  0.92335439528E+02  0.41800000000E+01 0. -1.
         -5    1    3    3    0  502  0.60104539772E+01 -0.33007457629E+01  0.60081274093E+02  0.60615611654E+02  0.41800000000E+01 0. -1.
        -11    1    4    4    0    0 -0.11712271425E+01  0.19319886134E+02  0.26489556622E+02  0.32807413541E+02  0.00000000000E+00 0.  1.
         11    1    4    4    0    0  0.13694844435E+02 -0.10116577217E+03  0.64622102026E+02  0.12082250739E+03  0.00000000000E+00 0. -1.
</event>
<event>
 8    1  0.6832629E-009  0.1399486E+03  0.7561462E-02  0.1213398E+00
         -1   -1    0    0    0  501 -0.00000000000E+00  0.00000000000E+00  0.35174091328E+02  0.35174091328E+02  0.00000000000E+00 0.  1.
          1   -1    0    0  501    0  0.00000000000E+00 -0.00000000000E+00 -0.67397730925E+03  0.67397730925E+03  0.00000000000E+00 0. -1.
         25    2    1    2    0    0  0.30735585144E+02 -0.92965770923E+02 -0.45620662591E+03  0.48307034980E+03  0.12508064029E+03 0.  0.
         23    2    1    2    0    0 -0.30735585144E+02  0.92965770923E+02 -0.18259659201E+03  0.22608105078E+03  0.90464442454E+02 0.  0.
          5    1    3    3  502    0  0.96831736027E+00  0.28786698653E+02 -0.13815115525E+03  0.14118365966E+03  0.41800000000E+01 0. -1.
         -5    1    3    3    0  502  0.29767267783E+02 -0.12175246958E+03 -0.31805547066E+03  0.34188669014E+03  0.41800000000E+01 0. -1.
        -11    1    4    4    0    0 -0.52191212347E+02  0.33130928917E+02 -0.51784346959E+02  0.80642418659E+02  0.00000000000E+00 0. -1.
         11    1    4    4    0    0  0.21455627204E+02  0.59834842006E+02 -0.13081224505E+03  0.14543863212E+03  0.00000000000E+00 0.  1.
</event>
<event>
 8    1  0.6832629E-009  0.8811125E+02  0.7561462E-02  0.1307491E+00
          1   -1    0    0  501    0  0.00000000000E+00  0.00000000000E+00  0.48375142990E+03  0.48375142990E+03  0.00000000000E+00 0. -1.
         -1   -1    0    0    0  501 -0.00000000000E+00 -0.00000000000E+00 -0.30032428550E+02  0.30032428550E+02  0.00000000000E+00 0.  1.
         25    2    1    2    0    0  0.39224193143E+02  0.29720212849E+02  0.28406999984E+03  0.31426965404E+03  0.12509125574E+03 0.  0.
         23    2    1    2    0    0 -0.39224193143E+02 -0.29720212849E+02  0.16964900151E+03  0.19951420441E+03  0.92754006208E+02 0.  0.
          5    1    3    3  502    0  0.21282898487E+02  0.50269953009E+02  0.28124832317E+03  0.28652769784E+03  0.41800000000E+01 0. -1.
         -5    1    3    3    0  502  0.17941294656E+02 -0.20549740160E+02  0.28216766681E+01  0.27741956200E+02  0.41800000000E+01 0. -1.
        -11    1    4    4    0    0  0.52444153630E+01 -0.46165839902E+02  0.39451060715E+02  0.60952234232E+02  0.00000000000E+00 0.  1.
         11    1    4    4    0    0 -0.44468608506E+02  0.16445627053E+02  0.13019794080E+03  0.13856197018E+03  0.00000000000E+00 0. -1.
</event>
<event>
 8    1  0.6832629E-009  0.1166419E+03  0.7561462E-02  0.1248742E+00
         -1   -1    0    0    0  501 -0.00000000000E+00  0.00000000000E+00  0.43311226077E+03  0.43311226077E+03  0.00000000000E+00 0.  1.
          1   -1    0    0  501    0  0.00000000000E+00 -0.00000000000E+00 -0.37307745173E+02  0.37307745173E+02  0.00000000000E+00 0. -1.
         25    2    1    2    0    0  0.60210613733E+02 -0.16645998054E+02  0.27051304610E+03  0.30451108335E+03  0.12508910631E+03 0.  0.
         23    2    1    2    0    0 -0.60210613733E+02  0.16645998054E+02  0.12529146950E+03  0.16590892259E+03  0.89024777496E+02 0.  0.
          5    1    3    3  502    0 -0.32358160634E+02 -0.98317805334E+01  0.14136029199E+03  0.14540948737E+03  0.41800000000E+01 0. -1.
         -5    1    3    3    0  502  0.92568774367E+02 -0.68142175208E+01  0.12915275411E+03  0.15910159598E+03  0.41800000000E+01 0. -1.
        -11    1    4    4    0    0  0.12472704822E+02 -0.21011797567E+02  0.15413429255E+02  0.28890098719E+02  0.00000000000E+00 0. -1.
         11    1    4    4    0    0 -0.72683318555E+02  0.37657795621E+02  0.10987804024E+03  0.13701882387E+03  0.00000000000E+00 0.  1.
</event>
<event>
 8    1  0.6832629E-009  0.1179719E+03  0.7561462E-02  0.1246481E+00
         -4   -1    0    0    0  501 -0.00000000000E+00  0.00000000000E+00  0.20344452767E+03  0.20344452767E+03  0.00000000000E+00 0.  1.
          4   -1    0    0  501    0  0.00000000000E+00 -0.00000000000E+00 -0.88916462264E+02  0.88916462264E+02  0.00000000000E+00 0. -1.
         25    2    1    2    0    0  0.41089736340E+02  0.61684745737E+02  0.96832651838E+02  0.17469177587E+03  0.12508908747E+03 0.  0.
         23    2    1    2    0    0 -0.41089736340E+02 -0.61684745737E+02  0.17695413564E+02  0.11766921406E+03  0.89663493063E+02 0.  0.
          5    1    3    3  502    0 -0.36202601077E+02  0.21827196142E+02  0.72940320896E+02  0.84408634799E+02  0.41800000000E+01 0.  1.
         -5    1    3    3    0  502  0.77292337417E+02  0.39857549594E+02  0.23892330941E+02  0.90283141067E+02  0.41800000000E+01 0.  1.
        -11    1    4    4    0    0 -0.37251449526E+02  0.67495280081E+01  0.29657338394E+02  0.48091416498E+02  0.00000000000E+00 0.  1.
         11    1    4    4    0    0 -0.38382868134E+01 -0.68434273745E+02 -0.11961924830E+02  0.69577797567E+02  0.00000000000E+00 0. -1.
</event>
<event>
 8    1  0.6832629E-009  0.1229769E+03  0.7561462E-02  0.1238265E+00
         -1   -1    0    0    0  501 -0.00000000000E+00  0.00000000000E+00  0.21363303448E+02  0.21363303448E+02  0.00000000000E+00 0.  1.
          1   -1    0    0  501    0  0.00000000000E+00 -0.00000000000E+00 -0.84129684895E+03  0.84129684895E+03  0.00000000000E+00 0. -1.
         25    2    1    2    0    0  0.57027574015E+02  0.36621302156E+02 -0.60318371055E+03  0.61973569328E+03  0.12509387228E+03 0.  0.
         23    2    1    2    0    0 -0.57027574015E+02 -0.36621302156E+02 -0.21674983495E+03  0.24292445912E+03  0.86246958881E+02 0.  0.
          5    1    3    3  502    0  0.46201235616E+02 -0.39927606226E+02 -0.33731640982E+03  0.34282444581E+03  0.41800000000E+01 0. -1.
         -5    1    3    3    0  502  0.10826338399E+02  0.76548908382E+02 -0.26586730073E+03  0.27691124747E+03  0.41800000000E+01 0. -1.
        -11    1    4    4    0    0 -0.56802271554E+02  0.12533334140E+02 -0.14209406193E+03  0.15353926193E+03  0.00000000000E+00 0.  1.
         11    1    4    4    0    0 -0.22530246063E+00 -0.49154636297E+02 -0.74655773021E+02  0.89385197186E+02  0.00000000000E+00 0. -1.
</event>
<event>
 8    1  0.6832629E-009  0.1038885E+03  0.7561462E-02  0.1272325E+00
         -1   -1    0    0    0  501 -0.00000000000E+00  0.00000000000E+00  0.26831125953E+02  0.26831125953E+02  0.00000000000E+00 0.  1.
          1   -1    0    0  501    0  0.00000000000E+00 -0.00000000000E+00 -0.47677259874E+03  0.47677259874E+03  0.00000000000E+00 0. -1.
         25    2    1    2    0    0  0.30711434303E+02 -0.44401692682E+01 -0.28299059171E+03  0.31095657704E+03  0.12508960993E+03 0.  0.
         23    2    1    2    0    0 -0.30711434303E+02  0.44401692682E+01 -0.16695088108E+03  0.19264714765E+03  0.90980324816E+02 0.  0.
          5    1    3    3  502    0 -0.39359671315E+02  0.82842852091E+01 -0.18720963892E+03  0.19152737248E+03  0.41800000000E+01 0. -1.
         -5    1    3    3    0  502  0.70071105618E+02 -0.12724454477E+02 -0.95780952790E+02  0.11942920456E+03  0.41800000000E+01 0. -1.
        -11    1    4    4    0    0  0.30322616410E+02 -0.12281528094E+02 -0.61676614690E+02  0.69816200110E+02  0.00000000000E+00 0.  1.
         11    1    4    4    0    0 -0.61034050713E+02  0.16721697363E+02 -0.10527426639E+03  0.12283094754E+03  0.00000000000E+00 0. -1.
</event>
<event>
 8    1  0.6832629E-009  0.1062420E+03  0.7561462E-02  0.1267692E+00
          2   -1    0    0  501    0  0.00000000000E+00  0.00000000000E+00  0.11413238094E+04  0.11413238094E+04  0.00000000000E+00 0. -1.
         -2   -1    0    0    0  501 -0.00000000000E+00 -0.00000000000E+00 -0.26442116214E+02  0.26442116214E+02  0.00000000000E+00 0.  1.
         25    2    1    2    0    0 -0.16319265702E+02 -0.44435478527E+02  0.10172615466E+04  0.10260155150E+04  0.12508378211E+03 0.  0.
         23    2    1    2    0    0  0.16319265702E+02  0.44435478527E+02  0.97620146516E+02  0.14175041059E+03  0.91228590431E+02 0.  0.
          5    1    3    3  502    0 -0.67404670811E+02 -0.46369533670E+02  0.66899028519E+03  0.67398738666E+03  0.41800000000E+01 0. -1.
         -5    1    3    3    0  502  0.51085405108E+02  0.19340551427E+01  0.34827126145E+03  0.35202812833E+03  0.41800000000E+01 0. -1.
        -11    1    4    4    0    0  0.38840628275E+02  0.41021571802E+02  0.10377486197E+03  0.11815492260E+03  0.00000000000E+00 0.  1.
         11    1    4    4    0    0 -0.22521362572E+02  0.34139067247E+01 -0.61547154530E+01  0.23595487991E+02  0.00000000000E+00 0. -1.
</event>
<event>
 8    1  0.6832629E-009  0.8139960E+02  0.7561462E-02  0.1325126E+00
          2   -1    0    0  501    0  0.00000000000E+00  0.00000000000E+00  0.39068918819E+02  0.39068918819E+02  0.00000000000E+00 0. -1.
         -2   -1    0    0    0  501 -0.00000000000E+00 -0.00000000000E+00 -0.46188214968E+03  0.46188214968E+03  0.00000000000E+00 0.  1.
         25    2    1    2    0    0 -0.42824064868E+02  0.38638701401E+02 -0.13038004516E+03  0.18966740101E+03  0.12509163463E+03 0.  0.
         23    2    1    2    0    0  0.42824064868E+02 -0.38638701401E+02 -0.29243318571E+03  0.31128366749E+03  0.89741315827E+02 0.  0.
          5    1    3    3  502    0 -0.23843011292E+02  0.47999786446E+02  0.36788088369E+01  0.53883900385E+02  0.41800000000E+01 0.  1.
         -5    1    3    3    0  502 -0.18981053576E+02 -0.93610850443E+01 -0.13405885399E+03  0.13578350063E+03  0.41800000000E+01 0.  1.
        -11    1    4    4    0    0  0.33189032545E+02  0.12473710496E+02 -0.39588494495E+02  0.53144653835E+02  0.00000000000E+00 0.  1.
         11    1    4    4    0    0  0.96350323229E+01 -0.51112411897E+02 -0.25284469121E+03  0.25813901366E+03  0.00000000000E+00 0. -1.
</event>
<event>
 8    1  0.6832629E-009  0.1090838E+03  0.7561462E-02  0.1262276E+00
          2   -1    0    0  501    0  0.00000000000E+00  0.00000000000E+00  0.45995568689E+03  0.45995568689E+03  0.00000000000E+00 0.  1.
         -2   -1    0    0    0  501 -0.00000000000E+00 -0.00000000000E+00 -0.49947787857E+02  0.49947787857E+02  0.00000000000E+00 0. -1.
         25    2    1    2    0    0  0.54216172430E+01  0.39055610000E+02  0.38600067795E+03  0.40767455441E+03  0.12508910556E+03 0.  0.
         23    2    1    2    0    0 -0.54216172430E+01 -0.39055610000E+02  0.24007221086E+02  0.10222892034E+03  0.91212229900E+02 0.  0.
          5    1    3    3  502    0  0.21577244812E+02 -0.42446356818E+02  0.15081439254E+03  0.15820785093E+03  0.41800000000E+01 0.  1.
         -5    1    3    3    0  502 -0.16155627569E+02  0.81501966818E+02  0.23518628541E+03  0.24946670347E+03  0.41800000000E+01 0.  1.
        -11    1    4    4    0    0  0.32386111931E+02  0.59144073872E+00 -0.14271874447E+02  0.35396277324E+02  0.00000000000E+00 0.  1.
         11    1    4    4    0    0 -0.37807729174E+02 -0.39647050738E+02  0.38279095533E+02  0.66832643015E+02  0.00000000000E+00 0. -1.
</event>
<event>
 8    1  0.6832629E-009  0.7387505E+02  0.7561462E-02  0.1347390E+00
          2   -1    0    0  501    0  0.00000000000E+00  0.00000000000E+00  0.58830140978E+02  0.58830140978E+02  0.00000000000E+00 0. -1.
         -2   -1    0    0    0  501 -0.00000000000E+00 -0.00000000000E+00 -0.24213339377E+03  0.24213339377E+03  0.00000000000E+00 0.  1.
         25    2    1    2    0    0  0.68401341921E+01  0.32419398938E+02 -0.15462834515E+03  0.20163068773E+03  0.12508878546E+03 0.  0.
         23    2    1    2    0    0 -0.68401341921E+01 -0.32419398938E+02 -0.28674907645E+02  0.99332847016E+02  0.89145719497E+02 0.  0.
          5    1    3    3  502    0  0.25583760261E+02 -0.49804738701E+01 -0.15730397203E+03  0.15950343547E+03  0.41800000000E+01 0.  1.
         -5    1    3    3    0  502 -0.18743626069E+02  0.37399872808E+02  0.26756268822E+01  0.42127252266E+02  0.41800000000E+01 0.  1.
        -11    1    4    4    0    0  0.27834419063E+01  0.22946534061E+02 -0.35875639377E+02  0.42677306323E+02  0.00000000000E+00 0.  1.
         11    1    4    4    0    0 -0.96235760984E+01 -0.55365932999E+02  0.72007317323E+01  0.56655540694E+02  0.00000000000E+00 0. -1.
</event>
<event>
 8    1  0.6832629E-009  0.7657632E+02  0.7561462E-02  0.1339058E+00
         -1   -1    0    0    0  501 -0.00000000000E+00  0.00000000000E+00  0.22121327589E+02  0.22121327589E+02  0.00000000000E+00 0.  1.
          1   -1    0    0  501    0  0.00000000000E+00 -0.00000000000E+00 -0.62583921849E+03  0.62583921849E+03  0.00000000000E+00 0. -1.
         25    2    1    2    0    0 -0.41304514168E+02 -0.19508827265E+02 -0.32002024921E+03  0.34662282008E+03  0.12509101591E+03 0.  0.
         23    2    1    2    0    0  0.41304514168E+02  0.19508827265E+02 -0.28369764169E+03  0.30133772600E+03  0.90738172670E+02 0.  0.
          5    1    3    3  502    0 -0.11435506504E+02  0.85696048131E+01 -0.30077460930E+03  0.30114290119E+03  0.41800000000E+01 0. -1.
         -5    1    3    3    0  502 -0.29869007664E+02 -0.28078432078E+02 -0.19245639912E+02  0.45479918892E+02  0.41800000000E+01 0. -1.
        -11    1    4    4    0    0 -0.16418797834E+02  0.33811946436E+02 -0.15611042198E+03  0.16057175497E+03  0.00000000000E+00 0. -1.
         11    1    4    4    0    0  0.57723312002E+02 -0.14303119171E+02 -0.12758721971E+03  0.14076597103E+03  0.00000000000E+00 0.  1.
</event>
<event>
 8    1  0.6832629E-009  0.1098674E+03  0.7561462E-02  0.1260816E+00
         -1   -1    0    0    0  501 -0.00000000000E+00  0.00000000000E+00  0.20815764588E+03  0.20815764588E+03  0.00000000000E+00 0.  1.
          1   -1    0    0  501    0  0.00000000000E+00 -0.00000000000E+00 -0.72104169664E+02  0.72104169664E+02  0.00000000000E+00 0. -1.
         25    2    1    2    0    0 -0.33982169307E+02  0.38965665322E+02  0.10028660280E+03  0.16846356063E+03  0.12509779237E+03 0.  0.
         23    2    1    2    0    0  0.33982169307E+02 -0.38965665322E+02  0.35766873412E+02  0.11179825491E+03  0.92447118191E+02 0.  0.
          5    1    3    3  502    0 -0.26798926266E+02  0.83242687070E+02  0.49496945035E+02  0.10057309465E+03  0.41800000000E+01 0.  1.
         -5    1    3    3    0  502 -0.71832430404E+01 -0.44277021748E+02  0.50789657765E+02  0.67890465983E+02  0.41800000000E+01 0.  1.
        -11    1    4    4    0    0  0.26239803597E+01 -0.52796562411E+02 -0.10824828217E+02  0.53958680315E+02  0.00000000000E+00 0. -1.
         11    1    4    4    0    0  0.31358188947E+02  0.13830897089E+02  0.46591701628E+02  0.57839574592E+02  0.00000000000E+00 0.  1.
</event>
<event>
 8    1  0.6832629E-009  0.1515448E+03  0.7561462E-02  0.1198587E+00
         -2   -1    0    0    0  501 -0.00000000000E+00  0.00000000000E+00  0.99000281615E+01  0.99000281615E+01  0.00000000000E+00 0.  1.
          2   -1    0    0  501    0  0.00000000000E+00 -0.00000000000E+00 -0.26783464154E+04  0.26783464154E+04  0.00000000000E+00 0. -1.
         25    2    1    2    0    0  0.10186573515E+03 -0.31845952824E+02 -0.19039739933E+04  0.19110609526E+04  0.12508479066E+03 0.  0.
         23    2    1    2    0    0 -0.10186573515E+03  0.31845952824E+02 -0.76447239395E+03  0.77718549093E+03  0.90600515941E+02 0.  0.
          5    1    3    3  502    0  0.93900631317E+02  0.31814971475E+02 -0.10553840013E+04  0.10600388595E+04  0.41800000000E+01 0.  1.
         -5    1    3    3    0  502  0.79651038296E+01 -0.63660924299E+02 -0.84858999196E+03  0.85102209314E+03  0.41800000000E+01 0.  1.
        -11    1    4    4    0    0 -0.74477957201E+02 -0.23261786045E+02 -0.39678906239E+03  0.40438797810E+03  0.00000000000E+00 0.  1.
         11    1    4    4    0    0 -0.27387777945E+02  0.55107738869E+02 -0.36768333157E+03  0.37279751284E+03  0.00000000000E+00 0. -1.
</event>
<event>
 8    1  0.6832629E-009  0.2793854E+03  0.7561462E-02  0.1096025E+00
          2   -1    0    0  501    0  0.00000000000E+00  0.00000000000E+00  0.15646890539E+03  0.15646890539E+03  0.00000000000E+00 0.  1.
         -2   -1    0    0    0  501 -0.00000000000E+00 -0.00000000000E+00 -0.50658138169E+03  0.50658138169E+03  0.00000000000E+00 0. -1.
         25    2    1    2    0    0  0.21471610222E+03 -0.14591803682E+03 -0.18508225742E+03  0.34248658316E+03  0.12508612876E+03 0.  0.
         23    2    1    2    0    0 -0.21471610222E+03  0.14591803682E+03 -0.16503021888E+03  0.32056370392E+03  0.90172263500E+02 0.  0.
          5    1    3    3  502    0  0.18174429273E+03 -0.57184398601E+02 -0.10038528098E+03  0.21539665834E+03  0.41800000000E+01 0. -1.
         -5    1    3    3    0  502  0.32971809489E+02 -0.88733638222E+02 -0.84696976445E+02  0.12708992483E+03  0.41800000000E+01 0. -1.
        -11    1    4    4    0    0 -0.17623207029E+03  0.72524291747E+02 -0.99945750226E+02  0.21518984289E+03  0.00000000000E+00 0. -1.
         11    1    4    4    0    0 -0.38484031932E+02  0.73393745076E+02 -0.65084468653E+02  0.10537386104E+03  0.00000000000E+00 0.  1.
</event>
<event>
 8    1  0.6832629E-009  0.1236631E+03  0.7561462E-02  0.1237174E+00
          2   -1    0    0  501    0  0.00000000000E+00  0.00000000000E+00  0.69123266020E+03  0.69123266020E+03  0.00000000000E+00 0.  1.
         -2   -1    0    0    0  501 -0.00000000000E+00 -0.00000000000E+00 -0.35568569669E+02  0.35568569669E+02  0.00000000000E+00 0. -1.
         25    2    1    2    0    0 -0.43538152044E+02 -0.99690006806E+02  0.28488860979E+03  0.32961149047E+03  0.12509415063E+03 0.  0.
         23    2    1    2    0    0  0.43538152044E+02  0.99690006806E+02  0.37077548074E+03  0.39718973940E+03  0.91932387251E+02 0.  0.
          5    1    3    3  502    0  0.76672017198E+01 -0.12079621672E+02  0.19011228604E+03  0.19069571822E+03  0.41800000000E+01 0.  1.
         -5    1    3    3    0  502 -0.51205353764E+02 -0.87610385134E+02  0.94776323747E+02  0.13891577225E+03  0.41800000000E+01 0.  1.
        -11    1    4    4    0    0 -0.12402216064E+02  0.62416539898E+02  0.10272451306E+03  0.12083859068E+03  0.00000000000E+00 0.  1.
         11    1    4    4    0    0  0.55940368108E+02  0.37273466908E+02  0.26805096768E+03  0.27635114871E+03  0.00000000000E+00 0. -1.
</event>
<event>
 8    1  0.6832629E-009  0.1152667E+03  0.7561462E-02  0.1251116E+00
          4   -1    0    0  501    0  0.00000000000E+00  0.00000000000E+00  0.35783262917E+03  0.35783262917E+03  0.00000000000E+00 0. -1.
         -4   -1    0    0    0  501 -0.00000000000E+00 -0.00000000000E+00 -0.38828289776E+02  0.38828289776E+02  0.00000000000E+00 0.  1.
         25    2    1    2    0    0 -0.16398161574E+02  0.35475961058E+02  0.18399703574E+03  0.22590122102E+03  0.12509599907E+03 0.  0.
         23    2    1    2    0    0  0.16398161574E+02 -0.35475961058E+02  0.13500730365E+03  0.17075969792E+03  0.96976589333E+02 0.  0.
          5    1    3    3  502    0  0.38300211492E+02 -0.25256668710E+02  0.43809350585E+02  0.63573084818E+02  0.41800000000E+01 0.  1.
         -5    1    3    3    0  502 -0.54698373066E+02  0.60732629768E+02  0.14018768516E+03  0.16232813620E+03  0.41800000000E+01 0.  1.
        -11    1    4    4    0    0 -0.38082454171E+02 -0.28780052052E+02  0.46674307696E+02  0.66761184162E+02  0.00000000000E+00 0.  1.
         11    1    4    4    0    0  0.54480615745E+02 -0.66959090058E+01  0.88332995958E+02  0.10399851376E+03  0.00000000000E+00 0. -1.
</event>
<event>
 8    1  0.6832629E-009  0.9425456E+02  0.7561462E-02  0.1292864E+00
         -2   -1    0    0    0  501 -0.00000000000E+00  0.00000000000E+00  0.39362376348E+03  0.39362376348E+03  0.00000000000E+00 0.  1.
          2   -1    0    0  501    0  0.00000000000E+00 -0.00000000000E+00 -0.31484314598E+02  0.31484314598E+02  0.00000000000E+00 0. -1.
         25    2    1    2    0    0  0.21797441276E+02  0.18542432583E+02  0.17870147724E+03  0.22000024643E+03  0.12508773006E+03 0.  0.
         23    2    1    2    0    0 -0.21797441276E+02 -0.18542432583E+02  0.18343797165E+03  0.20510783165E+03  0.87182469046E+02 0.  0.
          5    1    3    3  502    0 -0.37355799681E+02  0.10977863892E+02  0.14741401536E+03  0.15252650127E+03  0.41800000000E+01 0. -1.
         -5    1    3    3    0  502  0.59153240957E+02  0.75645686911E+01  0.31287461873E+02  0.67473745158E+02  0.41800000000E+01 0. -1.
        -11    1    4    4    0    0 -0.28742725959E+01 -0.51491819711E+02  0.82935411072E+02  0.97662435715E+02  0.00000000000E+00 0.  1.
         11    1    4    4    0    0 -0.18923168680E+02  0.32949387128E+02  0.10050256058E+03  0.10744539593E+03  0.00000000000E+00 0. -1.
</event>
<event>
 8    1  0.6832629E-009  0.6094583E+02  0.7561462E-02  0.1393905E+00
         -1   -1    0    0    0  501 -0.00000000000E+00  0.00000000000E+00  0.33410571130E+02  0.33410571130E+02  0.00000000000E+00 0.  1.
          1   -1    0    0  501    0  0.00000000000E+00 -0.00000000000E+00 -0.46037893256E+03  0.46037893256E+03  0.00000000000E+00 0. -1.
         25    2    1    2    0    0 -0.30157308288E+02 -0.12411900521E+02 -0.32238919359E+03  0.34734014009E+03  0.12508741847E+03 0.  0.
         23    2    1    2    0    0  0.30157308288E+02  0.12411900521E+02 -0.10457916785E+03  0.14644936360E+03  0.97196168821E+02 0.  0.
          5    1    3    3  502    0 -0.19811248763E+02 -0.15836720741E+02 -0.98504646259E+00  0.25724113549E+02  0.41800000000E+01 0. -1.
         -5    1    3    3    0  502 -0.10346059525E+02  0.34248202204E+01 -0.32140414712E+03  0.32161602654E+03  0.41800000000E+01 0. -1.
        -11    1    4    4    0    0 -0.24456075605E+02  0.16883653070E+02 -0.81936505402E+02  0.87159327054E+02  0.00000000000E+00 0.  1.
         11    1    4    4    0    0  0.54613383893E+02 -0.44717525492E+01 -0.22642662447E+02  0.59290036547E+02  0.00000000000E+00 0. -1.
</event>
<event>
 8    1  0.6832629E-009  0.1273733E+03  0.7561462E-02  0.1231406E+00
          2   -1    0    0  501    0  0.00000000000E+00  0.00000000000E+00  0.23723903345E+03  0.23723903345E+03  0.00000000000E+00 0. -1.
         -2   -1    0    0    0  501 -0.00000000000E+00 -0.00000000000E+00 -0.85679519724E+02  0.85679519724E+02  0.00000000000E+00 0.  1.
         25    2    1    2    0    0 -0.13468456693E+02 -0.77437588049E+02  0.27695587794E+02  0.15029589744E+03  0.12507530466E+03 0.  0.
         23    2    1    2    0    0  0.13468456693E+02  0.77437588049E+02  0.12386392593E+03  0.17262265573E+03  0.90985327149E+02 0.  0.
          5    1    3    3  502    0  0.48078579841E+02 -0.63524628991E+02  0.34048576259E+02  0.86739300627E+02  0.41800000000E+01 0. -1.
         -5    1    3    3    0  502 -0.61547036535E+02 -0.13912959058E+02 -0.63529884650E+01  0.63556596813E+02  0.41800000000E+01 0. -1.
        -11    1    4    4    0    0 -0.27586385420E+02  0.62017099330E+02  0.42190692528E+02  0.79919858646E+02  0.00000000000E+00 0.  1.
         11    1    4    4    0    0  0.41054842114E+02  0.15420488719E+02  0.81673233400E+02  0.92702797085E+02  0.00000000000E+00 0. -1.
</event>
<event>
 8    1  0.6832629E-009  0.2315046E+02  0.7561462E-02  0.1689083E+00
          1   -1    0    0  501    0  0.00000000000E+00  0.00000000000E+00  0.17655343692E+03  0.17655343692E+03  0.00000000000E+00 0. -1.
         -1   -1    0    0    0  501 -0.00000000000E+00 -0.00000000000E+00 -0.77040206072E+02  0.77040206072E+02  0.00000000000E+00 0.  1.
         25    2    1    2    0    0  0.82218502212E+01  0.86125302847E+00  0.10156997322E+03  0.16134601245E+03  0.12509090972E+03 0.  0.
         23    2    1    2    0    0 -0.82218502212E+01 -0.86125302847E+00 -0.20567423732E+01  0.92247630550E+02  0.91853440736E+02 0.  0.
          5    1    3    3  502    0  0.73367420814E+01  0.64410707863E-01 -0.29254780072E+02  0.30449080285E+02  0.41800000000E+01 0.  1.
         -5    1    3    3    0  502  0.88510813977E+00  0.79684232061E+00  0.13082475330E+03  0.13089693216E+03  0.41800000000E+01 0.  1.
        -11    1    4    4    0    0 -0.22498688786E+01  0.15723252197E+02 -0.43984898964E+02  0.46764878985E+02  0.00000000000E+00 0.  1.
         11    1    4    4    0    0 -0.59719813425E+01 -0.16584505226E+02  0.41928156591E+02  0.45482751564E+02  0.00000000000E+00 0. -1.
</event>
<event>
 8    1  0.6832629E-009  0.1075625E+03  0.7561462E-02  0.1265151E+00
          2   -1    0    0  501    0  0.00000000000E+00  0.00000000000E+00  0.51502215113E+03  0.51502215113E+03  0.00000000000E+00 0. -1.
         -2   -1    0    0    0  501 -0.00000000000E+00 -0.00000000000E+00 -0.24400801071E+02  0.24400801071E+02  0.00000000000E+00 0.  1.
         25    2    1    2    0    0 -0.19322720284E+02 -0.24077220926E+02  0.25527244397E+03  0.28594698611E+03  0.12509427695E+03 0.  0.
         23    2    1    2    0    0  0.19322720284E+02  0.24077220926E+02  0.23534890608E+03  0.25347596609E+03  0.88926248674E+02 0.  0.
          5    1    3    3  502    0 -0.26309264678E+02 -0.73747455285E+02  0.14984907586E+03  0.16912445863E+03  0.41800000000E+01 0. -1.
         -5    1    3    3    0  502  0.69865443936E+01  0.49670234359E+02  0.10542336811E+03  0.11682252748E+03  0.41800000000E+01 0. -1.
        -11    1    4    4    0    0  0.44679017333E+02 -0.81063543465E+01  0.17307227644E+03  0.17892998754E+03  0.00000000000E+00 0. -1.
         11    1    4    4    0    0 -0.25356297049E+02  0.32183575273E+02  0.62276629646E+02  0.74545978547E+02  0.00000000000E+00 0.  1.
</event>
<event>
 8    1  0.6832629E-009  0.8322582E+02  0.7561462E-02  0.1320138E+00
         -2   -1    0    0    0  501 -0.00000000000E+00  0.00000000000E+00  0.51871127749E+02  0.51871127749E+02  0.00000000000E+00 0.  1.
          2   -1    0    0  501    0  0.00000000000E+00 -0.00000000000E+00 -0.49556819175E+03  0.49556819175E+03  0.00000000000E+00 0. -1.
         25    2    1    2    0    0 -0.20533093310E+02 -0.55278292687E+02 -0.66335391361E+02  0.15338053535E+03  0.12509159410E+03 0.  0.
         23    2    1    2    0    0  0.20533093310E+02  0.55278292687E+02 -0.37736167264E+03  0.39405878414E+03  0.96970076938E+02 0.  0.
          5    1    3    3  502    0 -0.14324142967E+01 -0.32965745035E+02  0.34707939829E+02  0.48071879967E+02  0.41800000000E+01 0. -1.
         -5    1    3    3    0  502 -0.19100679013E+02 -0.22312547652E+02 -0.10104333119E+03  0.10530865539E+03  0.41800000000E+01 0. -1.
        -11    1    4    4    0    0 -0.16148938421E+02  0.63844045715E+02 -0.15320647077E+03  0.16676052611E+03  0.00000000000E+00 0.  1.
         11    1    4    4    0    0  0.36682031731E+02 -0.85657530277E+01 -0.22415520187E+03  0.22729825803E+03  0.00000000000E+00 0. -1.
</event>
<event>
 8    1  0.6832629E-009  0.1212412E+03  0.7561462E-02  0.1241063E+00
         -1   -1    0    0    0  501 -0.00000000000E+00  0.00000000000E+00  0.35186249136E+02  0.35186249136E+02  0.00000000000E+00 0. -1.
          1   -1    0    0  501    0  0.00000000000E+00 -0.00000000000E+00 -0.49780213204E+03  0.49780213204E+03  0.00000000000E+00 0.  1.
         25    2    1    2    0    0 -0.69909182078E+02 -0.10840038091E+02 -0.22351717033E+03  0.26572900046E+03  0.12508867289E+03 0.  0.
         23    2    1    2    0    0  0.69909182078E+02  0.10840038091E+02 -0.23909871257E+03  0.26725938072E+03  0.96200738373E+02 0.  0.
          5    1    3    3  502    0  0.10807377810E+02 -0.50582163847E+02 -0.10235251353E+03  0.11475567150E+03  0.41800000000E+01 0.  1.
         -5    1    3    3    0  502 -0.80716559889E+02  0.39742125756E+02 -0.12116465680E+03  0.15097332896E+03  0.41800000000E+01 0.  1.
        -11    1    4    4    0    0  0.69750901181E+02 -0.17716657370E+02 -0.22332808204E+03  0.23463695445E+03  0.00000000000E+00 0.  1.
         11    1    4    4    0    0  0.15828089694E+00  0.28556695460E+02 -0.15770630530E+02  0.32622426271E+02  0.00000000000E+00 0. -1.
</event>
<event>
 8    1  0.6832629E-009  0.1765627E+03  0.7561462E-02  0.1171172E+00
         -2   -1    0    0    0  501 -0.00000000000E+00  0.00000000000E+00  0.11948987445E+03  0.11948987445E+03  0.00000000000E+00 0.  1.
          2   -1    0    0  501    0  0.00000000000E+00 -0.00000000000E+00 -0.34039771513E+03  0.34039771513E+03  0.00000000000E+00 0. -1.
         25    2    1    2    0    0  0.14952620892E+03 -0.41040755959E+02 -0.38581369154E+02  0.20292759757E+03  0.12509459222E+03 0.  0.
         23    2    1    2    0    0 -0.14952620892E+03  0.41040755959E+02 -0.18232647152E+03  0.25695999201E+03  0.93504355356E+02 0.  0.
          5    1    3    3  502    0  0.13681368360E+03  0.11739241856E+02 -0.51926487520E+02  0.14686601488E+03  0.41800000000E+01 0. -1.
         -5    1    3    3    0  502  0.12712525326E+02 -0.52779997816E+02  0.13345118366E+02  0.56061582691E+02  0.41800000000E+01 0. -1.
        -11    1    4    4    0    0 -0.27903658223E+02  0.27063765678E+02 -0.10548446744E+03  0.11241901274E+03  0.00000000000E+00 0. -1.
         11    1    4    4    0    0 -0.12162255070E+03  0.13976990281E+02 -0.76842004087E+02  0.14454097927E+03  0.00000000000E+00 0.  1.
</event>
<event>
 8    1  0.6832629E-009  0.1842188E+03  0.7561462E-02  0.1163781E+00
          2   -1    0    0  501    0  0.00000000000E+00  0.00000000000E+00  0.40808154739E+03  0.40808154739E+03  0.00000000000E+00 0. -1.
         -2   -1    0    0    0  501 -0.00000000000E+00 -0.00000000000E+00 -0.98935078533E+02  0.98935078533E+02  0.00000000000E+00 0.  1.
         25    2    1    2    0    0 -0.11461890264E+03  0.11246737848E+03  0.22721537579E+03  0.30505643053E+03  0.12508475028E+03 0.  0.
         23    2    1    2    0    0  0.11461890264E+03 -0.11246737848E+03  0.81931093068E+02  0.20196019539E+03  0.91042915414E+02 0.  0.
          5    1    3    3  502    0 -0.36021303934E+02 -0.10906873247E+02  0.39082273344E+01  0.38068896255E+02  0.41800000000E+01 0. -1.
         -5    1    3    3    0  502 -0.78597598703E+02  0.12337425172E+03  0.22330714845E+03  0.26698753428E+03  0.41800000000E+01 0. -1.
        -11    1    4    4    0    0  0.33452838464E+02  0.12079289680E+02  0.20953683037E+02  0.41280243135E+02  0.00000000000E+00 0. -1.
         11    1    4    4    0    0  0.81166064173E+02 -0.12454666816E+03  0.60977410031E+02  0.16067995225E+03  0.00000000000E+00 0.  1.
</event>
<event>
 8    1  0.6832629E-009  0.1173924E+03  0.7561462E-02  0.1247462E+00
          4   -1    0    0  501    0  0.00000000000E+00  0.00000000000E+00  0.54306485159E+02  0.54306485159E+02  0.00000000000E+00 0. -1.
         -4   -1    0    0    0  501 -0.00000000000E+00 -0.00000000000E+00 -0.43888191735E+03  0.43888191735E+03  0.00000000000E+00 0.  1.
         25    2    1    2    0    0 -0.78320749483E+02 -0.54397512289E+02 -0.29431970016E+03  0.33371324314E+03  0.12508882285E+03 0.  0.
         23    2    1    2    0    0  0.78320749483E+02  0.54397512289E+02 -0.90255732032E+02  0.15947515937E+03  0.90515192913E+02 0.  0.
          5    1    3    3  502    0 -0.25345342116E+02 -0.67953615974E+02 -0.25776150379E+03  0.26780318431E+03  0.41800000000E+01 0. -1.
         -5    1    3    3    0  502 -0.52975407368E+02  0.13556103685E+02 -0.36558196362E+02  0.65910058824E+02  0.41800000000E+01 0. -1.
        -11    1    4    4    0    0  0.23585364991E+02  0.46305122490E+02  0.18827772764E+01  0.51999794815E+02  0.00000000000E+00 0. -1.
         11    1    4    4    0    0  0.54735384492E+02  0.80923897989E+01 -0.92138509309E+02  0.10747536455E+03  0.00000000000E+00 0.  1.
</event>
<event>
 8    1  0.6832629E-009  0.1070091E+03  0.7561462E-02  0.1266211E+00
          1   -1    0    0  501    0  0.00000000000E+00  0.00000000000E+00  0.15521080199E+03  0.15521080199E+03  0.00000000000E+00 0. -1.
         -1   -1    0    0    0  501 -0.00000000000E+00 -0.00000000000E+00 -0.10368551915E+03  0.10368551915E+03  0.00000000000E+00 0.  1.
         25    2    1    2    0    0  0.43406775032E+02 -0.48600766881E+02  0.18801176083E+02  0.14229328227E+03  0.12509081221E+03 0.  0.
         23    2    1    2    0    0 -0.43406775032E+02  0.48600766881E+02  0.32724106750E+02  0.11660303886E+03  0.90990212933E+02 0.  0.
          5    1    3    3  502    0  0.37322017724E+02  0.13549274552E+02  0.56535104969E+02  0.69211316573E+02  0.41800000000E+01 0. -1.
         -5    1    3    3    0  502  0.60847573080E+01 -0.62150041433E+02 -0.37733928886E+02  0.73081965702E+02  0.41800000000E+01 0. -1.
        -11    1    4    4    0    0  0.14704483324E+02 -0.17918108862E+02  0.10929102599E+02  0.25626660700E+02  0.00000000000E+00 0.  1.
         11    1    4    4    0    0 -0.58111258357E+02  0.66518875743E+02  0.21795004151E+02  0.90976378164E+02  0.00000000000E+00 0. -1.
</event>
<event>
 8    1  0.6832629E-009  0.1047434E+03  0.7561462E-02  0.1270626E+00
          2   -1    0    0  501    0  0.00000000000E+00  0.00000000000E+00  0.63293402195E+03  0.63293402195E+03  0.00000000000E+00 0. -1.
         -2   -1    0    0    0  501 -0.00000000000E+00 -0.00000000000E+00 -0.33169888636E+02  0.33169888636E+02  0.00000000000E+00 0.  1.
         25    2    1    2    0    0  0.27211071689E+02  0.68599385720E+02  0.18609485529E+03  0.23606000687E+03  0.12508682400E+03 0.  0.
         23    2    1    2    0    0 -0.27211071689E+02 -0.68599385720E+02  0.41366927803E+03  0.43004390372E+03  0.91483164537E+02 0.  0.
          5    1    3    3  502    0 -0.16144503960E+02  0.93994687524E+01 -0.13459396694E+02  0.23401341421E+02  0.41800000000E+01 0. -1.
         -5    1    3    3    0  502  0.43355575649E+02  0.59199916967E+02  0.19955425198E+03  0.21265866545E+03  0.41800000000E+01 0. -1.
        -11    1    4    4    0    0 -0.59491767870E+02 -0.57427396082E+02  0.31295807085E+03  0.32369728200E+03  0.00000000000E+00 0. -1.
         11    1    4    4    0    0  0.32280696181E+02 -0.11171989638E+02  0.10071120718E+03  0.10634662172E+03  0.00000000000E+00 0.  1.
</event>
<event>
 8    1  0.6832629E-009  0.1387519E+03  0.7561462E-02  0.1215018E+00
          2   -1    0    0  501    0  0.00000000000E+00  0.00000000000E+00  0.99348574097E+03  0.99348574097E+03  0.00000000000E+00 0. -1.
         -2   -1    0    0    0  501 -0.00000000000E+00 -0.00000000000E+00 -0.25710730530E+02  0.25710730530E+02  0.00000000000E+00 0.  1.
         25    2    1    2    0    0 -0.81275129906E+02 -0.64012314157E+02  0.69222081476E+03  0.71099969522E+03  0.12509071554E+03 0.  0.
         23    2    1    2    0    0  0.81275129906E+02  0.64012314157E+02  0.27555419569E+03  0.30819677628E+03  0.91388812483E+02 0.  0.
          5    1    3    3  502    0 -0.26669286087E+02 -0.94357585353E+02  0.46934992486E+03  0.47950122951E+03  0.41800000000E+01 0. -1.
         -5    1    3    3    0  502 -0.54605843819E+02  0.30345271195E+02  0.22287088989E+03  0.23149846571E+03  0.41800000000E+01 0. -1.
        -11    1    4    4    0    0  0.67557926080E+02  0.19712725797E+02  0.77069715605E+02  0.10436669008E+03  0.00000000000E+00 0.  1.
         11    1    4    4    0    0  0.13717203826E+02  0.44299588361E+02  0.19848448008E+03  0.20383008621E+03  0.00000000000E+00 0. -1.
</event>
<event>
 8    1  0.6832629E-009  0.1073819E+03  0.7561462E-02  0.1265496E+00
          1   -1    0    0  501    0  0.00000000000E+00  0.00000000000E+00  0.41539301491E+03  0.41539301491E+03  0.00000000000E+00 0. -1.
         -1   -1    0    0    0  501 -0.00000000000E+00 -0.00000000000E+00 -0.48557636370E+02  0.48557636370E+02  0.00000000000E+00 0.  1.
         25    2    1    2    0    0  0.53589627643E+02 -0.41101313054E+02  0.29333766515E+03  0.32596963442E+03  0.12509216858E+03 0.  0.
         23    2    1    2    0    0 -0.53589627643E+02  0.41101313054E+02  0.73497713384E+02  0.13798101686E+03  0.95266368751E+02 0.  0.
          5    1    3    3  502    0  0.26540183947E+02 -0.69085437499E+02  0.79968252983E+02  0.10903931825E+03  0.41800000000E+01 0.  1.
         -5    1    3    3    0  502  0.27049443696E+02  0.27984124445E+02  0.21336941217E+03  0.21693031617E+03  0.41800000000E+01 0.  1.
        -11    1    4    4    0    0  0.19452505044E+02  0.53686661838E+01 -0.90444679603E+01  0.22113908062E+02  0.00000000000E+00 0.  1.
         11    1    4    4    0    0 -0.73042132687E+02  0.35732646870E+02  0.82542181344E+02  0.11586710880E+03  0.00000000000E+00 0. -1.
</event>
<event>
 8    1  0.6832629E-009  0.1052653E+03  0.7561462E-02  0.1269598E+00
         -2   -1    0    0    0  501 -0.00000000000E+00  0.00000000000E+00  0.39616457309E+02  0.39616457309E+02  0.00000000000E+00 0.  1.
          2   -1    0    0  501    0  0.00000000000E+00 -0.00000000000E+00 -0.51466666337E+03  0.51466666337E+03  0.00000000000E+00 0. -1.
         25    2    1    2    0    0  0.41195929277E+02 -0.17602502179E+02 -0.41943210116E+03  0.43997388396E+03  0.12508708333E+03 0.  0.
         23    2    1    2    0    0 -0.41195929277E+02  0.17602502179E+02 -0.55618104908E+02  0.11430923672E+03  0.89253993378E+02 0.  0.
          5    1    3    3  502    0 -0.36841605252E+02 -0.24761706380E+02 -0.24036580977E+03  0.24446603217E+03  0.41800000000E+01 0.  1.
         -5    1    3    3    0  502  0.78037534529E+02  0.71592042006E+01 -0.17906629139E+03  0.19550785179E+03  0.41800000000E+01 0.  1.
        -11    1    4    4    0    0  0.19672702288E+02 -0.82553651159E+01  0.77677588772E+01  0.22704720797E+02  0.00000000000E+00 0.  1.
         11    1    4    4    0    0 -0.60868631565E+02  0.25857867295E+02 -0.63385863785E+02  0.91604515922E+02  0.00000000000E+00 0. -1.
</event>
<event>
 8    1  0.6832629E-009  0.1424980E+03  0.7561462E-02  0.1210007E+00
         -2   -1    0    0    0  501 -0.00000000000E+00  0.00000000000E+00  0.43327425843E+03  0.43327425843E+03  0.00000000000E+00 0.  1.
          2   -1    0    0  501    0  0.00000000000E+00 -0.00000000000E+00 -0.64565241917E+02  0.64565241917E+02  0.00000000000E+00 0. -1.
         25    2    1    2    0    0 -0.11066110769E+03  0.29090090389E+02  0.11642225838E+03  0.20565445002E+03  0.12508995345E+03 0.  0.
         23    2    1    2    0    0  0.11066110769E+03 -0.29090090389E+02  0.25228675813E+03  0.29218505032E+03  0.92905226919E+02 0.  0.
          5    1    3    3  502    0  0.16102246490E+02  0.20217006305E+02  0.62100093386E+02  0.67393647212E+02  0.41800000000E+01 0. -1.
         -5    1    3    3    0  502 -0.12676335418E+03  0.88730840840E+01  0.54322164994E+02  0.13826080281E+03  0.41800000000E+01 0. -1.
        -11    1    4    4    0    0  0.69794044125E+02 -0.49913636766E+02  0.21986849580E+03  0.23601850600E+03  0.00000000000E+00 0.  1.
         11    1    4    4    0    0  0.40867063566E+02  0.20823546377E+02  0.32418262334E+02  0.56166544321E+02  0.00000000000E+00 0. -1.
</event>
<event>
 8    1  0.6832629E-009  0.1387339E+03  0.7561462E-02  0.1215043E+00
         -2   -1    0    0    0  501 -0.00000000000E+00  0.00000000000E+00  0.17372419888E+03  0.17372419888E+03  0.00000000000E+00 0.  1.
          2   -1    0    0  501    0  0.00000000000E+00 -0.00000000000E+00 -0.12857178514E+03  0.12857178514E+03  0.00000000000E+00 0. -1.
         25    2    1    2    0    0 -0.65185890660E+02  0.60816601733E+02 -0.26663269023E+02  0.15590411864E+03  0.12508918781E+03 0.  0.
         23    2    1    2    0    0  0.65185890660E+02 -0.60816601733E+02  0.71815682768E+02  0.14639186538E+03  0.91242679540E+02 0.  0.
          5    1    3    3  502    0 -0.15203498002E+02  0.92790059999E+02 -0.15680308560E+02  0.95417430601E+02  0.41800000000E+01 0. -1.
         -5    1    3    3    0  502 -0.49982392658E+02 -0.31973458265E+02 -0.10982960462E+02  0.60486688038E+02  0.41800000000E+01 0. -1.
        -11    1    4    4    0    0  0.15652190794E+02 -0.71500504814E+02  0.24838221876E+02  0.77293276106E+02  0.00000000000E+00 0. -1.
         11    1    4    4    0    0  0.49533699865E+02  0.10683903080E+02  0.46977460892E+02  0.69098589271E+02  0.00000000000E+00 0.  1.
</event>
<event>
 8    1  0.6832629E-009  0.1326390E+03  0.7561462E-02  0.1223592E+00
         -2   -1    0    0    0  501 -0.00000000000E+00  0.00000000000E+00  0.61852248275E+02  0.61852248275E+02  0.00000000000E+00 0.  1.
          2   -1    0    0  501    0  0.00000000000E+00 -0.00000000000E+00 -0.30277638175E+03  0.30277638175E+03  0.00000000000E+00 0. -1.
         25    2    1    2    0    0  0.79770196777E+02 -0.26073910132E+02 -0.12007332110E+03  0.19263653034E+03  0.12509235508E+03 0.  0.
         23    2    1    2    0    0 -0.79770196777E+02  0.26073910132E+02 -0.12085081238E+03  0.17199209968E+03  0.89068683710E+02 0.  0.
          5    1    3    3  502    0  0.11293571229E+03 -0.10016077843E+02 -0.87502430180E+02  0.14327925395E+03  0.41800000000E+01 0. -1.
         -5    1    3    3    0  502 -0.33165515515E+02 -0.16057832289E+02 -0.32570890917E+02  0.49357276387E+02  0.41800000000E+01 0. -1.
        -11    1    4    4    0    0 -0.72984434537E+02  0.50912914107E+02 -0.64093127380E+02  0.10966668357E+03  0.00000000000E+00 0.  1.
         11    1    4    4    0    0 -0.67857622398E+01 -0.24839003975E+02 -0.56757684997E+02  0.62325416114E+02  0.00000000000E+00 0. -1.
</event>
<event>
 8    1  0.6832629E-009  0.8950610E+02  0.7561462E-02  0.1304052E+00
          1   -1    0    0  501    0  0.00000000000E+00  0.00000000000E+00  0.21594573109E+02  0.21594573109E+02  0.00000000000E+00 0. -1.
         -1   -1    0    0    0  501 -0.00000000000E+00 -0.00000000000E+00 -0.74717536699E+03  0.74717536699E+03  0.00000000000E+00 0.  1.
         25    2    1    2    0    0  0.34536073350E+02 -0.39189901570E+02 -0.55581785728E+03  0.57211072911E+03  0.12509439294E+03 0.  0.
         23    2    1    2    0    0 -0.34536073350E+02  0.39189901570E+02 -0.16976293660E+03  0.19665921099E+03  0.84420387792E+02 0.  0.
          5    1    3    3  502    0 -0.25803610302E+02 -0.47360490204E+02 -0.41665699145E+03  0.42015397566E+03  0.41800000000E+01 0.  1.
         -5    1    3    3    0  502  0.60339683652E+02  0.81705886335E+01 -0.13916086583E+03  0.15195675346E+03  0.41800000000E+01 0.  1.
        -11    1    4    4    0    0 -0.41728018749E+02  0.26911193335E+02 -0.17468291297E+03  0.18160275317E+03  0.00000000000E+00 0.  1.
         11    1    4    4    0    0  0.71919453988E+01  0.12278708235E+02  0.49199763675E+01  0.15056457817E+02  0.00000000000E+00 0. -1.
</event>
<event>
 8    1  0.6832629E-009  0.9683418E+02  0.7561462E-02  0.1287098E+00
          1   -1    0    0  501    0  0.00000000000E+00  0.00000000000E+00  0.24945584511E+03  0.24945584511E+03  0.00000000000E+00 0. -1.
         -1   -1    0    0    0  501 -0.00000000000E+00 -0.00000000000E+00 -0.74499955203E+02  0.74499955203E+02  0.00000000000E+00 0.  1.
         25    2    1    2    0    0 -0.22481909243E+02 -0.67483585993E+02  0.51121889368E+02  0.15271124046E+03  0.12509118581E+03 0.  0.
         23    2    1    2    0    0  0.22481909243E+02  0.67483585993E+02  0.12383400054E+03  0.17124455985E+03  0.94500629459E+02 0.  0.
          5    1    3    3  502    0 -0.44000655421E+02 -0.84076551835E+02  0.36528745664E+00  0.94986999536E+02  0.41800000000E+01 0. -1.
         -5    1    3    3    0  502  0.21518746178E+02  0.16592965842E+02  0.50756601912E+02  0.57724240923E+02  0.41800000000E+01 0. -1.
        -11    1    4    4    0    0  0.88513639522E+01  0.22228234208E+02 -0.12468839438E+02  0.26979862800E+02  0.00000000000E+00 0.  1.
         11    1    4    4    0    0  0.13630545291E+02  0.45255351786E+02  0.13630283997E+03  0.14426469705E+03  0.00000000000E+00 0. -1.
</event>
<event>
 8    1  0.6832629E-009  0.1275872E+03  0.7561462E-02  0.1231080E+00
          2   -1    0    0  501    0  0.00000000000E+00  0.00000000000E+00  0.44257082897E+03  0.44257082897E+03  0.00000000000E+00 0. -1.
         -2   -1    0    0    0  501 -0.00000000000E+00 -0.00000000000E+00 -0.63907555594E+02  0.63907555594E+02  0.00000000000E+00 0.  1.
         25    2    1    2    0    0 -0.10489163153E+03 -0.16418510738E+02  0.93693548931E+02  0.18894073757E+03  0.12509316265E+03 0.  0.
         23    2    1    2    0    0  0.10489163153E+03  0.16418510738E+02  0.28496972445E+03  0.31753764699E+03  0.91381571161E+02 0.  0.
          5    1    3    3  502    0  0.15440037568E+02 -0.35257029733E+01  0.61496973625E+02  0.63640989201E+02  0.41800000000E+01 0.  1.
         -5    1    3    3    0  502 -0.12033166910E+03 -0.12892807765E+02  0.32196575306E+02  0.12529974837E+03  0.41800000000E+01 0.  1.
        -11    1    4    4    0    0  0.29035428648E+02  0.28737360033E+02  0.28524765388E+02  0.49825236767E+02  0.00000000000E+00 0.  1.
         11    1    4    4    0    0  0.75856202882E+02 -0.12318849294E+02  0.25644495906E+03  0.26771241023E+03  0.00000000000E+00 0. -1.
</event>
<event>
 8    1  0.6832629E-009  0.7127988E+02  0.7561462E-02  0.1355794E+00
         -2   -1    0    0    0  501 -0.00000000000E+00  0.00000000000E+00  0.39621927109E+02  0.39621927109E+02  0.00000000000E+00 0.  1.
          2   -1    0    0  501    0  0.00000000000E+00 -0.00000000000E+00 -0.45427051174E+03  0.45427051174E+03  0.00000000000E+00 0. -1.
         25    2    1    2    0    0  0.65090876317E+01 -0.51402069298E+02 -0.33930796433E+03  0.36532533208E+03  0.12509261631E+03 0.  0.
         23    2    1    2    0    0 -0.65090876317E+01  0.51402069298E+02 -0.75340620299E+02  0.12856710676E+03  0.90381142525E+02 0.  0.
          5    1    3    3  502    0 -0.18428114427E+02 -0.37201392999E+02 -0.33305552426E+03  0.33565904380E+03  0.41800000000E+01 0.  1.
         -5    1    3    3    0  502  0.24937202058E+02 -0.14200676299E+02 -0.62524400669E+01  0.29666288285E+02  0.41800000000E+01 0.  1.
        -11    1    4    4    0    0 -0.24590868927E+02  0.47274059062E+02 -0.24390020921E+01  0.53343192874E+02  0.00000000000E+00 0.  1.
         11    1    4    4    0    0  0.18081781296E+02  0.41280102356E+01 -0.72901618207E+02  0.75223913888E+02  0.00000000000E+00 0. -1.
</event>
<event>
 8    1  0.6832629E-009  0.1371249E+03  0.7561462E-02  0.1217251E+00
         -1   -1    0    0    0  501 -0.00000000000E+00  0.00000000000E+00  0.52636660550E+02  0.52636660550E+02  0.00000000000E+00 0.  1.
          1   -1    0    0  501    0  0.00000000000E+00 -0.00000000000E+00 -0.49242536526E+03  0.49242536526E+03  0.00000000000E+00 0. -1.
         25    2    1    2    0    0 -0.97562001883E+02  0.47026043714E+02 -0.15283570755E+03  0.22524719841E+03  0.12509098246E+03 0.  0.
         23    2    1    2    0    0  0.97562001883E+02 -0.47026043714E+02 -0.28695299716E+03  0.31981482739E+03  0.90607440320E+02 0.  0.
          5    1    3    3  502    0 -0.11895818063E+02  0.70032857444E+02 -0.39902521311E+02  0.81583057164E+02  0.41800000000E+01 0.  1.
         -5    1    3    3    0  502 -0.85666183819E+02 -0.23006813730E+02 -0.11293318623E+03  0.14366414125E+03  0.41800000000E+01 0.  1.
        -11    1    4    4    0    0  0.77074408786E+02 -0.18662428700E+02 -0.26908548681E+03  0.28052762777E+03  0.00000000000E+00 0. -1.
         11    1    4    4    0    0  0.20487593097E+02 -0.28363615014E+02 -0.17867510355E+02  0.39287199618E+02  0.00000000000E+00 0.  1.
</event>
<event>
 8    1  0.6832629E-009  0.1236517E+03  0.7561462E-02  0.1237192E+00
         -2   -1    0    0    0  501 -0.00000000000E+00  0.00000000000E+00  0.77988985493E+02  0.77988985493E+02  0.00000000000E+00 0.  1.
          2   -1    0    0  501    0  0.00000000000E+00 -0.00000000000E+00 -0.27593295114E+03  0.27593295114E+03  0.00000000000E+00 0. -1.
         25    2    1    2    0    0 -0.33920481882E+02 -0.49122794350E+02 -0.13995071061E+02  0.13930890160E+03  0.12508980788E+03 0.  0.
         23    2    1    2    0    0  0.33920481882E+02  0.49122794350E+02 -0.18394889458E+03  0.21461303503E+03  0.93047896108E+02 0.  0.
          5    1    3    3  502    0 -0.73615941314E+02 -0.61686703941E+02 -0.36560362583E+01  0.96204964840E+02  0.41800000000E+01 0.  1.
         -5    1    3    3    0  502  0.39695459433E+02  0.12563909591E+02 -0.10339034803E+02  0.43103936763E+02  0.41800000000E+01 0.  1.
        -11    1    4    4    0    0  0.14874310842E+02  0.75408642381E+02 -0.11389258030E+03  0.13740170420E+03  0.00000000000E+00 0.  1.
         11    1    4    4    0    0  0.19046171040E+02 -0.26285848031E+02 -0.70056314283E+02  0.77211330833E+02  0.00000000000E+00 0. -1.
</event>
<event>
 8    1  0.6832629E-009  0.1217926E+03  0.7561462E-02  0.1240169E+00
         -1   -1    0    0    0  501 -0.00000000000E+00  0.00000000000E+00  0.13867670457E+02  0.13867670457E+02  0.00000000000E+00 0.  1.
          1   -1    0    0  501    0  0.00000000000E+00 -0.00000000000E+00 -0.17010998064E+04  0.17010998064E+04  0.00000000000E+00 0. -1.
         25    2    1    2    0    0  0.10633842369E+03  0.21066174362E+02 -0.10270642398E+04  0.10403171274E+04  0.12508848447E+03 0.  0.
         23    2    1    2    0    0 -0.10633842369E+03 -0.21066174362E+02 -0.66016789620E+03  0.67465034945E+03  0.87062039911E+02 0.  0.
          5    1    3    3  502    0  0.13922737481E+02 -0.10807177915E+02 -0.14956330741E+02  0.23490464932E+02  0.41800000000E+01 0.  1.
         -5    1    3    3    0  502  0.92415686207E+02  0.31873352277E+02 -0.10121079090E+04  0.10168266625E+04  0.41800000000E+01 0.  1.
        -11    1    4    4    0    0 -0.10004309979E+03  0.56246482971E+01 -0.60272453096E+03  0.61099682381E+03  0.00000000000E+00 0. -1.
         11    1    4    4    0    0 -0.62953239024E+01 -0.26690822659E+02 -0.57443365237E+02  0.63653525645E+02  0.00000000000E+00 0.  1.
</event>
<event>
 8    1  0.6832629E-009  0.1575003E+03  0.7561462E-02  0.1191548E+00
         -1   -1    0    0    0  501 -0.00000000000E+00  0.00000000000E+00  0.22854065655E+02  0.22854065655E+02  0.00000000000E+00 0.  1.
          1   -1    0    0  501    0  0.00000000000E+00 -0.00000000000E+00 -0.25441122403E+04  0.25441122403E+04  0.00000000000E+00 0. -1.
         25    2    1    2    0    0 -0.11942743611E+03 -0.80127634954E+02 -0.21354413678E+04  0.21439309758E+04  0.12508734309E+03 0.  0.
         23    2    1    2    0    0  0.11942743611E+03  0.80127634954E+02 -0.38581680686E+03  0.42303533015E+03  0.97061484218E+02 0.  0.
          5    1    3    3  502    0 -0.73575693752E+02 -0.38803542341E+02 -0.46873352228E+03  0.47607529332E+03  0.41800000000E+01 0.  1.
         -5    1    3    3    0  502 -0.45851742355E+02 -0.41324092613E+02 -0.16667078455E+04  0.16678556825E+04  0.41800000000E+01 0.  1.
        -11    1    4    4    0    0  0.45843634106E+02  0.84499100754E+02 -0.26015443794E+03  0.27734827996E+03  0.00000000000E+00 0. -1.
         11    1    4    4    0    0  0.73583802000E+02 -0.43714657999E+01 -0.12566236892E+03  0.14568705019E+03  0.00000000000E+00 0.  1.
</event>
<event>
 8    1  0.6832629E-009  0.1393021E+03  0.7561462E-02  0.1214271E+00
         -1   -1    0    0    0  501 -0.00000000000E+00  0.00000000000E+00  0.19963200097E+02  0.19963200097E+02  0.00000000000E+00 0.  1.
          1   -1    0    0  501    0  0.00000000000E+00 -0.00000000000E+00 -0.10184657759E+04  0.10184657759E+04  0.00000000000E+00 0. -1.
         25    2    1    2    0    0  0.13551870319E+02  0.94428075799E+02 -0.50766116285E+03  0.53147608289E+03  0.12508659294E+03 0.  0.
         23    2    1    2    0    0 -0.13551870319E+02 -0.94428075799E+02 -0.49084141295E+03  0.50695289310E+03  0.83520227894E+02 0.  0.
          5    1    3    3  502    0 -0.40073656359E+02 -0.37460893726E+01 -0.20073346246E+03  0.20477140052E+03  0.41800000000E+01 0.  1.
         -5    1    3    3    0  502  0.53625526678E+02  0.98174165172E+02 -0.30692770039E+03  0.32670468237E+03  0.41800000000E+01 0.  1.
        -11    1    4    4    0    0  0.35061527775E+02 -0.37575408238E+02 -0.17621136250E+03  0.18355289784E+03  0.00000000000E+00 0.  1.
         11    1    4    4    0    0 -0.48613398094E+02 -0.56852667561E+02 -0.31463005045E+03  0.32339999525E+03  0.00000000000E+00 0. -1.
</event>
<event>
 8    1  0.6832629E-009  0.1030213E+03  0.7561462E-02  0.1274068E+00
         -1   -1    0    0    0  501 -0.00000000000E+00  0.00000000000E+00  0.50887381997E+03  0.50887381997E+03  0.00000000000E+00 0.  1.
          1   -1    0    0  501    0  0.00000000000E+00 -0.00000000000E+00 -0.27621474634E+02  0.27621474634E+02  0.00000000000E+00 0. -1.
         25    2    1    2    0    0  0.15751845681E+02  0.27812618764E+02  0.35182682878E+03  0.37476658793E+03  0.12508483350E+03 0.  0.
         23    2    1    2    0    0 -0.15751845681E+02 -0.27812618764E+02  0.12942551656E+03  0.16172870668E+03  0.91561715923E+02 0.  0.
          5    1    3    3  502    0  0.65059632439E+02  0.14534429887E+02  0.27067338177E+03  0.27879303690E+03  0.41800000000E+01 0. -1.
         -5    1    3    3    0  502 -0.49307786758E+02  0.13278188877E+02  0.81153447007E+02  0.95973551023E+02  0.41800000000E+01 0. -1.
        -11    1    4    4    0    0  0.33197483238E+02 -0.35682007537E+01  0.84989913040E+02  0.91313144007E+02  0.00000000000E+00 0.  1.
         11    1    4    4    0    0 -0.48949328919E+02 -0.24244418010E+02  0.44435603516E+02  0.70415562670E+02  0.00000000000E+00 0. -1.
</event>
<event>
 8    1  0.6832629E-009  0.1896583E+03  0.7561462E-02  0.1158770E+00
         -3   -1    0    0    0  501 -0.00000000000E+00  0.00000000000E+00  0.22486590955E+03  0.22486590955E+03  0.00000000000E+00 0.  1.
          3   -1    0    0  501    0  0.00000000000E+00 -0.00000000000E+00 -0.18695735166E+03  0.18695735166E+03  0.00000000000E+00 0. -1.
         25    2    1    2    0    0  0.16117724835E+03 -0.54471910281E+02  0.55249715627E+02  0.21827726782E+03  0.12508852934E+03 0.  0.
         23    2    1    2    0    0 -0.16117724835E+03  0.54471910281E+02 -0.17341157733E+02  0.19354599340E+03  0.90631348949E+02 0.  0.
          5    1    3    3  502    0  0.49016988700E+02 -0.69416728249E+02  0.61335677603E+02  0.10488510423E+03  0.41800000000E+01 0.  1.
         -5    1    3    3    0  502  0.11216025965E+03  0.14944817969E+02 -0.60859619765E+01  0.11339216359E+03  0.41800000000E+01 0.  1.
        -11    1    4    4    0    0 -0.10422576169E+03  0.30422495545E+01  0.23110090878E+02  0.10680047277E+03  0.00000000000E+00 0.  1.
         11    1    4    4    0    0 -0.56951486660E+02  0.51429660726E+02 -0.40451248611E+02  0.86745520630E+02  0.00000000000E+00 0. -1.
</event>
<event>
 8    1  0.6832629E-009  0.1374288E+03  0.7561462E-02  0.1216831E+00
         -2   -1    0    0    0  501 -0.00000000000E+00  0.00000000000E+00  0.40830079194E+03  0.40830079194E+03  0.00000000000E+00 0.  1.
          2   -1    0    0  501    0  0.00000000000E+00 -0.00000000000E+00 -0.73243807320E+02  0.73243807320E+02  0.00000000000E+00 0. -1.
         25    2    1    2    0    0 -0.97853636297E+02  0.82204071035E+02  0.23249533118E+03  0.29331653552E+03  0.12509063736E+03 0.  0.
         23    2    1    2    0    0  0.97853636297E+02 -0.82204071035E+02  0.10256165344E+03  0.18822806374E+03  0.92617858931E+02 0.  0.
          5    1    3    3  502    0 -0.92288465550E+02  0.81569100115E+02  0.24765432867E+03  0.27662396476E+03  0.41800000000E+01 0.  1.
         -5    1    3    3    0  502 -0.55651707472E+01  0.63497092000E+00 -0.15158997494E+02  0.16692570759E+02  0.41800000000E+01 0.  1.
        -11    1    4    4    0    0  0.69079710593E+02 -0.13835707816E+02  0.87843875390E+02  0.11260541581E+03  0.00000000000E+00 0.  1.
         11    1    4    4    0    0  0.28773925705E+02 -0.68368363219E+02  0.14717778051E+02  0.75622647934E+02  0.00000000000E+00 0. -1.
</event>
<event>
 8    1  0.6832629E-009  0.1129277E+03  0.7561462E-02  0.1255242E+00
         -2   -1    0    0    0  501 -0.00000000000E+00  0.00000000000E+00  0.50996144112E+02  0.50996144112E+02  0.00000000000E+00 0.  1.
          2   -1    0    0  501    0  0.00000000000E+00 -0.00000000000E+00 -0.32593223909E+03  0.32593223909E+03  0.00000000000E+00 0. -1.
         25    2    1    2    0    0 -0.55807955795E+01  0.66228908978E+02 -0.12880672791E+03  0.19145881903E+03  0.12509153674E+03 0.  0.
         23    2    1    2    0    0  0.55807955795E+01 -0.66228908978E+02 -0.14612936707E+03  0.18546956418E+03  0.92885702088E+02 0.  0.
          5    1    3    3  502    0 -0.59547781533E+02  0.58643452740E+02 -0.97438842160E+02  0.12843984271E+03  0.41800000000E+01 0.  1.
         -5    1    3    3    0  502  0.53966985953E+02  0.75854562383E+01 -0.31367885749E+02  0.63018976313E+02  0.41800000000E+01 0.  1.
        -11    1    4    4    0    0  0.24507860865E+02 -0.72231640437E+01 -0.11169051841E+03  0.11457565730E+03  0.00000000000E+00 0. -1.
         11    1    4    4    0    0 -0.18927065285E+02 -0.59005744934E+02 -0.34438848663E+02  0.70893906881E+02  0.00000000000E+00 0.  1.
</event>
<event>
 8    1  0.6832629E-009  0.2047757E+03  0.7561462E-02  0.1145771E+00
          1   -1    0    0  501    0  0.00000000000E+00  0.00000000000E+00  0.96449820475E+03  0.96449820475E+03  0.00000000000E+00 0. -1.
         -1   -1    0    0    0  501 -0.00000000000E+00 -0.00000000000E+00 -0.50997511125E+02  0.50997511125E+02  0.00000000000E+00 0.  1.
         25    2    1    2    0    0  0.16247094255E+03 -0.67787497324E+02  0.65645320295E+03  0.69106492373E+03  0.12509184298E+03 0.  0.
         23    2    1    2    0    0 -0.16247094255E+03  0.67787497324E+02  0.25704749068E+03  0.32443079214E+03  0.90498477677E+02 0.  0.
          5    1    3    3  502    0  0.49976453500E+02 -0.85716182649E+02  0.36015204721E+03  0.37359320040E+03  0.41800000000E+01 0. -1.
         -5    1    3    3    0  502  0.11249448905E+03  0.17928685325E+02  0.29630115574E+03  0.31747172333E+03  0.41800000000E+01 0. -1.
        -11    1    4    4    0    0 -0.18479238253E+02  0.47334732188E+02  0.49014708938E+02  0.70600997230E+02  0.00000000000E+00 0.  1.
         11    1    4    4    0    0 -0.14399170430E+03  0.20452765137E+02  0.20803278174E+03  0.25382979491E+03  0.00000000000E+00 0. -1.
</event>
<event>
 8    1  0.6832629E-009  0.1347615E+03  0.7561462E-02  0.1220557E+00
          2   -1    0    0  501    0  0.00000000000E+00  0.00000000000E+00  0.12577219111E+04  0.12577219111E+04  0.00000000000E+00 0. -1.
         -2   -1    0    0    0  501 -0.00000000000E+00 -0.00000000000E+00 -0.18321292984E+02  0.18321292984E+02  0.00000000000E+00 0.  1.
         25    2    1    2    0    0 -0.74544962501E+02 -0.70891207647E+02  0.71216652928E+03  0.73034985362E+03  0.12508888240E+03 0.  0.
         23    2    1    2    0    0  0.74544962501E+02  0.70891207647E+02  0.52723408880E+03  0.54569335043E+03  0.96036105465E+02 0.  0.
          5    1    3    3  502    0  0.20269586767E+02 -0.33629083864E+02  0.72023841026E+02  0.82138161079E+02  0.41800000000E+01 0.  1.
         -5    1    3    3    0  502 -0.94814549268E+02 -0.37262123784E+02  0.64014268825E+03  0.64821169254E+03  0.41800000000E+01 0.  1.
        -11    1    4    4    0    0  0.64423811866E+02  0.86317860284E+01  0.37996512660E+03  0.38548467246E+03  0.00000000000E+00 0. -1.
         11    1    4    4    0    0  0.10121150635E+02  0.62259421619E+02  0.14726896220E+03  0.16020867797E+03  0.00000000000E+00 0.  1.
</event>
<event>
 8    1  0.6832629E-009  0.1154360E+03  0.7561462E-02  0.1250822E+00
          2   -1    0    0  501    0  0.00000000000E+00  0.00000000000E+00  0.11105350471E+03  0.11105350471E+03  0.00000000000E+00 0.  1.
         -2   -1    0    0    0  501 -0.00000000000E+00 -0.00000000000E+00 -0.15194508996E+03  0.15194508996E+03  0.00000000000E+00 0. -1.
         25    2    1    2    0    0  0.53626809723E+02  0.41463790194E+01  0.18854216072E+02  0.13746583163E+03  0.12509335003E+03 0.  0.
         23    2    1    2    0    0 -0.53626809723E+02 -0.41463790194E+01 -0.59745801322E+02  0.12553276304E+03  0.96415178475E+02 0.  0.
          5    1    3    3  502    0  0.42484264410E+02 -0.50939705401E+02 -0.19537778623E+02  0.69274551621E+02  0.41800000000E+01 0.  1.
         -5    1    3    3    0  502  0.11142545312E+02  0.55086084420E+02  0.38391994695E+02  0.68191280010E+02  0.41800000000E+01 0.  1.
        -11    1    4    4    0    0 -0.75477605808E+02 -0.23303548627E+02 -0.54586545983E+02  0.96018828150E+02  0.00000000000E+00 0. -1.
         11    1    4    4    0    0  0.21850796085E+02  0.19157169607E+02 -0.51592553391E+01  0.29513934888E+02  0.00000000000E+00 0.  1.
</event>
<event>
 8    1  0.6832629E-009  0.9868441E+02  0.7561462E-02  0.1283087E+00
          2   -1    0    0  501    0  0.00000000000E+00  0.00000000000E+00  0.70263670471E+03  0.70263670471E+03  0.00000000000E+00 0. -1.
         -2   -1    0    0    0  501 -0.00000000000E+00 -0.00000000000E+00 -0.17189537983E+02  0.17189537983E+02  0.00000000000E+00 0.  1.
         25    2    1    2    0    0 -0.17071166262E+02  0.14195936907E+02  0.36798656317E+03  0.38930305805E+03  0.12509920462E+03 0.  0.
         23    2    1    2    0    0  0.17071166262E+02 -0.14195936907E+02  0.31746060356E+03  0.33052318464E+03  0.89282649098E+02 0.  0.
          5    1    3    3  502    0 -0.57268686441E+02  0.26842779643E+02  0.31579194417E+03  0.32209045572E+03  0.41800000000E+01 0.  1.
         -5    1    3    3    0  502  0.40197520179E+02 -0.12646842736E+02  0.52194619000E+02  0.67212602332E+02  0.41800000000E+01 0.  1.
        -11    1    4    4    0    0 -0.30433641088E+02  0.16946511563E+02  0.10669123520E+03  0.11223373126E+03  0.00000000000E+00 0.  1.
         11    1    4    4    0    0  0.47504807351E+02 -0.31142448470E+02  0.21076936836E+03  0.21828945338E+03  0.00000000000E+00 0. -1.
</event>
<event>
 8    1  0.6832629E-009  0.1151015E+03  0.7561462E-02  0.1251404E+00
          2   -1    0    0  501    0  0.00000000000E+00  0.00000000000E+00  0.26394531086E+03  0.26394531086E+03  0.00000000000E+00 0. -1.
         -2   -1    0    0    0  501 -0.00000000000E+00 -0.00000000000E+00 -0.59441070299E+02  0.59441070299E+02  0.00000000000E+00 0.  1.
         25    2    1    2    0    0  0.14514866412E+02  0.47160662404E+02  0.16467123091E+03  0.21260016995E+03  0.12508960207E+03 0.  0.
         23    2    1    2    0    0 -0.14514866412E+02 -0.47160662404E+02  0.39833009650E+02  0.11078621121E+03  0.90841105849E+02 0.  0.
          5    1    3    3  502    0 -0.36183889484E+02 -0.24813783832E+02  0.74142457195E+02  0.86252965660E+02  0.41800000000E+01 0.  1.
         -5    1    3    3    0  502  0.50698755896E+02  0.71974446236E+02  0.90528773715E+02  0.12634720429E+03  0.41800000000E+01 0.  1.
        -11    1    4    4    0    0 -0.45566203682E+02 -0.48967262746E+02  0.43005922030E+02  0.79520947356E+02  0.00000000000E+00 0. -1.
         11    1    4    4    0    0  0.31051337270E+02  0.18066003424E+01 -0.31729123800E+01  0.31265263856E+02  0.00000000000E+00 0.  1.
</event>
<event>
 8    1  0.6832629E-009  0.1994791E+03  0.7561462E-02  0.1150179E+00
          2   -1    0    0  501    0  0.00000000000E+00  0.00000000000E+00  0.87418297009E+02  0.87418297009E+02  0.00000000000E+00 0. -1.
         -2   -1    0    0    0  501 -0.00000000000E+00 -0.00000000000E+00 -0.77765221561E+03  0.77765221561E+03  0.00000000000E+00 0.  1.
         25    2    1    2    0    0 -0.13797129360E+03  0.13452714260E+03 -0.12662554945E+03  0.26232948479E+03  0.12509635831E+03 0.  0.
         23    2    1    2    0    0  0.13797129360E+03 -0.13452714260E+03 -0.56360836915E+03  0.60274102782E+03  0.92242738959E+02 0.  0.
          5    1    3    3  502    0 -0.12954352767E+03  0.12830278887E+03 -0.55956997663E+02  0.19076632088E+03  0.41800000000E+01 0.  1.
         -5    1    3    3    0  502 -0.84277659316E+01  0.62243537367E+01 -0.70668551788E+02  0.71563163917E+02  0.41800000000E+01 0.  1.
        -11    1    4    4    0    0  0.48627517265E+02 -0.96785783004E+02 -0.37941509548E+03  0.39457310844E+03  0.00000000000E+00 0.  1.
         11    1    4    4    0    0  0.89343776340E+02 -0.37741359601E+02 -0.18419327367E+03  0.20816791939E+03  0.00000000000E+00 0. -1.
</event>
<event>
 8    1  0.6832629E-009  0.8639581E+02  0.7561462E-02  0.1311822E+00
         -4   -1    0    0    0  501 -0.00000000000E+00  0.00000000000E+00  0.25008273611E+03  0.25008273611E+03  0.00000000000E+00 0.  1.
          4   -1    0    0  501    0  0.00000000000E+00 -0.00000000000E+00 -0.52449824325E+02  0.52449824325E+02  0.00000000000E+00 0. -1.
         25    2    1    2    0    0 -0.21178579946E+02 -0.82943497953E+01  0.15418242637E+03  0.19984339846E+03  0.12509130593E+03 0.  0.
         23    2    1    2    0    0  0.21178579946E+02  0.82943497953E+01  0.43450485412E+02  0.10268916197E+03  0.90220789273E+02 0.  0.
          5    1    3    3  502    0 -0.50260152738E+02 -0.20875414539E+01  0.16127373681E+03  0.16898855395E+03  0.41800000000E+01 0.  1.
         -5    1    3    3    0  502  0.29081572792E+02 -0.62068083414E+01 -0.70913104379E+01  0.30854844507E+02  0.41800000000E+01 0.  1.
        -11    1    4    4    0    0  0.50683777385E+02  0.26924272715E+02  0.20589798458E+02  0.60972957545E+02  0.00000000000E+00 0.  1.
         11    1    4    4    0    0 -0.29505197438E+02 -0.18629922920E+02  0.22860686954E+02  0.41716204428E+02  0.00000000000E+00 0. -1.
</event>
<event>
 8    1  0.6832629E-009  0.1138064E+03  0.7561462E-02  0.1253679E+00
         -3   -1    0    0    0  501 -0.00000000000E+00  0.00000000000E+00  0.40548242753E+03  0.40548242753E+03  0.00000000000E+00 0.  1.
          3   -1    0    0  501    0  0.00000000000E+00 -0.00000000000E+00 -0.32819313511E+02  0.32819313511E+02  0.00000000000E+00 0. -1.
         25    2    1    2    0    0  0.24231701605E+02  0.29021611513E+02  0.18906823044E+03  0.22983318801E+03  0.12508824586E+03 0.  0.
         23    2    1    2    0    0 -0.24231701605E+02 -0.29021611513E+02  0.18359488358E+03  0.20846855304E+03  0.91228433228E+02 0.  0.
          5    1    3    3  502    0 -0.49797831836E+02 -0.16252639027E+01  0.63506316688E+02  0.80826915057E+02  0.41800000000E+01 0.  1.
         -5    1    3    3    0  502  0.74029533442E+02  0.30646875416E+02  0.12556191375E+03  0.14900627295E+03  0.41800000000E+01 0.  1.
        -11    1    4    4    0    0 -0.39323946456E+02 -0.54836517086E+02  0.11023836496E+03  0.12925135775E+03  0.00000000000E+00 0.  1.
         11    1    4    4    0    0  0.15092244851E+02  0.25814905573E+02  0.73356518629E+02  0.79217195291E+02  0.00000000000E+00 0. -1.
</event>
<event>
 8    1  0.6832629E-009  0.9413511E+02  0.7561462E-02  0.1293136E+00
          4   -1    0    0  501    0  0.00000000000E+00  0.00000000000E+00  0.88951797697E+02  0.88951797697E+02  0.00000000000E+00 0.  1.
         -4   -1    0    0    0  501 -0.00000000000E+00 -0.00000000000E+00 -0.16005974895E+03  0.16005974895E+03  0.00000000000E+00 0. -1.
         25    2    1    2    0    0 -0.62562981106E+01 -0.43339408706E+02 -0.90084263511E+01  0.13283961847E+03  0.12509103435E+03 0.  0.
         23    2    1    2    0    0  0.62562981106E+01  0.43339408706E+02 -0.62099524906E+02  0.11617192819E+03  0.87875595541E+02 0.  0.
          5    1    3    3  502    0  0.13131746490E+02 -0.84018163785E+02  0.54900043140E+01  0.85317683741E+02  0.41800000000E+01 0. -1.
         -5    1    3    3    0  502 -0.19388044600E+02  0.40678755078E+02 -0.14498430665E+02  0.47521934724E+02  0.41800000000E+01 0. -1.
        -11    1    4    4    0    0  0.21856766749E+02  0.18986145750E+02 -0.77977418676E+02  0.83178541743E+02  0.00000000000E+00 0. -1.
         11    1    4    4    0    0 -0.15600468638E+02  0.24353262957E+02  0.15877893770E+02  0.32993386442E+02  0.00000000000E+00 0.  1.
</event>
<event>
 8    1  0.6832629E-009  0.2053610E+03  0.7561462E-02  0.1145293E+00
          2   -1    0    0  501    0  0.00000000000E+00  0.00000000000E+00  0.46676541686E+03  0.46676541686E+03  0.00000000000E+00 0. -1.
         -2   -1    0    0    0  501 -0.00000000000E+00 -0.00000000000E+00 -0.11057578176E+03  0.11057578176E+03  0.00000000000E+00 0.  1.
         25    2    1    2    0    0 -0.18135846424E+03 -0.76325597988E+02  0.23481439736E+03  0.33091061634E+03  0.12509014885E+03 0.  0.
         23    2    1    2    0    0  0.18135846424E+03  0.76325597988E+02  0.12137523774E+03  0.24643058229E+03  0.85320537350E+02 0.  0.
          5    1    3    3  502    0 -0.16228645236E+03 -0.48537519402E+02  0.11109321426E+03  0.20261282798E+03  0.41800000000E+01 0.  1.
         -5    1    3    3    0  502 -0.19072011876E+02 -0.27788078586E+02  0.12372118310E+03  0.12829778835E+03  0.41800000000E+01 0.  1.
        -11    1    4    4    0    0  0.32406777460E+02  0.44426765737E+02  0.59528654236E+01  0.55311602272E+02  0.00000000000E+00 0.  1.
         11    1    4    4    0    0  0.14895168678E+03  0.31898832251E+02  0.11542237231E+03  0.19111898002E+03  0.00000000000E+00 0. -1.
</event>
<event>
 8    1  0.6832629E-009  0.1137353E+03  0.7561462E-02  0.1253805E+00
          2   -1    0    0  501    0  0.00000000000E+00  0.00000000000E+00  0.44523605390E+03  0.44523605390E+03  0.00000000000E+00 0. -1.
         -2   -1    0    0    0  501 -0.00000000000E+00 -0.00000000000E+00 -0.56948114528E+02  0.56948114528E+02  0.00000000000E+00 0.  1.
         25    2    1    2    0    0  0.17762019486E+02  0.32726090597E+02  0.37391129641E+03  0.39603357788E+03  0.12508577409E+03 0.  0.
         23    2    1    2    0    0 -0.17762019486E+02 -0.32726090597E+02  0.14376642956E+02  0.10615059055E+03  0.98360427351E+02 0.  0.
          5    1    3    3  502    0  0.65105121369E+02  0.44983237538E+02  0.19434392149E+03  0.20987901445E+03  0.41800000000E+01 0.  1.
         -5    1    3    3    0  502 -0.47343101883E+02 -0.12257146942E+02  0.17956737493E+03  0.18615456343E+03  0.41800000000E+01 0.  1.
        -11    1    4    4    0    0 -0.23286252215E+02 -0.63626445159E+02 -0.70875718335E+01  0.68123474223E+02  0.00000000000E+00 0.  1.
         11    1    4    4    0    0  0.55242327283E+01  0.30900354562E+02  0.21464214790E+02  0.38027116323E+02  0.00000000000E+00 0. -1.
</event>
<event>
 8    1  0.6832629E-009  0.1393671E+03  0.7561462E-02  0.1214183E+00
         -2   -1    0    0    0  501 -0.00000000000E+00  0.00000000000E+00  0.83635130422E+02  0.83635130422E+02  0.00000000000E+00 0. -1.
          2   -1    0    0  501    0  0.00000000000E+00 -0.00000000000E+00 -0.27531574845E+03  0.27531574845E+03  0.00000000000E+00 0.  1.
         25    2    1    2    0    0 -0.55108461266E+02  0.91171781261E+02 -0.79431377953E+02  0.18250003945E+03  0.12509070467E+03 0.  0.
         23    2    1    2    0    0  0.55108461266E+02 -0.91171781261E+02 -0.11224924007E+03  0.17645083942E+03  0.84768924928E+02 0.  0.
          5    1    3    3  502    0 -0.52365990873E+02 -0.12336558142E+02 -0.52816464978E+02  0.75507874025E+02  0.41800000000E+01 0. -1.
         -5    1    3    3    0  502 -0.27424703928E+01  0.10350833940E+03 -0.26614912975E+02  0.10699216543E+03  0.41800000000E+01 0. -1.
        -11    1    4    4    0    0  0.67091489605E+02 -0.82578737313E+02 -0.11951393350E+03  0.16001279991E+03  0.00000000000E+00 0.  1.
         11    1    4    4    0    0 -0.11983028339E+02 -0.85930439479E+01  0.72646934255E+01  0.16438039513E+02  0.00000000000E+00 0. -1.
</event>
<event>
 8    1  0.6832629E-009  0.1165062E+03  0.7561462E-02  0.1248975E+00
         -2   -1    0    0    0  501 -0.00000000000E+00  0.00000000000E+00  0.36174056006E+03  0.36174056006E+03  0.00000000000E+00 0.  1.
          2   -1    0    0  501    0  0.00000000000E+00 -0.00000000000E+00 -0.79224120168E+02  0.79224120168E+02  0.00000000000E+00 0. -1.
         25    2    1    2    0    0  0.92374098955E+02 -0.25295424546E+02  0.36575654760E+02  0.16173518120E+03  0.12509059779E+03 0.  0.
         23    2    1    2    0    0 -0.92374098955E+02  0.25295424546E+02  0.24594078513E+03  0.27922949903E+03  0.91155968959E+02 0.  0.
          5    1    3    3  502    0  0.55977974145E+01 -0.10797058934E+02  0.67249761043E+02  0.68468347270E+02  0.41800000000E+01 0.  1.
         -5    1    3    3    0  502  0.86776301540E+02 -0.14498365612E+02 -0.30674106283E+02  0.93266833927E+02  0.41800000000E+01 0.  1.
        -11    1    4    4    0    0 -0.10164063963E+03 -0.36249434560E+01  0.19477491211E+03  0.21972989379E+03  0.00000000000E+00 0.  1.
         11    1    4    4    0    0  0.92665406708E+01  0.28920368002E+02  0.51165873018E+02  0.59499605234E+02  0.00000000000E+00 0. -1.
</event>
<event>
 8    1  0.6832629E-009  0.1264427E+03  0.7561462E-02  0.1232832E+00
         -2   -1    0    0    0  501 -0.00000000000E+00  0.00000000000E+00  0.28266064683E+02  0.28266064683E+02  0.00000000000E+00 0.  1.
          2   -1    0    0  501    0  0.00000000000E+00 -0.00000000000E+00 -0.12201668517E+04  0.12201668517E+04  0.00000000000E+00 0. -1.
         25    2    1    2    0    0 -0.72798750113E+02 -0.49860929889E+02 -0.10389750108E+04  0.10501921097E+04  0.12509446051E+03 0.  0.
         23    2    1    2    0    0  0.72798750113E+02  0.49860929889E+02 -0.15292577623E+03  0.19824080661E+03  0.90151838700E+02 0.  0.
          5    1    3    3  502    0  0.38557142639E+01 -0.54692209667E+02 -0.71907216141E+03  0.72117151222E+03  0.41800000000E+01 0.  1.
         -5    1    3    3    0  502 -0.76654464377E+02  0.48312797784E+01 -0.31990284934E+03  0.32902059752E+03  0.41800000000E+01 0.  1.
        -11    1    4    4    0    0 -0.91623526793E+01  0.36872947877E+02 -0.76547362098E+02  0.85457952444E+02  0.00000000000E+00 0. -1.
         11    1    4    4    0    0  0.81961102792E+02  0.12987982012E+02 -0.76378414133E+02  0.11278285416E+03  0.00000000000E+00 0.  1.
</event>
<event>
 8    1  0.6832629E-009  0.1556473E+03  0.7561462E-02  0.1193700E+00
          2   -1    0    0  501    0  0.00000000000E+00  0.00000000000E+00  0.41707220059E+02  0.41707220059E+02  0.00000000000E+00 0. -1.
         -2   -1    0    0    0  501 -0.00000000000E+00 -0.00000000000E+00 -0.73565070466E+03  0.73565070466E+03  0.00000000000E+00 0.  1.
         25    2    1    2    0    0 -0.38378751724E+02  0.12687961855E+03 -0.28363229125E+03  0.33714369518E+03  0.12508888187E+03 0.  0.
         23    2    1    2    0    0  0.38378751724E+02 -0.12687961855E+03 -0.41031119335E+03  0.44021422955E+03  0.88667504307E+02 0.  0.
          5    1    3    3  502    0 -0.45357517227E+02 -0.35532304099E+01 -0.11540281071E+03  0.12411773014E+03  0.41800000000E+01 0. -1.
         -5    1    3    3    0  502  0.69787655028E+01  0.13043284896E+03 -0.16822948054E+03  0.21302596504E+03  0.41800000000E+01 0. -1.
        -11    1    4    4    0    0  0.75027163373E+01 -0.68216034486E+02 -0.90355281386E+02  0.11346274714E+03  0.00000000000E+00 0. -1.
         11    1    4    4    0    0  0.30876035387E+02 -0.58663584062E+02 -0.31995591197E+03  0.32675148241E+03  0.00000000000E+00 0.  1.
</event>
<event>
 8    1  0.6832629E-009  0.2665334E+03  0.7561462E-02  0.1103280E+00
         -2   -1    0    0    0  501 -0.00000000000E+00  0.00000000000E+00  0.18261004127E+03  0.18261004127E+03  0.00000000000E+00 0.  1.
          2   -1    0    0  501    0  0.00000000000E+00 -0.00000000000E+00 -0.39484845595E+03  0.39484845595E+03  0.00000000000E+00 0. -1.
         25    2    1    2    0    0 -0.20619208126E+03  0.13199302182E+03 -0.12870959598E+03  0.30356402840E+03  0.12509047549E+03 0.  0.
         23    2    1    2    0    0  0.20619208126E+03 -0.13199302182E+03 -0.83528818700E+02  0.27389446882E+03  0.90021021495E+02 0.  0.
          5    1    3    3  502    0 -0.12191004363E+03  0.14211166899E+03 -0.10759404404E+03  0.21599012920E+03  0.41800000000E+01 0. -1.
         -5    1    3    3    0  502 -0.84282037629E+02 -0.10118647167E+02 -0.21115551944E+02  0.87573899201E+02  0.41800000000E+01 0. -1.
        -11    1    4    4    0    0  0.13159988433E+03 -0.30934131293E+02 -0.40511237294E+02  0.14112622146E+03  0.00000000000E+00 0. -1.
         11    1    4    4    0    0  0.74592196925E+02 -0.10105889053E+03 -0.43017581406E+02  0.13276824736E+03  0.00000000000E+00 0.  1.
</event>
<event>
 8    1  0.6832629E-009  0.1241434E+03  0.7561462E-02  0.1236414E+00
          2   -1    0    0  501    0  0.00000000000E+00  0.00000000000E+00  0.65214056176E+02  0.65214056176E+02  0.00000000000E+00 0. -1.
         -2   -1    0    0    0  501 -0.00000000000E+00 -0.00000000000E+00 -0.34267767890E+03  0.34267767890E+03  0.00000000000E+00 0.  1.
         25    2    1    2    0    0  0.90117208193E+02 -0.32879473838E+02 -0.19693934171E+03  0.25225957089E+03  0.12509043041E+03 0.  0.
         23    2    1    2    0    0 -0.90117208193E+02  0.32879473838E+02 -0.80524281011E+02  0.15563216418E+03  0.92385278497E+02 0.  0.
          5    1    3    3  502    0  0.11325363621E+03 -0.22953707833E+02 -0.19494815451E+03  0.22666167335E+03  0.41800000000E+01 0. -1.
         -5    1    3    3    0  502 -0.23136428018E+02 -0.99257660047E+01 -0.19911872018E+01  0.25597897544E+02  0.41800000000E+01 0. -1.
        -11    1    4    4    0    0 -0.11649328045E+02  0.25848605375E+02 -0.70782727377E+02  0.76249929433E+02  0.00000000000E+00 0.  1.
         11    1    4    4    0    0 -0.78467880148E+02  0.70308684631E+01 -0.97415536341E+01  0.79382234748E+02  0.00000000000E+00 0. -1.
</event>
<event>
 8    1  0.6832629E-009  0.1390248E+03  0.7561462E-02  0.1214647E+00
         -1   -1    0    0    0  501 -0.00000000000E+00  0.00000000000E+00  0.63116617058E+02  0.63116617058E+02  0.00000000000E+00 0.  1.
          1   -1    0    0  501    0  0.00000000000E+00 -0.00000000000E+00 -0.51619704986E+03  0.51619704986E+03  0.00000000000E+00 0. -1.
         25    2    1    2    0    0  0.10121158094E+03  0.73284392911E+02 -0.12349030845E+03  0.21566351260E+03  0.12508600252E+03 0.  0.
         23    2    1    2    0    0 -0.10121158094E+03 -0.73284392911E+02 -0.32959012435E+03  0.36365015432E+03  0.89428173981E+02 0.  0.
          5    1    3    3  502    0  0.65379073875E+02  0.54997880332E+02 -0.14612162657E+03  0.16931683996E+03  0.41800000000E+01 0. -1.
         -5    1    3    3    0  502  0.35832507065E+02  0.18286512578E+02  0.22631318125E+02  0.46346672641E+02  0.41800000000E+01 0. -1.
        -11    1    4    4    0    0 -0.10078937433E+02 -0.58959848575E+02 -0.15590707733E+03  0.16698762076E+03  0.00000000000E+00 0. -1.
         11    1    4    4    0    0 -0.91132643508E+02 -0.14324544336E+02 -0.17368304702E+03  0.19666253356E+03  0.00000000000E+00 0.  1.
</event>
<event>
 8    1  0.6832629E-009  0.1168363E+03  0.7561462E-02  0.1248409E+00
          1   -1    0    0  501    0  0.00000000000E+00  0.00000000000E+00  0.14116344676E+03  0.14116344676E+03  0.00000000000E+00 0. -1.
         -1   -1    0    0    0  501 -0.00000000000E+00 -0.00000000000E+00 -0.12523132364E+03  0.12523132364E+03  0.00000000000E+00 0.  1.
         25    2    1    2    0    0  0.13472655442E+02  0.74566488872E+02  0.25556372512E+02  0.14847107578E+03  0.12509539744E+03 0.  0.
         23    2    1    2    0    0 -0.13472655442E+02 -0.74566488872E+02 -0.96242493957E+01  0.11792369462E+03  0.89842628355E+02 0.  0.
          5    1    3    3  502    0  0.68329030519E+02  0.39681074550E+02  0.18484396665E+01  0.79147540823E+02  0.41800000000E+01 0. -1.
         -5    1    3    3    0  502 -0.54856375077E+02  0.34885414322E+02  0.23707932846E+02  0.69323534956E+02  0.41800000000E+01 0. -1.
        -11    1    4    4    0    0 -0.27143268358E+02 -0.69855296931E+02  0.26120565849E+02  0.79365001649E+02  0.00000000000E+00 0. -1.
         11    1    4    4    0    0  0.13670612916E+02 -0.47111919409E+01 -0.35744815244E+02  0.38558692974E+02  0.00000000000E+00 0.  1.
</event>
<event>
 8    1  0.6832629E-009  0.2091588E+03  0.7561462E-02  0.1142234E+00
         -1   -1    0    0    0  501 -0.00000000000E+00  0.00000000000E+00  0.31047582837E+02  0.31047582837E+02  0.00000000000E+00 0.  1.
          1   -1    0    0  501    0  0.00000000000E+00 -0.00000000000E+00 -0.16234540090E+04  0.16234540090E+04  0.00000000000E+00 0. -1.
         25    2    1    2    0    0  0.19214723429E+03  0.34901787690E+02 -0.89716858726E+03  0.92666068270E+03  0.12509937034E+03 0.  0.
         23    2    1    2    0    0 -0.19214723429E+03 -0.34901787690E+02 -0.69523783891E+03  0.72784090915E+03  0.90873769309E+02 0.  0.
          5    1    3    3  502    0  0.81633927872E+02  0.62584053339E+02 -0.26499576282E+03  0.28429050041E+03  0.41800000000E+01 0.  1.
         -5    1    3    3    0  502  0.11051330642E+03 -0.27682265649E+02 -0.63217282444E+03  0.64237018229E+03  0.41800000000E+01 0.  1.
        -11    1    4    4    0    0 -0.10333429017E+03  0.61631487878E+01 -0.22700869648E+03  0.24949731102E+03  0.00000000000E+00 0.  1.
         11    1    4    4    0    0 -0.88812944121E+02 -0.41064936478E+02 -0.46822914243E+03  0.47834359813E+03  0.00000000000E+00 0. -1.
</event>
<event>
 8    1  0.6832629E-009  0.1853595E+03  0.7561462E-02  0.1162715E+00
         -1   -1    0    0    0  501 -0.00000000000E+00  0.00000000000E+00  0.29844698345E+03  0.29844698345E+03  0.00000000000E+00 0.  1.
          1   -1    0    0  501    0  0.00000000000E+00 -0.00000000000E+00 -0.15627454581E+03  0.15627454581E+03  0.00000000000E+00 0. -1.
         25    2    1    2    0    0  0.17169744547E+03 -0.64554277786E+02  0.41071546882E+02  0.22579840973E+03  0.12510308674E+03 0.  0.
         23    2    1    2    0    0 -0.17169744547E+03  0.64554277786E+02  0.10110089076E+03  0.22892311953E+03  0.92396628617E+02 0.  0.
          5    1    3    3  502    0  0.15650104029E+03 -0.68733912197E+02 -0.10901219255E+02  0.17132785902E+03  0.41800000000E+01 0. -1.
         -5    1    3    3    0  502  0.15196405188E+02  0.41796344112E+01  0.51972766137E+02  0.54470550708E+02  0.41800000000E+01 0. -1.
        -11    1    4    4    0    0 -0.15772815159E+03  0.59452561417E+02  0.50174955292E+02  0.17587013106E+03  0.00000000000E+00 0. -1.
         11    1    4    4    0    0 -0.13969293887E+02  0.51017163688E+01  0.50925935471E+02  0.53052988466E+02  0.00000000000E+00 0.  1.
</event>
<event>
 8    1  0.6832629E-009  0.1657684E+03  0.7561462E-02  0.1182334E+00
         -2   -1    0    0    0  501 -0.00000000000E+00  0.00000000000E+00  0.33902692676E+03  0.33902692676E+03  0.00000000000E+00 0.  1.
          2   -1    0    0  501    0  0.00000000000E+00 -0.00000000000E+00 -0.11091209921E+03  0.11091209921E+03  0.00000000000E+00 0. -1.
         25    2    1    2    0    0 -0.14790102972E+03 -0.18568637194E+01  0.46729944124E+02  0.19927136370E+03  0.12508887313E+03 0.  0.
         23    2    1    2    0    0  0.14790102972E+03  0.18568637194E+01  0.18138488342E+03  0.25066766227E+03  0.89753208520E+02 0.  0.
          5    1    3    3  502    0 -0.15688946527E+02 -0.24758203901E+02  0.57416619636E+02  0.64600714500E+02  0.41800000000E+01 0.  1.
         -5    1    3    3    0  502 -0.13221208319E+03  0.22901340182E+02 -0.10686675512E+02  0.13467064920E+03  0.41800000000E+01 0.  1.
        -11    1    4    4    0    0  0.23433849287E+02 -0.31087405835E+02  0.71442937960E+02  0.81361326675E+02  0.00000000000E+00 0.  1.
         11    1    4    4    0    0  0.12446718043E+03  0.32944269554E+02  0.10994194546E+03  0.16930633559E+03  0.00000000000E+00 0. -1.
</event>
<event>
 8    1  0.6832629E-009  0.1604311E+03  0.7561462E-02  0.1188211E+00
          2   -1    0    0  501    0  0.00000000000E+00  0.00000000000E+00  0.16784109569E+03  0.16784109569E+03  0.00000000000E+00 0. -1.
         -2   -1    0    0    0  501 -0.00000000000E+00 -0.00000000000E+00 -0.16078211297E+03  0.16078211297E+03  0.00000000000E+00 0.  1.
         25    2    1    2    0    0 -0.28839647700E+01  0.11988817412E+03 -0.25161758421E+02  0.17510693935E+03  0.12509130495E+03 0.  0.
         23    2    1    2    0    0  0.28839647700E+01 -0.11988817412E+03  0.32220741142E+02  0.15351626932E+03  0.90263930994E+02 0.  0.
          5    1    3    3  502    0 -0.31572670354E+01 -0.25404938049E+02  0.55928314748E+01  0.26535473922E+02  0.41800000000E+01 0.  1.
         -5    1    3    3    0  502  0.27330226543E+00  0.14529311217E+03 -0.30754589896E+02  0.14857146542E+03  0.41800000000E+01 0.  1.
        -11    1    4    4    0    0  0.40657203272E+02 -0.97554120388E+02  0.28580293050E+02  0.10948355006E+03  0.00000000000E+00 0. -1.
         11    1    4    4    0    0 -0.37773238502E+02 -0.22334053734E+02  0.36404480916E+01  0.44032719260E+02  0.00000000000E+00 0.  1.
</event>
<event>
 8    1  0.6832629E-009  0.1159984E+03  0.7561462E-02  0.1249848E+00
         -1   -1    0    0    0  501 -0.00000000000E+00  0.00000000000E+00  0.20569383050E+03  0.20569383050E+03  0.00000000000E+00 0.  1.
          1   -1    0    0  501    0  0.00000000000E+00 -0.00000000000E+00 -0.91700024952E+02  0.91700024952E+02  0.00000000000E+00 0. -1.
         25    2    1    2    0    0  0.26610012441E+02  0.74728768167E+02  0.82334117833E+02  0.16946784174E+03  0.12509180976E+03 0.  0.
         23    2    1    2    0    0 -0.26610012441E+02 -0.74728768167E+02  0.31659687711E+02  0.12792601371E+03  0.95237847541E+02 0.  0.
          5    1    3    3  502    0  0.64736665259E+02  0.54309363473E+02  0.91964934461E+02  0.12496145150E+03  0.41800000000E+01 0.  1.
         -5    1    3    3    0  502 -0.38126652818E+02  0.20419404694E+02 -0.96308166282E+01  0.44506390239E+02  0.41800000000E+01 0.  1.
        -11    1    4    4    0    0 -0.42417210425E+02 -0.77060027569E+02 -0.48258568222E+01  0.88095155845E+02  0.00000000000E+00 0. -1.
         11    1    4    4    0    0  0.15807197985E+02  0.23312594019E+01  0.36485544533E+02  0.39830857867E+02  0.00000000000E+00 0.  1.
</event>
<event>
 8    1  0.6832629E-009  0.9467538E+02  0.7561462E-02  0.1291909E+00
         -1   -1    0    0    0  501 -0.00000000000E+00  0.00000000000E+00  0.49382059738E+02  0.49382059738E+02  0.00000000000E+00 0.  1.
          1   -1    0    0  501    0  0.00000000000E+00 -0.00000000000E+00 -0.42764076582E+03  0.42764076582E+03  0.00000000000E+00 0. -1.
         25    2    1    2    0    0  0.71987618540E+02  0.55724377095E+02 -0.15755334922E+03  0.22081098588E+03  0.12508800986E+03 0.  0.
         23    2    1    2    0    0 -0.71987618540E+02 -0.55724377095E+02 -0.22070535687E+03  0.25621183968E+03  0.92985099969E+02 0.  0.
          5    1    3    3  502    0  0.42818057591E+02  0.53263778919E+02 -0.17399190984E+03  0.18697880439E+03  0.41800000000E+01 0.  1.
         -5    1    3    3    0  502  0.29169560949E+02  0.24605981762E+01  0.16438560621E+02  0.33832181494E+02  0.41800000000E+01 0.  1.
        -11    1    4    4    0    0 -0.38109108965E+02 -0.25004019671E+02 -0.18990342591E+02  0.49377508013E+02  0.00000000000E+00 0.  1.
         11    1    4    4    0    0 -0.33878509574E+02 -0.30720357424E+02 -0.20171501428E+03  0.20683433167E+03  0.00000000000E+00 0. -1.
</event>
<event>
 8    1  0.6832629E-009  0.1300051E+03  0.7561462E-02  0.1227448E+00
          2   -1    0    0  501    0  0.00000000000E+00  0.00000000000E+00  0.46101509535E+03  0.46101509535E+03  0.00000000000E+00 0. -1.
         -2   -1    0    0    0  501 -0.00000000000E+00 -0.00000000000E+00 -0.42398266104E+02  0.42398266104E+02  0.00000000000E+00 0.  1.
         25    2    1    2    0    0 -0.85424516436E+02  0.30551387976E+01  0.26496580365E+03  0.30522409375E+03  0.12509271929E+03 0.  0.
         23    2    1    2    0    0  0.85424516436E+02 -0.30551387976E+01  0.15365102559E+03  0.19818926770E+03  0.91453082425E+02 0.  0.
          5    1    3    3  502    0 -0.76538581354E+02 -0.49766028712E+02  0.20651061877E+03  0.22582940489E+03  0.41800000000E+01 0.  1.
         -5    1    3    3    0  502 -0.88859350822E+01  0.52821167510E+02  0.58455184887E+02  0.79394688862E+02  0.41800000000E+01 0.  1.
        -11    1    4    4    0    0 -0.51421282064E+01  0.20645809056E+02  0.68185799263E+02  0.71428244660E+02  0.00000000000E+00 0. -1.
         11    1    4    4    0    0  0.90566644642E+02 -0.23700947854E+02  0.85465226327E+02  0.12676102304E+03  0.00000000000E+00 0.  1.
</event>
<event>
 8    1  0.6832629E-009  0.8262785E+02  0.7561462E-02  0.1321755E+00
         -1   -1    0    0    0  501 -0.00000000000E+00  0.00000000000E+00  0.37596373420E+03  0.37596373420E+03  0.00000000000E+00 0.  1.
          1   -1    0    0  501    0  0.00000000000E+00 -0.00000000000E+00 -0.37600968248E+02  0.37600968248E+02  0.00000000000E+00 0. -1.
         25    2    1    2    0    0 -0.17283545139E+02 -0.40715557257E+02  0.15419573791E+03  0.20342237130E+03  0.12509139866E+03 0.  0.
         23    2    1    2    0    0  0.17283545139E+02  0.40715557257E+02  0.18416702804E+03  0.21014233115E+03  0.91026521346E+02 0.  0.
          5    1    3    3  502    0  0.12580591128E+02  0.74284751755E+00  0.15150577669E+03  0.15208647496E+03  0.41800000000E+01 0.  1.
         -5    1    3    3    0  502 -0.29864136267E+02 -0.41458404775E+02  0.26899612226E+01  0.51335896338E+02  0.41800000000E+01 0.  1.
        -11    1    4    4    0    0 -0.37393686875E+02  0.14998916746E+02  0.63716796975E+02  0.75386242368E+02  0.00000000000E+00 0. -1.
         11    1    4    4    0    0  0.54677232014E+02  0.25716640512E+02  0.12045023106E+03  0.13475608878E+03  0.00000000000E+00 0.  1.
</event>
<event>
 8    1  0.6832629E-009  0.1076028E+03  0.7561462E-02  0.1265075E+00
          2   -1    0    0  501    0  0.00000000000E+00  0.00000000000E+00  0.47078862281E+03  0.47078862281E+03  0.00000000000E+00 0. -1.
         -2   -1    0    0    0  501 -0.00000000000E+00 -0.00000000000E+00 -0.32238145871E+02  0.32238145871E+02  0.00000000000E+00 0.  1.
         25    2    1    2    0    0  0.33780273548E+02  0.42503361504E+02  0.28020245535E+03  0.31162453204E+03  0.12509512527E+03 0.  0.
         23    2    1    2    0    0 -0.33780273548E+02 -0.42503361504E+02  0.15834802159E+03  0.19140223664E+03  0.92806668022E+02 0.  0.
          5    1    3    3  502    0  0.45367083949E+02  0.82613928191E+02  0.18942242987E+03  0.21161654655E+03  0.41800000000E+01 0. -1.
         -5    1    3    3    0  502 -0.11586810401E+02 -0.40110566687E+02  0.90780025483E+02  0.10000798549E+03  0.41800000000E+01 0. -1.
        -11    1    4    4    0    0 -0.41524956516E+02 -0.52065993822E+02  0.16462709567E+03  0.17758735978E+03  0.00000000000E+00 0. -1.
         11    1    4    4    0    0  0.77446829679E+01  0.95626323182E+01 -0.62790740834E+01  0.13814876853E+02  0.00000000000E+00 0.  1.
</event>
<event>
 8    1  0.6832629E-009  0.1599113E+03  0.7561462E-02  0.1188797E+00
         -2   -1    0    0    0  501 -0.00000000000E+00  0.00000000000E+00  0.25114624786E+03  0.25114624786E+03  0.00000000000E+00 0.  1.
          2   -1    0    0  501    0  0.00000000000E+00 -0.00000000000E+00 -0.13416027132E+03  0.13416027132E+03  0.00000000000E+00 0. -1.
         25    2    1    2    0    0 -0.14302450731E+03 -0.28314897760E+02  0.87929351425E+02  0.21127294287E+03  0.12508773889E+03 0.  0.
         23    2    1    2    0    0  0.14302450731E+03  0.28314897760E+02  0.29056625115E+02  0.17403357631E+03  0.90474610209E+02 0.  0.
          5    1    3    3  502    0 -0.59950347481E+02 -0.32780500080E+02  0.10586074286E+03  0.12606575518E+03  0.41800000000E+01 0. -1.
         -5    1    3    3    0  502 -0.83074159830E+02  0.44656023197E+01 -0.17931391439E+02  0.85207187692E+02  0.41800000000E+01 0. -1.
        -11    1    4    4    0    0  0.91845381218E+02 -0.23951984016E+02  0.33731974096E+02  0.10073290260E+03  0.00000000000E+00 0.  1.
         11    1    4    4    0    0  0.51179126093E+02  0.52266881776E+02 -0.46753489806E+01  0.73300673710E+02  0.00000000000E+00 0. -1.
</event>
<event>
 8    1  0.6832629E-009  0.2022422E+03  0.7561462E-02  0.1147861E+00
          2   -1    0    0  501    0  0.00000000000E+00  0.00000000000E+00  0.35359752693E+03  0.35359752693E+03  0.00000000000E+00 0. -1.
         -2   -1    0    0    0  501 -0.00000000000E+00 -0.00000000000E+00 -0.16221243171E+03  0.16221243171E+03  0.00000000000E+00 0.  1.
         25    2    1    2    0    0  0.71322419789E+02  0.18621212002E+03  0.18447698565E+03  0.29906754617E+03  0.12509115769E+03 0.  0.
         23    2    1    2    0    0 -0.71322419789E+02 -0.18621212002E+03  0.69081095736E+01  0.21674241247E+03  0.84662330352E+02 0.  0.
          5    1    3    3  502    0  0.60130374617E+02  0.95420603555E+02  0.17330276762E+03  0.20681410783E+03  0.41800000000E+01 0. -1.
         -5    1    3    3    0  502  0.11192045172E+02  0.90791516465E+02  0.11174218030E+02  0.92253438341E+02  0.41800000000E+01 0. -1.
        -11    1    4    4    0    0 -0.59613686004E+02 -0.13607742269E+03 -0.32294349609E+02  0.15203217272E+03  0.00000000000E+00 0.  1.
         11    1    4    4    0    0 -0.11708733784E+02 -0.50134697325E+02  0.39202459183E+02  0.64710239751E+02  0.00000000000E+00 0. -1.
</event>
<event>
 8    1  0.6832629E-009  0.1184246E+03  0.7561462E-02  0.1245719E+00
          1   -1    0    0  501    0  0.00000000000E+00  0.00000000000E+00  0.38150716350E+03  0.38150716350E+03  0.00000000000E+00 0. -1.
         -1   -1    0    0    0  501 -0.00000000000E+00 -0.00000000000E+00 -0.52173988270E+02  0.52173988270E+02  0.00000000000E+00 0.  1.
         25    2    1    2    0    0 -0.50755333201E+02  0.47169368054E+01  0.29398458808E+03  0.32353884314E+03  0.12510831968E+03 0.  0.
         23    2    1    2    0    0  0.50755333201E+02 -0.47169368054E+01  0.35348587150E+02  0.11014230863E+03  0.91013472600E+02 0.  0.
          5    1    3    3  502    0 -0.26499346308E+02 -0.59690741838E+02  0.15965410771E+03  0.17254595482E+03  0.41800000000E+01 0. -1.
         -5    1    3    3    0  502 -0.24255986893E+02  0.64407678643E+02  0.13433048037E+03  0.15099288832E+03  0.41800000000E+01 0. -1.
        -11    1    4    4    0    0  0.74174365733E+02 -0.16874833965E+02  0.16840007832E+02  0.77911375402E+02  0.00000000000E+00 0.  1.
         11    1    4    4    0    0 -0.23419032532E+02  0.12157897160E+02  0.18508579317E+02  0.32230933223E+02  0.00000000000E+00 0. -1.
</event>
<event>
 8    1  0.6832629E-009  0.5860173E+02  0.7561462E-02  0.1403795E+00
         -1   -1    0    0    0  501 -0.00000000000E+00  0.00000000000E+00  0.58082181006E+02  0.58082181006E+02  0.00000000000E+00 0.  1.
          1   -1    0    0  501    0  0.00000000000E+00 -0.00000000000E+00 -0.21940288868E+03  0.21940288868E+03  0.00000000000E+00 0. -1.
         25    2    1    2    0    0 -0.22876204922E+02  0.12879599504E+02 -0.10746090242E+03  0.16698414069E+03  0.12508658144E+03 0.  0.
         23    2    1    2    0    0  0.22876204922E+02 -0.12879599504E+02 -0.53859805250E+02  0.11050092899E+03  0.92845957650E+02 0.  0.
          5    1    3    3  502    0 -0.23961929943E+02  0.15954070249E+02 -0.13542910790E+03  0.13851794869E+03  0.41800000000E+01 0.  1.
         -5    1    3    3    0  502  0.10857250212E+01 -0.30744707455E+01  0.27968205477E+02  0.28466191996E+02  0.41800000000E+01 0.  1.
        -11    1    4    4    0    0 -0.81683407612E+01 -0.40466268188E+02 -0.55223047815E+02  0.68947992442E+02  0.00000000000E+00 0. -1.
         11    1    4    4    0    0  0.31044545683E+02  0.27586668684E+02  0.13632425650E+01  0.41552936551E+02  0.00000000000E+00 0.  1.
</event>
<event>
 8    1  0.6832629E-009  0.1186207E+03  0.7561462E-02  0.1245390E+00
          1   -1    0    0  501    0  0.00000000000E+00  0.00000000000E+00  0.18599339360E+04  0.18599339360E+04  0.00000000000E+00 0. -1.
         -1   -1    0    0    0  501 -0.00000000000E+00 -0.00000000000E+00 -0.11909843315E+02  0.11909843315E+02  0.00000000000E+00 0.  1.
         25    2    1    2    0    0 -0.29375985263E+02  0.87045192472E+02  0.12737728450E+04  0.12831931503E+04  0.12509031240E+03 0.  0.
         23    2    1    2    0    0  0.29375985263E+02 -0.87045192472E+02  0.57425124766E+03  0.58865062899E+03  0.91133163758E+02 0.  0.
          5    1    3    3  502    0 -0.39386458383E+02  0.94701192111E+02  0.56207726710E+03  0.57137372663E+03  0.41800000000E+01 0.  1.
         -5    1    3    3    0  502  0.10010473120E+02 -0.76559996386E+01  0.71169557794E+03  0.71181942370E+03  0.41800000000E+01 0.  1.
        -11    1    4    4    0    0  0.36165605836E+02 -0.10019067891E+03  0.55017620967E+03  0.56039270594E+03  0.00000000000E+00 0. -1.
         11    1    4    4    0    0 -0.67896205734E+01  0.13145486435E+02  0.24075037985E+02  0.28257923051E+02  0.00000000000E+00 0.  1.
</event>
<event>
 8    1  0.6832629E-009  0.1861114E+03  0.7561462E-02  0.1162016E+00
          2   -1    0    0  501    0  0.00000000000E+00  0.00000000000E+00  0.18248919175E+03  0.18248919175E+03  0.00000000000E+00 0. -1.
         -2   -1    0    0    0  501 -0.00000000000E+00 -0.00000000000E+00 -0.23333333488E+03  0.23333333488E+03  0.00000000000E+00 0.  1.
         25    2    1    2    0    0 -0.16637614647E+03  0.54153231108E+02 -0.30193060137E+02  0.21719333978E+03  0.12509089260E+03 0.  0.
         23    2    1    2    0    0  0.16637614647E+03 -0.54153231108E+02 -0.20651082995E+02  0.19862918684E+03  0.91725089709E+02 0.  0.
          5    1    3    3  502    0 -0.14189259061E+03  0.34857573741E+02 -0.73547684486E+02  0.16363157401E+03  0.41800000000E+01 0. -1.
         -5    1    3    3    0  502 -0.24483555858E+02  0.19295657367E+02  0.43354624349E+02  0.53561765777E+02  0.41800000000E+01 0. -1.
        -11    1    4    4    0    0  0.46193786092E+02 -0.58254840114E+02  0.86781170664E+01  0.74851866951E+02  0.00000000000E+00 0. -1.
         11    1    4    4    0    0  0.12018236038E+03  0.41016090065E+01 -0.29329200062E+02  0.12377731989E+03  0.00000000000E+00 0.  1.
</event>
<event>
 8    1  0.6832629E-009  0.1455836E+03  0.7561462E-02  0.1206007E+00
          1   -1    0    0  501    0  0.00000000000E+00  0.00000000000E+00  0.70328367480E+02  0.70328367480E+02  0.00000000000E+00 0. -1.
         -1   -1    0    0    0  501 -0.00000000000E+00 -0.00000000000E+00 -0.41128801816E+03  0.41128801816E+03  0.00000000000E+00 0.  1.
         25    2    1    2    0    0  0.96849752394E+02  0.63296933386E+02 -0.94026025852E+02  0.19460705680E+03  0.12507852215E+03 0.  0.
         23    2    1    2    0    0 -0.96849752394E+02 -0.63296933386E+02 -0.24693362483E+03  0.28700932884E+03  0.89508454658E+02 0.  0.
          5    1    3    3  502    0  0.26053831264E+02 -0.28192744069E+02  0.89909485691E+01  0.39647730046E+02  0.41800000000E+01 0.  1.
         -5    1    3    3    0  502  0.70795921130E+02  0.91489677454E+02 -0.10301697442E+03  0.15495932675E+03  0.41800000000E+01 0.  1.
        -11    1    4    4    0    0 -0.19387738070E+02  0.16591298409E+02 -0.14592582770E+02  0.29395561608E+02  0.00000000000E+00 0. -1.
         11    1    4    4    0    0 -0.77462014324E+02 -0.79888231794E+02 -0.23234104206E+03  0.25761376723E+03  0.00000000000E+00 0.  1.
</event>
<event>
 8    1  0.6832629E-009  0.2642772E+03  0.7561462E-02  0.1104600E+00
         -1   -1    0    0    0  501 -0.00000000000E+00  0.00000000000E+00  0.14207818000E+03  0.14207818000E+03  0.00000000000E+00 0.  1.
          1   -1    0    0  501    0  0.00000000000E+00 -0.00000000000E+00 -0.52827148707E+03  0.52827148707E+03  0.00000000000E+00 0. -1.
         25    2    1    2    0    0 -0.79386130909E+02  0.23919944026E+03 -0.20471972494E+03  0.34795987659E+03  0.12508948771E+03 0.  0.
         23    2    1    2    0    0  0.79386130909E+02 -0.23919944026E+03 -0.18147358213E+03  0.32238979048E+03  0.86510034100E+02 0.  0.
          5    1    3    3  502    0  0.25552753269E+02  0.92834561826E+02 -0.41731390227E+02  0.10502466567E+03  0.41800000000E+01 0. -1.
         -5    1    3    3    0  502 -0.10493888418E+03  0.14636487843E+03 -0.16298833471E+03  0.24293521091E+03  0.41800000000E+01 0. -1.
        -11    1    4    4    0    0  0.19680730005E+02 -0.57780419887E+02 -0.94566559245E+02  0.11255550712E+03  0.00000000000E+00 0. -1.
         11    1    4    4    0    0  0.59705400904E+02 -0.18141902037E+03 -0.86907022880E+02  0.20983428336E+03  0.00000000000E+00 0.  1.
</event>
<event>
 8    1  0.6832629E-009  0.5792564E+02  0.7561462E-02  0.1406749E+00
         -2   -1    0    0    0  501 -0.00000000000E+00  0.00000000000E+00  0.17415434620E+03  0.17415434620E+03  0.00000000000E+00 0.  1.
          2   -1    0    0  501    0  0.00000000000E+00 -0.00000000000E+00 -0.88250803552E+02  0.88250803552E+02  0.00000000000E+00 0. -1.
         25    2    1    2    0    0  0.42879315396E+02 -0.20816988687E+02  0.89462708182E+02  0.16100209852E+03  0.12508443895E+03 0.  0.
         23    2    1    2    0    0 -0.42879315396E+02  0.20816988687E+02 -0.35591655347E+01  0.10140305123E+03  0.89431137933E+02 0.  0.
          5    1    3    3  502    0 -0.95308806870E+01 -0.10151361184E+02  0.10432564972E+03  0.10533376197E+03  0.41800000000E+01 0. -1.
         -5    1    3    3    0  502  0.52410196083E+02 -0.10665627503E+02 -0.14862941542E+02  0.55668336554E+02  0.41800000000E+01 0. -1.
        -11    1    4    4    0    0 -0.25032684973E+02  0.12077033972E+02  0.42761155478E+02  0.51000063572E+02  0.00000000000E+00 0.  1.
         11    1    4    4    0    0 -0.17846630423E+02  0.87399547142E+01 -0.46320321012E+02  0.50402987655E+02  0.00000000000E+00 0. -1.
</event>
<event>
 8    1  0.6832629E-009  0.1012030E+03  0.7561462E-02  0.1277786E+00
         -1   -1    0    0    0  501 -0.00000000000E+00  0.00000000000E+00  0.71647176040E+02  0.71647176040E+02  0.00000000000E+00 0.  1.
          1   -1    0    0  501    0  0.00000000000E+00 -0.00000000000E+00 -0.18221486171E+03  0.18221486171E+03  0.00000000000E+00 0. -1.
         25    2    1    2    0    0  0.20753677985E+02 -0.30652960197E+02 -0.73100791430E+02  0.14953258295E+03  0.12508376608E+03 0.  0.
         23    2    1    2    0    0 -0.20753677985E+02  0.30652960197E+02 -0.37466894235E+02  0.10432945480E+03  0.90058580132E+02 0.  0.
          5    1    3    3  502    0  0.69502420969E+02 -0.25013918286E+01 -0.21138438729E+02  0.72808993082E+02  0.41800000000E+01 0. -1.
         -5    1    3    3    0  502 -0.48748742984E+02 -0.28151568368E+02 -0.51962352701E+02  0.76723589869E+02  0.41800000000E+01 0. -1.
        -11    1    4    4    0    0 -0.16996298609E+00 -0.20834485276E+02  0.16784271964E+02  0.26754746298E+02  0.00000000000E+00 0.  1.
         11    1    4    4    0    0 -0.20583714999E+02  0.51487445472E+02 -0.54251166199E+02  0.77574708497E+02  0.00000000000E+00 0. -1.
</event>
<event>
 8    1  0.6832629E-009  0.1006708E+03  0.7561462E-02  0.1278892E+00
         -1   -1    0    0    0  501 -0.00000000000E+00  0.00000000000E+00  0.30267030473E+02  0.30267030473E+02  0.00000000000E+00 0.  1.
          1   -1    0    0  501    0  0.00000000000E+00 -0.00000000000E+00 -0.46761752389E+03  0.46761752389E+03  0.00000000000E+00 0. -1.
         25    2    1    2    0    0 -0.21283412665E+02  0.38428243864E+02 -0.29490789242E+03  0.32333550639E+03  0.12508185761E+03 0.  0.
         23    2    1    2    0    0  0.21283412665E+02 -0.38428243864E+02 -0.14244260099E+03  0.17454904797E+03  0.90817189930E+02 0.  0.
          5    1    3    3  502    0 -0.31044933591E+02 -0.25553738055E+02 -0.29309538401E+02  0.49932983803E+02  0.41800000000E+01 0.  1.
         -5    1    3    3    0  502  0.97615209258E+01  0.63981981919E+02 -0.26559835402E+03  0.27340252259E+03  0.41800000000E+01 0.  1.
        -11    1    4    4    0    0 -0.32983648381E+02 -0.20825591104E+02 -0.85330294483E+02  0.93823693500E+02  0.00000000000E+00 0. -1.
         11    1    4    4    0    0  0.54267061046E+02 -0.17602652760E+02 -0.57112306512E+02  0.80725354467E+02  0.00000000000E+00 0.  1.
</event>
<event>
 8    1  0.6832629E-009  0.1258288E+03  0.7561462E-02  0.1233780E+00
          2   -1    0    0  501    0  0.00000000000E+00  0.00000000000E+00  0.11369291856E+03  0.11369291856E+03  0.00000000000E+00 0. -1.
         -2   -1    0    0    0  501 -0.00000000000E+00 -0.00000000000E+00 -0.24119134388E+03  0.24119134388E+03  0.00000000000E+00 0.  1.
         25    2    1    2    0    0 -0.10904116947E+03 -0.59436470388E+02 -0.55106950213E+02  0.18468140318E+03  0.12509106310E+03 0.  0.
         23    2    1    2    0    0  0.10904116947E+03  0.59436470388E+02 -0.72391475104E+02  0.17020285926E+03  0.91136255031E+02 0.  0.
          5    1    3    3  502    0 -0.73916051501E+02 -0.44360200220E+02 -0.95630636779E+02  0.12881809315E+03  0.41800000000E+01 0.  1.
         -5    1    3    3    0  502 -0.35125117972E+02 -0.15076270168E+02  0.40523686566E+02  0.55863310031E+02  0.41800000000E+01 0.  1.
        -11    1    4    4    0    0  0.88721287931E+02  0.59049449193E+02 -0.92862299766E+02  0.14135668042E+03  0.00000000000E+00 0.  1.
         11    1    4    4    0    0  0.20319881542E+02  0.38702119467E+00  0.20470824662E+02  0.28846178839E+02  0.00000000000E+00 0. -1.
</event>
<event>
 8    1  0.6832629E-009  0.1004773E+03  0.7561462E-02  0.1279296E+00
          1   -1    0    0  501    0  0.00000000000E+00  0.00000000000E+00  0.24321979380E+03  0.24321979380E+03  0.00000000000E+00 0. -1.
         -1   -1    0    0    0  501 -0.00000000000E+00 -0.00000000000E+00 -0.74809513478E+02  0.74809513478E+02  0.00000000000E+00 0.  1.
         25    2    1    2    0    0  0.74344293105E+02  0.27149618333E+02  0.73721668622E+02  0.16536844853E+03  0.12509062175E+03 0.  0.
         23    2    1    2    0    0 -0.74344293105E+02 -0.27149618333E+02  0.94688611699E+02  0.15266085875E+03  0.89862277493E+02 0.  0.
          5    1    3    3  502    0  0.85827187884E+02 -0.13970200829E+01  0.94709226383E+02  0.12788888852E+03  0.41800000000E+01 0. -1.
         -5    1    3    3    0  502 -0.11482894780E+02  0.28546638416E+02 -0.20987557761E+02  0.37479560005E+02  0.41800000000E+01 0. -1.
        -11    1    4    4    0    0 -0.15720130466E+02 -0.19179269166E+02 -0.14316875457E+02  0.28634590803E+02  0.00000000000E+00 0.  1.
         11    1    4    4    0    0 -0.58624162639E+02 -0.79703491671E+01  0.10900548716E+03  0.12402626795E+03  0.00000000000E+00 0. -1.
</event>
<event>
 8    1  0.6832629E-009  0.1096820E+03  0.7561462E-02  0.1261160E+00
          3   -1    0    0  501    0  0.00000000000E+00  0.00000000000E+00  0.58698990381E+02  0.58698990381E+02  0.00000000000E+00 0. -1.
         -3   -1    0    0    0  501 -0.00000000000E+00 -0.00000000000E+00 -0.22728609422E+03  0.22728609422E+03  0.00000000000E+00 0.  1.
         25    2    1    2    0    0  0.29010486756E+02 -0.26104458989E+02 -0.10468994321E+03  0.16773128814E+03  0.12510295636E+03 0.  0.
         23    2    1    2    0    0 -0.29010486756E+02  0.26104458989E+02 -0.63897160636E+02  0.11825379647E+03  0.91531754710E+02 0.  0.
          5    1    3    3  502    0  0.21576410627E+02  0.49053822056E+02 -0.56816512211E+02  0.78213856916E+02  0.41800000000E+01 0. -1.
         -5    1    3    3    0  502  0.74340761290E+01 -0.75158281044E+02 -0.47873430997E+02  0.89517431224E+02  0.41800000000E+01 0. -1.
        -11    1    4    4    0    0 -0.62870726728E+01  0.53789044958E+02 -0.12451044777E+02  0.55568130761E+02  0.00000000000E+00 0. -1.
         11    1    4    4    0    0 -0.22723414084E+02 -0.27684585969E+02 -0.51446115858E+02  0.62685665704E+02  0.00000000000E+00 0.  1.
</event>
<event>
 8    1  0.6832629E-009  0.3356804E+03  0.7561462E-02  0.1068651E+00
         -2   -1    0    0    0  501 -0.00000000000E+00  0.00000000000E+00  0.11707332044E+03  0.11707332044E+03  0.00000000000E+00 0.  1.
          2   -1    0    0  501    0  0.00000000000E+00 -0.00000000000E+00 -0.14108522021E+04  0.14108522021E+04  0.00000000000E+00 0. -1.
         25    2    1    2    0    0 -0.29022546986E+03  0.13323052266E+03 -0.10806834220E+04  0.11338016667E+04  0.12509342578E+03 0.  0.
         23    2    1    2    0    0  0.29022546986E+03 -0.13323052266E+03 -0.21309545964E+03  0.39412385587E+03  0.89122069789E+02 0.  0.
          5    1    3    3  502    0 -0.65145566590E+02  0.90946125116E+02 -0.29991770274E+03  0.32013004129E+03  0.41800000000E+01 0.  1.
         -5    1    3    3    0  502 -0.22507990327E+03  0.42284397547E+02 -0.78076571928E+03  0.81367162537E+03  0.41800000000E+01 0.  1.
        -11    1    4    4    0    0  0.12693916272E+03 -0.10480593333E+03 -0.89493612560E+02  0.18736846421E+03  0.00000000000E+00 0.  1.
         11    1    4    4    0    0  0.16328630715E+03 -0.28424589338E+02 -0.12360184708E+03  0.20675539166E+03  0.00000000000E+00 0. -1.
</event>
<event>
 8    1  0.6832629E-009  0.1254120E+03  0.7561462E-02  0.1234427E+00
         -2   -1    0    0    0  501 -0.00000000000E+00  0.00000000000E+00  0.65714716926E+02  0.65714716926E+02  0.00000000000E+00 0.  1.
          2   -1    0    0  501    0  0.00000000000E+00 -0.00000000000E+00 -0.46804904021E+03  0.46804904021E+03  0.00000000000E+00 0. -1.
         25    2    1    2    0    0  0.75101301698E+02 -0.70864208194E+01 -0.38752975629E+03  0.41414631230E+03  0.12508970022E+03 0.  0.
         23    2    1    2    0    0 -0.75101301698E+02  0.70864208194E+01 -0.14804566990E+02  0.11961744484E+03  0.91644612655E+02 0.  0.
          5    1    3    3  502    0  0.81138187555E+02 -0.45543246740E+02 -0.34021230249E+03  0.35273145021E+03  0.41800000000E+01 0.  1.
         -5    1    3    3    0  502 -0.60368858566E+01  0.38456825921E+02 -0.47317453806E+02  0.61414862089E+02  0.41800000000E+01 0.  1.
        -11    1    4    4    0    0 -0.92417880104E+02  0.22756449979E+02 -0.14387306092E+02  0.96259623701E+02  0.00000000000E+00 0. -1.
         11    1    4    4    0    0  0.17316578406E+02 -0.15670029159E+02 -0.41726089775E+00  0.23357821135E+02  0.00000000000E+00 0.  1.
</event>
<event>
 8    1  0.6832629E-009  0.1404678E+03  0.7561462E-02  0.1212701E+00
         -2   -1    0    0    0  501 -0.00000000000E+00  0.00000000000E+00  0.66457078495E+02  0.66457078495E+02  0.00000000000E+00 0.  1.
          2   -1    0    0  501    0  0.00000000000E+00 -0.00000000000E+00 -0.31750805461E+03  0.31750805461E+03  0.00000000000E+00 0. -1.
         25    2    1    2    0    0 -0.25436437411E+02 -0.91517694422E+02 -0.13167038864E+03  0.20495892995E+03  0.12509424839E+03 0.  0.
         23    2    1    2    0    0  0.25436437411E+02  0.91517694422E+02 -0.11938058748E+03  0.17900620316E+03  0.93642914105E+02 0.  0.
          5    1    3    3  502    0 -0.16181225831E+02 -0.12289766941E+03 -0.10627403985E+03  0.16333191104E+03  0.41800000000E+01 0. -1.
         -5    1    3    3    0  502 -0.92552115805E+01  0.31379974991E+02 -0.25396348788E+02  0.41627018913E+02  0.41800000000E+01 0. -1.
        -11    1    4    4    0    0  0.53382181595E+02  0.45774554840E+02 -0.33795152127E+02  0.78019737823E+02  0.00000000000E+00 0.  1.
         11    1    4    4    0    0 -0.27945744184E+02  0.45743139582E+02 -0.85585435351E+02  0.10098646534E+03  0.00000000000E+00 0. -1.
</event>
<event>
 8    1  0.6832629E-009  0.2387934E+03  0.7561462E-02  0.1120599E+00
         -1   -1    0    0    0  501 -0.00000000000E+00  0.00000000000E+00  0.50385836570E+02  0.50385836570E+02  0.00000000000E+00 0.  1.
          1   -1    0    0  501    0  0.00000000000E+00 -0.00000000000E+00 -0.12845178011E+04  0.12845178011E+04  0.00000000000E+00 0. -1.
         25    2    1    2    0    0  0.21102499649E+03  0.89658771442E+02 -0.60352829979E+03  0.65762015194E+03  0.12509041193E+03 0.  0.
         23    2    1    2    0    0 -0.21102499649E+03 -0.89658771442E+02 -0.63060366478E+03  0.67728348576E+03  0.92096110765E+02 0.  0.
          5    1    3    3  502    0  0.39956552277E+02  0.38823146974E+02 -0.30271845015E+03  0.30783062757E+03  0.41800000000E+01 0. -1.
         -5    1    3    3    0  502  0.17106844421E+03  0.50835624467E+02 -0.30080984964E+03  0.34978952437E+03  0.41800000000E+01 0. -1.
        -11    1    4    4    0    0 -0.86626862607E+02  0.51793963181E+01 -0.28517179401E+03  0.29808386667E+03  0.00000000000E+00 0. -1.
         11    1    4    4    0    0 -0.12439813388E+03 -0.94838167760E+02 -0.34543187076E+03  0.37919961909E+03  0.00000000000E+00 0.  1.
</event>
<event>
 8    1  0.6832629E-009  0.7596122E+02  0.7561462E-02  0.1340920E+00
          2   -1    0    0  501    0  0.00000000000E+00  0.00000000000E+00  0.33151485447E+03  0.33151485447E+03  0.00000000000E+00 0. -1.
         -2   -1    0    0    0  501 -0.00000000000E+00 -0.00000000000E+00 -0.36862370239E+02  0.36862370239E+02  0.00000000000E+00 0.  1.
         25    2    1    2    0    0 -0.62582156148E+01  0.11297258851E+02  0.19979563733E+03  0.23607509723E+03  0.12508541687E+03 0.  0.
         23    2    1    2    0    0  0.62582156148E+01 -0.11297258851E+02  0.94856846896E+02  0.13230212748E+03  0.91319429544E+02 0.  0.
          5    1    3    3  502    0  0.10638367294E+02 -0.21196676918E+02 -0.77367734427E+01  0.25294347873E+02  0.41800000000E+01 0. -1.
         -5    1    3    3    0  502 -0.16896582909E+02  0.32493935769E+02  0.20753241077E+03  0.21078074935E+03  0.41800000000E+01 0. -1.
        -11    1    4    4    0    0  0.24429101229E+02 -0.45842556752E+02  0.43231447345E+02  0.67581647183E+02  0.00000000000E+00 0.  1.
         11    1    4    4    0    0 -0.18170885614E+02  0.34545297900E+02  0.51625399551E+02  0.64720480297E+02  0.00000000000E+00 0. -1.
</event>
<event>
 8    1  0.6832629E-009  0.1355116E+03  0.7561462E-02  0.1219499E+00
         -1   -1    0    0    0  501 -0.00000000000E+00  0.00000000000E+00  0.17681077814E+03  0.17681077814E+03  0.00000000000E+00 0.  1.
          1   -1    0    0  501    0  0.00000000000E+00 -0.00000000000E+00 -0.25905950172E+03  0.25905950172E+03  0.00000000000E+00 0. -1.
         25    2    1    2    0    0  0.53044610980E+02 -0.11511645585E+03  0.92979325664E+02  0.20089449503E+03  0.12509162231E+03 0.  0.
         23    2    1    2    0    0 -0.53044610980E+02  0.11511645585E+03 -0.17522804925E+03  0.23497578483E+03  0.91887001551E+02 0.  0.
          5    1    3    3  502    0  0.52092932874E+02 -0.64769857026E+02  0.11809028092E+03  0.14447004839E+03  0.41800000000E+01 0. -1.
         -5    1    3    3    0  502  0.95167810554E+00 -0.50346598823E+02 -0.25110955257E+02  0.56424446636E+02  0.41800000000E+01 0. -1.
        -11    1    4    4    0    0 -0.15644841613E+02  0.91961462322E+02 -0.16541857552E+03  0.18990781119E+03  0.00000000000E+00 0. -1.
         11    1    4    4    0    0 -0.37399769366E+02  0.23154993528E+02 -0.98094737232E+01  0.45067973647E+02  0.00000000000E+00 0.  1.
</event>
<event>
 8    1  0.6832629E-009  0.3326181E+03  0.7561462E-02  0.1069984E+00
         -2   -1    0    0    0  501 -0.00000000000E+00  0.00000000000E+00  0.18042662855E+03  0.18042662855E+03  0.00000000000E+00 0.  1.
          2   -1    0    0  501    0  0.00000000000E+00 -0.00000000000E+00 -0.64308102322E+03  0.64308102322E+03  0.00000000000E+00 0. -1.
         25    2    1    2    0    0 -0.23943944718E+03 -0.21487813501E+03 -0.20609021238E+03  0.40203008520E+03  0.12510456425E+03 0.  0.
         23    2    1    2    0    0  0.23943944718E+03  0.21487813501E+03 -0.25656418229E+03  0.42147756657E+03  0.91182770957E+02 0.  0.
          5    1    3    3  502    0 -0.11837596392E+03 -0.18258717599E+03 -0.15215176096E+03  0.26555334009E+03  0.41800000000E+01 0.  1.
         -5    1    3    3    0  502 -0.12106348326E+03 -0.32290959018E+02 -0.53938451416E+02  0.13647674511E+03  0.41800000000E+01 0.  1.
        -11    1    4    4    0    0  0.83845677774E+02  0.87002160473E+02 -0.15316197329E+03  0.19508476022E+03  0.00000000000E+00 0.  1.
         11    1    4    4    0    0  0.15559376941E+03  0.12787597453E+03 -0.10340220900E+03  0.22639280635E+03  0.00000000000E+00 0. -1.
</event>
<event>
 8    1  0.6832629E-009  0.1503186E+03  0.7561462E-02  0.1200082E+00
         -3   -1    0    0    0  501 -0.00000000000E+00  0.00000000000E+00  0.41572935529E+03  0.41572935529E+03  0.00000000000E+00 0.  1.
          3   -1    0    0  501    0  0.00000000000E+00 -0.00000000000E+00 -0.67167317714E+02  0.67167317714E+02  0.00000000000E+00 0. -1.
         25    2    1    2    0    0  0.58772273943E+02  0.10223455614E+03  0.11869941869E+03  0.20890901988E+03  0.12508933582E+03 0.  0.
         23    2    1    2    0    0 -0.58772273943E+02 -0.10223455614E+03  0.22986261889E+03  0.27398765312E+03  0.91248703264E+02 0.  0.
          5    1    3    3  502    0  0.17091518475E+02 -0.28808868619E+02  0.16806640412E+02  0.37709501148E+02  0.41800000000E+01 0. -1.
         -5    1    3    3    0  502  0.41680755468E+02  0.13104342476E+03  0.10189277828E+03  0.17119951874E+03  0.41800000000E+01 0. -1.
        -11    1    4    4    0    0 -0.64756058808E+02 -0.65576534955E+02  0.88303628285E+02  0.12763682798E+03  0.00000000000E+00 0. -1.
         11    1    4    4    0    0  0.59837848650E+01 -0.36658021188E+02  0.14155899060E+03  0.14635082514E+03  0.00000000000E+00 0.  1.
</event>
<event>
 8    1  0.6832629E-009  0.9931606E+02  0.7561462E-02  0.1281741E+00
          1   -1    0    0  501    0  0.00000000000E+00  0.00000000000E+00  0.28801105862E+03  0.28801105862E+03  0.00000000000E+00 0. -1.
         -1   -1    0    0    0  501 -0.00000000000E+00 -0.00000000000E+00 -0.74768380632E+02  0.74768380632E+02  0.00000000000E+00 0.  1.
         25    2    1    2    0    0  0.65240581154E+02  0.47905603159E+01  0.23720121322E+02  0.14314102215E+03  0.12508966852E+03 0.  0.
         23    2    1    2    0    0 -0.65240581154E+02 -0.47905603159E+01  0.18952255667E+03  0.21963841710E+03  0.89682506005E+02 0.  0.
          5    1    3    3  502    0  0.75588085084E+02 -0.13460401492E+02 -0.32130042859E+02  0.83333985079E+02  0.41800000000E+01 0. -1.
         -5    1    3    3    0  502 -0.10347503930E+02  0.18250961808E+02  0.55850164181E+02  0.59807037074E+02  0.41800000000E+01 0. -1.
        -11    1    4    4    0    0 -0.61856856194E+02  0.27633403147E+02  0.16642190033E+03  0.17968340084E+03  0.00000000000E+00 0. -1.
         11    1    4    4    0    0 -0.33837249600E+01 -0.32423963463E+02  0.23100656338E+02  0.39955016262E+02  0.00000000000E+00 0.  1.
</event>
<event>
 8    1  0.6832629E-009  0.9777948E+02  0.7561462E-02  0.1285036E+00
          1   -1    0    0  501    0  0.00000000000E+00  0.00000000000E+00  0.31357297918E+03  0.31357297918E+03  0.00000000000E+00 0. -1.
         -1   -1    0    0    0  501 -0.00000000000E+00 -0.00000000000E+00 -0.50310163651E+02  0.50310163651E+02  0.00000000000E+00 0.  1.
         25    2    1    2    0    0  0.46888796696E+02 -0.18663478719E+02  0.20681216151E+03  0.24691439029E+03  0.12509420965E+03 0.  0.
         23    2    1    2    0    0 -0.46888796696E+02  0.18663478719E+02  0.56450654022E+02  0.11696875255E+03  0.89152274449E+02 0.  0.
          5    1    3    3  502    0  0.41356474257E+02 -0.47916673308E+02  0.20736007791E+03  0.21684565906E+03  0.41800000000E+01 0. -1.
         -5    1    3    3    0  502  0.55323224393E+01  0.29253194589E+02 -0.54791639617E+00  0.30068731227E+02  0.41800000000E+01 0. -1.
        -11    1    4    4    0    0 -0.14493631355E+02 -0.35838742095E+02  0.16526236432E+02  0.42042802897E+02  0.00000000000E+00 0.  1.
         11    1    4    4    0    0 -0.32395165341E+02  0.54502220814E+02  0.39924417590E+02  0.74925949650E+02  0.00000000000E+00 0. -1.
</event>
<event>
 8    1  0.6832629E-009  0.1175581E+03  0.7561462E-02  0.1247181E+00
         -2   -1    0    0    0  501 -0.00000000000E+00  0.00000000000E+00  0.45030411194E+02  0.45030411194E+02  0.00000000000E+00 0.  1.
          2   -1    0    0  501    0  0.00000000000E+00 -0.00000000000E+00 -0.48972748687E+03  0.48972748687E+03  0.00000000000E+00 0. -1.
         25    2    1    2    0    0  0.91038892247E+02  0.41309621932E+02 -0.27432175825E+03  0.31763807456E+03  0.12508778758E+03 0.  0.
         23    2    1    2    0    0 -0.91038892247E+02 -0.41309621932E+02 -0.17037531743E+03  0.21711982350E+03  0.90103852307E+02 0.  0.
          5    1    3    3  502    0  0.99630024883E+01 -0.24742245475E+02 -0.16152430550E+03  0.16376511777E+03  0.41800000000E+01 0.  1.
         -5    1    3    3    0  502  0.81075889759E+02  0.66051867407E+02 -0.11279745275E+03  0.15387295680E+03  0.41800000000E+01 0.  1.
        -11    1    4    4    0    0 -0.30965754503E+02 -0.75029045142E+00 -0.13103975085E+03  0.13465087148E+03  0.00000000000E+00 0. -1.
         11    1    4    4    0    0 -0.60073137744E+02 -0.40559331481E+02 -0.39335566580E+02  0.82468952017E+02  0.00000000000E+00 0.  1.
</event>
<event>
 8    1  0.6832629E-009  0.1351613E+03  0.7561462E-02  0.1219992E+00
          2   -1    0    0  501    0  0.00000000000E+00  0.00000000000E+00  0.25964421845E+03  0.25964421845E+03  0.00000000000E+00 0. -1.
         -2   -1    0    0    0  501 -0.00000000000E+00 -0.00000000000E+00 -0.12371391691E+03  0.12371391691E+03  0.00000000000E+00 0.  1.
         25    2    1    2    0    0 -0.90071564098E+02 -0.91057376845E+02  0.50232416464E+01  0.17910080869E+03  0.12509010424E+03 0.  0.
         23    2    1    2    0    0  0.90071564098E+02  0.91057376845E+02  0.13090705990E+03  0.20425732667E+03  0.90443709747E+02 0.  0.
          5    1    3    3  502    0 -0.22167829119E+02 -0.62404610117E+02 -0.53226841104E+02  0.85066544690E+02  0.41800000000E+01 0.  1.
         -5    1    3    3    0  502 -0.67903734979E+02 -0.28652766728E+02  0.58250082750E+02  0.94034263998E+02  0.41800000000E+01 0.  1.
        -11    1    4    4    0    0  0.36210995945E+02  0.21285757680E+02 -0.49686834126E+01  0.42296660887E+02  0.00000000000E+00 0.  1.
         11    1    4    4    0    0  0.53860568153E+02  0.69771619165E+02  0.13587574331E+03  0.16196066579E+03  0.00000000000E+00 0. -1.
</event>
<event>
 8    1  0.6832629E-009  0.8481389E+02  0.7561462E-02  0.1315920E+00
          3   -1    0    0  501    0  0.00000000000E+00  0.00000000000E+00  0.70891864041E+02  0.70891864041E+02  0.00000000000E+00 0. -1.
         -3   -1    0    0    0  501 -0.00000000000E+00 -0.00000000000E+00 -0.18621221084E+03  0.18621221084E+03  0.00000000000E+00 0.  1.
         25    2    1    2    0    0 -0.11232643480E+02 -0.33238556875E+02 -0.48234086341E+02  0.13858353498E+03  0.12509154704E+03 0.  0.
         23    2    1    2    0    0  0.11232643480E+02  0.33238556875E+02 -0.67086260454E+02  0.11852053990E+03  0.91189791605E+02 0.  0.
          5    1    3    3  502    0 -0.42827795061E+02 -0.11333560544E+02  0.28368744125E+02  0.52772413889E+02  0.41800000000E+01 0. -1.
         -5    1    3    3    0  502  0.31595151581E+02 -0.21904996331E+02 -0.76602830466E+02  0.85811121093E+02  0.41800000000E+01 0. -1.
        -11    1    4    4    0    0  0.35993505603E+02  0.46154048874E+02 -0.16621918738E+02  0.60844201495E+02  0.00000000000E+00 0. -1.
         11    1    4    4    0    0 -0.24760862123E+02 -0.12915491998E+02 -0.50464341716E+02  0.57676338402E+02  0.00000000000E+00 0.  1.
</event>
<event>
 8    1  0.6832629E-009  0.1062425E+03  0.7561462E-02  0.1267691E+00
         -2   -1    0    0    0  501 -0.00000000000E+00  0.00000000000E+00  0.64091232756E+02  0.64091232756E+02  0.00000000000E+00 0.  1.
          2   -1    0    0  501    0  0.00000000000E+00 -0.00000000000E+00 -0.23259097200E+03  0.23259097200E+03  0.00000000000E+00 0. -1.
         25    2    1    2    0    0 -0.39032903942E+02 -0.39053790602E+02 -0.83826964431E+02  0.16038508449E+03  0.12509056404E+03 0.  0.
         23    2    1    2    0    0  0.39032903942E+02  0.39053790602E+02 -0.84672774816E+02  0.13629712027E+03  0.91425707805E+02 0.  0.
          5    1    3    3  502    0  0.24158467867E+02 -0.34398579222E+02  0.13349367690E+02  0.44300923691E+02  0.41800000000E+01 0.  1.
         -5    1    3    3    0  502 -0.63191371809E+02 -0.46552113807E+01 -0.97176332121E+02  0.11608416080E+03  0.41800000000E+01 0.  1.
        -11    1    4    4    0    0 -0.59570484793E+01  0.57725668134E+02 -0.48353190261E+02  0.75536548746E+02  0.00000000000E+00 0. -1.
         11    1    4    4    0    0  0.44989952422E+02 -0.18671877531E+02 -0.36319584555E+02  0.60760571522E+02  0.00000000000E+00 0.  1.
</event>
<event>
 8    1  0.6832629E-009  0.3635187E+03  0.7561462E-02  0.1057199E+00
         -1   -1    0    0    0  501 -0.00000000000E+00  0.00000000000E+00  0.39281529495E+03  0.39281529495E+03  0.00000000000E+00 0.  1.
          1   -1    0    0  501    0  0.00000000000E+00 -0.00000000000E+00 -0.37209103572E+03  0.37209103572E+03  0.00000000000E+00 0. -1.
         25    2    1    2    0    0  0.35300930864E+03 -0.14762972070E+02  0.10964406305E+03  0.39051601062E+03  0.12508963449E+03 0.  0.
         23    2    1    2    0    0 -0.35300930864E+03  0.14762972070E+02 -0.88919803826E+02  0.37439032005E+03  0.86185050325E+02 0.  0.
          5    1    3    3  502    0  0.30719809828E+03  0.29024396050E+02  0.10812359884E+03  0.32698818355E+03  0.41800000000E+01 0.  1.
         -5    1    3    3    0  502  0.45811210365E+02 -0.43787368120E+02  0.15204642173E+01  0.63527827079E+02  0.41800000000E+01 0.  1.
        -11    1    4    4    0    0 -0.10369691169E+03 -0.11069501222E+02  0.10355235497E+02  0.10479892296E+03  0.00000000000E+00 0.  1.
         11    1    4    4    0    0 -0.24931239695E+03  0.25832473292E+02 -0.99275039323E+02  0.26959139709E+03  0.00000000000E+00 0. -1.
</event>
<event>
 8    1  0.6832629E-009  0.2809929E+03  0.7561462E-02  0.1095148E+00
         -2   -1    0    0    0  501 -0.00000000000E+00  0.00000000000E+00  0.20582117167E+03  0.20582117167E+03  0.00000000000E+00 0. -1.
          2   -1    0    0  501    0  0.00000000000E+00 -0.00000000000E+00 -0.11106302869E+04  0.11106302869E+04  0.00000000000E+00 0.  1.
         25    2    1    2    0    0  0.14053866129E+03  0.22865748278E+03  0.67611884480E+02  0.30373298535E+03  0.12508796791E+03 0.  0.
         23    2    1    2    0    0 -0.14053866129E+03 -0.22865748278E+03 -0.97242099973E+03  0.10127184733E+04  0.89223010454E+02 0.  0.
          5    1    3    3  502    0  0.14065889038E+03  0.23761738275E+03  0.45997864678E+02  0.27996467631E+03  0.41800000000E+01 0. -1.
         -5    1    3    3    0  502 -0.12022908492E+00 -0.89598999672E+01  0.21614019801E+02  0.23768309036E+02  0.41800000000E+01 0. -1.
        -11    1    4    4    0    0 -0.10805479991E+03 -0.11530339494E+03 -0.44344647902E+03  0.47076054680E+03  0.00000000000E+00 0.  1.
         11    1    4    4    0    0 -0.32483861382E+02 -0.11335408784E+03 -0.52897452071E+03  0.54195792645E+03  0.00000000000E+00 0. -1.
</event>
<event>
 8    1  0.6832629E-009  0.1022176E+03  0.7561462E-02  0.1275701E+00
          2   -1    0    0  501    0  0.00000000000E+00  0.00000000000E+00  0.36986854430E+02  0.36986854430E+02  0.00000000000E+00 0. -1.
         -2   -1    0    0    0  501 -0.00000000000E+00 -0.00000000000E+00 -0.40408603158E+03  0.40408603158E+03  0.00000000000E+00 0.  1.
         25    2    1    2    0    0  0.54455374544E+02  0.46502623507E+01 -0.19359036157E+03  0.23688364225E+03  0.12509843771E+03 0.  0.
         23    2    1    2    0    0 -0.54455374544E+02 -0.46502623507E+01 -0.17350881557E+03  0.20418924375E+03  0.92741174385E+02 0.  0.
          5    1    3    3  502    0  0.71209076508E+02  0.24807858882E+02 -0.19618068637E+03  0.21021535753E+03  0.41800000000E+01 0.  1.
         -5    1    3    3    0  502 -0.16753701963E+02 -0.20157596531E+02  0.25903247932E+01  0.26668284720E+02  0.41800000000E+01 0.  1.
        -11    1    4    4    0    0 -0.34190589337E+02  0.40427636922E+02 -0.57899110669E+02  0.78458251590E+02  0.00000000000E+00 0. -1.
         11    1    4    4    0    0 -0.20264785207E+02 -0.45077899273E+02 -0.11560970490E+03  0.12573099216E+03  0.00000000000E+00 0.  1.
</event>
<event>
 8    1  0.6832629E-009  0.1158907E+03  0.7561462E-02  0.1250034E+00
         -1   -1    0    0    0  501 -0.00000000000E+00  0.00000000000E+00  0.57668815119E+03  0.57668815119E+03  0.00000000000E+00 0.  1.
          1   -1    0    0  501    0  0.00000000000E+00 -0.00000000000E+00 -0.28506137012E+02  0.28506137012E+02  0.00000000000E+00 0. -1.
         25    2    1    2    0    0 -0.47333909223E+02  0.51107352093E+02  0.34925343215E+03  0.37746111133E+03  0.12508585169E+03 0.  0.
         23    2    1    2    0    0  0.47333909223E+02 -0.51107352093E+02  0.19892858203E+03  0.22773317688E+03  0.86240122349E+02 0.  0.
          5    1    3    3  502    0 -0.18028674483E+02  0.88205157061E+02  0.27447368653E+03  0.28889177875E+03  0.41800000000E+01 0. -1.
         -5    1    3    3    0  502 -0.29305234740E+02 -0.37097804968E+02  0.74779745626E+02  0.88569332574E+02  0.41800000000E+01 0. -1.
        -11    1    4    4    0    0  0.62520527013E+02 -0.33454714167E+02  0.81548939162E+02  0.10806601536E+03  0.00000000000E+00 0.  1.
         11    1    4    4    0    0 -0.15186617789E+02 -0.17652637926E+02  0.11737964287E+03  0.11966716152E+03  0.00000000000E+00 0. -1.
</event>
<event>
 8    1  0.6832629E-009  0.4329623E+02  0.7561462E-02  0.1485267E+00
          1   -1    0    0  501    0  0.00000000000E+00  0.00000000000E+00  0.82546857543E+02  0.82546857543E+02  0.00000000000E+00 0. -1.
         -1   -1    0    0    0  501 -0.00000000000E+00 -0.00000000000E+00 -0.21233869699E+03  0.21233869699E+03  0.00000000000E+00 0.  1.
         25    2    1    2    0    0 -0.74163467968E+01  0.15295677824E+01  0.12015062339E+02  0.12589372281E+03  0.12509007132E+03 0.  0.
         23    2    1    2    0    0  0.74163467968E+01 -0.15295677824E+01 -0.14180690179E+03  0.16899183173E+03  0.91606222592E+02 0.  0.
          5    1    3    3  502    0 -0.15025245903E+02 -0.20698194911E+01  0.67657808163E+02  0.69462893494E+02  0.41800000000E+01 0. -1.
         -5    1    3    3    0  502  0.76088991058E+01  0.35993872735E+01 -0.55642745824E+02  0.56430829315E+02  0.41800000000E+01 0. -1.
        -11    1    4    4    0    0 -0.26069855093E+02 -0.81770625187E+01 -0.13004300001E+03  0.13288221682E+03  0.00000000000E+00 0.  1.
         11    1    4    4    0    0  0.33486201890E+02  0.66474947363E+01 -0.11763901776E+02  0.36109614901E+02  0.00000000000E+00 0. -1.
</event>
<event>
 8    1  0.6832629E-009  0.1581612E+03  0.7561462E-02  0.1190789E+00
          1   -1    0    0  501    0  0.00000000000E+00  0.00000000000E+00  0.81468511143E+02  0.81468511143E+02  0.00000000000E+00 0. -1.
         -1   -1    0    0    0  501 -0.00000000000E+00 -0.00000000000E+00 -0.45152474607E+03  0.45152474607E+03  0.00000000000E+00 0.  1.
         25    2    1    2    0    0  0.88148369148E+02 -0.11446345697E+03 -0.10323604531E+03  0.21720934559E+03  0.12510076257E+03 0.  0.
         23    2    1    2    0    0 -0.88148369148E+02  0.11446345697E+03 -0.26682018962E+03  0.31578391162E+03  0.87489698170E+02 0.  0.
          5    1    3    3  502    0  0.90919974326E+02 -0.70576445076E+02 -0.11942926356E+02  0.11579111460E+03  0.41800000000E+01 0. -1.
         -5    1    3    3    0  502 -0.27716051778E+01 -0.43887011898E+02 -0.91293118957E+02  0.10141823099E+03  0.41800000000E+01 0. -1.
        -11    1    4    4    0    0 -0.95277846627E+02  0.88455456048E+02 -0.25522394458E+03  0.28642887014E+03  0.00000000000E+00 0.  1.
         11    1    4    4    0    0  0.71294774797E+01  0.26008000927E+02 -0.11596245034E+02  0.29355041479E+02  0.00000000000E+00 0. -1.
</event>
<event>
 8    1  0.6832629E-009  0.1355661E+03  0.7561462E-02  0.1219423E+00
          2   -1    0    0  501    0  0.00000000000E+00  0.00000000000E+00  0.18619479600E+03  0.18619479600E+03  0.00000000000E+00 0. -1.
         -2   -1    0    0    0  501 -0.00000000000E+00 -0.00000000000E+00 -0.14741158019E+03  0.14741158019E+03  0.00000000000E+00 0.  1.
         25    2    1    2    0    0 -0.11856164208E+03 -0.32358867000E+02  0.28321536626E+02  0.17763321770E+03  0.12508993305E+03 0.  0.
         23    2    1    2    0    0  0.11856164208E+03  0.32358867000E+02  0.10461679180E+02  0.15597315848E+03  0.95468425096E+02 0.  0.
          5    1    3    3  502    0 -0.58970654892E+02 -0.28767380239E+02  0.76452622815E+02  0.10083440008E+03  0.41800000000E+01 0.  1.
         -5    1    3    3    0  502 -0.59590987184E+02 -0.35914867608E+01 -0.48131086189E+02  0.76798817624E+02  0.41800000000E+01 0.  1.
        -11    1    4    4    0    0  0.34633601714E+02  0.48974892018E+02  0.31664202579E+02  0.67828077820E+02  0.00000000000E+00 0. -1.
         11    1    4    4    0    0  0.83928040362E+02 -0.16616025018E+02 -0.21202523398E+02  0.88145080662E+02  0.00000000000E+00 0.  1.
</event>
<event>
 8    1  0.6832629E-009  0.1626029E+03  0.7561462E-02  0.1185789E+00
          1   -1    0    0  501    0  0.00000000000E+00  0.00000000000E+00  0.11402371398E+03  0.11402371398E+03  0.00000000000E+00 0. -1.
         -1   -1    0    0    0  501 -0.00000000000E+00 -0.00000000000E+00 -0.29235274223E+03  0.29235274223E+03  0.00000000000E+00 0.  1.
         25    2    1    2    0    0 -0.12239766838E+03  0.76907803497E+02 -0.66547959654E+02  0.20241852690E+03  0.12509448282E+03 0.  0.
         23    2    1    2    0    0  0.12239766838E+03 -0.76907803497E+02 -0.11178106859E+03  0.20395792931E+03  0.90597075941E+02 0.  0.
          5    1    3    3  502    0 -0.11066471618E+03  0.97480380659E+01 -0.74240408492E+02  0.13368176505E+03  0.41800000000E+01 0.  1.
         -5    1    3    3    0  502 -0.11732952200E+02  0.67159765431E+02  0.76924488375E+01  0.68736761847E+02  0.41800000000E+01 0.  1.
        -11    1    4    4    0    0  0.66123130106E+02 -0.30644530612E+02 -0.28790007812E+01  0.72935891281E+02  0.00000000000E+00 0. -1.
         11    1    4    4    0    0  0.56274538277E+02 -0.46263272885E+02 -0.10890206781E+03  0.13102203803E+03  0.00000000000E+00 0.  1.
</event>
<event>
 8    1  0.6832629E-009  0.1048250E+03  0.7561462E-02  0.1270465E+00
         -1   -1    0    0    0  501 -0.00000000000E+00  0.00000000000E+00  0.10002395631E+03  0.10002395631E+03  0.00000000000E+00 0.  1.
          1   -1    0    0  501    0  0.00000000000E+00 -0.00000000000E+00 -0.14730669182E+03  0.14730669182E+03  0.00000000000E+00 0. -1.
         25    2    1    2    0    0  0.22471739694E+01  0.12383256624E+02  0.28751671191E+02  0.12896990896E+03  0.12509270157E+03 0.  0.
         23    2    1    2    0    0 -0.22471739694E+01 -0.12383256624E+02 -0.76034406702E+02  0.11836073916E+03  0.89831167959E+02 0.  0.
          5    1    3    3  502    0  0.59970496673E+02  0.11115497483E+02  0.35491685952E+02  0.70690500969E+02  0.41800000000E+01 0. -1.
         -5    1    3    3    0  502 -0.57723322704E+02  0.12677591411E+01 -0.67400147604E+01  0.58279407995E+02  0.41800000000E+01 0. -1.
        -11    1    4    4    0    0 -0.11138956211E+02  0.37930985061E+02 -0.30682544808E+02  0.50042527205E+02  0.00000000000E+00 0.  1.
         11    1    4    4    0    0  0.88917822413E+01 -0.50314241685E+02 -0.45351861893E+02  0.68318211956E+02  0.00000000000E+00 0. -1.
</event>
<event>
 8    1  0.6832629E-009  0.1144958E+03  0.7561462E-02  0.1252464E+00
          2   -1    0    0  501    0  0.00000000000E+00  0.00000000000E+00  0.78157816135E+03  0.78157816135E+03  0.00000000000E+00 0. -1.
         -2   -1    0    0    0  501 -0.00000000000E+00 -0.00000000000E+00 -0.30301795859E+02  0.30301795859E+02  0.00000000000E+00 0.  1.
         25    2    1    2    0    0 -0.20501866139E+02  0.76136867950E+02  0.60277627795E+03  0.62064767362E+03  0.12508854594E+03 0.  0.
         23    2    1    2    0    0  0.20501866139E+02 -0.76136867950E+02  0.14850008753E+03  0.19123228359E+03  0.91106317633E+02 0.  0.
          5    1    3    3  502    0 -0.22878352136E+02 -0.30225398854E+02  0.10772944636E+03  0.11428079342E+03  0.41800000000E+01 0.  1.
         -5    1    3    3    0  502  0.23764859969E+01  0.10636226680E+03  0.49504683160E+03  0.50636688019E+03  0.41800000000E+01 0.  1.
        -11    1    4    4    0    0 -0.74119446816E+01 -0.88989001214E+01 -0.10956288420E+02  0.15942634766E+02  0.00000000000E+00 0.  1.
         11    1    4    4    0    0  0.27913810820E+02 -0.67237967829E+02  0.15945637595E+03  0.17528964882E+03  0.00000000000E+00 0. -1.
</event>
<event>
 8    1  0.6832629E-009  0.2101888E+03  0.7561462E-02  0.1141417E+00
         -2   -1    0    0    0  501 -0.00000000000E+00  0.00000000000E+00  0.10385000278E+03  0.10385000278E+03  0.00000000000E+00 0.  1.
          2   -1    0    0  501    0  0.00000000000E+00 -0.00000000000E+00 -0.45004213014E+03  0.45004213014E+03  0.00000000000E+00 0. -1.
         25    2    1    2    0    0  0.61130149556E+02  0.16983731871E+03 -0.11775061064E+03  0.24919090736E+03  0.12509713025E+03 0.  0.
         23    2    1    2    0    0 -0.61130149556E+02 -0.16983731871E+03 -0.22844151672E+03  0.30470122555E+03  0.89864900133E+02 0.  0.
          5    1    3    3  502    0 -0.38329933293E+02  0.56762083003E+02 -0.30442906998E+02  0.75069040487E+02  0.41800000000E+01 0. -1.
         -5    1    3    3    0  502  0.99460082849E+02  0.11307523571E+03 -0.87307703638E+02  0.17412186688E+03  0.41800000000E+01 0. -1.
        -11    1    4    4    0    0 -0.77445772075E+02 -0.16761372171E+03 -0.21532263034E+03  0.28364774361E+03  0.00000000000E+00 0.  1.
         11    1    4    4    0    0  0.16315622519E+02 -0.22235969990E+01 -0.13118886384E+02  0.21053481939E+02  0.00000000000E+00 0. -1.
</event>
<event>
 8    1  0.6832629E-009  0.1886356E+03  0.7561462E-02  0.1159698E+00
         -2   -1    0    0    0  501 -0.00000000000E+00  0.00000000000E+00  0.55574997581E+02  0.55574997581E+02  0.00000000000E+00 0.  1.
          2   -1    0    0  501    0  0.00000000000E+00 -0.00000000000E+00 -0.93721202571E+03  0.93721202571E+03  0.00000000000E+00 0. -1.
         25    2    1    2    0    0  0.15433938749E+03 -0.36909719335E+02 -0.19014191180E+03  0.27746152907E+03  0.12509188453E+03 0.  0.
         23    2    1    2    0    0 -0.15433938749E+03  0.36909719335E+02 -0.69149511633E+03  0.71532549422E+03  0.91335058273E+02 0.  0.
          5    1    3    3  502    0  0.16482885195E+03 -0.57553985140E+02 -0.14679060915E+03  0.22813585201E+03  0.41800000000E+01 0. -1.
         -5    1    3    3    0  502 -0.10489464452E+02  0.20644265805E+02 -0.43351302653E+02  0.49325677054E+02  0.41800000000E+01 0. -1.
        -11    1    4    4    0    0 -0.14517195116E+03  0.43074718860E+01 -0.49247024784E+03  0.51343976738E+03  0.00000000000E+00 0.  1.
         11    1    4    4    0    0 -0.91674363308E+01  0.32602247449E+02 -0.19902486849E+03  0.20188572685E+03  0.00000000000E+00 0. -1.
</event>
<event>
 8    1  0.6832629E-009  0.8725761E+02  0.7561462E-02  0.1309632E+00
          2   -1    0    0  501    0  0.00000000000E+00  0.00000000000E+00  0.13522518556E+04  0.13522518556E+04  0.00000000000E+00 0. -1.
         -2   -1    0    0    0  501 -0.00000000000E+00 -0.00000000000E+00 -0.11942489499E+02  0.11942489499E+02  0.00000000000E+00 0.  1.
         25    2    1    2    0    0  0.13639529346E+02  0.55482105661E+02  0.92940683901E+03  0.93952707340E+03  0.12509895464E+03 0.  0.
         23    2    1    2    0    0 -0.13639529346E+02 -0.55482105661E+02  0.41090252706E+03  0.42466727167E+03  0.90758493093E+02 0.  0.
          5    1    3    3  502    0  0.22311545592E+02  0.14933338508E+02  0.35773412634E+02  0.44922367671E+02  0.41800000000E+01 0. -1.
         -5    1    3    3    0  502 -0.86720162468E+01  0.40548767152E+02  0.89363342637E+03  0.89460470573E+03  0.41800000000E+01 0. -1.
        -11    1    4    4    0    0  0.37422885202E+02 -0.14277177805E+02  0.19243419695E+03  0.19655846534E+03  0.00000000000E+00 0.  1.
         11    1    4    4    0    0 -0.51062414548E+02 -0.41204927856E+02  0.21846833012E+03  0.22810880633E+03  0.00000000000E+00 0. -1.
</event>
<event>
 8    1  0.6832629E-009  0.3374634E+03  0.7561462E-02  0.1067881E+00
         -1   -1    0    0    0  501 -0.00000000000E+00  0.00000000000E+00  0.13853890301E+03  0.13853890301E+03  0.00000000000E+00 0.  1.
          1   -1    0    0  501    0  0.00000000000E+00 -0.00000000000E+00 -0.11557269017E+04  0.11557269017E+04  0.00000000000E+00 0. -1.
         25    2    1    2    0    0  0.30773477048E+03 -0.11776327217E+03 -0.19257758860E+03  0.40162487339E+03  0.12509010377E+03 0.  0.
         23    2    1    2    0    0 -0.30773477048E+03  0.11776327217E+03 -0.82461041010E+03  0.89264093132E+03  0.90865981482E+02 0.  0.
          5    1    3    3  502    0  0.12867069810E+03 -0.22827802247E+01 -0.12133016561E+03  0.17691761111E+03  0.41800000000E+01 0.  1.
         -5    1    3    3    0  502  0.17906407238E+03 -0.11548049195E+03 -0.71247422988E+02  0.22470726228E+03  0.41800000000E+01 0.  1.
        -11    1    4    4    0    0 -0.18340562151E+03  0.95389161831E+02 -0.60429805461E+03  0.63868055631E+03  0.00000000000E+00 0.  1.
         11    1    4    4    0    0 -0.12432914897E+03  0.22374110340E+02 -0.22031235549E+03  0.25396037502E+03  0.00000000000E+00 0. -1.
</event>
<event>
 8    1  0.6832629E-009  0.1675364E+03  0.7561462E-02  0.1180442E+00
          2   -1    0    0  501    0  0.00000000000E+00  0.00000000000E+00  0.12967719579E+04  0.12967719579E+04  0.00000000000E+00 0.  1.
         -2   -1    0    0    0  501 -0.00000000000E+00 -0.00000000000E+00 -0.24107057038E+02  0.24107057038E+02  0.00000000000E+00 0. -1.
         25    2    1    2    0    0 -0.12048087120E+03 -0.53509295588E+02  0.83372037166E+03  0.85329605460E+03  0.12508242740E+03 0.  0.
         23    2    1    2    0    0  0.12048087120E+03  0.53509295588E+02  0.43894452917E+03  0.46758296030E+03  0.92642539020E+02 0.  0.
          5    1    3    3  502    0 -0.10694490685E+03 -0.91684129648E+02  0.65717869353E+03  0.67211940931E+03  0.41800000000E+01 0. -1.
         -5    1    3    3    0  502 -0.13535964349E+02  0.38174834060E+02  0.17654167812E+03  0.18117664530E+03  0.41800000000E+01 0. -1.
        -11    1    4    4    0    0  0.71048083960E+02 -0.11274153908E+02  0.27836441361E+03  0.28750944949E+03  0.00000000000E+00 0. -1.
         11    1    4    4    0    0  0.49432787241E+02  0.64783449497E+02  0.16058011556E+03  0.18007351081E+03  0.00000000000E+00 0.  1.
</event>
