<event>
 8    1  0.8061721E-006  0.1097382E+03  0.7561462E-02  0.1261055E+00
          1   -1    0    0  501    0  0.00000000000E+00  0.00000000000E+00  0.83558789815E+03  0.83558789815E+03  0.00000000000E+00 0. -1.
         -1   -1    0    0    0  501 -0.00000000000E+00 -0.00000000000E+00 -0.18912579852E+02  0.18912579852E+02  0.00000000000E+00 0.  1.
         23    2    1    2    0    0 -0.28386270327E+02 -0.19716201259E+02  0.20318312153E+03  0.22743159837E+03  0.96162581753E+02 0.  0.
         23    2    1    2    0    0  0.28386270327E+02  0.19716201259E+02  0.61349219677E+03  0.62706887963E+03  0.12509274706E+03 0.  0.
          5    1    4    4  502    0 -0.38149835193E+02  0.43214176873E+02  0.32056923594E+03  0.32573759752E+03  0.41800000000E+01 0. -1.
         -5    1    4    4    0  502  0.66536105520E+02 -0.23497975614E+02  0.29292296084E+03  0.30133128211E+03  0.41800000000E+01 0. -1.
        -11    1    3    3    0    0  0.30188758719E+02 -0.83967518581E+01  0.26800081411E+02  0.41232401803E+02  0.00000000000E+00 0. -1.
         11    1    3    3    0    0 -0.58575029046E+02 -0.11319449401E+02  0.17638304012E+03  0.18619919657E+03  0.00000000000E+00 0.  1.
</event>
<event>
 8    1  0.8061721E-006  0.1738081E+03  0.7561462E-02  0.1173934E+00
         -1   -1    0    0    0  501 -0.00000000000E+00  0.00000000000E+00  0.72119074110E+02  0.72119074110E+02  0.00000000000E+00 0.  1.
          1   -1    0    0  501    0  0.00000000000E+00 -0.00000000000E+00 -0.84597710477E+03  0.84597710477E+03  0.00000000000E+00 0. -1.
         23    2    1    2    0    0 -0.13662783011E+03  0.10339564349E+02 -0.55854371333E+02  0.17651115134E+03  0.96241390246E+02 0.  0.
         23    2    1    2    0    0  0.13662783011E+03 -0.10339564349E+02 -0.71800365933E+03  0.74158502755E+03  0.12508008522E+03 0.  0.
          5    1    4    4  502    0  0.13506709705E+03  0.30977101390E+02 -0.46626514104E+03  0.48643946763E+03  0.41800000000E+01 0.  1.
         -5    1    4    4    0  502  0.15607330578E+01 -0.41316665740E+02 -0.25173851829E+03  0.25514555992E+03  0.41800000000E+01 0.  1.
        -11    1    3    3    0    0 -0.80765292195E+02  0.53458118378E+02 -0.31015842036E+02  0.10169948525E+03  0.00000000000E+00 0.  1.
         11    1    3    3    0    0 -0.55862537917E+02 -0.43118554028E+02 -0.24838529297E+02  0.74811666080E+02  0.00000000000E+00 0. -1.
</event>
<event>
 8    1  0.8061721E-006  0.9172925E+02  0.7561462E-02  0.1298717E+00
          2   -1    0    0  501    0  0.00000000000E+00  0.00000000000E+00  0.29924761639E+03  0.29924761639E+03  0.00000000000E+00 0. -1.
         -2   -1    0    0    0  501 -0.00000000000E+00 -0.00000000000E+00 -0.52709053855E+02  0.52709053855E+02  0.00000000000E+00 0.  1.
         23    2    1    2    0    0 -0.38457620670E+02 -0.21193816190E+02  0.42230442094E+02  0.10840416814E+03  0.89665416959E+02 0.  0.
         23    2    1    2    0    0  0.38457620670E+02  0.21193816190E+02  0.20430812045E+03  0.24355250211E+03  0.12509135370E+03 0.  0.
          5    1    4    4  502    0  0.69497105639E+02  0.28402450807E+02  0.19661941436E+03  0.21050703886E+03  0.41800000000E+01 0.  1.
         -5    1    4    4    0  502 -0.31039484969E+02 -0.72086346168E+01  0.76887060803E+01  0.33045463249E+02  0.41800000000E+01 0.  1.
        -11    1    3    3    0    0 -0.19322034227E+02 -0.42983954105E+02  0.58524520641E+02  0.75140407461E+02  0.00000000000E+00 0. -1.
         11    1    3    3    0    0 -0.19135586443E+02  0.21790137915E+02 -0.16294078547E+02  0.33263760680E+02  0.00000000000E+00 0.  1.
</event>
<event>
 8    1  0.8061721E-006  0.1820430E+03  0.7561462E-02  0.1165840E+00
         -1   -1    0    0    0  501 -0.00000000000E+00  0.00000000000E+00  0.83337494381E+03  0.83337494381E+03  0.00000000000E+00 0.  1.
          1   -1    0    0  501    0  0.00000000000E+00 -0.00000000000E+00 -0.44884665545E+02  0.44884665545E+02  0.00000000000E+00 0. -1.
         23    2    1    2    0    0 -0.14890539703E+03 -0.43234355640E+02  0.46511463675E+03  0.49844256505E+03  0.89840628702E+02 0.  0.
         23    2    1    2    0    0  0.14890539703E+03  0.43234355640E+02  0.32337564151E+03  0.37981704430E+03  0.12508858798E+03 0.  0.
          5    1    4    4  502    0  0.39916806677E+02 -0.39662651266E+02  0.56600395648E+02  0.79922178074E+02  0.41800000000E+01 0.  1.
         -5    1    4    4    0  502  0.10898859035E+03  0.82897006906E+02  0.26677524586E+03  0.29989486622E+03  0.41800000000E+01 0.  1.
        -11    1    3    3    0    0 -0.15956058795E+02  0.18202017242E+02  0.13704188193E+03  0.13916316555E+03  0.00000000000E+00 0.  1.
         11    1    3    3    0    0 -0.13294933824E+03 -0.61436372882E+02  0.32807275482E+03  0.35927939950E+03  0.00000000000E+00 0. -1.
</event>
<event>
 8    1  0.8061721E-006  0.1010884E+03  0.7561462E-02  0.1278024E+00
          2   -1    0    0  501    0  0.00000000000E+00  0.00000000000E+00  0.57504283995E+03  0.57504283995E+03  0.00000000000E+00 0. -1.
         -2   -1    0    0    0  501 -0.00000000000E+00 -0.00000000000E+00 -0.28283806661E+02  0.28283806661E+02  0.00000000000E+00 0.  1.
         23    2    1    2    0    0  0.14921771486E+02  0.51020069572E+02  0.14192505260E+03  0.17628656041E+03  0.90047343458E+02 0.  0.
         23    2    1    2    0    0 -0.14921771486E+02 -0.51020069572E+02  0.40483398069E+03  0.42704008620E+03  0.12508787525E+03 0.  0.
          5    1    4    4  502    0 -0.58099813241E+02 -0.33910502263E+02  0.11355506179E+03  0.13205201597E+03  0.41800000000E+01 0. -1.
         -5    1    4    4    0  502  0.43178041755E+02 -0.17109567309E+02  0.29127891890E+03  0.29498807024E+03  0.41800000000E+01 0. -1.
        -11    1    3    3    0    0 -0.27727396536E+02  0.11564500015E+02  0.92286670996E+01  0.31427925094E+02  0.00000000000E+00 0.  1.
         11    1    3    3    0    0  0.42649168023E+02  0.39455569556E+02  0.13269638550E+03  0.14485863532E+03  0.00000000000E+00 0. -1.
</event>
<event>
 8    1  0.8061721E-006  0.9307932E+02  0.7561462E-02  0.1295561E+00
         -2   -1    0    0    0  501 -0.00000000000E+00  0.00000000000E+00  0.10664585264E+03  0.10664585264E+03  0.00000000000E+00 0.  1.
          2   -1    0    0  501    0  0.00000000000E+00 -0.00000000000E+00 -0.13776817223E+03  0.13776817223E+03  0.00000000000E+00 0. -1.
         23    2    1    2    0    0  0.88539767267E+01 -0.31190582076E+02  0.31706303371E+02  0.10072813245E+03  0.89942324184E+02 0.  0.
         23    2    1    2    0    0 -0.88539767267E+01  0.31190582076E+02 -0.62828622964E+02  0.14368589242E+03  0.12508778718E+03 0.  0.
          5    1    4    4  502    0 -0.55876247013E+02  0.38173358028E+02 -0.39754945083E+01  0.67916398609E+02  0.41800000000E+01 0.  1.
         -5    1    4    4    0  502  0.47022270287E+02 -0.69827759517E+01 -0.58853128456E+02  0.75769493808E+02  0.41800000000E+01 0.  1.
        -11    1    3    3    0    0 -0.24990377839E+02 -0.26575479673E+02  0.50067915483E+02  0.61948133670E+02  0.00000000000E+00 0.  1.
         11    1    3    3    0    0  0.33844354565E+02 -0.46151024037E+01 -0.18361612112E+02  0.38779998782E+02  0.00000000000E+00 0. -1.
</event>
<event>
 8    1  0.8061721E-006  0.1145547E+03  0.7561462E-02  0.1252360E+00
          1   -1    0    0  501    0  0.00000000000E+00  0.00000000000E+00  0.46851831540E+03  0.46851831540E+03  0.00000000000E+00 0. -1.
         -1   -1    0    0    0  501 -0.00000000000E+00 -0.00000000000E+00 -0.30540982945E+02  0.30540982945E+02  0.00000000000E+00 0.  1.
         23    2    1    2    0    0  0.21173625273E+02  0.34079194260E+02  0.14159561746E+03  0.17486762538E+03  0.94443917925E+02 0.  0.
         23    2    1    2    0    0 -0.21173625273E+02 -0.34079194260E+02  0.29638171500E+03  0.32419167297E+03  0.12509358876E+03 0.  0.
          5    1    4    4  502    0 -0.31723403238E+02  0.42891584726E+02  0.11617608933E+03  0.12790785154E+03  0.41800000000E+01 0.  1.
         -5    1    4    4    0  502  0.10549777965E+02 -0.76970778986E+02  0.18020562567E+03  0.19628382143E+03  0.41800000000E+01 0.  1.
        -11    1    3    3    0    0 -0.33003772379E+02  0.27992838848E+02  0.37087850090E+02  0.56994356232E+02  0.00000000000E+00 0.  1.
         11    1    3    3    0    0  0.54177397653E+02  0.60863554128E+01  0.10450776737E+03  0.11787326915E+03  0.00000000000E+00 0. -1.
</event>
<event>
 8    1  0.8061721E-006  0.8547008E+02  0.7561462E-02  0.1314208E+00
         -1   -1    0    0    0  501 -0.00000000000E+00  0.00000000000E+00  0.61903888644E+02  0.61903888644E+02  0.00000000000E+00 0.  1.
          1   -1    0    0  501    0  0.00000000000E+00 -0.00000000000E+00 -0.23615086357E+03  0.23615086357E+03  0.00000000000E+00 0. -1.
         23    2    1    2    0    0 -0.13896937567E+02 -0.33475863585E+02 -0.18365730773E+02  0.94928441843E+02  0.85792486194E+02 0.  0.
         23    2    1    2    0    0  0.13896937567E+02  0.33475863585E+02 -0.15588124415E+03  0.20312631037E+03  0.12509027688E+03 0.  0.
          5    1    4    4  502    0  0.50267011130E+02 -0.26482428961E+02 -0.48564142879E+02  0.74860135087E+02  0.41800000000E+01 0.  1.
         -5    1    4    4    0  502 -0.36370073564E+02  0.59958292546E+02 -0.10731710127E+03  0.12826617528E+03  0.41800000000E+01 0.  1.
        -11    1    3    3    0    0 -0.16568549229E+02 -0.85391985374E+01  0.32924715446E+02  0.37834793807E+02  0.00000000000E+00 0.  1.
         11    1    3    3    0    0  0.26716116626E+01 -0.24936665047E+02 -0.51290446220E+02  0.57093648035E+02  0.00000000000E+00 0. -1.
</event>
<event>
 8    1  0.8061721E-006  0.1194948E+03  0.7561462E-02  0.1243933E+00
          2   -1    0    0  501    0  0.00000000000E+00  0.00000000000E+00  0.41243005754E+03  0.41243005754E+03  0.00000000000E+00 0. -1.
         -2   -1    0    0    0  501 -0.00000000000E+00 -0.00000000000E+00 -0.36932208111E+02  0.36932208111E+02  0.00000000000E+00 0.  1.
         23    2    1    2    0    0 -0.44957611358E+02  0.38346047550E+02  0.16294954606E+03  0.19575649884E+03  0.90974975098E+02 0.  0.
         23    2    1    2    0    0  0.44957611358E+02 -0.38346047550E+02  0.21254830337E+03  0.25360576682E+03  0.12508995769E+03 0.  0.
          5    1    4    4  502    0 -0.13831328504E+02  0.37989468746E+02  0.79423458779E+02  0.89219188453E+02  0.41800000000E+01 0.  1.
         -5    1    4    4    0  502  0.58788939862E+02 -0.76335516296E+02  0.13312484459E+03  0.16438657836E+03  0.41800000000E+01 0.  1.
        -11    1    3    3    0    0 -0.58809626124E+02 -0.24101213607E+01  0.12583253745E+03  0.13891799124E+03  0.00000000000E+00 0.  1.
         11    1    3    3    0    0  0.13852014765E+02  0.40756168911E+02  0.37117008608E+02  0.56838507593E+02  0.00000000000E+00 0. -1.
</event>
<event>
 8    1  0.8061721E-006  0.2517722E+03  0.7561462E-02  0.1112190E+00
         -2   -1    0    0    0  501 -0.00000000000E+00  0.00000000000E+00  0.24399139522E+03  0.24399139522E+03  0.00000000000E+00 0.  1.
          2   -1    0    0  501    0  0.00000000000E+00 -0.00000000000E+00 -0.29349352446E+03  0.29349352446E+03  0.00000000000E+00 0. -1.
         23    2    1    2    0    0  0.10767316211E+03  0.20650238702E+03  0.49558390481E+02  0.25517746204E+03  0.91775581634E+02 0.  0.
         23    2    1    2    0    0 -0.10767316211E+03 -0.20650238702E+03 -0.99060519724E+02  0.28230745764E+03  0.12509104040E+03 0.  0.
          5    1    4    4  502    0 -0.97685491364E+01  0.10859106179E+02 -0.30728462837E+02  0.34279083528E+02  0.41800000000E+01 0. -1.
         -5    1    4    4    0  502 -0.97904612971E+02 -0.21736149320E+03 -0.68332056888E+02  0.24802837411E+03  0.41800000000E+01 0. -1.
        -11    1    3    3    0    0 -0.80957289719E+01  0.72019447921E+02  0.20924079886E+02  0.75433141427E+02  0.00000000000E+00 0. -1.
         11    1    3    3    0    0  0.11576889108E+03  0.13448293910E+03  0.28634310595E+02  0.17974432062E+03  0.00000000000E+00 0.  1.
</event>
<event>
 8    1  0.8061721E-006  0.2312922E+03  0.7561462E-02  0.1125734E+00
         -2   -1    0    0    0  501 -0.00000000000E+00  0.00000000000E+00  0.58019005567E+02  0.58019005567E+02  0.00000000000E+00 0.  1.
          2   -1    0    0  501    0  0.00000000000E+00 -0.00000000000E+00 -0.12785250052E+04  0.12785250052E+04  0.00000000000E+00 0. -1.
         23    2    1    2    0    0  0.91805977214E+01  0.22505270351E+03 -0.33312176547E+03  0.41252260029E+03  0.92042285846E+02 0.  0.
         23    2    1    2    0    0 -0.91805977214E+01 -0.22505270351E+03 -0.88738423417E+03  0.92402141048E+03  0.12502713808E+03 0.  0.
          5    1    4    4  502    0  0.21087868236E+02 -0.64006065648E+02 -0.48269500866E+03  0.48739452029E+03  0.41800000000E+01 0.  1.
         -5    1    4    4    0  502 -0.30268465957E+02 -0.16104663786E+03 -0.40468922550E+03  0.43662689019E+03  0.41800000000E+01 0.  1.
        -11    1    3    3    0    0  0.29769886377E+02  0.97584672509E+02 -0.84912144726E+02  0.13273690808E+03  0.00000000000E+00 0. -1.
         11    1    3    3    0    0 -0.20589288655E+02  0.12746803100E+03 -0.24820962075E+03  0.27978569221E+03  0.00000000000E+00 0.  1.
</event>
<event>
 8    1  0.8061721E-006  0.1614232E+03  0.7561462E-02  0.1187099E+00
          2   -1    0    0  501    0  0.00000000000E+00  0.00000000000E+00  0.75495225742E+03  0.75495225742E+03  0.00000000000E+00 0.  1.
         -2   -1    0    0    0  501 -0.00000000000E+00 -0.00000000000E+00 -0.52843554813E+02  0.52843554813E+02  0.00000000000E+00 0. -1.
         23    2    1    2    0    0 -0.49629518516E+02 -0.14823847226E+03  0.21391060520E+03  0.28014311311E+03  0.91020234241E+02 0.  0.
         23    2    1    2    0    0  0.49629518516E+02  0.14823847226E+03  0.48819809740E+03  0.52765269912E+03  0.12506900022E+03 0.  0.
          5    1    4    4  502    0  0.36866650674E+02  0.12062946767E+03  0.19135812907E+03  0.22922919614E+03  0.41800000000E+01 0. -1.
         -5    1    4    4    0  502  0.12762867842E+02  0.27609004584E+02  0.29683996833E+03  0.29842350298E+03  0.41800000000E+01 0. -1.
        -11    1    3    3    0    0 -0.12813509046E+02 -0.11687030465E+03  0.92963729692E+02  0.14988365208E+03  0.00000000000E+00 0. -1.
         11    1    3    3    0    0 -0.36816009470E+02 -0.31368167606E+02  0.12094687551E+03  0.13025946103E+03  0.00000000000E+00 0.  1.
</event>
<event>
 8    1  0.8585203E-006  0.1978782E+03  0.7561462E-02  0.1151542E+00
         -1   -1    0    0    0  501 -0.00000000000E+00  0.00000000000E+00  0.11416661389E+03  0.11416661389E+03  0.00000000000E+00 0.  1.
          1   -1    0    0  501    0  0.00000000000E+00 -0.00000000000E+00 -0.42442086074E+03  0.42442086074E+03  0.00000000000E+00 0. -1.
         23    2    1    2    0    0  0.17944840402E+03 -0.61151348989E+02 -0.13734155142E+03  0.25312711126E+03  0.96277803886E+02 0.  0.
         23    2    1    2    0    0 -0.17944840402E+03  0.61151348989E+02 -0.17291269543E+03  0.28546036338E+03  0.12509037385E+03 0.  0.
          5    1    4    4  502    0 -0.17786532795E+03  0.60323438656E+02 -0.10078629698E+03  0.21319085861E+03  0.41800000000E+01 0.  1.
         -5    1    4    4    0  502 -0.15830760695E+01  0.82791033237E+00 -0.72126398451E+02  0.72269504765E+02  0.41800000000E+01 0.  1.
        -11    1    3    3    0    0  0.45206839794E+02 -0.51841534470E+02 -0.83522033413E+02  0.10819950613E+03  0.00000000000E+00 0. -1.
         11    1    3    3    0    0  0.13424156422E+03 -0.93098145189E+01 -0.53819518004E+02  0.14492760513E+03  0.00000000000E+00 0.  1.
</event>
<event>
 8    1  0.8061721E-006  0.7863678E+02  0.7561462E-02  0.1332965E+00
          1   -1    0    0  501    0  0.00000000000E+00  0.00000000000E+00  0.75533288108E+03  0.75533288108E+03  0.00000000000E+00 0. -1.
         -1   -1    0    0    0  501 -0.00000000000E+00 -0.00000000000E+00 -0.21783187800E+02  0.21783187800E+02  0.00000000000E+00 0.  1.
         23    2    1    2    0    0  0.11036095228E+02  0.60262760326E+02  0.20821477070E+03  0.23362391164E+03  0.86448514577E+02 0.  0.
         23    2    1    2    0    0 -0.11036095228E+02 -0.60262760326E+02  0.52533492258E+03  0.54349215724E+03  0.12511414156E+03 0.  0.
          5    1    4    4  502    0 -0.36821128709E+02 -0.34739990810E+02  0.68907295944E+02  0.85605784356E+02  0.41800000000E+01 0.  1.
         -5    1    4    4    0  502  0.25785033482E+02 -0.25522769515E+02  0.45642762664E+03  0.45788637288E+03  0.41800000000E+01 0.  1.
        -11    1    3    3    0    0 -0.51597888443E+01  0.51080048929E+02  0.20877763726E+03  0.21499743403E+03  0.00000000000E+00 0. -1.
         11    1    3    3    0    0  0.16195884072E+02  0.91827113964E+01 -0.56286655866E+00  0.18626477612E+02  0.00000000000E+00 0.  1.
</event>
<event>
 8    1  0.8061721E-006  0.1218338E+03  0.7561462E-02  0.1240102E+00
          2   -1    0    0  501    0  0.00000000000E+00  0.00000000000E+00  0.91620682964E+03  0.91620682964E+03  0.00000000000E+00 0.  1.
         -2   -1    0    0    0  501 -0.00000000000E+00 -0.00000000000E+00 -0.19473555112E+02  0.19473555112E+02  0.00000000000E+00 0. -1.
         23    2    1    2    0    0 -0.63801586407E+02 -0.47901013093E+02  0.35216896353E+03  0.37126772142E+03  0.86322607788E+02 0.  0.
         23    2    1    2    0    0  0.63801586407E+02  0.47901013093E+02  0.54456431101E+03  0.56441266333E+03  0.12508483612E+03 0.  0.
          5    1    4    4  502    0 -0.14008641338E+02  0.50487912056E+02  0.36343567573E+03  0.36721687610E+03  0.41800000000E+01 0. -1.
         -5    1    4    4    0  502  0.77810227745E+02 -0.25868989631E+01  0.18112863527E+03  0.19719578724E+03  0.41800000000E+01 0. -1.
        -11    1    3    3    0    0 -0.81230003683E+02 -0.50307656682E+02  0.32616034464E+03  0.33986724502E+03  0.00000000000E+00 0.  1.
         11    1    3    3    0    0  0.17428417276E+02  0.24066435890E+01  0.26008618884E+02  0.31400476404E+02  0.00000000000E+00 0. -1.
</event>
<event>
 7    1  0.8061721E-006  0.1952951E+03  0.7561462E-02  0.1153770E+00
          1   -1    0    0  501    0  0.00000000000E+00  0.00000000000E+00  0.11961535872E+04  0.11961535872E+04  0.00000000000E+00 0. -1.
         -1   -1    0    0    0  501 -0.00000000000E+00 -0.00000000000E+00 -0.38033119972E+02  0.38033119972E+02  0.00000000000E+00 0.  1.
         23    2    1    2    0    0  0.33656659276E+02  0.15553875729E+03  0.34199887052E+03  0.38822686687E+03  0.91824816890E+02 0.  0.
          5    1    1    2  502    0 -0.67509641428E+02 -0.17131731178E+03  0.70459585607E+03  0.72827190375E+03  0.41800000000E+01 0. -1.
         -5    1    1    2    0  502  0.33852982152E+02  0.15778554491E+02  0.11152574060E+03  0.11768793650E+03  0.41800000000E+01 0.  1.
        -11    1    3    3    0    0  0.19020833112E+02  0.81267887019E+01  0.11717547261E+03  0.11898709244E+03  0.00000000000E+00 0. -1.
         11    1    3    3    0    0  0.14635826164E+02  0.14741196858E+03  0.22482339791E+03  0.26923977443E+03  0.00000000000E+00 0.  1.
</event>
<event>
 8    1  0.8061721E-006  0.6697742E+02  0.7561462E-02  0.1370684E+00
          1   -1    0    0  501    0  0.00000000000E+00  0.00000000000E+00  0.23405622993E+02  0.23405622993E+02  0.00000000000E+00 0. -1.
         -1   -1    0    0    0  501 -0.00000000000E+00 -0.00000000000E+00 -0.57572864873E+03  0.57572864873E+03  0.00000000000E+00 0.  1.
         23    2    1    2    0    0  0.76486358228E+00  0.13340737554E+02 -0.34768173712E+03  0.35891715661E+03  0.88092988876E+02 0.  0.
         23    2    1    2    0    0 -0.76486358228E+00 -0.13340737554E+02 -0.20464128862E+03  0.24021711512E+03  0.12509054757E+03 0.  0.
          5    1    4    4  502    0  0.19436512494E+02 -0.14511135959E+02  0.85278220506E+01  0.26048939205E+02  0.41800000000E+01 0.  1.
         -5    1    4    4    0  502 -0.20201376077E+02  0.11703984052E+01 -0.21316911067E+03  0.21416817591E+03  0.41800000000E+01 0.  1.
        -11    1    3    3    0    0  0.36887207345E+02 -0.17826714628E+02 -0.17814295005E+03  0.18279323968E+03  0.00000000000E+00 0. -1.
         11    1    3    3    0    0 -0.36122343763E+02  0.31167452182E+02 -0.16953878706E+03  0.17612391693E+03  0.00000000000E+00 0.  1.
</event>
<event>
 8    1  0.8061721E-006  0.1026734E+03  0.7561462E-02  0.1274773E+00
         -2   -1    0    0    0  501 -0.00000000000E+00  0.00000000000E+00  0.13076480331E+02  0.13076480331E+02  0.00000000000E+00 0. -1.
          2   -1    0    0  501    0  0.00000000000E+00 -0.00000000000E+00 -0.20351889851E+04  0.20351889851E+04  0.00000000000E+00 0.  1.
         23    2    1    2    0    0 -0.73309903892E+02  0.51677905504E+02 -0.42546850255E+03  0.44421875203E+03  0.90895022245E+02 0.  0.
         23    2    1    2    0    0  0.73309903892E+02 -0.51677905504E+02 -0.15966440022E+04  0.16040467134E+04  0.12509532771E+03 0.  0.
          5    1    4    4  502    0 -0.11225154470E+02 -0.43771123272E+01 -0.16134389986E+02  0.20565849008E+02  0.41800000000E+01 0. -1.
         -5    1    4    4    0  502  0.84535058362E+02 -0.47300793177E+02 -0.15805096122E+04  0.15834808644E+04  0.41800000000E+01 0. -1.
        -11    1    3    3    0    0 -0.21887588350E+01  0.15847862158E+02 -0.57317869213E+01  0.16994080779E+02  0.00000000000E+00 0. -1.
         11    1    3    3    0    0 -0.71121145057E+02  0.35830043346E+02 -0.41973671563E+03  0.42722467125E+03  0.00000000000E+00 0.  1.
</event>
<event>
 8    1  0.8061721E-006  0.8999727E+02  0.7561462E-02  0.1302858E+00
         -4   -1    0    0    0  501 -0.00000000000E+00  0.00000000000E+00  0.43098243820E+02  0.43098243820E+02  0.00000000000E+00 0. -1.
          4   -1    0    0  501    0  0.00000000000E+00 -0.00000000000E+00 -0.38187892434E+03  0.38187892434E+03  0.00000000000E+00 0.  1.
         23    2    1    2    0    0 -0.48926382788E+02  0.29955947544E+02 -0.89531797748E+02  0.14026112816E+03  0.91466341016E+02 0.  0.
         23    2    1    2    0    0  0.48926382788E+02 -0.29955947544E+02 -0.24924888278E+03  0.28471604000E+03  0.12508824143E+03 0.  0.
          5    1    4    4  502    0  0.56606374676E+02 -0.46950565679E+02 -0.61396414413E+02  0.95893844298E+02  0.41800000000E+01 0.  1.
         -5    1    4    4    0  502 -0.76799918873E+01  0.16994618136E+02 -0.18785246836E+03  0.18882219571E+03  0.41800000000E+01 0.  1.
        -11    1    3    3    0    0 -0.55778544150E+02  0.44361320186E+02 -0.27794846118E+02  0.76496576308E+02  0.00000000000E+00 0. -1.
         11    1    3    3    0    0  0.68521613619E+01 -0.14405372642E+02 -0.61736951630E+02  0.63764551852E+02  0.00000000000E+00 0.  1.
</event>
<event>
 7    1  0.8061721E-006  0.1505159E+03  0.7561462E-02  0.1199841E+00
         -2   -1    0    0    0  501 -0.00000000000E+00  0.00000000000E+00  0.41614807474E+02  0.41614807474E+02  0.00000000000E+00 0.  1.
          2   -1    0    0  501    0  0.00000000000E+00 -0.00000000000E+00 -0.10376120856E+04  0.10376120856E+04  0.00000000000E+00 0. -1.
         23    2    1    2    0    0 -0.38473766378E+02 -0.10941355632E+03 -0.14612434664E+03  0.20756106843E+03  0.90981951171E+02 0.  0.
          5    1    1    2  502    0  0.64432056927E+02  0.29619476614E+02 -0.66276984885E+03  0.66656593695E+03  0.41800000000E+01 0. -1.
         -5    1    1    2    0  502 -0.25958290549E+02  0.79794079707E+02 -0.18710308266E+03  0.20509988772E+03  0.41800000000E+01 0.  1.
        -11    1    3    3    0    0 -0.65958204787E+02 -0.92842236130E+02 -0.12519915493E+03  0.16924832047E+03  0.00000000000E+00 0.  1.
         11    1    3    3    0    0  0.27484438409E+02 -0.16571320190E+02 -0.20925191715E+02  0.38312747954E+02  0.00000000000E+00 0. -1.
</event>
<event>
 8    1  0.8061721E-006  0.1861185E+03  0.7561462E-02  0.1162010E+00
          1   -1    0    0  501    0  0.00000000000E+00  0.00000000000E+00  0.19261016560E+03  0.19261016560E+03  0.00000000000E+00 0. -1.
         -1   -1    0    0    0  501 -0.00000000000E+00 -0.00000000000E+00 -0.25904096854E+03  0.25904096854E+03  0.00000000000E+00 0.  1.
         23    2    1    2    0    0  0.15647388810E+03 -0.90594569085E+02 -0.95437928108E+02  0.22987247716E+03  0.10507856123E+03 0.  0.
         23    2    1    2    0    0 -0.15647388810E+03  0.90594569085E+02  0.29007125168E+02  0.22177865698E+03  0.12511157332E+03 0.  0.
          5    1    4    4  502    0 -0.16001677835E+03  0.91039880187E+02  0.57376740398E+02  0.19288128960E+03  0.41800000000E+01 0. -1.
         -5    1    4    4    0  502  0.35428902556E+01 -0.44531110173E+00 -0.28369615231E+02  0.28897367383E+02  0.41800000000E+01 0. -1.
        -11    1    3    3    0    0  0.14166288238E+03 -0.89862440956E+02 -0.11640562718E+03  0.20419084352E+03  0.00000000000E+00 0.  1.
         11    1    3    3    0    0  0.14811005717E+02 -0.73212812884E+00  0.20967699072E+02  0.25681633639E+02  0.00000000000E+00 0. -1.
</event>
<event>
 8    1  0.8061721E-006  0.1420051E+03  0.7561462E-02  0.1210656E+00
          1   -1    0    0  501    0  0.00000000000E+00  0.00000000000E+00  0.15140152838E+03  0.15140152838E+03  0.00000000000E+00 0. -1.
         -1   -1    0    0    0  501 -0.00000000000E+00 -0.00000000000E+00 -0.21934929947E+03  0.21934929947E+03  0.00000000000E+00 0.  1.
         23    2    1    2    0    0 -0.87823037635E+02 -0.89159630818E+02 -0.10880501738E+03  0.18914982911E+03  0.90976922012E+02 0.  0.
         23    2    1    2    0    0  0.87823037635E+02  0.89159630818E+02  0.40857246291E+02  0.18160099873E+03  0.12508909809E+03 0.  0.
          5    1    4    4  502    0 -0.19733288470E+02  0.19427667458E+02  0.45316905793E+02  0.53272237491E+02  0.41800000000E+01 0. -1.
         -5    1    4    4    0  502  0.10755632611E+03  0.69731963360E+02 -0.44596595025E+01  0.12832876124E+03  0.41800000000E+01 0. -1.
        -11    1    3    3    0    0 -0.17091122192E+02 -0.49788520947E+01  0.15207976326E+02  0.23413200761E+02  0.00000000000E+00 0. -1.
         11    1    3    3    0    0 -0.70731915444E+02 -0.84180778723E+02 -0.12401299371E+03  0.16573662835E+03  0.00000000000E+00 0.  1.
</event>
<event>
 8    1  0.8061721E-006  0.1281057E+03  0.7561462E-02  0.1230294E+00
         -1   -1    0    0    0  501 -0.00000000000E+00  0.00000000000E+00  0.75634915761E+02  0.75634915761E+02  0.00000000000E+00 0.  1.
          1   -1    0    0  501    0  0.00000000000E+00 -0.00000000000E+00 -0.30895173443E+03  0.30895173443E+03  0.00000000000E+00 0. -1.
         23    2    1    2    0    0  0.32829292760E+02  0.10254750138E+03 -0.10206838585E+03  0.17371341019E+03  0.90358402979E+02 0.  0.
         23    2    1    2    0    0 -0.32829292760E+02 -0.10254750138E+03 -0.13124843282E+03  0.21087324000E+03  0.12509044618E+03 0.  0.
          5    1    4    4  502    0 -0.36267967719E+02 -0.45021344504E+02 -0.14084099186E+03  0.15230214816E+03  0.41800000000E+01 0.  1.
         -5    1    4    4    0  502  0.34386749587E+01 -0.57526156878E+02  0.95925590423E+01  0.58571091842E+02  0.41800000000E+01 0.  1.
        -11    1    3    3    0    0  0.62651036226E+01  0.11207247249E+03 -0.78935971921E+02  0.13722382547E+03  0.00000000000E+00 0. -1.
         11    1    3    3    0    0  0.26564189138E+02 -0.95249711098E+01 -0.23132413926E+02  0.36489584723E+02  0.00000000000E+00 0.  1.
</event>
<event>
 8    1  0.8061721E-006  0.1056635E+03  0.7561462E-02  0.1268818E+00
          1   -1    0    0  501    0  0.00000000000E+00  0.00000000000E+00  0.42379760946E+03  0.42379760946E+03  0.00000000000E+00 0. -1.
         -1   -1    0    0    0  501 -0.00000000000E+00 -0.00000000000E+00 -0.37283617658E+02  0.37283617658E+02  0.00000000000E+00 0.  1.
         23    2    1    2    0    0  0.49305882448E+02  0.27719366156E+01  0.80606721029E+02  0.12691838760E+03  0.84688133527E+02 0.  0.
         23    2    1    2    0    0 -0.49305882448E+02 -0.27719366156E+01  0.30590727077E+03  0.33416283951E+03  0.12508713492E+03 0.  0.
          5    1    4    4  502    0 -0.69760897398E+02  0.28689189136E+02  0.27553870564E+03  0.28570737317E+03  0.41800000000E+01 0. -1.
         -5    1    4    4    0  502  0.20455014949E+02 -0.31461125752E+02  0.30368565132E+02  0.48455466341E+02  0.41800000000E+01 0. -1.
        -11    1    3    3    0    0  0.47677526786E+02  0.39099211843E+02  0.51644635358E+02  0.80430487307E+02  0.00000000000E+00 0.  1.
         11    1    3    3    0    0  0.16283556627E+01 -0.36327275227E+02  0.28962085670E+02  0.46487900296E+02  0.00000000000E+00 0. -1.
</event>
<event>
 8    1  0.8061721E-006  0.1014958E+03  0.7561462E-02  0.1277182E+00
         -2   -1    0    0    0  501 -0.00000000000E+00  0.00000000000E+00  0.87112914530E+02  0.87112914530E+02  0.00000000000E+00 0.  1.
          2   -1    0    0  501    0  0.00000000000E+00 -0.00000000000E+00 -0.17571318210E+03  0.17571318210E+03  0.00000000000E+00 0. -1.
         23    2    1    2    0    0 -0.35809357484E+01 -0.56714151772E+02 -0.56272984322E+02  0.12167402474E+03  0.91698426490E+02 0.  0.
         23    2    1    2    0    0  0.35809357484E+01  0.56714151772E+02 -0.32327283251E+02  0.14115207189E+03  0.12509810568E+03 0.  0.
          5    1    4    4  502    0  0.96937072523E+01 -0.21916176495E+02  0.31363956544E+02  0.39692025932E+02  0.41800000000E+01 0.  1.
         -5    1    4    4    0  502 -0.61127715039E+01  0.78630328268E+02 -0.63691239795E+02  0.10146004596E+03  0.41800000000E+01 0.  1.
        -11    1    3    3    0    0  0.37821444397E+02 -0.39967888104E+02 -0.74879156091E+01  0.55533436918E+02  0.00000000000E+00 0.  1.
         11    1    3    3    0    0 -0.41402380146E+02 -0.16746263668E+02 -0.48785068713E+02  0.66140587825E+02  0.00000000000E+00 0. -1.
</event>
<event>
 8    1  0.8061721E-006  0.1375249E+03  0.7561462E-02  0.1216699E+00
         -1   -1    0    0    0  501 -0.00000000000E+00  0.00000000000E+00  0.61643254965E+02  0.61643254965E+02  0.00000000000E+00 0.  1.
          1   -1    0    0  501    0  0.00000000000E+00 -0.00000000000E+00 -0.35550243545E+03  0.35550243545E+03  0.00000000000E+00 0. -1.
         23    2    1    2    0    0  0.48413193796E+01  0.97261480754E+02 -0.93745168618E+02  0.16184902038E+03  0.89015250084E+02 0.  0.
         23    2    1    2    0    0 -0.48413193796E+01 -0.97261480754E+02 -0.20011401187E+03  0.25529667003E+03  0.12509011940E+03 0.  0.
          5    1    4    4  502    0  0.58047124000E+02 -0.60982525449E+02 -0.12481139081E+03  0.15061106430E+03  0.41800000000E+01 0. -1.
         -5    1    4    4    0  502 -0.62888443380E+02 -0.36278955305E+02 -0.75302621059E+02  0.10468560573E+03  0.41800000000E+01 0. -1.
        -11    1    3    3    0    0 -0.28646978837E+02  0.67113036293E+02 -0.20401695458E+02  0.75769639134E+02  0.00000000000E+00 0.  1.
         11    1    3    3    0    0  0.33488298216E+02  0.30148444461E+02 -0.73343473160E+02  0.86079381248E+02  0.00000000000E+00 0. -1.
</event>
<event>
 8    1  0.8061721E-006  0.1007970E+03  0.7561462E-02  0.1278629E+00
         -2   -1    0    0    0  501 -0.00000000000E+00  0.00000000000E+00  0.45705796194E+02  0.45705796194E+02  0.00000000000E+00 0.  1.
          2   -1    0    0  501    0  0.00000000000E+00 -0.00000000000E+00 -0.40156008190E+03  0.40156008190E+03  0.00000000000E+00 0. -1.
         23    2    1    2    0    0  0.52954001381E+02 -0.52806569610E+02 -0.11069590628E+03  0.16205808381E+03  0.91741914112E+02 0.  0.
         23    2    1    2    0    0 -0.52954001381E+02  0.52806569610E+02 -0.24515837942E+03  0.28520779428E+03  0.12509274504E+03 0.  0.
          5    1    4    4  502    0 -0.80805675427E+02  0.49225570385E+02 -0.23767057855E+03  0.25584661473E+03  0.41800000000E+01 0.  1.
         -5    1    4    4    0  502  0.27851674046E+02  0.35809992251E+01 -0.74878008727E+01  0.29361179549E+02  0.41800000000E+01 0.  1.
        -11    1    3    3    0    0  0.19544704374E+02 -0.50091217054E+01  0.13892712489E+02  0.24496820807E+02  0.00000000000E+00 0.  1.
         11    1    3    3    0    0  0.33409297007E+02 -0.47797447905E+02 -0.12458861877E+03  0.13756126300E+03  0.00000000000E+00 0. -1.
</event>
<event>
 8    1  0.8061721E-006  0.1218093E+03  0.7561462E-02  0.1240142E+00
         -2   -1    0    0    0  501 -0.00000000000E+00  0.00000000000E+00  0.11527141134E+03  0.11527141134E+03  0.00000000000E+00 0.  1.
          2   -1    0    0  501    0  0.00000000000E+00 -0.00000000000E+00 -0.16426840642E+03  0.16426840642E+03  0.00000000000E+00 0. -1.
         23    2    1    2    0    0  0.75663094788E+02  0.21985980887E+02  0.38497103218E+01  0.12254524181E+03  0.93777549294E+02 0.  0.
         23    2    1    2    0    0 -0.75663094788E+02 -0.21985980887E+02 -0.52846705406E+02  0.15699457596E+03  0.12508491252E+03 0.  0.
          5    1    4    4  502    0 -0.71826427144E+02 -0.68927149062E+02 -0.27575812941E+02  0.10338222949E+03  0.41800000000E+01 0. -1.
         -5    1    4    4    0  502 -0.38366676441E+01  0.46941168174E+02 -0.25270892466E+02  0.53612346472E+02  0.41800000000E+01 0. -1.
        -11    1    3    3    0    0  0.21682387532E+02 -0.19073225063E+02 -0.34214468162E+02  0.44772130562E+02  0.00000000000E+00 0. -1.
         11    1    3    3    0    0  0.53980707256E+02  0.41059205951E+02  0.38064178484E+02  0.77773111246E+02  0.00000000000E+00 0.  1.
</event>
<event>
 7    1  0.8061721E-006  0.1120852E+03  0.7561462E-02  0.1256756E+00
          2   -1    0    0  501    0  0.00000000000E+00  0.00000000000E+00  0.49465329860E+03  0.49465329860E+03  0.00000000000E+00 0. -1.
         -2   -1    0    0    0  501 -0.00000000000E+00 -0.00000000000E+00 -0.40983798930E+02  0.40983798930E+02  0.00000000000E+00 0.  1.
         23    2    1    2    0    0 -0.39135228650E+02 -0.20145809217E+02  0.79690891324E+02  0.12802331376E+03  0.90010615790E+02 0.  0.
          5    1    1    2  502    0 -0.15381119393E+02 -0.49801749996E+02  0.52487627689E+02  0.74089247512E+02  0.41800000000E+01 0. -1.
         -5    1    1    2    0  502  0.54516348043E+02  0.69947559213E+02  0.32149098065E+03  0.33352453626E+03  0.41800000000E+01 0.  1.
        -11    1    3    3    0    0  0.43992527861E+01  0.22041764934E+02 -0.58067794577E+01  0.23214467777E+02  0.00000000000E+00 0.  1.
         11    1    3    3    0    0 -0.43534481436E+02 -0.42187574152E+02  0.85497670782E+02  0.10480884598E+03  0.00000000000E+00 0. -1.
</event>
<event>
 8    1  0.8061721E-006  0.1229579E+03  0.7561462E-02  0.1238296E+00
         -1   -1    0    0    0  501 -0.00000000000E+00  0.00000000000E+00  0.90541317390E+02  0.90541317390E+02  0.00000000000E+00 0.  1.
          1   -1    0    0  501    0  0.00000000000E+00 -0.00000000000E+00 -0.25031539952E+03  0.25031539952E+03  0.00000000000E+00 0. -1.
         23    2    1    2    0    0 -0.39707849075E+02 -0.95354473078E+02 -0.76695209076E+02  0.15874158769E+03  0.92992191898E+02 0.  0.
         23    2    1    2    0    0  0.39707849075E+02  0.95354473078E+02 -0.83078873054E+02  0.18211512922E+03  0.12487847023E+03 0.  0.
          5    1    4    4  502    0  0.50709260981E-01 -0.23368155290E+01  0.28293287920E+02  0.28695745670E+02  0.41800000000E+01 0.  1.
         -5    1    4    4    0  502  0.39657139814E+02  0.97691288607E+02 -0.11137216097E+03  0.15341938355E+03  0.41800000000E+01 0.  1.
        -11    1    3    3    0    0  0.21805045546E+02 -0.61814216826E+02 -0.54506822378E+02  0.85249346618E+02  0.00000000000E+00 0. -1.
         11    1    3    3    0    0 -0.61512894620E+02 -0.33540256252E+02 -0.22188386698E+02  0.73492241076E+02  0.00000000000E+00 0.  1.
</event>
<event>
 8    1  0.8061721E-006  0.9600893E+02  0.7561462E-02  0.1288920E+00
         -1   -1    0    0    0  501 -0.00000000000E+00  0.00000000000E+00  0.11000453390E+03  0.11000453390E+03  0.00000000000E+00 0.  1.
          1   -1    0    0  501    0  0.00000000000E+00 -0.00000000000E+00 -0.11457910101E+03  0.11457910101E+03  0.00000000000E+00 0. -1.
         23    2    1    2    0    0  0.68532551390E+00  0.33729154138E+02 -0.43074363459E+01  0.95027328283E+02  0.88732821452E+02 0.  0.
         23    2    1    2    0    0 -0.68532551390E+00 -0.33729154138E+02 -0.26713076371E+00  0.12955630664E+03  0.12508652893E+03 0.  0.
          5    1    4    4  502    0 -0.10056098107E+02 -0.78192616565E+02 -0.17350269087E+02  0.80831396324E+02  0.41800000000E+01 0.  1.
         -5    1    4    4    0  502  0.93707725930E+01  0.44463462427E+02  0.17083138323E+02  0.48724910312E+02  0.41800000000E+01 0.  1.
        -11    1    3    3    0    0 -0.90403033186E+01  0.48729603569E+02 -0.34186673621E+02  0.60208222041E+02  0.00000000000E+00 0. -1.
         11    1    3    3    0    0  0.97256288325E+01 -0.15000449431E+02  0.29879237275E+02  0.34819106242E+02  0.00000000000E+00 0.  1.
</event>
<event>
 8    1  0.8061721E-006  0.1100446E+03  0.7561462E-02  0.1260487E+00
         -3   -1    0    0    0  501 -0.00000000000E+00  0.00000000000E+00  0.20064640118E+02  0.20064640118E+02  0.00000000000E+00 0.  1.
          3   -1    0    0  501    0  0.00000000000E+00 -0.00000000000E+00 -0.99561501104E+03  0.99561501104E+03  0.00000000000E+00 0. -1.
         23    2    1    2    0    0  0.14776991537E+02  0.41014639734E+02 -0.16767411046E+03  0.19701429533E+03  0.93805464095E+02 0.  0.
         23    2    1    2    0    0 -0.14776991537E+02 -0.41014639734E+02 -0.80787626046E+03  0.81866535583E+03  0.12509337498E+03 0.  0.
          5    1    4    4  502    0  0.46615617876E+02 -0.48643408117E+02 -0.33430445141E+03  0.34105151461E+03  0.41800000000E+01 0.  1.
         -5    1    4    4    0  502 -0.61392609413E+02  0.76287683823E+01 -0.47357180905E+03  0.47761384122E+03  0.41800000000E+01 0.  1.
        -11    1    3    3    0    0  0.39998774345E+02 -0.27230342763E+01 -0.29128767570E+02  0.49556048722E+02  0.00000000000E+00 0.  1.
         11    1    3    3    0    0 -0.25221782808E+02  0.43737674011E+02 -0.13854534289E+03  0.14745824661E+03  0.00000000000E+00 0. -1.
</event>
<event>
 8    1  0.8061721E-006  0.7784436E+02  0.7561462E-02  0.1335283E+00
         -3   -1    0    0    0  501 -0.00000000000E+00  0.00000000000E+00  0.17611014307E+03  0.17611014307E+03  0.00000000000E+00 0.  1.
          3   -1    0    0  501    0  0.00000000000E+00 -0.00000000000E+00 -0.69239833910E+02  0.69239833910E+02  0.00000000000E+00 0. -1.
         23    2    1    2    0    0  0.37551673027E+00 -0.66502324701E+00  0.66466732692E+02  0.11389592120E+03  0.92487139873E+02 0.  0.
         23    2    1    2    0    0 -0.37551673027E+00  0.66502324701E+00  0.40403576464E+02  0.13145405578E+03  0.12508851474E+03 0.  0.
          5    1    4    4  502    0 -0.21179410521E+02 -0.26004057975E+02  0.75385576907E+02  0.82614986938E+02  0.41800000000E+01 0.  1.
         -5    1    4    4    0  502  0.20803893791E+02  0.26669081222E+02 -0.34982000444E+02  0.48839068840E+02  0.41800000000E+01 0.  1.
        -11    1    3    3    0    0 -0.33376128291E+02 -0.28634403442E+02  0.15396541345E+02  0.46593438224E+02  0.00000000000E+00 0. -1.
         11    1    3    3    0    0  0.33751645021E+02  0.27969380195E+02  0.51070191347E+02  0.67302482973E+02  0.00000000000E+00 0.  1.
</event>
<event>
 8    1  0.8061721E-006  0.1134074E+03  0.7561462E-02  0.1254387E+00
         -1   -1    0    0    0  501 -0.00000000000E+00  0.00000000000E+00  0.19880275437E+02  0.19880275437E+02  0.00000000000E+00 0.  1.
          1   -1    0    0  501    0  0.00000000000E+00 -0.00000000000E+00 -0.12049200789E+04  0.12049200789E+04  0.00000000000E+00 0. -1.
         23    2    1    2    0    0 -0.30243884741E+02  0.85293323328E+02 -0.29915442717E+03  0.32560145859E+03  0.91286882794E+02 0.  0.
         23    2    1    2    0    0  0.30243884741E+02 -0.85293323328E+02 -0.88588537629E+03  0.89919889575E+03  0.12480428926E+03 0.  0.
          5    1    4    4  502    0  0.35762326977E+02 -0.46035436867E+02 -0.82078437883E+03  0.82286248815E+03  0.41800000000E+01 0. -1.
         -5    1    4    4    0  502 -0.55184422362E+01 -0.39257886461E+02 -0.65100997468E+02  0.76336407601E+02  0.41800000000E+01 0.  1.
        -11    1    3    3    0    0 -0.15658342216E+02 -0.18190050541E+02 -0.58845645664E+02  0.63552117457E+02  0.00000000000E+00 0. -1.
         11    1    3    3    0    0 -0.14585542525E+02  0.10348337387E+03 -0.24030878151E+03  0.26204934113E+03  0.00000000000E+00 0.  1.
</event>
<event>
 8    1  0.8061721E-006  0.5171268E+02  0.7561462E-02  0.1436317E+00
          2   -1    0    0  501    0  0.00000000000E+00  0.00000000000E+00  0.66062902296E+02  0.66062902296E+02  0.00000000000E+00 0. -1.
         -2   -1    0    0    0  501 -0.00000000000E+00 -0.00000000000E+00 -0.17782343690E+03  0.17782343690E+03  0.00000000000E+00 0.  1.
         23    2    1    2    0    0 -0.10761831660E+02  0.37663921740E+01 -0.47310076328E+02  0.10270654656E+03  0.90445501017E+02 0.  0.
         23    2    1    2    0    0  0.10761831660E+02 -0.37663921740E+01 -0.64450458273E+02  0.14117979263E+03  0.12509144473E+03 0.  0.
          5    1    4    4  502    0 -0.97958105162E+00  0.13527308999E+02 -0.99310091159E+02  0.10031906237E+03  0.41800000000E+01 0. -1.
         -5    1    4    4    0  502  0.11741412712E+02 -0.17293701173E+02  0.34859632886E+02  0.40860730264E+02  0.41800000000E+01 0. -1.
        -11    1    3    3    0    0 -0.34433965784E+01 -0.31606894892E+02 -0.57034853471E+02  0.65297988446E+02  0.00000000000E+00 0.  1.
         11    1    3    3    0    0 -0.73184350815E+01  0.35373287066E+02  0.97247771429E+01  0.37408558117E+02  0.00000000000E+00 0. -1.
</event>
<event>
 7    1  0.8061721E-006  0.1036690E+03  0.7561462E-02  0.1272764E+00
          2   -1    0    0  501    0  0.00000000000E+00  0.00000000000E+00  0.69288537010E+02  0.69288537010E+02  0.00000000000E+00 0. -1.
         -2   -1    0    0    0  501 -0.00000000000E+00 -0.00000000000E+00 -0.23825542992E+03  0.23825542992E+03  0.00000000000E+00 0.  1.
         23    2    1    2    0    0 -0.21916325722E+02 -0.15866805024E+02 -0.36797266914E+02  0.99634112424E+02  0.88548498979E+02 0.  0.
          5    1    1    2  502    0  0.48362694252E+02 -0.40100023825E+02 -0.11850060940E+01  0.62974905681E+02  0.41800000000E+01 0. -1.
         -5    1    1    2    0  502 -0.26446368530E+02  0.55966828849E+02 -0.13098461991E+03  0.14493494883E+03  0.41800000000E+01 0.  1.
        -11    1    3    3    0    0 -0.30843064009E+02 -0.43482151980E+02 -0.44682757373E+02  0.69559621510E+02  0.00000000000E+00 0. -1.
         11    1    3    3    0    0  0.89267382863E+01  0.27615346956E+02  0.78854904593E+01  0.30074490914E+02  0.00000000000E+00 0.  1.
</event>
<event>
 8    1  0.8061721E-006  0.1123287E+03  0.7561462E-02  0.1256317E+00
         -2   -1    0    0    0  501 -0.00000000000E+00  0.00000000000E+00  0.48714929870E+02  0.48714929870E+02  0.00000000000E+00 0.  1.
          2   -1    0    0  501    0  0.00000000000E+00 -0.00000000000E+00 -0.38056356953E+03  0.38056356953E+03  0.00000000000E+00 0. -1.
         23    2    1    2    0    0  0.74488020094E+02 -0.97381266559E+01 -0.89995690852E+02  0.14683200434E+03  0.88414460794E+02 0.  0.
         23    2    1    2    0    0 -0.74488020094E+02  0.97381266559E+01 -0.24185294880E+03  0.28244649506E+03  0.12505949575E+03 0.  0.
          5    1    4    4  502    0 -0.97904655944E+02 -0.25247444333E+02 -0.19221971110E+03  0.21722947506E+03  0.41800000000E+01 0. -1.
         -5    1    4    4    0  502  0.23416635850E+02  0.34985570989E+02 -0.49633237703E+02  0.65217019994E+02  0.41800000000E+01 0. -1.
        -11    1    3    3    0    0  0.41061791333E+02  0.10102497585E+02  0.65170180468E+01  0.42785542992E+02  0.00000000000E+00 0.  1.
         11    1    3    3    0    0  0.33426228761E+02 -0.19840624241E+02 -0.96512708899E+02  0.10404646135E+03  0.00000000000E+00 0. -1.
</event>
<event>
 8    1  0.8061721E-006  0.1540153E+03  0.7561462E-02  0.1195624E+00
          2   -1    0    0  501    0  0.00000000000E+00  0.00000000000E+00  0.15351777507E+04  0.15351777507E+04  0.00000000000E+00 0.  1.
         -2   -1    0    0    0  501 -0.00000000000E+00 -0.00000000000E+00 -0.34885772643E+02  0.34885772643E+02  0.00000000000E+00 0. -1.
         23    2    1    2    0    0  0.44347076510E+02 -0.11867938541E+03  0.18042741545E+03  0.23824500472E+03  0.90305981594E+02 0.  0.
         23    2    1    2    0    0 -0.44347076510E+02  0.11867938541E+03  0.13198645626E+04  0.13318185186E+04  0.12508654288E+03 0.  0.
          5    1    4    4  502    0 -0.54850502209E+02  0.14079820073E+03  0.11935853676E+04  0.12031193678E+04  0.41800000000E+01 0. -1.
         -5    1    4    4    0  502  0.10503425699E+02 -0.22118815320E+02  0.12627919496E+03  0.12869915083E+03  0.41800000000E+01 0. -1.
        -11    1    3    3    0    0  0.33876851963E+02 -0.11650979637E+03  0.18896222291E+03  0.22456378924E+03  0.00000000000E+00 0.  1.
         11    1    3    3    0    0  0.10470224547E+02 -0.21695890343E+01 -0.85348074597E+01  0.13681215480E+02  0.00000000000E+00 0. -1.
</event>
<event>
 8    1  0.8061721E-006  0.6935238E+02  0.7561462E-02  0.1362309E+00
          1   -1    0    0  501    0  0.00000000000E+00  0.00000000000E+00  0.30524685188E+03  0.30524685188E+03  0.00000000000E+00 0. -1.
         -1   -1    0    0    0  501 -0.00000000000E+00 -0.00000000000E+00 -0.44348969508E+02  0.44348969508E+02  0.00000000000E+00 0.  1.
         23    2    1    2    0    0  0.21259201019E+02  0.41087898106E+02  0.92305939581E+02  0.13462910911E+03  0.86396999599E+02 0.  0.
         23    2    1    2    0    0 -0.21259201019E+02 -0.41087898106E+02  0.16859194279E+03  0.21496671228E+03  0.12508906912E+03 0.  0.
          5    1    4    4  502    0 -0.61211890954E+00 -0.51026144340E+01  0.17291814193E+03  0.17304498713E+03  0.41800000000E+01 0. -1.
         -5    1    4    4    0  502 -0.20647082110E+02 -0.35985283672E+02 -0.43261991319E+01  0.41921725149E+02  0.41800000000E+01 0. -1.
        -11    1    3    3    0    0 -0.28916692322E+02  0.70901205141E+01  0.57463736131E+02  0.64718821636E+02  0.00000000000E+00 0. -1.
         11    1    3    3    0    0  0.50175893341E+02  0.33997777592E+02  0.34842203449E+02  0.69910287476E+02  0.00000000000E+00 0.  1.
</event>
<event>
 8    1  0.8061721E-006  0.5120598E+02  0.7561462E-02  0.1438943E+00
         -4   -1    0    0    0  501 -0.00000000000E+00  0.00000000000E+00  0.16216724957E+03  0.16216724957E+03  0.00000000000E+00 0.  1.
          4   -1    0    0  501    0  0.00000000000E+00 -0.00000000000E+00 -0.74734470173E+02  0.74734470173E+02  0.00000000000E+00 0. -1.
         23    2    1    2    0    0 -0.19576849809E+02  0.29448918867E+01  0.45247898057E+02  0.10341542073E+03  0.90859515344E+02 0.  0.
         23    2    1    2    0    0  0.19576849809E+02 -0.29448918867E+01  0.42184881339E+02  0.13348629902E+03  0.12508837826E+03 0.  0.
          5    1    4    4  502    0  0.22811660049E+02 -0.18930765795E+02  0.83589821558E+02  0.88788942982E+02  0.41800000000E+01 0. -1.
         -5    1    4    4    0  502 -0.32348102396E+01  0.15985873908E+02 -0.41404940219E+02  0.44697356034E+02  0.41800000000E+01 0. -1.
        -11    1    3    3    0    0 -0.23156709125E+02 -0.21100092555E+02  0.64958742861E+02  0.72118550716E+02  0.00000000000E+00 0.  1.
         11    1    3    3    0    0  0.35798593161E+01  0.24044984442E+02 -0.19710844804E+02  0.31296870010E+02  0.00000000000E+00 0. -1.
</event>
<event>
 8    1  0.8061721E-006  0.1344187E+03  0.7561462E-02  0.1221043E+00
         -1   -1    0    0    0  501 -0.00000000000E+00  0.00000000000E+00  0.56178415603E+03  0.56178415603E+03  0.00000000000E+00 0.  1.
          1   -1    0    0  501    0  0.00000000000E+00 -0.00000000000E+00 -0.32946552594E+02  0.32946552594E+02  0.00000000000E+00 0. -1.
         23    2    1    2    0    0  0.34544544813E+02 -0.71854230150E+02  0.26836722009E+03  0.29498247624E+03  0.92937293418E+02 0.  0.
         23    2    1    2    0    0 -0.34544544813E+02  0.71854230150E+02  0.26047038335E+03  0.29974823238E+03  0.12509127166E+03 0.  0.
          5    1    4    4  502    0  0.46546403214E+02  0.26184838924E+02  0.74643105139E+02  0.91876433248E+02  0.41800000000E+01 0. -1.
         -5    1    4    4    0  502 -0.81090948027E+02  0.45669391227E+02  0.18582727821E+03  0.20787179913E+03  0.41800000000E+01 0. -1.
        -11    1    3    3    0    0 -0.81021511541E+00 -0.84541195706E+02  0.19569041532E+03  0.21317272075E+03  0.00000000000E+00 0.  1.
         11    1    3    3    0    0  0.35354759928E+02  0.12686965555E+02  0.72676804760E+02  0.81809755499E+02  0.00000000000E+00 0. -1.
</event>
<event>
 8    1  0.8061721E-006  0.1031093E+03  0.7561462E-02  0.1273890E+00
         -3   -1    0    0    0  501 -0.00000000000E+00  0.00000000000E+00  0.18452548249E+02  0.18452548249E+02  0.00000000000E+00 0.  1.
          3   -1    0    0  501    0  0.00000000000E+00 -0.00000000000E+00 -0.91096864023E+03  0.91096864023E+03  0.00000000000E+00 0. -1.
         23    2    1    2    0    0 -0.19546986085E+02 -0.52713340548E+01 -0.14960307731E+03  0.17577909952E+03  0.90040765560E+02 0.  0.
         23    2    1    2    0    0  0.19546986085E+02  0.52713340548E+01 -0.74291301468E+03  0.75364208896E+03  0.12508708663E+03 0.  0.
          5    1    4    4  502    0  0.72093751824E+02  0.10869878600E+02 -0.46824715418E+03  0.47390772637E+03  0.41800000000E+01 0. -1.
         -5    1    4    4    0  502 -0.52546765739E+02 -0.55985445454E+01 -0.27466586049E+03  0.27973436259E+03  0.41800000000E+01 0. -1.
        -11    1    3    3    0    0 -0.41740454812E+02  0.20221801163E+02 -0.12677311425E+03  0.13499114529E+03  0.00000000000E+00 0. -1.
         11    1    3    3    0    0  0.22193468727E+02 -0.25493135218E+02 -0.22829963052E+02  0.40787954230E+02  0.00000000000E+00 0.  1.
</event>
<event>
 8    1  0.8061721E-006  0.8742974E+02  0.7561462E-02  0.1309198E+00
         -2   -1    0    0    0  501 -0.00000000000E+00  0.00000000000E+00  0.54318431741E+02  0.54318431741E+02  0.00000000000E+00 0.  1.
          2   -1    0    0  501    0  0.00000000000E+00 -0.00000000000E+00 -0.26584443678E+03  0.26584443678E+03  0.00000000000E+00 0. -1.
         23    2    1    2    0    0 -0.49844572578E+02 -0.12795822149E+02 -0.88721980410E+02  0.13747040633E+03  0.91533099635E+02 0.  0.
         23    2    1    2    0    0  0.49844572578E+02  0.12795822149E+02 -0.12280402462E+03  0.18269246219E+03  0.12508993883E+03 0.  0.
          5    1    4    4  502    0  0.13520831248E+02 -0.26164047469E+02  0.16130449563E+02  0.33838351921E+02  0.41800000000E+01 0.  1.
         -5    1    4    4    0  502  0.36323741330E+02  0.38959869618E+02 -0.13893447419E+03  0.14885411027E+03  0.41800000000E+01 0.  1.
        -11    1    3    3    0    0 -0.45776096306E+01  0.29427156582E+02 -0.60971406024E+00  0.29787309474E+02  0.00000000000E+00 0.  1.
         11    1    3    3    0    0 -0.45266962947E+02 -0.42222978731E+02 -0.88112266349E+02  0.10768309686E+03  0.00000000000E+00 0. -1.
</event>
<event>
 8    1  0.8061721E-006  0.1315939E+03  0.7561462E-02  0.1225110E+00
         -3   -1    0    0    0  501 -0.00000000000E+00  0.00000000000E+00  0.21208992155E+03  0.21208992155E+03  0.00000000000E+00 0.  1.
          3   -1    0    0  501    0  0.00000000000E+00 -0.00000000000E+00 -0.94971381233E+02  0.94971381233E+02  0.00000000000E+00 0. -1.
         23    2    1    2    0    0 -0.71811250077E+02 -0.22238101874E+02  0.10992516608E+03  0.16095288234E+03  0.90393027293E+02 0.  0.
         23    2    1    2    0    0  0.71811250077E+02  0.22238101874E+02  0.71933742330E+01  0.14610842044E+03  0.12507812390E+03 0.  0.
          5    1    4    4  502    0  0.10761576088E+03  0.20154026142E+02  0.16600947686E+01  0.10957903574E+03  0.41800000000E+01 0.  1.
         -5    1    4    4    0  502 -0.35804510799E+02  0.20840757321E+01  0.55332794644E+01  0.36529384704E+02  0.41800000000E+01 0.  1.
        -11    1    3    3    0    0  0.44792205114E+01 -0.39121583655E+02  0.34533617535E+02  0.52374922091E+02  0.00000000000E+00 0.  1.
         11    1    3    3    0    0 -0.76290470588E+02  0.16883481780E+02  0.75391548550E+02  0.10857796025E+03  0.00000000000E+00 0. -1.
</event>
<event>
 8    1  0.8061721E-006  0.1133145E+03  0.7561462E-02  0.1254552E+00
          2   -1    0    0  501    0  0.00000000000E+00  0.00000000000E+00  0.24642765152E+03  0.24642765152E+03  0.00000000000E+00 0. -1.
         -2   -1    0    0    0  501 -0.00000000000E+00 -0.00000000000E+00 -0.62356241440E+02  0.62356241440E+02  0.00000000000E+00 0.  1.
         23    2    1    2    0    0 -0.33645869356E+01 -0.51021688101E+02  0.85425537015E+02  0.14147275272E+03  0.10051111523E+03 0.  0.
         23    2    1    2    0    0  0.33645869356E+01  0.51021688101E+02  0.98645873065E+02  0.16731114024E+03  0.12508987279E+03 0.  0.
          5    1    4    4  502    0 -0.16618761080E+02  0.89694424264E+02  0.63831643378E+02  0.11141464922E+03  0.41800000000E+01 0. -1.
         -5    1    4    4    0  502  0.19983348016E+02 -0.38672736164E+02  0.34814229687E+02  0.55896491026E+02  0.41800000000E+01 0. -1.
        -11    1    3    3    0    0  0.44875494297E+01 -0.70467418630E+02  0.20920217949E+02  0.73644081278E+02  0.00000000000E+00 0.  1.
         11    1    3    3    0    0 -0.78521363653E+01  0.19445730530E+02  0.64505319066E+02  0.67828671439E+02  0.00000000000E+00 0. -1.
</event>
<event>
 8    1  0.8061721E-006  0.8862507E+02  0.7561462E-02  0.1306216E+00
         -1   -1    0    0    0  501 -0.00000000000E+00  0.00000000000E+00  0.18255915061E+03  0.18255915061E+03  0.00000000000E+00 0.  1.
          1   -1    0    0  501    0  0.00000000000E+00 -0.00000000000E+00 -0.78059381100E+02  0.78059381100E+02  0.00000000000E+00 0. -1.
         23    2    1    2    0    0  0.18269957084E+02 -0.16889648867E+02  0.93651067157E+02  0.13262353899E+03  0.90550699307E+02 0.  0.
         23    2    1    2    0    0 -0.18269957084E+02  0.16889648867E+02  0.10848702352E+02  0.12799499272E+03  0.12508386086E+03 0.  0.
          5    1    4    4  502    0 -0.30255467340E+02 -0.28399954815E+02  0.51190459048E+02  0.66029434611E+02  0.41800000000E+01 0. -1.
         -5    1    4    4    0  502  0.11985510256E+02  0.45289603683E+02 -0.40341756696E+02  0.61965558104E+02  0.41800000000E+01 0. -1.
        -11    1    3    3    0    0 -0.31132855074E+02  0.94337154148E+01  0.57262155564E+02  0.65857452968E+02  0.00000000000E+00 0.  1.
         11    1    3    3    0    0  0.49402812159E+02 -0.26323364282E+02  0.36388911593E+02  0.66766086026E+02  0.00000000000E+00 0. -1.
</event>
<event>
 8    1  0.8061721E-006  0.1263189E+03  0.7561462E-02  0.1233022E+00
         -2   -1    0    0    0  501 -0.00000000000E+00  0.00000000000E+00  0.16343646402E+03  0.16343646402E+03  0.00000000000E+00 0.  1.
          2   -1    0    0  501    0  0.00000000000E+00 -0.00000000000E+00 -0.23609301593E+03  0.23609301593E+03  0.00000000000E+00 0. -1.
         23    2    1    2    0    0  0.82963962888E+02  0.17487770387E+02  0.10787818662E+03  0.16409774660E+03  0.90008477594E+02 0.  0.
         23    2    1    2    0    0 -0.82963962888E+02 -0.17487770387E+02 -0.18053473853E+03  0.23543173335E+03  0.12508584253E+03 0.  0.
          5    1    4    4  502    0  0.71318015955E+01  0.40711117657E+02 -0.33397877437E+02  0.53302423136E+02  0.41800000000E+01 0.  1.
         -5    1    4    4    0  502 -0.90095764484E+02 -0.58198888044E+02 -0.14713686109E+03  0.18212931021E+03  0.41800000000E+01 0.  1.
        -11    1    3    3    0    0  0.91390033712E+02  0.90588957173E+01  0.49131402430E+02  0.10415419607E+03  0.00000000000E+00 0. -1.
         11    1    3    3    0    0 -0.84260708235E+01  0.84288746695E+01  0.58746784188E+02  0.59943550530E+02  0.00000000000E+00 0.  1.
</event>
<event>
 8    1  0.8061721E-006  0.6196121E+02  0.7561462E-02  0.1389781E+00
         -3   -1    0    0    0  501 -0.00000000000E+00  0.00000000000E+00  0.10463542357E+03  0.10463542357E+03  0.00000000000E+00 0.  1.
          3   -1    0    0  501    0  0.00000000000E+00 -0.00000000000E+00 -0.14727907903E+03  0.14727907903E+03  0.00000000000E+00 0. -1.
         23    2    1    2    0    0  0.41433765394E+02 -0.12989870448E+02  0.22880337299E+02  0.10416315667E+03  0.91874695769E+02 0.  0.
         23    2    1    2    0    0 -0.41433765394E+02  0.12989870448E+02 -0.65523992763E+02  0.14775134594E+03  0.12510624665E+03 0.  0.
          5    1    4    4  502    0 -0.41060601535E+02 -0.76382141362E+01  0.28931471215E+02  0.50978600807E+02  0.41800000000E+01 0.  1.
         -5    1    4    4    0  502 -0.37316385920E+00  0.20628084585E+02 -0.94455463978E+02  0.96772745131E+02  0.41800000000E+01 0.  1.
        -11    1    3    3    0    0  0.13926597266E+02  0.15812342628E+02  0.51151824851E+02  0.55321690831E+02  0.00000000000E+00 0.  1.
         11    1    3    3    0    0  0.27507168128E+02 -0.28802213077E+02 -0.28271487552E+02  0.48841465835E+02  0.00000000000E+00 0. -1.
</event>
<event>
 8    1  0.8061721E-006  0.8222827E+02  0.7561462E-02  0.1322844E+00
          2   -1    0    0  501    0  0.00000000000E+00  0.00000000000E+00  0.34154031611E+03  0.34154031611E+03  0.00000000000E+00 0. -1.
         -2   -1    0    0    0  501 -0.00000000000E+00 -0.00000000000E+00 -0.44260338696E+02  0.44260338696E+02  0.00000000000E+00 0.  1.
         23    2    1    2    0    0 -0.21087890221E+02 -0.44067664272E+02  0.68430845396E+02  0.12304808071E+03  0.89840922840E+02 0.  0.
         23    2    1    2    0    0  0.21087890221E+02  0.44067664272E+02  0.22884913202E+03  0.26275257410E+03  0.11950034234E+03 0.  0.
          5    1    4    4  502    0 -0.75474890560E+01 -0.25886824447E+01  0.20098007687E+03  0.20118183210E+03  0.41800000000E+01 0. -1.
         -5    1    4    4    0  502  0.28635379277E+02  0.46656346717E+02  0.27869055152E+02  0.61570741999E+02  0.41800000000E+01 0.  1.
        -11    1    3    3    0    0  0.34587854914E+02 -0.19324944490E+02  0.16222836458E+02  0.42813007484E+02  0.00000000000E+00 0.  1.
         11    1    3    3    0    0 -0.55675745135E+02 -0.24742719782E+02  0.52208008938E+02  0.80235073228E+02  0.00000000000E+00 0. -1.
</event>
<event>
 7    1  0.8061721E-006  0.1359287E+03  0.7561462E-02  0.1218915E+00
          1   -1    0    0  501    0  0.00000000000E+00  0.00000000000E+00  0.47087742431E+03  0.47087742431E+03  0.00000000000E+00 0. -1.
         -1   -1    0    0    0  501 -0.00000000000E+00 -0.00000000000E+00 -0.13249593583E+03  0.13249593583E+03  0.00000000000E+00 0.  1.
         23    2    1    2    0    0 -0.70792755908E+02  0.25128184653E+01 -0.88556799845E+02  0.14831956643E+03  0.95595284625E+02 0.  0.
          5    1    1    2  502    0  0.77381088302E+02  0.57643260728E+02  0.25010121731E+03  0.26810197619E+03  0.41800000000E+01 0. -1.
         -5    1    1    2    0  502 -0.65883323935E+01 -0.60156079193E+02  0.17683707101E+03  0.18695181751E+03  0.41800000000E+01 0.  1.
        -11    1    3    3    0    0 -0.50741888923E+02 -0.41952288633E+02 -0.70092333042E+02  0.96164801067E+02  0.00000000000E+00 0.  1.
         11    1    3    3    0    0 -0.20050866985E+02  0.44465107098E+02 -0.18464466803E+02  0.52154765366E+02  0.00000000000E+00 0. -1.
</event>
<event>
 8    1  0.8061721E-006  0.1493768E+03  0.7561462E-02  0.1201241E+00
         -1   -1    0    0    0  501 -0.00000000000E+00  0.00000000000E+00  0.52514674842E+02  0.52514674842E+02  0.00000000000E+00 0.  1.
          1   -1    0    0  501    0  0.00000000000E+00 -0.00000000000E+00 -0.48035239549E+03  0.48035239549E+03  0.00000000000E+00 0. -1.
         23    2    1    2    0    0 -0.35686778746E+02  0.10059049707E+03 -0.12939390389E+03  0.19211989071E+03  0.93676441888E+02 0.  0.
         23    2    1    2    0    0  0.35686778746E+02 -0.10059049707E+03 -0.29844381676E+03  0.34074717962E+03  0.12509170389E+03 0.  0.
          5    1    4    4  502    0  0.80185502722E+00  0.28850916638E+02 -0.70123004576E+02  0.75945549792E+02  0.41800000000E+01 0.  1.
         -5    1    4    4    0  502  0.34884923719E+02 -0.12944141371E+03 -0.22832081218E+03  0.26480162983E+03  0.41800000000E+01 0.  1.
        -11    1    3    3    0    0  0.26202974588E+02  0.46001878501E+02 -0.23644829068E+02  0.57981433619E+02  0.00000000000E+00 0. -1.
         11    1    3    3    0    0 -0.61889753335E+02  0.54588618569E+02 -0.10574907483E+03  0.13413845710E+03  0.00000000000E+00 0.  1.
</event>
<event>
 8    1  0.8061721E-006  0.2849358E+03  0.7561462E-02  0.1093023E+00
         -2   -1    0    0    0  501 -0.00000000000E+00  0.00000000000E+00  0.10967063849E+03  0.10967063849E+03  0.00000000000E+00 0.  1.
          2   -1    0    0  501    0  0.00000000000E+00 -0.00000000000E+00 -0.84588274559E+03  0.84588274559E+03  0.00000000000E+00 0. -1.
         23    2    1    2    0    0  0.66556455263E+02 -0.26782706493E+03 -0.25561580378E+03  0.38741515538E+03  0.92682064215E+02 0.  0.
         23    2    1    2    0    0 -0.66556455263E+02  0.26782706493E+03 -0.48059630332E+03  0.56813822870E+03  0.12508853543E+03 0.  0.
          5    1    4    4  502    0 -0.13496239047E+02  0.18523631146E+03 -0.40007647532E+03  0.44110463391E+03  0.41800000000E+01 0.  1.
         -5    1    4    4    0  502 -0.53060216216E+02  0.82590753472E+02 -0.80519828003E+02  0.12703359479E+03  0.41800000000E+01 0.  1.
        -11    1    3    3    0    0 -0.15305460579E+02 -0.22459122219E+02 -0.57566124711E+01  0.27781430516E+02  0.00000000000E+00 0.  1.
         11    1    3    3    0    0  0.81861915842E+02 -0.24536794271E+03 -0.24985919131E+03  0.35963372486E+03  0.00000000000E+00 0. -1.
</event>
<event>
 8    1  0.8061721E-006  0.8658428E+02  0.7561462E-02  0.1311341E+00
         -1   -1    0    0    0  501 -0.00000000000E+00  0.00000000000E+00  0.95815213167E+02  0.95815213167E+02  0.00000000000E+00 0. -1.
          1   -1    0    0  501    0  0.00000000000E+00 -0.00000000000E+00 -0.14121727642E+03  0.14121727642E+03  0.00000000000E+00 0.  1.
         23    2    1    2    0    0 -0.32199094805E+02  0.57336241624E+00  0.83953298543E+01  0.97108269710E+02  0.91227320645E+02 0.  0.
         23    2    1    2    0    0  0.32199094805E+02 -0.57336241624E+00 -0.53797393108E+02  0.13992421988E+03  0.12509003698E+03 0.  0.
          5    1    4    4  502    0 -0.86420676642E+01 -0.41972560274E+02  0.18656478209E+02  0.46924596201E+02  0.41800000000E+01 0.  1.
         -5    1    4    4    0  502  0.40841162469E+02  0.41399197858E+02 -0.72453871316E+02  0.92999623676E+02  0.41800000000E+01 0.  1.
        -11    1    3    3    0    0 -0.40605155021E+01 -0.29990284520E+02  0.36150071536E+02  0.47145865394E+02  0.00000000000E+00 0. -1.
         11    1    3    3    0    0 -0.28138579303E+02  0.30563646936E+02 -0.27754741682E+02  0.49962404316E+02  0.00000000000E+00 0.  1.
</event>
<event>
 8    1  0.8061721E-006  0.2420716E+03  0.7561462E-02  0.1118420E+00
          2   -1    0    0  501    0  0.00000000000E+00  0.00000000000E+00  0.36155112025E+03  0.36155112025E+03  0.00000000000E+00 0.  1.
         -2   -1    0    0    0  501 -0.00000000000E+00 -0.00000000000E+00 -0.21867768687E+03  0.21867768687E+03  0.00000000000E+00 0. -1.
         23    2    1    2    0    0  0.11818893609E+03 -0.17874730852E+03 -0.76978361973E+02  0.24871518492E+03  0.10007172468E+03 0.  0.
         23    2    1    2    0    0 -0.11818893609E+03  0.17874730852E+03  0.21985179536E+03  0.33151362220E+03  0.12508894781E+03 0.  0.
          5    1    4    4  502    0  0.12426822699E+02  0.87883828341E+02  0.83358681405E+02  0.12183651083E+03  0.41800000000E+01 0.  1.
         -5    1    4    4    0  502 -0.13061575879E+03  0.90863480182E+02  0.13649311396E+03  0.20967711137E+03  0.41800000000E+01 0.  1.
        -11    1    3    3    0    0  0.69476268629E+02 -0.17378133548E+03 -0.55201745957E+02  0.19512595219E+03  0.00000000000E+00 0.  1.
         11    1    3    3    0    0  0.48712667457E+02 -0.49659730461E+01 -0.21776616016E+02  0.53589232727E+02  0.00000000000E+00 0. -1.
</event>
<event>
 8    1  0.8061721E-006  0.1042930E+03  0.7561462E-02  0.1271519E+00
          1   -1    0    0  501    0  0.00000000000E+00  0.00000000000E+00  0.11395698254E+04  0.11395698254E+04  0.00000000000E+00 0. -1.
         -1   -1    0    0    0  501 -0.00000000000E+00 -0.00000000000E+00 -0.18717429296E+02  0.18717429296E+02  0.00000000000E+00 0.  1.
         23    2    1    2    0    0 -0.21137458835E+02  0.92262164597E+02  0.42758188408E+03  0.44749145627E+03  0.91995851297E+02 0.  0.
         23    2    1    2    0    0  0.21137458835E+02 -0.92262164597E+02  0.69327051206E+03  0.71079579847E+03  0.12509022761E+03 0.  0.
          5    1    4    4  502    0 -0.48457071299E+01 -0.52509747629E+02  0.62662542709E+03  0.62885423808E+03  0.41800000000E+01 0. -1.
         -5    1    4    4    0  502  0.25983165965E+02 -0.39752416967E+02  0.66645084974E+02  0.81941560392E+02  0.41800000000E+01 0. -1.
        -11    1    3    3    0    0  0.17189990455E+02  0.36548817248E+02  0.51860410439E+02  0.65732898802E+02  0.00000000000E+00 0.  1.
         11    1    3    3    0    0 -0.38327449290E+02  0.55713347349E+02  0.37572147364E+03  0.38175855747E+03  0.00000000000E+00 0. -1.
</event>
<event>
 8    1  0.8061721E-006  0.1379886E+03  0.7561462E-02  0.1216061E+00
          2   -1    0    0  501    0  0.00000000000E+00  0.00000000000E+00  0.49374385705E+03  0.49374385705E+03  0.00000000000E+00 0. -1.
         -2   -1    0    0    0  501 -0.00000000000E+00 -0.00000000000E+00 -0.41974217712E+02  0.41974217712E+02  0.00000000000E+00 0.  1.
         23    2    1    2    0    0  0.75417414510E+02 -0.52950793660E+02  0.24853576367E+03  0.27989917959E+03  0.89899677153E+02 0.  0.
         23    2    1    2    0    0 -0.75417414510E+02  0.52950793660E+02  0.20323387566E+03  0.25581889517E+03  0.12509087076E+03 0.  0.
          5    1    4    4  502    0 -0.10392283068E+03  0.58578936825E+02  0.12780893643E+03  0.17488294145E+03  0.41800000000E+01 0.  1.
         -5    1    4    4    0  502  0.28505416173E+02 -0.56281431642E+01  0.75424939232E+02  0.80935953722E+02  0.41800000000E+01 0.  1.
        -11    1    3    3    0    0  0.10024301675E+02 -0.60591885358E+02  0.98867593088E+02  0.11639013772E+03  0.00000000000E+00 0. -1.
         11    1    3    3    0    0  0.65393112835E+02  0.76410916973E+01  0.14966817058E+03  0.16350904187E+03  0.00000000000E+00 0.  1.
</event>
<event>
 8    1  0.8061721E-006  0.7538489E+02  0.7561462E-02  0.1342683E+00
          2   -1    0    0  501    0  0.00000000000E+00  0.00000000000E+00  0.17456567489E+03  0.17456567489E+03  0.00000000000E+00 0. -1.
         -2   -1    0    0    0  501 -0.00000000000E+00 -0.00000000000E+00 -0.73374920235E+02  0.73374920235E+02  0.00000000000E+00 0.  1.
         23    2    1    2    0    0  0.23883780946E+02  0.17845469704E+02  0.47659989859E+02  0.10864983133E+03  0.92975348521E+02 0.  0.
         23    2    1    2    0    0 -0.23883780946E+02 -0.17845469704E+02  0.53530764794E+02  0.13929076380E+03  0.12508988096E+03 0.  0.
          5    1    4    4  502    0  0.32219861018E+01 -0.31089927538E+02  0.87889948195E+02  0.93376015028E+02  0.41800000000E+01 0.  1.
         -5    1    4    4    0  502 -0.27105767047E+02  0.13244457834E+02 -0.34359183401E+02  0.45914748769E+02  0.41800000000E+01 0.  1.
        -11    1    3    3    0    0  0.39235327359E+02  0.43687922324E+02  0.85744090850E+01  0.59342783563E+02  0.00000000000E+00 0.  1.
         11    1    3    3    0    0 -0.15351546413E+02 -0.25842452619E+02  0.39085580774E+02  0.49307047763E+02  0.00000000000E+00 0. -1.
</event>
<event>
 8    1  0.8061721E-006  0.6691957E+02  0.7561462E-02  0.1370893E+00
          4   -1    0    0  501    0  0.00000000000E+00  0.00000000000E+00  0.78905673340E+03  0.78905673340E+03  0.00000000000E+00 0. -1.
         -4   -1    0    0    0  501 -0.00000000000E+00 -0.00000000000E+00 -0.38888535191E+02  0.38888535191E+02  0.00000000000E+00 0.  1.
         23    2    1    2    0    0  0.34745369205E+02 -0.54656641085E+02  0.65799136561E+02  0.12922976850E+03  0.90422439686E+02 0.  0.
         23    2    1    2    0    0 -0.34745369205E+02  0.54656641085E+02  0.68436906165E+03  0.69871550009E+03  0.12509096062E+03 0.  0.
          5    1    4    4  502    0 -0.15221540287E+02  0.41916850252E+02  0.65251685451E+02  0.79145261879E+02  0.41800000000E+01 0.  1.
         -5    1    4    4    0  502 -0.19523828918E+02  0.12739790833E+02  0.61911737620E+03  0.61957023821E+03  0.41800000000E+01 0.  1.
        -11    1    3    3    0    0  0.94395420017E+01 -0.22819899080E+02  0.81860341364E+02  0.85504200104E+02  0.00000000000E+00 0. -1.
         11    1    3    3    0    0  0.25305827204E+02 -0.31836742005E+02 -0.16061204803E+02  0.43725568397E+02  0.00000000000E+00 0.  1.
</event>
<event>
 7    1  0.8061721E-006  0.1664494E+03  0.7561462E-02  0.1181602E+00
         -2   -1    0    0    0  501 -0.00000000000E+00  0.00000000000E+00  0.88249186498E+02  0.88249186498E+02  0.00000000000E+00 0.  1.
          2   -1    0    0  501    0  0.00000000000E+00 -0.00000000000E+00 -0.45761192513E+03  0.45761192513E+03  0.00000000000E+00 0. -1.
         23    2    1    2    0    0  0.24845267971E+02 -0.81668287887E+01 -0.17445180918E+02  0.93918088631E+02  0.88500218089E+02 0.  0.
          5    1    1    2  502    0  0.15871855210E+02  0.12645719511E+03 -0.27978612411E+03  0.30747534150E+03  0.41800000000E+01 0. -1.
         -5    1    1    2    0  502 -0.40717123181E+02 -0.11829036632E+03 -0.72131433596E+02  0.14446768150E+03  0.41800000000E+01 0.  1.
        -11    1    3    3    0    0  0.19343337825E+00  0.32582615823E+02  0.15425424339E+02  0.36050076094E+02  0.00000000000E+00 0. -1.
         11    1    3    3    0    0  0.24651834593E+02 -0.40749444612E+02 -0.32870605257E+02  0.57868012537E+02  0.00000000000E+00 0.  1.
</event>
<event>
 7    1  0.8061721E-006  0.1315087E+03  0.7561462E-02  0.1225234E+00
         -1   -1    0    0    0  501 -0.00000000000E+00  0.00000000000E+00  0.30975927473E+03  0.30975927473E+03  0.00000000000E+00 0.  1.
          1   -1    0    0  501    0  0.00000000000E+00 -0.00000000000E+00 -0.11672402876E+03  0.11672402876E+03  0.00000000000E+00 0. -1.
         23    2    1    2    0    0  0.16037703907E+01  0.13148109368E+02  0.21384821080E+03  0.23332287353E+03  0.92374570035E+02 0.  0.
          5    1    1    2  502    0  0.38591539895E+02  0.74419721466E+02 -0.42837613110E+02  0.94234470294E+02  0.41800000000E+01 0. -1.
         -5    1    1    2    0  502 -0.40195310286E+02 -0.87567830834E+02  0.22024648278E+02  0.98925959676E+02  0.41800000000E+01 0.  1.
        -11    1    3    3    0    0  0.38158993433E+02  0.23288060474E+02  0.16784225042E+03  0.17369359103E+03  0.00000000000E+00 0.  1.
         11    1    3    3    0    0 -0.36555223042E+02 -0.10139951106E+02  0.46005960381E+02  0.59629282494E+02  0.00000000000E+00 0. -1.
</event>
<event>
 8    1  0.8061721E-006  0.2634315E+03  0.7561462E-02  0.1105099E+00
          2   -1    0    0  501    0  0.00000000000E+00  0.00000000000E+00  0.94206012102E+03  0.94206012102E+03  0.00000000000E+00 0. -1.
         -2   -1    0    0    0  501 -0.00000000000E+00 -0.00000000000E+00 -0.76563089753E+02  0.76563089753E+02  0.00000000000E+00 0.  1.
         23    2    1    2    0    0  0.14795874763E+03 -0.19521242161E+03  0.45661487817E+03  0.52584409303E+03  0.89527552515E+02 0.  0.
         23    2    1    2    0    0 -0.14795874763E+03  0.19521242161E+03  0.40888215310E+03  0.49277911774E+03  0.12508782197E+03 0.  0.
          5    1    4    4  502    0 -0.12907373734E+03  0.85910165863E+02  0.17468463625E+03  0.23360817796E+03  0.41800000000E+01 0. -1.
         -5    1    4    4    0  502 -0.18885010293E+02  0.10930225575E+03  0.23419751686E+03  0.25917093978E+03  0.41800000000E+01 0. -1.
        -11    1    3    3    0    0 -0.11843982582E+02 -0.22685042965E+02  0.42105838704E+02  0.49272636937E+02  0.00000000000E+00 0. -1.
         11    1    3    3    0    0  0.15980273022E+03 -0.17252737865E+03  0.41450903946E+03  0.47657145609E+03  0.00000000000E+00 0.  1.
</event>
<event>
 8    1  0.8061721E-006  0.1438998E+03  0.7561462E-02  0.1208176E+00
          3   -1    0    0  501    0  0.00000000000E+00  0.00000000000E+00  0.71576584555E+02  0.71576584555E+02  0.00000000000E+00 0. -1.
         -3   -1    0    0    0  501 -0.00000000000E+00 -0.00000000000E+00 -0.41256388043E+03  0.41256388043E+03  0.00000000000E+00 0.  1.
         23    2    1    2    0    0  0.44511613213E+02 -0.10106486370E+03 -0.26548759818E+03  0.30099435108E+03  0.88986202356E+02 0.  0.
         23    2    1    2    0    0 -0.44511613213E+02  0.10106486370E+03 -0.75499697693E+02  0.18314611390E+03  0.12508758652E+03 0.  0.
          5    1    4    4  502    0 -0.36753682300E+02 -0.22257484135E+02 -0.21567172386E+02  0.48258098671E+02  0.41800000000E+01 0.  1.
         -5    1    4    4    0  502 -0.77579309135E+01  0.12332234783E+03 -0.53932525307E+02  0.13488801523E+03  0.41800000000E+01 0.  1.
        -11    1    3    3    0    0  0.45974749895E+02 -0.43129166349E+02 -0.21526993447E+03  0.22430993581E+03  0.00000000000E+00 0. -1.
         11    1    3    3    0    0 -0.14631366817E+01 -0.57935697350E+02 -0.50217663710E+02  0.76684415267E+02  0.00000000000E+00 0.  1.
</event>
<event>
 8    1  0.8061721E-006  0.7493072E+02  0.7561462E-02  0.1344086E+00
         -2   -1    0    0    0  501 -0.00000000000E+00  0.00000000000E+00  0.97049228889E+02  0.97049228889E+02  0.00000000000E+00 0.  1.
          2   -1    0    0  501    0  0.00000000000E+00 -0.00000000000E+00 -0.20448453705E+03  0.20448453705E+03  0.00000000000E+00 0. -1.
         23    2    1    2    0    0  0.15970939953E+02 -0.22371936564E+02  0.19332376105E+02  0.12132972335E+03  0.11658295987E+03 0.  0.
         23    2    1    2    0    0 -0.15970939953E+02  0.22371936564E+02 -0.12676768427E+03  0.18020404259E+03  0.12509147343E+03 0.  0.
          5    1    4    4  502    0 -0.28595248210E+02  0.21645661582E+02  0.14060277827E+02  0.38747731522E+02  0.41800000000E+01 0. -1.
         -5    1    4    4    0  502  0.12624308257E+02  0.72627498177E+00 -0.14082796209E+03  0.14145631107E+03  0.41800000000E+01 0. -1.
        -11    1    3    3    0    0  0.88782826107E+01  0.38318247980E+02 -0.24311717998E+02  0.46240368320E+02  0.00000000000E+00 0. -1.
         11    1    3    3    0    0  0.70926573424E+01 -0.60690184544E+02  0.43644094103E+02  0.75089355026E+02  0.00000000000E+00 0.  1.
</event>
<event>
 8    1  0.8061721E-006  0.9028194E+02  0.7561462E-02  0.1302170E+00
         -3   -1    0    0    0  501 -0.00000000000E+00  0.00000000000E+00  0.54875968454E+02  0.54875968454E+02  0.00000000000E+00 0.  1.
          3   -1    0    0  501    0  0.00000000000E+00 -0.00000000000E+00 -0.25182689431E+03  0.25182689431E+03  0.00000000000E+00 0. -1.
         23    2    1    2    0    0  0.97095172032E+01 -0.46259339770E+01 -0.29123334235E+02  0.97108050918E+02  0.92011580612E+02 0.  0.
         23    2    1    2    0    0 -0.97095172032E+01  0.46259339770E+01 -0.16782759162E+03  0.20959481184E+03  0.12509280816E+03 0.  0.
          5    1    4    4  502    0  0.55304658496E+02  0.17490060790E+02 -0.65315579530E+02  0.87453443655E+02  0.41800000000E+01 0. -1.
         -5    1    4    4    0  502 -0.65014175699E+02 -0.12864126813E+02 -0.10251201209E+03  0.12214136819E+03  0.41800000000E+01 0. -1.
        -11    1    3    3    0    0 -0.14585639711E+02 -0.21814905177E+02  0.24421998128E+02  0.35847802809E+02  0.00000000000E+00 0.  1.
         11    1    3    3    0    0  0.24295156915E+02  0.17188971200E+02 -0.53545332364E+02  0.61260248109E+02  0.00000000000E+00 0. -1.
</event>
<event>
 8    1  0.8061721E-006  0.1565167E+03  0.7561462E-02  0.1192686E+00
         -1   -1    0    0    0  501 -0.00000000000E+00  0.00000000000E+00  0.11961569318E+03  0.11961569318E+03  0.00000000000E+00 0.  1.
          1   -1    0    0  501    0  0.00000000000E+00 -0.00000000000E+00 -0.25370204971E+03  0.25370204971E+03  0.00000000000E+00 0. -1.
         23    2    1    2    0    0 -0.10484476651E+02  0.13544413879E+03 -0.50729074134E+02  0.17070085006E+03  0.90057216609E+02 0.  0.
         23    2    1    2    0    0  0.10484476651E+02 -0.13544413879E+03 -0.83357282399E+02  0.20261689284E+03  0.12510047862E+03 0.  0.
          5    1    4    4  502    0  0.47784101152E+02 -0.18984833258E+02  0.47978700821E+01  0.51809614688E+02  0.41800000000E+01 0.  1.
         -5    1    4    4    0  502 -0.37299624502E+02 -0.11645930553E+03 -0.88155152481E+02  0.15080727815E+03  0.41800000000E+01 0.  1.
        -11    1    3    3    0    0 -0.17161659452E+02  0.41517686766E+02 -0.61241503509E+02  0.75952370744E+02  0.00000000000E+00 0. -1.
         11    1    3    3    0    0  0.66771828014E+01  0.93926452026E+02  0.10512429375E+02  0.94748479311E+02  0.00000000000E+00 0.  1.
</event>
<event>
 8    1  0.8061721E-006  0.1134785E+03  0.7561462E-02  0.1254261E+00
         -2   -1    0    0    0  501 -0.00000000000E+00  0.00000000000E+00  0.53674017151E+02  0.53674017151E+02  0.00000000000E+00 0.  1.
          2   -1    0    0  501    0  0.00000000000E+00 -0.00000000000E+00 -0.42075224832E+03  0.42075224832E+03  0.00000000000E+00 0. -1.
         23    2    1    2    0    0  0.47711026353E+02  0.64297143017E+02 -0.63227364589E+02  0.13621731990E+03  0.90260700035E+02 0.  0.
         23    2    1    2    0    0 -0.47711026353E+02 -0.64297143017E+02 -0.30385086658E+03  0.33820894558E+03  0.12509787013E+03 0.  0.
          5    1    4    4  502    0 -0.36042286622E+02 -0.98693107837E+02 -0.26377512491E+03  0.28396155529E+03  0.41800000000E+01 0. -1.
         -5    1    4    4    0  502 -0.11668739731E+02  0.34395964820E+02 -0.40075741670E+02  0.54247390289E+02  0.41800000000E+01 0. -1.
        -11    1    3    3    0    0 -0.21317009610E+01  0.14965327468E+02  0.21468717178E+02  0.26256637113E+02  0.00000000000E+00 0.  1.
         11    1    3    3    0    0  0.49842727314E+02  0.49331815549E+02 -0.84696081767E+02  0.10996068278E+03  0.00000000000E+00 0. -1.
</event>
<event>
 8    1  0.8061721E-006  0.1804548E+03  0.7561462E-02  0.1167364E+00
          2   -1    0    0  501    0  0.00000000000E+00  0.00000000000E+00  0.70005895882E+03  0.70005895882E+03  0.00000000000E+00 0. -1.
         -2   -1    0    0    0  501 -0.00000000000E+00 -0.00000000000E+00 -0.54067931661E+02  0.54067931661E+02  0.00000000000E+00 0.  1.
         23    2    1    2    0    0 -0.15186988432E+03 -0.48376756023E+02  0.24986492673E+03  0.30919409034E+03  0.88112040067E+02 0.  0.
         23    2    1    2    0    0  0.15186988432E+03  0.48376756023E+02  0.39612610043E+03  0.44493280014E+03  0.12507812325E+03 0.  0.
          5    1    4    4  502    0  0.10914091192E+03 -0.29019467636E+02  0.19901913151E+03  0.22886667574E+03  0.41800000000E+01 0. -1.
         -5    1    4    4    0  502  0.42728972394E+02  0.77396223659E+02  0.19710696892E+03  0.21606612440E+03  0.41800000000E+01 0. -1.
        -11    1    3    3    0    0 -0.10663390332E+03 -0.34501233595E+02  0.93911214969E+02  0.14622052097E+03  0.00000000000E+00 0.  1.
         11    1    3    3    0    0 -0.45235980997E+02 -0.13875522429E+02  0.15595371176E+03  0.16297356937E+03  0.00000000000E+00 0. -1.
</event>
<event>
 8    1  0.8061721E-006  0.1881192E+03  0.7561462E-02  0.1160169E+00
         -1   -1    0    0    0  501 -0.00000000000E+00  0.00000000000E+00  0.66555555556E+03  0.66555555556E+03  0.00000000000E+00 0.  1.
          1   -1    0    0  501    0  0.00000000000E+00 -0.00000000000E+00 -0.58224923850E+02  0.58224923850E+02  0.00000000000E+00 0. -1.
         23    2    1    2    0    0 -0.55662445675E+02 -0.15463070581E+03  0.30671187223E+03  0.35905069552E+03  0.88522688349E+02 0.  0.
         23    2    1    2    0    0  0.55662445675E+02  0.15463070581E+03  0.30061875948E+03  0.36472978388E+03  0.12508882309E+03 0.  0.
          5    1    4    4  502    0  0.92687545312E+02  0.13043372818E+03  0.21245738104E+03  0.26600667222E+03  0.41800000000E+01 0. -1.
         -5    1    4    4    0  502 -0.37025099637E+02  0.24196977629E+02  0.88161378433E+02  0.98723111665E+02  0.41800000000E+01 0. -1.
        -11    1    3    3    0    0  0.19115623607E+00 -0.72038290362E+02  0.20200716120E+03  0.21446781809E+03  0.00000000000E+00 0.  1.
         11    1    3    3    0    0 -0.55853601911E+02 -0.82592415451E+02  0.10470471102E+03  0.14458287743E+03  0.00000000000E+00 0. -1.
</event>
<event>
 8    1  0.8061721E-006  0.1004338E+03  0.7561462E-02  0.1279386E+00
         -1   -1    0    0    0  501 -0.00000000000E+00  0.00000000000E+00  0.20635657016E+02  0.20635657016E+02  0.00000000000E+00 0.  1.
          1   -1    0    0  501    0  0.00000000000E+00 -0.00000000000E+00 -0.62978304093E+03  0.62978304093E+03  0.00000000000E+00 0. -1.
         23    2    1    2    0    0  0.32767700390E+02 -0.11700362239E+02 -0.28561568275E+03  0.30177958393E+03  0.91016363254E+02 0.  0.
         23    2    1    2    0    0 -0.32767700390E+02  0.11700362239E+02 -0.32353170117E+03  0.34863911402E+03  0.12516329133E+03 0.  0.
          5    1    4    4  502    0 -0.54186394026E+02 -0.26440625047E+02 -0.28120566964E+03  0.28762714230E+03  0.41800000000E+01 0. -1.
         -5    1    4    4    0  502  0.21418693636E+02  0.38140987286E+02 -0.42326031535E+02  0.61011971724E+02  0.41800000000E+01 0. -1.
        -11    1    3    3    0    0 -0.19675044258E+02  0.25486789475E+02 -0.76354399291E+02  0.82865421591E+02  0.00000000000E+00 0. -1.
         11    1    3    3    0    0  0.52442744647E+02 -0.37187151714E+02 -0.20926128345E+03  0.21891416234E+03  0.00000000000E+00 0.  1.
</event>
<event>
 8    1  0.8061721E-006  0.1373503E+03  0.7561462E-02  0.1216939E+00
         -2   -1    0    0    0  501 -0.00000000000E+00  0.00000000000E+00  0.72599896406E+02  0.72599896406E+02  0.00000000000E+00 0.  1.
          2   -1    0    0  501    0  0.00000000000E+00 -0.00000000000E+00 -0.27920465750E+03  0.27920465750E+03  0.00000000000E+00 0. -1.
         23    2    1    2    0    0  0.73594868054E+02  0.51705572727E+02 -0.68573590622E+02  0.14494775507E+03  0.90652322171E+02 0.  0.
         23    2    1    2    0    0 -0.73594868054E+02 -0.51705572727E+02 -0.13803117048E+03  0.20685679884E+03  0.12508980913E+03 0.  0.
          5    1    4    4  502    0  0.10874184859E+01 -0.72220734005E+02 -0.90594912676E+02  0.11593932681E+03  0.41800000000E+01 0. -1.
         -5    1    4    4    0  502 -0.74682286540E+02  0.20515161278E+02 -0.47436257799E+02  0.90917472023E+02  0.41800000000E+01 0. -1.
        -11    1    3    3    0    0  0.94001012343E+01  0.59396335339E+02 -0.17723475492E+02  0.62692967217E+02  0.00000000000E+00 0.  1.
         11    1    3    3    0    0  0.64194766820E+02 -0.76907626118E+01 -0.50850115130E+02  0.82254787857E+02  0.00000000000E+00 0. -1.
</event>
<event>
 7    1  0.8061721E-006  0.1552477E+03  0.7561462E-02  0.1194169E+00
         -1   -1    0    0    0  501 -0.00000000000E+00  0.00000000000E+00  0.18799140477E+02  0.18799140477E+02  0.00000000000E+00 0.  1.
          1   -1    0    0  501    0  0.00000000000E+00 -0.00000000000E+00 -0.18917320647E+04  0.18917320647E+04  0.00000000000E+00 0. -1.
         23    2    1    2    0    0 -0.10644941528E+03 -0.34387815942E+02 -0.36847435123E+03  0.39593924289E+03  0.92089829239E+02 0.  0.
          5    1    1    2  502    0  0.13840013172E+03  0.31863892652E+02 -0.12676934014E+04  0.12756307994E+04  0.41800000000E+01 0. -1.
         -5    1    1    2    0  502 -0.31950716442E+02  0.25239232895E+01 -0.23676517160E+03  0.23896116285E+03  0.41800000000E+01 0.  1.
        -11    1    3    3    0    0 -0.94316926008E+02 -0.57162302338E+02 -0.22992418813E+03  0.25500655605E+03  0.00000000000E+00 0.  1.
         11    1    3    3    0    0 -0.12132489275E+02  0.22774486396E+02 -0.13855016309E+03  0.14093268684E+03  0.00000000000E+00 0. -1.
</event>
<event>
 8    1  0.8061721E-006  0.1507622E+03  0.7561462E-02  0.1199540E+00
          3   -1    0    0  501    0  0.00000000000E+00  0.00000000000E+00  0.18151552681E+03  0.18151552681E+03  0.00000000000E+00 0. -1.
         -3   -1    0    0    0  501 -0.00000000000E+00 -0.00000000000E+00 -0.16457172282E+03  0.16457172282E+03  0.00000000000E+00 0.  1.
         23    2    1    2    0    0  0.10984279682E+03 -0.42136354951E+01 -0.57132213134E+02  0.16382752244E+03  0.10720155127E+03 0.  0.
         23    2    1    2    0    0 -0.10984279682E+03  0.42136354951E+01  0.74076017119E+02  0.18225972719E+03  0.12509259413E+03 0.  0.
          5    1    4    4  502    0 -0.50109305926E+02 -0.47423392116E+02 -0.64315828632E+01  0.69417276800E+02  0.41800000000E+01 0.  1.
         -5    1    4    4    0  502 -0.59733490898E+02  0.51637027611E+02  0.80507599982E+02  0.11284245039E+03  0.41800000000E+01 0.  1.
        -11    1    3    3    0    0  0.10677370635E+03  0.36247909436E+02 -0.38231494469E+02  0.11906377483E+03  0.00000000000E+00 0.  1.
         11    1    3    3    0    0  0.30690904717E+01 -0.40461544931E+02 -0.18900718665E+02  0.44763747616E+02  0.00000000000E+00 0. -1.
</event>
<event>
 8    1  0.8061721E-006  0.1080885E+03  0.7561462E-02  0.1264151E+00
         -2   -1    0    0    0  501 -0.00000000000E+00  0.00000000000E+00  0.94124752909E+01  0.94124752909E+01  0.00000000000E+00 0.  1.
          2   -1    0    0  501    0  0.00000000000E+00 -0.00000000000E+00 -0.14906694807E+04  0.14906694807E+04  0.00000000000E+00 0. -1.
         23    2    1    2    0    0 -0.21780053327E+02  0.18492705699E+02 -0.39570304248E+03  0.40697225397E+03  0.90714755102E+02 0.  0.
         23    2    1    2    0    0  0.21780053327E+02 -0.18492705699E+02 -0.10855539630E+04  0.10931097020E+04  0.12508022752E+03 0.  0.
          5    1    4    4  502    0  0.53956181132E+02  0.32671850617E+02 -0.41004225141E+03  0.41488653828E+03  0.41800000000E+01 0.  1.
         -5    1    4    4    0  502 -0.32176127804E+02 -0.51164556316E+02 -0.67551171156E+03  0.67822316377E+03  0.41800000000E+01 0.  1.
        -11    1    3    3    0    0  0.11732717786E+02  0.46960765728E+02 -0.25517348920E+03  0.25972385292E+03  0.00000000000E+00 0.  1.
         11    1    3    3    0    0 -0.33512771113E+02 -0.28468060029E+02 -0.14052955328E+03  0.14724840106E+03  0.00000000000E+00 0. -1.
</event>
<event>
 8    1  0.8061721E-006  0.1405719E+03  0.7561462E-02  0.1212562E+00
          2   -1    0    0  501    0  0.00000000000E+00  0.00000000000E+00  0.57070041363E+03  0.57070041363E+03  0.00000000000E+00 0.  1.
         -2   -1    0    0    0  501 -0.00000000000E+00 -0.00000000000E+00 -0.53223272861E+02  0.53223272861E+02  0.00000000000E+00 0. -1.
         23    2    1    2    0    0  0.10143295843E+03 -0.67481227211E+01  0.79237637166E+02  0.15698178353E+03  0.89613029183E+02 0.  0.
         23    2    1    2    0    0 -0.10143295843E+03  0.67481227211E+01  0.43823950360E+03  0.46694190296E+03  0.12508675393E+03 0.  0.
          5    1    4    4  502    0 -0.77403409461E+02 -0.44725509928E+02  0.35481046689E+03  0.36592294114E+03  0.41800000000E+01 0.  1.
         -5    1    4    4    0  502 -0.24029548970E+02  0.51473632649E+02  0.83429036714E+02  0.10101896183E+03  0.41800000000E+01 0.  1.
        -11    1    3    3    0    0  0.54707116505E+02  0.40631955626E+02  0.48737367060E+02  0.83780399631E+02  0.00000000000E+00 0. -1.
         11    1    3    3    0    0  0.46725841926E+02 -0.47380078347E+02  0.30500270105E+02  0.73201383897E+02  0.00000000000E+00 0.  1.
</event>
<event>
 8    1  0.8061721E-006  0.2994516E+03  0.7561462E-02  0.1085515E+00
          2   -1    0    0  501    0  0.00000000000E+00  0.00000000000E+00  0.12286552612E+04  0.12286552612E+04  0.00000000000E+00 0. -1.
         -2   -1    0    0    0  501 -0.00000000000E+00 -0.00000000000E+00 -0.88626144227E+02  0.88626144227E+02  0.00000000000E+00 0.  1.
         23    2    1    2    0    0 -0.22061428387E+03 -0.18391193881E+03  0.32480122885E+03  0.44393089619E+03  0.95312847228E+02 0.  0.
         23    2    1    2    0    0  0.22061428387E+03  0.18391193881E+03  0.81522788812E+03  0.87335050924E+03  0.12510131466E+03 0.  0.
          5    1    4    4  502    0  0.19661773617E+03  0.93043840627E+02  0.52640057097E+03  0.56958820561E+03  0.41800000000E+01 0. -1.
         -5    1    4    4    0  502  0.23996547692E+02  0.90868098187E+02  0.28882731716E+03  0.30376230363E+03  0.41800000000E+01 0. -1.
        -11    1    3    3    0    0 -0.24620115971E+02 -0.22695442748E+02  0.23174926145E+01  0.33564922225E+02  0.00000000000E+00 0.  1.
         11    1    3    3    0    0 -0.19599416789E+03 -0.16121649607E+03  0.32248373624E+03  0.41036597397E+03  0.00000000000E+00 0. -1.
</event>
<event>
 8    1  0.8061721E-006  0.1058413E+03  0.7561462E-02  0.1268471E+00
          2   -1    0    0  501    0  0.00000000000E+00  0.00000000000E+00  0.35541891215E+03  0.35541891215E+03  0.00000000000E+00 0. -1.
         -2   -1    0    0    0  501 -0.00000000000E+00 -0.00000000000E+00 -0.62248840306E+02  0.62248840306E+02  0.00000000000E+00 0.  1.
         23    2    1    2    0    0 -0.36064666639E+01  0.80348628522E+02  0.40721842567E+02  0.12813096408E+03  0.91051451318E+02 0.  0.
         23    2    1    2    0    0  0.36064666639E+01 -0.80348628522E+02  0.25244822927E+03  0.28953678837E+03  0.11675844573E+03 0.  0.
          5    1    4    4  502    0  0.18135902425E+02  0.36287686838E+01  0.16942808290E+03  0.17048585453E+03  0.41800000000E+01 0. -1.
         -5    1    4    4    0  502 -0.14529435761E+02 -0.83977397206E+02  0.83020146371E+02  0.11905093384E+03  0.41800000000E+01 0.  1.
        -11    1    3    3    0    0  0.21360503507E+02 -0.18941183468E+01 -0.14576661910E+02  0.25929478723E+02  0.00000000000E+00 0. -1.
         11    1    3    3    0    0 -0.24966970171E+02  0.82242746869E+02  0.55298504477E+02  0.10220148536E+03  0.00000000000E+00 0.  1.
</event>
<event>
 8    1  0.8061721E-006  0.1396235E+03  0.7561462E-02  0.1213836E+00
          2   -1    0    0  501    0  0.00000000000E+00  0.00000000000E+00  0.60056723185E+03  0.60056723185E+03  0.00000000000E+00 0. -1.
         -2   -1    0    0    0  501 -0.00000000000E+00 -0.00000000000E+00 -0.38188381886E+02  0.38188381886E+02  0.00000000000E+00 0.  1.
         23    2    1    2    0    0 -0.89563963142E+02 -0.49566233922E+02  0.20844616566E+03  0.24966497905E+03  0.91674875237E+02 0.  0.
         23    2    1    2    0    0  0.89563963142E+02  0.49566233922E+02  0.35393268430E+03  0.38909063468E+03  0.12507862303E+03 0.  0.
          5    1    4    4  502    0  0.14780329551E+02  0.70356533354E+02  0.24432931675E+03  0.25472099904E+03  0.41800000000E+01 0. -1.
         -5    1    4    4    0  502  0.74783633591E+02 -0.20790299432E+02  0.10960336755E+03  0.13436963564E+03  0.41800000000E+01 0. -1.
        -11    1    3    3    0    0  0.59427770365E+01 -0.31806812991E+02  0.21095404534E+02  0.38626494068E+02  0.00000000000E+00 0. -1.
         11    1    3    3    0    0 -0.95506740178E+02 -0.17759420931E+02  0.18735076112E+03  0.21103848499E+03  0.00000000000E+00 0.  1.
</event>
<event>
 8    1  0.8061721E-006  0.9338670E+02  0.7561462E-02  0.1294852E+00
         -1   -1    0    0    0  501 -0.00000000000E+00  0.00000000000E+00  0.59668036035E+02  0.59668036035E+02  0.00000000000E+00 0.  1.
          1   -1    0    0  501    0  0.00000000000E+00 -0.00000000000E+00 -0.34650505159E+03  0.34650505159E+03  0.00000000000E+00 0. -1.
         23    2    1    2    0    0 -0.58816984893E+01  0.73020576879E+02 -0.35004695287E+02  0.11559959169E+03  0.82288139381E+02 0.  0.
         23    2    1    2    0    0  0.58816984893E+01 -0.73020576879E+02 -0.25183232026E+03  0.29057349593E+03  0.12508732942E+03 0.  0.
          5    1    4    4  502    0  0.32151210622E+02 -0.29823319175E+01 -0.19187070754E+03  0.19461355415E+03  0.41800000000E+01 0. -1.
         -5    1    4    4    0  502 -0.26269512133E+02 -0.70038244961E+02 -0.59961612726E+02  0.95959941776E+02  0.41800000000E+01 0. -1.
        -11    1    3    3    0    0  0.12326701771E+02  0.35733908756E+02 -0.57184495453E+02  0.68548715026E+02  0.00000000000E+00 0. -1.
         11    1    3    3    0    0 -0.18208400261E+02  0.37286668122E+02  0.22179800166E+02  0.47050876667E+02  0.00000000000E+00 0.  1.
</event>
<event>
 8    1  0.8061721E-006  0.1079134E+03  0.7561462E-02  0.1264483E+00
          2   -1    0    0  501    0  0.00000000000E+00  0.00000000000E+00  0.10237074251E+03  0.10237074251E+03  0.00000000000E+00 0. -1.
         -2   -1    0    0    0  501 -0.00000000000E+00 -0.00000000000E+00 -0.16523747339E+03  0.16523747339E+03  0.00000000000E+00 0.  1.
         23    2    1    2    0    0 -0.11419163361E+02  0.53325390533E+02 -0.72373174933E+02  0.13081620549E+03  0.94345156742E+02 0.  0.
         23    2    1    2    0    0  0.11419163361E+02 -0.53325390533E+02  0.95064440567E+01  0.13679201042E+03  0.12509071535E+03 0.  0.
          5    1    4    4  502    0 -0.86739637897E+01  0.39840611013E+02  0.79453256578E+00  0.40995312119E+02  0.41800000000E+01 0. -1.
         -5    1    4    4    0  502  0.20093127151E+02 -0.93166001546E+02  0.87119114909E+01  0.95796698297E+02  0.41800000000E+01 0. -1.
        -11    1    3    3    0    0  0.23710926383E+02  0.20050514200E+02  0.12213387101E+02  0.33367618646E+02  0.00000000000E+00 0. -1.
         11    1    3    3    0    0 -0.35130089745E+02  0.33274876333E+02 -0.84586562034E+02  0.97448586840E+02  0.00000000000E+00 0.  1.
</event>
<event>
 8    1  0.8061721E-006  0.1097152E+03  0.7561462E-02  0.1261098E+00
         -1   -1    0    0    0  501 -0.00000000000E+00  0.00000000000E+00  0.28056493577E+02  0.28056493577E+02  0.00000000000E+00 0.  1.
          1   -1    0    0  501    0  0.00000000000E+00 -0.00000000000E+00 -0.47761517152E+03  0.47761517152E+03  0.00000000000E+00 0. -1.
         23    2    1    2    0    0  0.19392076857E+02 -0.30920512200E+02 -0.13048163309E+03  0.16101236781E+03  0.86990777070E+02 0.  0.
         23    2    1    2    0    0 -0.19392076857E+02  0.30920512200E+02 -0.31907704485E+03  0.34465929728E+03  0.12509092666E+03 0.  0.
          5    1    4    4  502    0  0.50942076743E+02  0.64695837859E+00 -0.16179370159E+03  0.16967671618E+03  0.41800000000E+01 0. -1.
         -5    1    4    4    0  502 -0.70334153600E+02  0.30273553821E+02 -0.15728334326E+03  0.17498258111E+03  0.41800000000E+01 0. -1.
        -11    1    3    3    0    0 -0.33420937744E+02 -0.11086727200E+02 -0.69670032762E+02  0.78062718789E+02  0.00000000000E+00 0. -1.
         11    1    3    3    0    0  0.52813014601E+02 -0.19833784999E+02 -0.60811600327E+02  0.82949649022E+02  0.00000000000E+00 0.  1.
</event>
<event>
 8    1  0.8061721E-006  0.1195050E+03  0.7561462E-02  0.1243916E+00
         -1   -1    0    0    0  501 -0.00000000000E+00  0.00000000000E+00  0.53683166677E+02  0.53683166677E+02  0.00000000000E+00 0.  1.
          1   -1    0    0  501    0  0.00000000000E+00 -0.00000000000E+00 -0.39662105565E+03  0.39662105565E+03  0.00000000000E+00 0. -1.
         23    2    1    2    0    0  0.55194532628E+02  0.35002470830E+02 -0.46698250269E+02  0.12216214837E+03  0.92039418289E+02 0.  0.
         23    2    1    2    0    0 -0.55194532628E+02 -0.35002470830E+02 -0.29623963871E+03  0.32814207396E+03  0.12509071815E+03 0.  0.
          5    1    4    4  502    0  0.33314703710E+02  0.31378629992E+01 -0.30629045287E+02  0.45555751368E+02  0.41800000000E+01 0.  1.
         -5    1    4    4    0  502 -0.88509236339E+02 -0.38140333829E+02 -0.26561059342E+03  0.28258632260E+03  0.41800000000E+01 0.  1.
        -11    1    3    3    0    0  0.59650162798E+02 -0.12635765051E+02 -0.98343173672E+01  0.61761786553E+02  0.00000000000E+00 0. -1.
         11    1    3    3    0    0 -0.44556301693E+01  0.47638235881E+02 -0.36863932902E+02  0.60400361813E+02  0.00000000000E+00 0.  1.
</event>
<event>
 8    1  0.8061721E-006  0.9368410E+02  0.7561462E-02  0.1294168E+00
         -2   -1    0    0    0  501 -0.00000000000E+00  0.00000000000E+00  0.35385171620E+02  0.35385171620E+02  0.00000000000E+00 0.  1.
          2   -1    0    0  501    0  0.00000000000E+00 -0.00000000000E+00 -0.46813390100E+03  0.46813390100E+03  0.00000000000E+00 0. -1.
         23    2    1    2    0    0  0.37985156199E+02 -0.17620212225E+02 -0.86724870771E+02  0.13320420015E+03  0.92026147136E+02 0.  0.
         23    2    1    2    0    0 -0.37985156199E+02  0.17620212225E+02 -0.34602385861E+03  0.37031487247E+03  0.12508896864E+03 0.  0.
          5    1    4    4  502    0  0.17521536825E+02 -0.24638393257E+02 -0.19100536552E+02  0.36004965929E+02  0.41800000000E+01 0. -1.
         -5    1    4    4    0  502 -0.55506693024E+02  0.42258605481E+02 -0.32692332206E+03  0.33430990654E+03  0.41800000000E+01 0. -1.
        -11    1    3    3    0    0  0.61430768295E+02 -0.95762783706E+01 -0.88721042870E+02  0.10833682591E+03  0.00000000000E+00 0. -1.
         11    1    3    3    0    0 -0.23445612096E+02 -0.80439338539E+01  0.19961720990E+01  0.24867374237E+02  0.00000000000E+00 0.  1.
</event>
<event>
 8    1  0.8061721E-006  0.1664475E+03  0.7561462E-02  0.1181604E+00
          1   -1    0    0  501    0  0.00000000000E+00  0.00000000000E+00  0.13901960461E+04  0.13901960461E+04  0.00000000000E+00 0. -1.
         -1   -1    0    0    0  501 -0.00000000000E+00 -0.00000000000E+00 -0.23477929253E+02  0.23477929253E+02  0.00000000000E+00 0.  1.
         23    2    1    2    0    0 -0.11729347671E+03 -0.67878540302E+02  0.42864618045E+03  0.45764513045E+03  0.85651978951E+02 0.  0.
         23    2    1    2    0    0  0.11729347671E+03  0.67878540302E+02  0.93807193641E+03  0.95602884491E+03  0.12508772328E+03 0.  0.
          5    1    4    4  502    0  0.12591427926E+03  0.24599374343E+02  0.51980734105E+03  0.53542196364E+03  0.41800000000E+01 0.  1.
         -5    1    4    4    0  502 -0.86208025485E+01  0.43279165959E+02  0.41826459536E+03  0.42060688127E+03  0.41800000000E+01 0.  1.
        -11    1    3    3    0    0 -0.98771816754E+02 -0.88405613053E+02  0.36093244029E+03  0.38450442216E+03  0.00000000000E+00 0.  1.
         11    1    3    3    0    0 -0.18521659958E+02  0.20527072751E+02  0.67713740157E+02  0.73140708292E+02  0.00000000000E+00 0. -1.
</event>
<event>
 7    1  0.8061721E-006  0.9738450E+02  0.7561462E-02  0.1285894E+00
          1   -1    0    0  501    0  0.00000000000E+00  0.00000000000E+00  0.96577515077E+03  0.96577515077E+03  0.00000000000E+00 0. -1.
         -1   -1    0    0    0  501 -0.00000000000E+00 -0.00000000000E+00 -0.46175622499E+02  0.46175622499E+02  0.00000000000E+00 0.  1.
         23    2    1    2    0    0  0.76161132375E+01 -0.15271990454E+02  0.12715267641E+02  0.92315525411E+02  0.89828944819E+02 0.  0.
          5    1    1    2  502    0 -0.49475331002E+02  0.37848708138E+02  0.80164914151E+03  0.80407658315E+03  0.41800000000E+01 0. -1.
         -5    1    1    2    0  502  0.41859217765E+02 -0.22576717683E+02  0.10523511912E+03  0.11555866471E+03  0.41800000000E+01 0.  1.
        -11    1    3    3    0    0  0.44971272229E+02 -0.22269341248E+01 -0.10778917856E+02  0.46298592113E+02  0.00000000000E+00 0. -1.
         11    1    3    3    0    0 -0.37355158992E+02 -0.13045056330E+02  0.23494185497E+02  0.46016933297E+02  0.00000000000E+00 0.  1.
</event>
<event>
 8    1  0.8061721E-006  0.1458007E+03  0.7561462E-02  0.1205730E+00
          2   -1    0    0  501    0  0.00000000000E+00  0.00000000000E+00  0.64065988071E+02  0.64065988071E+02  0.00000000000E+00 0. -1.
         -2   -1    0    0    0  501 -0.00000000000E+00 -0.00000000000E+00 -0.37506185859E+03  0.37506185859E+03  0.00000000000E+00 0.  1.
         23    2    1    2    0    0  0.32797830853E+02 -0.94913740070E+02 -0.20756696694E+03  0.24826588672E+03  0.92019503271E+02 0.  0.
         23    2    1    2    0    0 -0.32797830853E+02  0.94913740070E+02 -0.10342890359E+03  0.19086195994E+03  0.12508570619E+03 0.  0.
          5    1    4    4  502    0 -0.70984161863E+02  0.16480005524E+02 -0.44081081447E+02  0.85269900663E+02  0.41800000000E+01 0.  1.
         -5    1    4    4    0  502  0.38186331010E+02  0.78433734546E+02 -0.59347822138E+02  0.10559205928E+03  0.41800000000E+01 0.  1.
        -11    1    3    3    0    0 -0.23174786257E+02 -0.62350550677E+02 -0.13817527028E+03  0.15335275415E+03  0.00000000000E+00 0. -1.
         11    1    3    3    0    0  0.55972617110E+02 -0.32563189393E+02 -0.69391696660E+02  0.94913132573E+02  0.00000000000E+00 0.  1.
</event>
<event>
 8    1  0.8061721E-006  0.1453867E+03  0.7561462E-02  0.1206259E+00
          1   -1    0    0  501    0  0.00000000000E+00  0.00000000000E+00  0.13376304321E+04  0.13376304321E+04  0.00000000000E+00 0. -1.
         -1   -1    0    0    0  501 -0.00000000000E+00 -0.00000000000E+00 -0.22321174604E+02  0.22321174604E+02  0.00000000000E+00 0.  1.
         23    2    1    2    0    0 -0.13899664954E+01 -0.11785731243E+03  0.36742580847E+03  0.39661158798E+03  0.91688324692E+02 0.  0.
         23    2    1    2    0    0  0.13899664954E+01  0.11785731243E+03  0.94788344907E+03  0.96334001878E+03  0.12509468675E+03 0.  0.
          5    1    4    4  502    0 -0.46059808686E+02  0.10775666029E+03  0.77142868954E+03  0.78029013787E+03  0.41800000000E+01 0.  1.
         -5    1    4    4    0  502  0.47449775181E+02  0.10100652143E+02  0.17645475953E+03  0.18304988090E+03  0.41800000000E+01 0.  1.
        -11    1    3    3    0    0  0.13769265646E+02 -0.13218884008E+02  0.59549457778E+01  0.19994823082E+02  0.00000000000E+00 0.  1.
         11    1    3    3    0    0 -0.15159232142E+02 -0.10463842842E+03  0.36147086270E+03  0.37661676489E+03  0.00000000000E+00 0. -1.
</event>
<event>
 8    1  0.8061721E-006  0.1046983E+03  0.7561462E-02  0.1270715E+00
         -1   -1    0    0    0  501 -0.00000000000E+00  0.00000000000E+00  0.39132797493E+02  0.39132797493E+02  0.00000000000E+00 0. -1.
          1   -1    0    0  501    0  0.00000000000E+00 -0.00000000000E+00 -0.33844058950E+03  0.33844058950E+03  0.00000000000E+00 0.  1.
         23    2    1    2    0    0 -0.19671136587E+02 -0.32532606717E+02 -0.11650571366E+03  0.15283072505E+03  0.91314429800E+02 0.  0.
         23    2    1    2    0    0  0.19671136587E+02  0.32532606717E+02 -0.18280207835E+03  0.22474266194E+03  0.12508932862E+03 0.  0.
          5    1    4    4  502    0  0.41738656876E+02  0.72798556099E+02 -0.10737640037E+03  0.13634114934E+03  0.41800000000E+01 0.  1.
         -5    1    4    4    0  502 -0.22067520290E+02 -0.40265949382E+02 -0.75425677979E+02  0.88401512600E+02  0.41800000000E+01 0.  1.
        -11    1    3    3    0    0  0.22844815312E+02 -0.28556106258E+02 -0.10097411676E+03  0.10739231372E+03  0.00000000000E+00 0.  1.
         11    1    3    3    0    0 -0.42515951899E+02 -0.39765004591E+01 -0.15531596901E+02  0.45438411329E+02  0.00000000000E+00 0. -1.
</event>
<event>
 8    1  0.8061721E-006  0.1008366E+03  0.7561462E-02  0.1278546E+00
         -2   -1    0    0    0  501 -0.00000000000E+00  0.00000000000E+00  0.29835433706E+02  0.29835433706E+02  0.00000000000E+00 0.  1.
          2   -1    0    0  501    0  0.00000000000E+00 -0.00000000000E+00 -0.66197688248E+03  0.66197688248E+03  0.00000000000E+00 0. -1.
         23    2    1    2    0    0  0.46587884881E+02  0.71653406705E+02 -0.22914841176E+03  0.26128420333E+03  0.91955416307E+02 0.  0.
         23    2    1    2    0    0 -0.46587884881E+02 -0.71653406705E+02 -0.40299303701E+03  0.43052811285E+03  0.12508567611E+03 0.  0.
          5    1    4    4  502    0 -0.57132569757E+02 -0.76836429057E+02 -0.40644199511E+03  0.41758895477E+03  0.41800000000E+01 0. -1.
         -5    1    4    4    0  502  0.10544684876E+02  0.51830223520E+01  0.34489581014E+01  0.12939158080E+02  0.41800000000E+01 0. -1.
        -11    1    3    3    0    0  0.29109838150E+01  0.38288212487E+02 -0.18990790770E+03  0.19375106309E+03  0.00000000000E+00 0. -1.
         11    1    3    3    0    0  0.43676901066E+02  0.33365194217E+02 -0.39240504064E+02  0.67533140243E+02  0.00000000000E+00 0.  1.
</event>
<event>
 8    1  0.8061721E-006  0.1610859E+03  0.7561462E-02  0.1187476E+00
          1   -1    0    0  501    0  0.00000000000E+00  0.00000000000E+00  0.68910327426E+03  0.68910327426E+03  0.00000000000E+00 0. -1.
         -1   -1    0    0    0  501 -0.00000000000E+00 -0.00000000000E+00 -0.85502871051E+02  0.85502871051E+02  0.00000000000E+00 0.  1.
         23    2    1    2    0    0 -0.12872661317E+03 -0.46478467606E+02  0.24155475478E+02  0.16621922816E+03  0.91184186825E+02 0.  0.
         23    2    1    2    0    0  0.12872661317E+03  0.46478467606E+02  0.57944492773E+03  0.60838691715E+03  0.12508967901E+03 0.  0.
          5    1    4    4  502    0 -0.73498825606E+01 -0.82021039192E+01  0.12235257761E+01  0.11843339803E+02  0.41800000000E+01 0.  1.
         -5    1    4    4    0  502  0.13607649573E+03  0.54680571526E+02  0.57822140196E+03  0.59654357735E+03  0.41800000000E+01 0.  1.
        -11    1    3    3    0    0 -0.12244882930E+03 -0.58698559242E+01  0.25031338492E+02  0.12511889910E+03  0.00000000000E+00 0. -1.
         11    1    3    3    0    0 -0.62777838678E+01 -0.40608611682E+02 -0.87586301384E+00  0.41100329063E+02  0.00000000000E+00 0.  1.
</event>
<event>
 8    1  0.8061721E-006  0.1182124E+03  0.7561462E-02  0.1246075E+00
          2   -1    0    0  501    0  0.00000000000E+00  0.00000000000E+00  0.29121753707E+02  0.29121753707E+02  0.00000000000E+00 0. -1.
         -2   -1    0    0    0  501 -0.00000000000E+00 -0.00000000000E+00 -0.53074138075E+03  0.53074138075E+03  0.00000000000E+00 0.  1.
         23    2    1    2    0    0 -0.43596509468E+02  0.41560131657E+02 -0.25352634733E+03  0.27556444186E+03  0.89622835510E+02 0.  0.
         23    2    1    2    0    0  0.43596509468E+02 -0.41560131657E+02 -0.24809327971E+03  0.28429869260E+03  0.12509025139E+03 0.  0.
          5    1    4    4  502    0 -0.36912106822E+02  0.13145079963E+01 -0.12888950328E+03  0.13414249147E+03  0.41800000000E+01 0.  1.
         -5    1    4    4    0  502  0.80508616290E+02 -0.42874639653E+02 -0.11920377643E+03  0.15015620113E+03  0.41800000000E+01 0.  1.
        -11    1    3    3    0    0 -0.67855647909E+01  0.64312612063E+02 -0.14830415987E+03  0.16179085201E+03  0.00000000000E+00 0.  1.
         11    1    3    3    0    0 -0.36810944677E+02 -0.22752480406E+02 -0.10522218746E+03  0.11377358985E+03  0.00000000000E+00 0. -1.
</event>
<event>
 8    1  0.8061721E-006  0.1372853E+03  0.7561462E-02  0.1217029E+00
          2   -1    0    0  501    0  0.00000000000E+00  0.00000000000E+00  0.28975916659E+03  0.28975916659E+03  0.00000000000E+00 0.  1.
         -2   -1    0    0    0  501 -0.00000000000E+00 -0.00000000000E+00 -0.77939628084E+02  0.77939628084E+02  0.00000000000E+00 0. -1.
         23    2    1    2    0    0 -0.26837256790E+02 -0.93841044099E+02  0.10762194156E+03  0.17788097547E+03  0.10262932924E+03 0.  0.
         23    2    1    2    0    0  0.26837256790E+02  0.93841044099E+02  0.10419759694E+03  0.18981781920E+03  0.12508910971E+03 0.  0.
          5    1    4    4  502    0  0.29445016337E+02 -0.25142779908E+02  0.33193373181E+02  0.51170702474E+02  0.41800000000E+01 0. -1.
         -5    1    4    4    0  502 -0.26077595474E+01  0.11898382401E+03  0.71004223764E+02  0.13864711673E+03  0.41800000000E+01 0. -1.
        -11    1    3    3    0    0 -0.96952014886E+01 -0.98341110049E+02  0.12059992416E+03  0.15591443988E+03  0.00000000000E+00 0.  1.
         11    1    3    3    0    0 -0.17142055301E+02  0.45000659498E+01 -0.12977982595E+02  0.21966535588E+02  0.00000000000E+00 0. -1.
</event>
<event>
 8    1  0.8061721E-006  0.2559757E+03  0.7561462E-02  0.1109585E+00
          2   -1    0    0  501    0  0.00000000000E+00  0.00000000000E+00  0.50847933771E+03  0.50847933771E+03  0.00000000000E+00 0.  1.
         -2   -1    0    0    0  501 -0.00000000000E+00 -0.00000000000E+00 -0.15307391557E+03  0.15307391557E+03  0.00000000000E+00 0. -1.
         23    2    1    2    0    0 -0.61173143294E+02  0.23174014614E+03  0.61858645028E+02  0.26247667703E+03  0.87303294468E+02 0.  0.
         23    2    1    2    0    0  0.61173143294E+02 -0.23174014614E+03  0.29354677712E+03  0.39907657625E+03  0.12508698796E+03 0.  0.
          5    1    4    4  502    0  0.57199428809E+02 -0.24550921006E+03  0.28890136320E+03  0.38344232544E+03  0.41800000000E+01 0.  1.
         -5    1    4    4    0  502  0.39737144853E+01  0.13769063913E+02  0.46454139131E+01  0.15634250806E+02  0.41800000000E+01 0.  1.
        -11    1    3    3    0    0  0.53579086557E+01  0.67329121232E+02  0.51273012137E+02  0.84798817944E+02  0.00000000000E+00 0.  1.
         11    1    3    3    0    0 -0.66531051950E+02  0.16441102491E+03  0.10585632892E+02  0.17767785909E+03  0.00000000000E+00 0. -1.
</event>
<event>
 8    1  0.8061721E-006  0.1185415E+03  0.7561462E-02  0.1245523E+00
         -1   -1    0    0    0  501 -0.00000000000E+00  0.00000000000E+00  0.36958087247E+02  0.36958087247E+02  0.00000000000E+00 0.  1.
          1   -1    0    0  501    0  0.00000000000E+00 -0.00000000000E+00 -0.55428735025E+03  0.55428735025E+03  0.00000000000E+00 0. -1.
         23    2    1    2    0    0 -0.59054691139E+02  0.53165605882E+02 -0.13178971622E+03  0.17820382957E+03  0.89855647448E+02 0.  0.
         23    2    1    2    0    0  0.59054691139E+02 -0.53165605882E+02 -0.38553954679E+03  0.41304160793E+03  0.12509432261E+03 0.  0.
          5    1    4    4  502    0  0.74258377951E+02 -0.78322542481E+02 -0.35224080583E+03  0.36842880594E+03  0.41800000000E+01 0. -1.
         -5    1    4    4    0  502 -0.15203686813E+02  0.25156936599E+02 -0.33298740958E+02  0.44612801987E+02  0.41800000000E+01 0. -1.
        -11    1    3    3    0    0  0.11941709074E+01  0.36977895173E+02 -0.55777876234E+01  0.37415270818E+02  0.00000000000E+00 0.  1.
         11    1    3    3    0    0 -0.60248862046E+02  0.16187710708E+02 -0.12621192860E+03  0.14078855875E+03  0.00000000000E+00 0. -1.
</event>
<event>
 8    1  0.8061721E-006  0.2141301E+03  0.7561462E-02  0.1138337E+00
         -2   -1    0    0    0  501 -0.00000000000E+00  0.00000000000E+00  0.34675345689E+02  0.34675345689E+02  0.00000000000E+00 0.  1.
          2   -1    0    0  501    0  0.00000000000E+00 -0.00000000000E+00 -0.16263792582E+04  0.16263792582E+04  0.00000000000E+00 0. -1.
         23    2    1    2    0    0  0.18425075721E+03 -0.37711778701E+02 -0.43611695879E+03  0.48360034187E+03  0.91108556816E+02 0.  0.
         23    2    1    2    0    0 -0.18425075721E+03  0.37711778701E+02 -0.11555869537E+04  0.11774542620E+04  0.12508721658E+03 0.  0.
          5    1    4    4  502    0 -0.20078317307E+03  0.40733173777E+02 -0.11085527999E+04  0.11273330726E+04  0.41800000000E+01 0. -1.
         -5    1    4    4    0  502  0.16532415856E+02 -0.30213950758E+01 -0.47034153815E+02  0.50121189405E+02  0.41800000000E+01 0. -1.
        -11    1    3    3    0    0  0.39315750349E+02 -0.46416957634E+02 -0.94224518243E+02  0.11215401027E+03  0.00000000000E+00 0.  1.
         11    1    3    3    0    0  0.14493500686E+03  0.87051789330E+01 -0.34189244055E+03  0.37144633160E+03  0.00000000000E+00 0. -1.
</event>
<event>
 8    1  0.8061721E-006  0.1404667E+03  0.7561462E-02  0.1212702E+00
         -1   -1    0    0    0  501 -0.00000000000E+00  0.00000000000E+00  0.58097594326E+03  0.58097594326E+03  0.00000000000E+00 0.  1.
          1   -1    0    0  501    0  0.00000000000E+00 -0.00000000000E+00 -0.62055387848E+02  0.62055387848E+02  0.00000000000E+00 0. -1.
         23    2    1    2    0    0  0.11567666913E+03 -0.53404464288E+02  0.40444079494E+03  0.43093254079E+03  0.76794332553E+02 0.  0.
         23    2    1    2    0    0 -0.11567666913E+03  0.53404464288E+02  0.11447976047E+03  0.21209879032E+03  0.12508857946E+03 0.  0.
          5    1    4    4  502    0 -0.50352285988E+02  0.42684405345E+02  0.12829877550E+03  0.14434458548E+03  0.41800000000E+01 0. -1.
         -5    1    4    4    0  502 -0.65324383139E+02  0.10720058943E+02 -0.13819015031E+02  0.67754204833E+02  0.41800000000E+01 0. -1.
        -11    1    3    3    0    0 -0.52516306223E+01  0.10460392448E+02  0.25145060560E+02  0.27735780230E+02  0.00000000000E+00 0. -1.
         11    1    3    3    0    0  0.12092829975E+03 -0.63864856736E+02  0.37929573438E+03  0.40319676056E+03  0.00000000000E+00 0.  1.
</event>
<event>
 8    1  0.8061721E-006  0.1113248E+03  0.7561462E-02  0.1258136E+00
         -2   -1    0    0    0  501 -0.00000000000E+00  0.00000000000E+00  0.12716097037E+02  0.12716097037E+02  0.00000000000E+00 0.  1.
          2   -1    0    0  501    0  0.00000000000E+00 -0.00000000000E+00 -0.11356881323E+04  0.11356881323E+04  0.00000000000E+00 0. -1.
         23    2    1    2    0    0 -0.51853168735E+02 -0.38289041346E+02 -0.37127268022E+03  0.38364740654E+03  0.72021716679E+02 0.  0.
         23    2    1    2    0    0  0.51853168735E+02  0.38289041346E+02 -0.75169935509E+03  0.76475682284E+03  0.12508507444E+03 0.  0.
          5    1    4    4  502    0  0.87392160606E+02  0.28574441098E+02 -0.65048642823E+03  0.65696571762E+03  0.41800000000E+01 0.  1.
         -5    1    4    4    0  502 -0.35538991871E+02  0.97146002482E+01 -0.10121292686E+03  0.10779110522E+03  0.41800000000E+01 0.  1.
        -11    1    3    3    0    0 -0.56049349895E+02 -0.10535611557E+01 -0.17271685510E+03  0.18158676067E+03  0.00000000000E+00 0.  1.
         11    1    3    3    0    0  0.41961811597E+01 -0.37235480191E+02 -0.19855582512E+03  0.20206064587E+03  0.00000000000E+00 0. -1.
</event>
<event>
 8    1  0.8061721E-006  0.1288867E+03  0.7561462E-02  0.1229117E+00
         -2   -1    0    0    0  501 -0.00000000000E+00  0.00000000000E+00  0.18283301223E+03  0.18283301223E+03  0.00000000000E+00 0.  1.
          2   -1    0    0  501    0  0.00000000000E+00 -0.00000000000E+00 -0.15678445081E+03  0.15678445081E+03  0.00000000000E+00 0. -1.
         23    2    1    2    0    0 -0.11375079418E+03 -0.56375519711E+02  0.45744027694E+02  0.16030712400E+03  0.86535631603E+02 0.  0.
         23    2    1    2    0    0  0.11375079418E+03  0.56375519711E+02 -0.19695466275E+02  0.17931033903E+03  0.12508734506E+03 0.  0.
          5    1    4    4  502    0  0.65895072034E+02  0.32727582392E+02 -0.73020102007E+02  0.10374325455E+03  0.41800000000E+01 0.  1.
         -5    1    4    4    0  502  0.47855722143E+02  0.23647937319E+02  0.53324635732E+02  0.75567084483E+02  0.41800000000E+01 0.  1.
        -11    1    3    3    0    0 -0.26674920906E+02 -0.28668245670E+02  0.56024087940E+02  0.68352894194E+02  0.00000000000E+00 0.  1.
         11    1    3    3    0    0 -0.87075873271E+02 -0.27707274041E+02 -0.10280060246E+02  0.91954229806E+02  0.00000000000E+00 0. -1.
</event>
<event>
 8    1  0.8061721E-006  0.1374610E+03  0.7561462E-02  0.1216787E+00
         -3   -1    0    0    0  501 -0.00000000000E+00  0.00000000000E+00  0.59639102967E+03  0.59639102967E+03  0.00000000000E+00 0.  1.
          3   -1    0    0  501    0  0.00000000000E+00 -0.00000000000E+00 -0.51423302567E+02  0.51423302567E+02  0.00000000000E+00 0. -1.
         23    2    1    2    0    0 -0.57333256073E+02  0.11323397479E+03  0.34820636164E+03  0.38235049735E+03  0.93995729916E+02 0.  0.
         23    2    1    2    0    0  0.57333256073E+02 -0.11323397479E+03  0.19676136546E+03  0.26546383488E+03  0.12508787868E+03 0.  0.
          5    1    4    4  502    0  0.53844769066E+02 -0.25034809436E+02  0.12094827134E+02  0.60743378920E+02  0.41800000000E+01 0.  1.
         -5    1    4    4    0  502  0.34884870071E+01 -0.88199165352E+02  0.18466653833E+03  0.20472045596E+03  0.41800000000E+01 0.  1.
        -11    1    3    3    0    0 -0.22258805571E+02  0.49658263515E+02  0.45128469197E+02  0.70696366900E+02  0.00000000000E+00 0. -1.
         11    1    3    3    0    0 -0.35074450502E+02  0.63575711273E+02  0.30307789244E+03  0.31165413045E+03  0.00000000000E+00 0.  1.
</event>
<event>
 8    1  0.8061721E-006  0.8992959E+02  0.7561462E-02  0.1303022E+00
         -1   -1    0    0    0  501 -0.00000000000E+00  0.00000000000E+00  0.95057213416E+02  0.95057213416E+02  0.00000000000E+00 0.  1.
          1   -1    0    0  501    0  0.00000000000E+00 -0.00000000000E+00 -0.15772342538E+03  0.15772342538E+03  0.00000000000E+00 0. -1.
         23    2    1    2    0    0  0.96736870513E+01 -0.15663636665E+02  0.27453949616E+02  0.97513528561E+02  0.91740063048E+02 0.  0.
         23    2    1    2    0    0 -0.96736870513E+01  0.15663636665E+02 -0.90120161585E+02  0.15526711024E+03  0.12508917724E+03 0.  0.
          5    1    4    4  502    0 -0.33910539206E+02 -0.45710381288E+02 -0.24475372890E+02  0.62095731776E+02  0.41800000000E+01 0. -1.
         -5    1    4    4    0  502  0.24236852155E+02  0.61374017953E+02 -0.65644788695E+02  0.93171378464E+02  0.41800000000E+01 0. -1.
        -11    1    3    3    0    0  0.32045209611E+02 -0.80571447903E+01  0.53163124462E+02  0.62594974588E+02  0.00000000000E+00 0.  1.
         11    1    3    3    0    0 -0.22371522560E+02 -0.76064918744E+01 -0.25709174846E+02  0.34918553972E+02  0.00000000000E+00 0. -1.
</event>
<event>
 8    1  0.8061721E-006  0.1103564E+03  0.7561462E-02  0.1259911E+00
          3   -1    0    0  501    0  0.00000000000E+00  0.00000000000E+00  0.49884378393E+02  0.49884378393E+02  0.00000000000E+00 0. -1.
         -3   -1    0    0    0  501 -0.00000000000E+00 -0.00000000000E+00 -0.53507187949E+03  0.53507187949E+03  0.00000000000E+00 0.  1.
         23    2    1    2    0    0  0.74274760625E+02 -0.67942297343E+02 -0.34824267922E+03  0.37392418857E+03  0.91724802181E+02 0.  0.
         23    2    1    2    0    0 -0.74274760625E+02  0.67942297343E+02 -0.13694482188E+03  0.21103206931E+03  0.12509098371E+03 0.  0.
          5    1    4    4  502    0 -0.13970843120E+02  0.50693752718E+00  0.22994155150E+02  0.27233160195E+02  0.41800000000E+01 0.  1.
         -5    1    4    4    0  502 -0.60303917505E+02  0.67435359816E+02 -0.15993897703E+03  0.18379890912E+03  0.41800000000E+01 0.  1.
        -11    1    3    3    0    0  0.57853168757E+01 -0.41880730949E+02 -0.23681596686E+03  0.24056032025E+03  0.00000000000E+00 0.  1.
         11    1    3    3    0    0  0.68489443749E+02 -0.26061566393E+02 -0.11142671236E+03  0.13336386832E+03  0.00000000000E+00 0. -1.
</event>
<event>
 8    1  0.8061721E-006  0.1343743E+03  0.7561462E-02  0.1221106E+00
         -2   -1    0    0    0  501 -0.00000000000E+00  0.00000000000E+00  0.61585990593E+03  0.61585990593E+03  0.00000000000E+00 0. -1.
          2   -1    0    0  501    0  0.00000000000E+00 -0.00000000000E+00 -0.86151167623E+02  0.86151167623E+02  0.00000000000E+00 0.  1.
         23    2    1    2    0    0 -0.47300000275E+02  0.99743166223E+02  0.51505961982E+03  0.53453663778E+03  0.90868123791E+02 0.  0.
         23    2    1    2    0    0  0.47300000275E+02 -0.99743166223E+02  0.14649118483E+02  0.16747443577E+03  0.12508837168E+03 0.  0.
          5    1    4    4  502    0  0.37796691371E+02 -0.42743297226E+01  0.51890459278E+02  0.64474428553E+02  0.41800000000E+01 0.  1.
         -5    1    4    4    0  502  0.95033089035E+01 -0.95468836501E+02 -0.37241340795E+02  0.10300000722E+03  0.41800000000E+01 0.  1.
        -11    1    3    3    0    0 -0.65981964833E+02  0.54772096662E+02  0.23247239391E+03  0.24778421295E+03  0.00000000000E+00 0.  1.
         11    1    3    3    0    0  0.18681964558E+02  0.44971069561E+02  0.28258722591E+03  0.28675242483E+03  0.00000000000E+00 0. -1.
</event>
<event>
 8    1  0.8061721E-006  0.9522736E+02  0.7561462E-02  0.1290665E+00
          2   -1    0    0  501    0  0.00000000000E+00  0.00000000000E+00  0.69038681582E+02  0.69038681582E+02  0.00000000000E+00 0. -1.
         -2   -1    0    0    0  501 -0.00000000000E+00 -0.00000000000E+00 -0.26505146856E+03  0.26505146856E+03  0.00000000000E+00 0.  1.
         23    2    1    2    0    0  0.47276013927E+02  0.58871085231E+02 -0.12946724472E+03  0.17354053296E+03  0.87485558547E+02 0.  0.
         23    2    1    2    0    0 -0.47276013927E+02 -0.58871085231E+02 -0.66545542251E+02  0.16054961718E+03  0.12508814578E+03 0.  0.
          5    1    4    4  502    0 -0.39653400463E+02 -0.64322149075E+02  0.16014655818E+02  0.77354202413E+02  0.41800000000E+01 0. -1.
         -5    1    4    4    0  502 -0.76226134643E+01  0.54510638443E+01 -0.82560198069E+02  0.83195414767E+02  0.41800000000E+01 0. -1.
        -11    1    3    3    0    0  0.48110466322E+02  0.74597911194E+02 -0.73030179227E+02  0.11494725922E+03  0.00000000000E+00 0. -1.
         11    1    3    3    0    0 -0.83445239523E+00 -0.15726825963E+02 -0.56437065496E+02  0.58593273739E+02  0.00000000000E+00 0.  1.
</event>
<event>
 8    1  0.8061721E-006  0.6715283E+02  0.7561462E-02  0.1370052E+00
         -1   -1    0    0    0  501 -0.00000000000E+00  0.00000000000E+00  0.23244328206E+02  0.23244328206E+02  0.00000000000E+00 0.  1.
          1   -1    0    0  501    0  0.00000000000E+00 -0.00000000000E+00 -0.58875830162E+03  0.58875830162E+03  0.00000000000E+00 0. -1.
         23    2    1    2    0    0 -0.21667211852E+02  0.17692807585E+02 -0.18740580195E+03  0.21275926797E+03  0.96762947412E+02 0.  0.
         23    2    1    2    0    0  0.21667211852E+02 -0.17692807585E+02 -0.37810817147E+03  0.39924336186E+03  0.12508784574E+03 0.  0.
          5    1    4    4  502    0  0.28355288045E+02 -0.15767479388E+02 -0.14902693222E+02  0.35947161664E+02  0.41800000000E+01 0.  1.
         -5    1    4    4    0  502 -0.66880761930E+01 -0.19253281967E+01 -0.36320547824E+03  0.36329620020E+03  0.41800000000E+01 0.  1.
        -11    1    3    3    0    0 -0.40563094711E+01 -0.36380447035E+02 -0.11502991427E+03  0.12071400809E+03  0.00000000000E+00 0.  1.
         11    1    3    3    0    0 -0.17610902381E+02  0.54073254619E+02 -0.72375887680E+02  0.92045259874E+02  0.00000000000E+00 0. -1.
</event>
<event>
 7    1  0.1684016E-005  0.4382495E+02  0.7561462E-02  0.1481813E+00
         -2   -1    0    0    0  501 -0.00000000000E+00  0.00000000000E+00  0.14875478886E+02  0.14875478886E+02  0.00000000000E+00 0.  1.
          2   -1    0    0  501    0  0.00000000000E+00 -0.00000000000E+00 -0.95816648756E+03  0.95816648756E+03  0.00000000000E+00 0. -1.
         23    2    1    2    0    0 -0.21794499716E+02 -0.86078952695E+01 -0.93630913517E+03  0.94383225966E+03  0.11659949268E+03 0.  0.
          5    1    3    3  502    0 -0.11005053064E+02  0.23473902493E+02 -0.85820622237E+03  0.85860790109E+03  0.41800000000E+01 0. -1.
         -5    1    3    3    0  502 -0.10789446652E+02 -0.32081797762E+02 -0.78102912798E+02  0.85224358573E+02  0.41800000000E+01 0.  1.
        -11    1    1    2    0    0  0.11398161820E+02 -0.29151751990E+01 -0.69997299384E+01  0.13689870654E+02  0.00000000000E+00 0.  1.
         11    1    1    2    0    0  0.10396337896E+02  0.11523070468E+02  0.17856436292E-01  0.15519836131E+02  0.00000000000E+00 0. -1.
</event>
<event>
 7    1  0.8061721E-006  0.7612837E+02  0.7561462E-02  0.1340412E+00
         -1   -1    0    0    0  501 -0.00000000000E+00  0.00000000000E+00  0.21702253945E+02  0.21702253945E+02  0.00000000000E+00 0.  1.
          1   -1    0    0  501    0  0.00000000000E+00 -0.00000000000E+00 -0.73350650370E+03  0.73350650370E+03  0.00000000000E+00 0. -1.
         23    2    1    2    0    0  0.15072335309E+02  0.21864933272E+02 -0.13249747339E+03  0.15928414789E+03  0.84324425378E+02 0.  0.
          5    1    1    2  502    0 -0.54326581375E+02 -0.43843289900E+02 -0.49817706867E+03  0.50306209921E+03  0.41800000000E+01 0. -1.
         -5    1    1    2    0  502  0.39254246065E+02  0.21978356628E+02 -0.81129707702E+02  0.92862510552E+02  0.41800000000E+01 0.  1.
        -11    1    3    3    0    0  0.49931584237E+01  0.25829402663E+02 -0.14227865078E+03  0.14469037335E+03  0.00000000000E+00 0. -1.
         11    1    3    3    0    0  0.10079176886E+02 -0.39644693902E+01  0.97811773875E+01  0.14593774540E+02  0.00000000000E+00 0.  1.
</event>
<event>
 8    1  0.8061721E-006  0.2783094E+03  0.7561462E-02  0.1096616E+00
          1   -1    0    0  501    0  0.00000000000E+00  0.00000000000E+00  0.99714151212E+03  0.99714151212E+03  0.00000000000E+00 0. -1.
         -1   -1    0    0    0  501 -0.00000000000E+00 -0.00000000000E+00 -0.11340144446E+03  0.11340144446E+03  0.00000000000E+00 0.  1.
         23    2    1    2    0    0  0.25317654168E+03  0.66730497658E+02  0.13633046326E+03  0.30878248486E+03  0.90605227048E+02 0.  0.
         23    2    1    2    0    0 -0.25317654168E+03 -0.66730497658E+02  0.74740960439E+03  0.80176047172E+03  0.12508963466E+03 0.  0.
          5    1    4    4  502    0 -0.16618125422E+03 -0.10160078467E+03  0.54163810072E+03  0.57561118236E+03  0.41800000000E+01 0.  1.
         -5    1    4    4    0  502 -0.86995287456E+02  0.34870287014E+02  0.20577150367E+03  0.22614928936E+03  0.41800000000E+01 0.  1.
        -11    1    3    3    0    0  0.21975525337E+03  0.36211229236E+02  0.80291974111E+02  0.23674971091E+03  0.00000000000E+00 0.  1.
         11    1    3    3    0    0  0.33421288304E+02  0.30519268422E+02  0.56038489147E+02  0.72032773949E+02  0.00000000000E+00 0. -1.
</event>
<event>
 8    1  0.8061721E-006  0.9934475E+02  0.7561462E-02  0.1281680E+00
          2   -1    0    0  501    0  0.00000000000E+00  0.00000000000E+00  0.10921663901E+04  0.10921663901E+04  0.00000000000E+00 0. -1.
         -2   -1    0    0    0  501 -0.00000000000E+00 -0.00000000000E+00 -0.17371878930E+02  0.17371878930E+02  0.00000000000E+00 0.  1.
         23    2    1    2    0    0 -0.39370196510E+02 -0.24678851341E+02  0.20503755848E+03  0.22960424269E+03  0.92296531892E+02 0.  0.
         23    2    1    2    0    0  0.39370196510E+02  0.24678851341E+02  0.86975695271E+03  0.87993402636E+03  0.12509067060E+03 0.  0.
          5    1    4    4  502    0  0.72056380448E+02  0.43483129885E+02  0.73886207666E+03  0.74365149450E+03  0.41800000000E+01 0. -1.
         -5    1    4    4    0  502 -0.32686183939E+02 -0.18804278544E+02  0.13089487605E+03  0.13628253185E+03  0.41800000000E+01 0. -1.
        -11    1    3    3    0    0 -0.98453282396E+01  0.20369451650E+02  0.59977390972E+01  0.23405510525E+02  0.00000000000E+00 0.  1.
         11    1    3    3    0    0 -0.29524868270E+02 -0.45048302991E+02  0.19903981938E+03  0.20619873217E+03  0.00000000000E+00 0. -1.
</event>
<event>
 8    1  0.8061721E-006  0.1112961E+03  0.7561462E-02  0.1258188E+00
         -3   -1    0    0    0  501 -0.00000000000E+00  0.00000000000E+00  0.13365698921E+03  0.13365698921E+03  0.00000000000E+00 0.  1.
          3   -1    0    0  501    0  0.00000000000E+00 -0.00000000000E+00 -0.19600747171E+03  0.19600747171E+03  0.00000000000E+00 0. -1.
         23    2    1    2    0    0  0.69332814578E+02 -0.52120383501E+02  0.54935581862E+02  0.13749972572E+03  0.91458640188E+02 0.  0.
         23    2    1    2    0    0 -0.69332814578E+02  0.52120383501E+02 -0.11728606436E+03  0.19216473519E+03  0.12509073109E+03 0.  0.
          5    1    4    4  502    0  0.19544847252E+02 -0.12326038814E+02 -0.67648148346E+02  0.71607797492E+02  0.41800000000E+01 0.  1.
         -5    1    4    4    0  502 -0.88877661830E+02  0.64446422315E+02 -0.49637916014E+02  0.12055693770E+03  0.41800000000E+01 0.  1.
        -11    1    3    3    0    0  0.15281394764E+02 -0.17820933243E+01  0.61454716605E+02  0.63351235786E+02  0.00000000000E+00 0.  1.
         11    1    3    3    0    0  0.54051419813E+02 -0.50338290177E+02 -0.65191347436E+01  0.74148489934E+02  0.00000000000E+00 0. -1.
</event>
<event>
 8    1  0.8061721E-006  0.1158073E+03  0.7561462E-02  0.1250178E+00
          2   -1    0    0  501    0  0.00000000000E+00  0.00000000000E+00  0.92902133564E+03  0.92902133564E+03  0.00000000000E+00 0.  1.
         -2   -1    0    0    0  501 -0.00000000000E+00 -0.00000000000E+00 -0.22754424886E+02  0.22754424886E+02  0.00000000000E+00 0. -1.
         23    2    1    2    0    0 -0.20248200510E+02  0.83478006174E+02  0.26386832634E+03  0.29169870093E+03  0.89905902692E+02 0.  0.
         23    2    1    2    0    0  0.20248200510E+02 -0.83478006174E+02  0.64239858442E+03  0.66007705960E+03  0.12508883328E+03 0.  0.
          5    1    4    4  502    0  0.34395021106E+02 -0.29619716121E+01  0.44531178489E+03  0.44666749257E+03  0.41800000000E+01 0. -1.
         -5    1    4    4    0  502 -0.14146820596E+02 -0.80516034562E+02  0.19708679953E+03  0.21340956704E+03  0.41800000000E+01 0. -1.
        -11    1    3    3    0    0 -0.47752417991E+02  0.68970407432E+02  0.23399747747E+03  0.24858002733E+03  0.00000000000E+00 0.  1.
         11    1    3    3    0    0  0.27504217482E+02  0.14507598742E+02  0.29870848868E+02  0.43118673595E+02  0.00000000000E+00 0. -1.
</event>
<event>
 8    1  0.8061721E-006  0.1249159E+03  0.7561462E-02  0.1235201E+00
         -2   -1    0    0    0  501 -0.00000000000E+00  0.00000000000E+00  0.33425099582E+02  0.33425099582E+02  0.00000000000E+00 0.  1.
          2   -1    0    0  501    0  0.00000000000E+00 -0.00000000000E+00 -0.48591682993E+03  0.48591682993E+03  0.00000000000E+00 0. -1.
         23    2    1    2    0    0  0.83402303978E+01  0.62126922779E+02 -0.17932932329E+03  0.21242984379E+03  0.95069018943E+02 0.  0.
         23    2    1    2    0    0 -0.83402303978E+01 -0.62126922779E+02 -0.27316240706E+03  0.30691208572E+03  0.12509202116E+03 0.  0.
          5    1    4    4  502    0 -0.51630623612E+02  0.12227296675E+02 -0.91294208506E+02  0.10567560260E+03  0.41800000000E+01 0.  1.
         -5    1    4    4    0  502  0.43290393214E+02 -0.74354219454E+02 -0.18186819855E+03  0.20123648312E+03  0.41800000000E+01 0.  1.
        -11    1    3    3    0    0  0.49749145568E+02  0.30393292228E+02 -0.12009135466E+03  0.13349405665E+03  0.00000000000E+00 0.  1.
         11    1    3    3    0    0 -0.41408915170E+02  0.31733630550E+02 -0.59237968634E+02  0.78935787139E+02  0.00000000000E+00 0. -1.
</event>
<event>
 8    1  0.8061721E-006  0.1165161E+03  0.7561462E-02  0.1248958E+00
          1   -1    0    0  501    0  0.00000000000E+00  0.00000000000E+00  0.35576299377E+03  0.35576299377E+03  0.00000000000E+00 0. -1.
         -1   -1    0    0    0  501 -0.00000000000E+00 -0.00000000000E+00 -0.45222167494E+02  0.45222167494E+02  0.00000000000E+00 0.  1.
         23    2    1    2    0    0 -0.63654602972E+02  0.14823558395E+02  0.12749257871E+03  0.16984202537E+03  0.91215731060E+02 0.  0.
         23    2    1    2    0    0  0.63654602972E+02 -0.14823558395E+02  0.18304824757E+03  0.23114313590E+03  0.12509533153E+03 0.  0.
          5    1    4    4  502    0 -0.14192029063E+02  0.33165759976E+02  0.10411591114E+03  0.11026774993E+03  0.41800000000E+01 0.  1.
         -5    1    4    4    0  502  0.77846632036E+02 -0.47989318371E+02  0.78932336433E+02  0.12087538596E+03  0.41800000000E+01 0.  1.
        -11    1    3    3    0    0 -0.60224520322E+02  0.44761410571E+02  0.60516511814E+02  0.96399299408E+02  0.00000000000E+00 0.  1.
         11    1    3    3    0    0 -0.34300826507E+01 -0.29937852177E+02  0.66976066896E+02  0.73442725962E+02  0.00000000000E+00 0. -1.
</event>
<event>
 8    1  0.8061721E-006  0.1327876E+03  0.7561462E-02  0.1223377E+00
         -2   -1    0    0    0  501 -0.00000000000E+00  0.00000000000E+00  0.31778541361E+02  0.31778541361E+02  0.00000000000E+00 0.  1.
          2   -1    0    0  501    0  0.00000000000E+00 -0.00000000000E+00 -0.83054050812E+03  0.83054050812E+03  0.00000000000E+00 0. -1.
         23    2    1    2    0    0  0.10826977827E+02 -0.10478088964E+03 -0.21142809622E+03  0.25265902140E+03  0.89657587184E+02 0.  0.
         23    2    1    2    0    0 -0.10826977827E+02  0.10478088964E+03 -0.58733387055E+03  0.60966002809E+03  0.12501206371E+03 0.  0.
          5    1    4    4  502    0  0.23331420201E+02  0.86619553541E+01 -0.35485839702E+03  0.35575460499E+03  0.41800000000E+01 0.  1.
         -5    1    4    4    0  502 -0.34158398027E+02  0.96118934291E+02 -0.23247547353E+03  0.25390542309E+03  0.41800000000E+01 0.  1.
        -11    1    3    3    0    0 -0.37700429745E+02 -0.66473218583E+02 -0.11251070765E+03  0.13600981776E+03  0.00000000000E+00 0.  1.
         11    1    3    3    0    0  0.48527407571E+02 -0.38307671062E+02 -0.98917388565E+02  0.11664920363E+03  0.00000000000E+00 0. -1.
</event>
<event>
 8    1  0.8061721E-006  0.7810709E+02  0.7561462E-02  0.1334511E+00
          1   -1    0    0  501    0  0.00000000000E+00  0.00000000000E+00  0.22746257498E+03  0.22746257498E+03  0.00000000000E+00 0. -1.
         -1   -1    0    0    0  501 -0.00000000000E+00 -0.00000000000E+00 -0.11993862398E+03  0.11993862398E+03  0.00000000000E+00 0.  1.
         23    2    1    2    0    0 -0.13594102842E+02  0.64204419844E+01 -0.84298196367E+02  0.12522986604E+03  0.91380040102E+02 0.  0.
         23    2    1    2    0    0  0.13594102842E+02 -0.64204419844E+01  0.19182214737E+03  0.22217133293E+03  0.11107809525E+03 0.  0.
          5    1    4    4  502    0 -0.21506409390E+02  0.37629258727E+02  0.13584146861E+03  0.14264944357E+03  0.41800000000E+01 0. -1.
         -5    1    4    4    0  502  0.35100512233E+02 -0.44049700712E+02  0.55980678764E+02  0.79521889356E+02  0.41800000000E+01 0.  1.
        -11    1    3    3    0    0 -0.22447311563E+02  0.26212486299E+02  0.35992834736E+01  0.34697709952E+02  0.00000000000E+00 0.  1.
         11    1    3    3    0    0  0.88532087203E+01 -0.19792044315E+02 -0.87897479841E+02  0.90532156084E+02  0.00000000000E+00 0. -1.
</event>
<event>
 8    1  0.8061721E-006  0.1034638E+03  0.7561462E-02  0.1273176E+00
         -1   -1    0    0    0  501 -0.00000000000E+00  0.00000000000E+00  0.19180963187E+03  0.19180963187E+03  0.00000000000E+00 0.  1.
          1   -1    0    0  501    0  0.00000000000E+00 -0.00000000000E+00 -0.99393957694E+02  0.99393957694E+02  0.00000000000E+00 0. -1.
         23    2    1    2    0    0 -0.37674351285E+01 -0.68175497219E+02  0.94603405362E+02  0.14867484188E+03  0.92153742810E+02 0.  0.
         23    2    1    2    0    0  0.37674351285E+01  0.68175497219E+02 -0.21877311820E+01  0.14252874769E+03  0.12509023048E+03 0.  0.
          5    1    4    4  502    0 -0.24815980897E+02  0.79064113007E+01  0.50798313080E+02  0.57238843973E+02  0.41800000000E+01 0.  1.
         -5    1    4    4    0  502  0.28583416025E+02  0.60269085918E+02 -0.52986044262E+02  0.85289903714E+02  0.41800000000E+01 0.  1.
        -11    1    3    3    0    0  0.20888414638E+01  0.22627196476E+02  0.27170395113E+02  0.35420102338E+02  0.00000000000E+00 0.  1.
         11    1    3    3    0    0 -0.58562765923E+01 -0.90802693695E+02  0.67433010249E+02  0.11325473954E+03  0.00000000000E+00 0. -1.
</event>
<event>
 7    1  0.8061721E-006  0.1436624E+03  0.7561462E-02  0.1208484E+00
          2   -1    0    0  501    0  0.00000000000E+00  0.00000000000E+00  0.28931717309E+03  0.28931717309E+03  0.00000000000E+00 0. -1.
         -2   -1    0    0    0  501 -0.00000000000E+00 -0.00000000000E+00 -0.13690063939E+03  0.13690063939E+03  0.00000000000E+00 0.  1.
         23    2    1    2    0    0 -0.28321855469E+02 -0.15864875220E+02 -0.22602426249E+02  0.99028043098E+02  0.90784700718E+02 0.  0.
          5    1    1    2  502    0 -0.26062344435E+02 -0.86649829504E+02  0.18962855646E+03  0.21015208915E+03  0.41800000000E+01 0. -1.
         -5    1    1    2    0  502  0.54384199903E+02  0.10251470472E+03 -0.14609596504E+02  0.11703768023E+03  0.41800000000E+01 0.  1.
        -11    1    3    3    0    0 -0.52658745675E+02 -0.21862670857E+01  0.12511210544E+02  0.54168751593E+02  0.00000000000E+00 0.  1.
         11    1    3    3    0    0  0.24336890207E+02 -0.13678608134E+02 -0.35113636793E+02  0.44859291504E+02  0.00000000000E+00 0. -1.
</event>
<event>
 8    1  0.8061721E-006  0.1756754E+03  0.7561462E-02  0.1172055E+00
         -2   -1    0    0    0  501 -0.00000000000E+00  0.00000000000E+00  0.19563324389E+03  0.19563324389E+03  0.00000000000E+00 0.  1.
          2   -1    0    0  501    0  0.00000000000E+00 -0.00000000000E+00 -0.21446011064E+03  0.21446011064E+03  0.00000000000E+00 0. -1.
         23    2    1    2    0    0  0.13910680206E+03 -0.21075737564E+02  0.91680223705E+02  0.19179616647E+03  0.92658604351E+02 0.  0.
         23    2    1    2    0    0 -0.13910680206E+03  0.21075737564E+02 -0.11050709046E+03  0.21829718806E+03  0.12508779389E+03 0.  0.
          5    1    4    4  502    0 -0.26629859485E+02  0.60968229660E+02 -0.55861995146E+02  0.86973038039E+02  0.41800000000E+01 0.  1.
         -5    1    4    4    0  502 -0.11247694258E+03 -0.39892492096E+02 -0.54645095315E+02  0.13132415002E+03  0.41800000000E+01 0.  1.
        -11    1    3    3    0    0  0.12722704534E+03  0.14233003866E+02  0.85719617657E+02  0.15406866104E+03  0.00000000000E+00 0.  1.
         11    1    3    3    0    0  0.11879756722E+02 -0.35308741430E+02  0.59606060472E+01  0.37727505425E+02  0.00000000000E+00 0. -1.
</event>
<event>
 8    1  0.8061721E-006  0.1485273E+03  0.7561462E-02  0.1202294E+00
          1   -1    0    0  501    0  0.00000000000E+00  0.00000000000E+00  0.69836410602E+02  0.69836410602E+02  0.00000000000E+00 0. -1.
         -1   -1    0    0    0  501 -0.00000000000E+00 -0.00000000000E+00 -0.37432954339E+03  0.37432954339E+03  0.00000000000E+00 0.  1.
         23    2    1    2    0    0  0.54140673363E+02  0.94111510532E+02 -0.22851204826E+03  0.26997538066E+03  0.94237789865E+02 0.  0.
         23    2    1    2    0    0 -0.54140673363E+02 -0.94111510532E+02 -0.75981084528E+02  0.17419057333E+03  0.11305326932E+03 0.  0.
          5    1    4    4  502    0 -0.62792548707E+02 -0.11574948825E+03 -0.72131618481E+02  0.15020416435E+03  0.41800000000E+01 0. -1.
         -5    1    4    4    0  502  0.86518753441E+01  0.21637977719E+02 -0.38494660469E+01  0.23986408976E+02  0.41800000000E+01 0.  1.
        -11    1    3    3    0    0  0.76615575805E+02  0.90969798829E+02 -0.20683746066E+03  0.23859418662E+03  0.00000000000E+00 0.  1.
         11    1    3    3    0    0 -0.22474902443E+02  0.31417117026E+01 -0.21674587594E+02  0.31381194044E+02  0.00000000000E+00 0. -1.
</event>
<event>
 8    1  0.8061721E-006  0.9344383E+02  0.7561462E-02  0.1294720E+00
          2   -1    0    0  501    0  0.00000000000E+00  0.00000000000E+00  0.42319909762E+03  0.42319909762E+03  0.00000000000E+00 0. -1.
         -2   -1    0    0    0  501 -0.00000000000E+00 -0.00000000000E+00 -0.31034278246E+02  0.31034278246E+02  0.00000000000E+00 0.  1.
         23    2    1    2    0    0 -0.19531023557E+02 -0.26406252655E+02  0.16171320607E+03  0.18997199708E+03  0.94124638630E+02 0.  0.
         23    2    1    2    0    0  0.19531023557E+02  0.26406252655E+02  0.23045161331E+03  0.26426137879E+03  0.12508948470E+03 0.  0.
          5    1    4    4  502    0  0.46247798036E+02 -0.96354030431E+01  0.20908040448E+03  0.21439166903E+03  0.41800000000E+01 0. -1.
         -5    1    4    4    0  502 -0.26716774479E+02  0.36041655698E+02  0.21371208831E+02  0.49869709754E+02  0.41800000000E+01 0. -1.
        -11    1    3    3    0    0 -0.54280420298E+02 -0.24635524677E+02  0.70355292234E+02  0.92212473393E+02  0.00000000000E+00 0. -1.
         11    1    3    3    0    0  0.34749396741E+02 -0.17707279780E+01  0.91357913833E+02  0.97759523686E+02  0.00000000000E+00 0.  1.
</event>
<event>
 8    1  0.8061721E-006  0.9253740E+02  0.7561462E-02  0.1296821E+00
         -2   -1    0    0    0  501 -0.00000000000E+00  0.00000000000E+00  0.35053227046E+02  0.35053227046E+02  0.00000000000E+00 0.  1.
          2   -1    0    0  501    0  0.00000000000E+00 -0.00000000000E+00 -0.75609158867E+03  0.75609158867E+03  0.00000000000E+00 0. -1.
         23    2    1    2    0    0 -0.49545977467E+02  0.47332841112E+02 -0.91913370056E+02  0.14605525109E+03  0.90492359047E+02 0.  0.
         23    2    1    2    0    0  0.49545977467E+02 -0.47332841112E+02 -0.62912499157E+03  0.64508956463E+03  0.12508832735E+03 0.  0.
          5    1    4    4  502    0  0.60286177506E+02 -0.17793785592E+02 -0.59568536519E+03  0.59900715247E+03  0.41800000000E+01 0. -1.
         -5    1    4    4    0  502 -0.10740200039E+02 -0.29539055520E+02 -0.33439626382E+02  0.46082412160E+02  0.41800000000E+01 0. -1.
        -11    1    3    3    0    0 -0.62917774200E+02  0.34126484318E+02 -0.23851710528E+02  0.75446453444E+02  0.00000000000E+00 0.  1.
         11    1    3    3    0    0  0.13371796733E+02  0.13206356794E+02 -0.68061659529E+02  0.70608797649E+02  0.00000000000E+00 0. -1.
</event>
<event>
 8    1  0.8061721E-006  0.1084367E+03  0.7561462E-02  0.1263493E+00
         -1   -1    0    0    0  501 -0.00000000000E+00  0.00000000000E+00  0.81400751178E+02  0.81400751178E+02  0.00000000000E+00 0.  1.
          1   -1    0    0  501    0  0.00000000000E+00 -0.00000000000E+00 -0.29655195966E+03  0.29655195966E+03  0.00000000000E+00 0. -1.
         23    2    1    2    0    0 -0.72518822919E+01  0.56244205085E+02  0.17140385252E+02  0.10809429029E+03  0.90413397152E+02 0.  0.
         23    2    1    2    0    0  0.72518822919E+01 -0.56244205085E+02 -0.23229159373E+03  0.26985842055E+03  0.12509269450E+03 0.  0.
          5    1    4    4  502    0  0.23273407796E+02 -0.82905456584E+02 -0.91926466417E+02  0.12602743300E+03  0.41800000000E+01 0. -1.
         -5    1    4    4    0  502 -0.16021525504E+02  0.26661251499E+02 -0.14036512732E+03  0.14383098754E+03  0.41800000000E+01 0. -1.
        -11    1    3    3    0    0 -0.43827516932E+02  0.21448223448E+02  0.28279572239E+02  0.56396912465E+02  0.00000000000E+00 0.  1.
         11    1    3    3    0    0  0.36575634640E+02  0.34795981637E+02 -0.11139186987E+02  0.51697377827E+02  0.00000000000E+00 0. -1.
</event>
<event>
 8    1  0.8061721E-006  0.1142881E+03  0.7561462E-02  0.1252829E+00
          2   -1    0    0  501    0  0.00000000000E+00  0.00000000000E+00  0.99995372328E+03  0.99995372328E+03  0.00000000000E+00 0. -1.
         -2   -1    0    0    0  501 -0.00000000000E+00 -0.00000000000E+00 -0.34729875506E+02  0.34729875506E+02  0.00000000000E+00 0.  1.
         23    2    1    2    0    0  0.24938222890E+02  0.72410287394E+02  0.93839065650E+02  0.15233346170E+03  0.92382620830E+02 0.  0.
         23    2    1    2    0    0 -0.24938222890E+02 -0.72410287394E+02  0.87138478212E+03  0.88235013708E+03  0.11560779044E+03 0.  0.
          5    1    4    4  502    0  0.80702819672E+01  0.17641905472E+02  0.43845229254E+03  0.43890118650E+03  0.41800000000E+01 0. -1.
         -5    1    4    4    0  502 -0.33008504857E+02 -0.90052192866E+02  0.43293248959E+03  0.44344895058E+03  0.41800000000E+01 0.  1.
        -11    1    3    3    0    0  0.55591443778E+02  0.43430381066E+02  0.31968098512E+02  0.77450409575E+02  0.00000000000E+00 0.  1.
         11    1    3    3    0    0 -0.30653220888E+02  0.28979906329E+02  0.61870967138E+02  0.74883052130E+02  0.00000000000E+00 0. -1.
</event>
<event>
 8    1  0.8061721E-006  0.1108894E+03  0.7561462E-02  0.1258932E+00
          2   -1    0    0  501    0  0.00000000000E+00  0.00000000000E+00  0.15099392534E+03  0.15099392534E+03  0.00000000000E+00 0. -1.
         -2   -1    0    0    0  501 -0.00000000000E+00 -0.00000000000E+00 -0.89278443781E+02  0.89278443781E+02  0.00000000000E+00 0.  1.
         23    2    1    2    0    0  0.18381823205E+02  0.41123457163E+02  0.39382788369E+02  0.10545673718E+03  0.86839445206E+02 0.  0.
         23    2    1    2    0    0 -0.18381823205E+02 -0.41123457163E+02  0.22332693190E+02  0.13481563194E+03  0.12508986880E+03 0.  0.
          5    1    4    4  502    0  0.12488345176E+02  0.37545481851E+02 -0.14749789541E+02  0.42434074329E+02  0.41800000000E+01 0.  1.
         -5    1    4    4    0  502 -0.30870168381E+02 -0.78668939013E+02  0.37082482731E+02  0.92381557612E+02  0.41800000000E+01 0.  1.
        -11    1    3    3    0    0 -0.32630218694E+02  0.12887974525E+01  0.18031562345E+02  0.37303209131E+02  0.00000000000E+00 0. -1.
         11    1    3    3    0    0  0.51012041899E+02  0.39834659710E+02  0.21351226024E+02  0.68153528050E+02  0.00000000000E+00 0.  1.
</event>
<event>
 8    1  0.8061721E-006  0.9170880E+02  0.7561462E-02  0.1298766E+00
          2   -1    0    0  501    0  0.00000000000E+00  0.00000000000E+00  0.49532192691E+03  0.49532192691E+03  0.00000000000E+00 0. -1.
         -2   -1    0    0    0  501 -0.00000000000E+00 -0.00000000000E+00 -0.31367528635E+02  0.31367528635E+02  0.00000000000E+00 0.  1.
         23    2    1    2    0    0  0.75111340328E+01 -0.21174461060E+02  0.60095356514E+02  0.10330550936E+03  0.80967903849E+02 0.  0.
         23    2    1    2    0    0 -0.75111340328E+01  0.21174461060E+02  0.40385904176E+03  0.42338394619E+03  0.12508823023E+03 0.  0.
          5    1    4    4  502    0 -0.26085964755E+02 -0.40326322960E+02  0.27656474200E+03  0.28073513994E+03  0.41800000000E+01 0.  1.
         -5    1    4    4    0  502  0.18574830723E+02  0.61500784020E+02  0.12729429976E+03  0.14264880624E+03  0.41800000000E+01 0.  1.
        -11    1    3    3    0    0 -0.12267274581E+02  0.20957722913E+02  0.50137079263E+02  0.55708517233E+02  0.00000000000E+00 0. -1.
         11    1    3    3    0    0  0.19778408614E+02 -0.42132183973E+02  0.99582772510E+01  0.47596992126E+02  0.00000000000E+00 0.  1.
</event>
<event>
 8    1  0.8061721E-006  0.1008353E+03  0.7561462E-02  0.1278549E+00
         -1   -1    0    0    0  501 -0.00000000000E+00  0.00000000000E+00  0.14499774431E+03  0.14499774431E+03  0.00000000000E+00 0.  1.
          1   -1    0    0  501    0  0.00000000000E+00 -0.00000000000E+00 -0.11748451605E+03  0.11748451605E+03  0.00000000000E+00 0. -1.
         23    2    1    2    0    0  0.21572572392E+01 -0.72698377017E+02  0.27485778838E+02  0.11778457677E+03  0.88476158970E+02 0.  0.
         23    2    1    2    0    0 -0.21572572392E+01  0.72698377017E+02  0.27449418036E-01  0.14469768359E+03  0.12509081143E+03 0.  0.
          5    1    4    4  502    0  0.50992441345E+02  0.42409763751E+02  0.33947547632E+02  0.74623893800E+02  0.41800000000E+01 0.  1.
         -5    1    4    4    0  502 -0.53149698584E+02  0.30288613266E+02 -0.33920098214E+02  0.70073789793E+02  0.41800000000E+01 0.  1.
        -11    1    3    3    0    0 -0.54863663889E+01 -0.25322157609E+02  0.56183178861E+02  0.61869713665E+02  0.00000000000E+00 0.  1.
         11    1    3    3    0    0  0.76436236281E+01 -0.47376219408E+02 -0.28697400023E+02  0.55914863102E+02  0.00000000000E+00 0. -1.
</event>
<event>
 8    1  0.8061721E-006  0.7976739E+02  0.7561462E-02  0.1329713E+00
         -1   -1    0    0    0  501 -0.00000000000E+00  0.00000000000E+00  0.58249259308E+02  0.58249259308E+02  0.00000000000E+00 0.  1.
          1   -1    0    0  501    0  0.00000000000E+00 -0.00000000000E+00 -0.27604100809E+03  0.27604100809E+03  0.00000000000E+00 0. -1.
         23    2    1    2    0    0 -0.35011919745E+02  0.32643142138E+02 -0.37161315516E+02  0.10942144208E+03  0.91108064204E+02 0.  0.
         23    2    1    2    0    0  0.35011919745E+02 -0.32643142138E+02 -0.18063043326E+03  0.22486882532E+03  0.12508887211E+03 0.  0.
          5    1    4    4  502    0  0.37463451208E+01  0.85297298250E+01  0.17391142905E+02  0.20167192273E+02  0.41800000000E+01 0.  1.
         -5    1    4    4    0  502  0.31265574624E+02 -0.41172871963E+02 -0.19802157617E+03  0.20470163304E+03  0.41800000000E+01 0.  1.
        -11    1    3    3    0    0 -0.37780131896E+02 -0.21348047383E+02 -0.34247588124E+02  0.55280871786E+02  0.00000000000E+00 0.  1.
         11    1    3    3    0    0  0.27682121512E+01  0.53991189521E+02 -0.29137273924E+01  0.54140570293E+02  0.00000000000E+00 0. -1.
</event>
<event>
 7    1  0.8061721E-006  0.8945027E+02  0.7561462E-02  0.1304188E+00
         -2   -1    0    0    0  501 -0.00000000000E+00  0.00000000000E+00  0.11953386204E+02  0.11953386204E+02  0.00000000000E+00 0.  1.
          2   -1    0    0  501    0  0.00000000000E+00 -0.00000000000E+00 -0.94884121132E+03  0.94884121132E+03  0.00000000000E+00 0. -1.
         23    2    1    2    0    0 -0.16045575265E+02 -0.48098606716E+02 -0.73140610215E+03  0.74375711622E+03  0.12509526452E+03 0.  0.
          5    1    3    3  502    0 -0.20405780155E+02  0.35398921478E+02 -0.39339571237E+03  0.39553399148E+03  0.41800000000E+01 0.  1.
         -5    1    3    3    0  502  0.43602048899E+01 -0.83497528194E+02 -0.33801038979E+03  0.34822312474E+03  0.41800000000E+01 0.  1.
        -11    1    1    2    0    0 -0.43587240791E+01  0.95075992158E+01 -0.45282782827E+01  0.11397290145E+02  0.00000000000E+00 0.  1.
         11    1    1    2    0    0  0.20404299344E+02  0.38591007500E+02 -0.20095344468E+03  0.20564019116E+03  0.00000000000E+00 0. -1.
</event>
<event>
 8    1  0.8061721E-006  0.1484088E+03  0.7561462E-02  0.1202442E+00
         -4   -1    0    0    0  501 -0.00000000000E+00  0.00000000000E+00  0.14056301797E+03  0.14056301797E+03  0.00000000000E+00 0.  1.
          4   -1    0    0  501    0  0.00000000000E+00 -0.00000000000E+00 -0.23147202422E+03  0.23147202422E+03  0.00000000000E+00 0. -1.
         23    2    1    2    0    0 -0.11164894400E+03  0.43886917624E+02  0.57799054633E+02  0.14363848337E+03  0.53849187110E+02 0.  0.
         23    2    1    2    0    0  0.11164894400E+03 -0.43886917624E+02 -0.14870806088E+03  0.22839655883E+03  0.12513733447E+03 0.  0.
          5    1    4    4  502    0  0.33180906366E+02 -0.79212616788E+02 -0.87774281423E+02  0.12287151047E+03  0.41800000000E+01 0.  1.
         -5    1    4    4    0  502  0.78468037638E+02  0.35325699164E+02 -0.60933779457E+02  0.10552504836E+03  0.41800000000E+01 0.  1.
        -11    1    3    3    0    0 -0.39162845885E+02 -0.14387121125E+01 -0.21103309850E+01  0.39246042950E+02  0.00000000000E+00 0. -1.
         11    1    3    3    0    0 -0.72486098118E+02  0.45325629737E+02  0.59909385618E+02  0.10439244042E+03  0.00000000000E+00 0.  1.
</event>
<event>
 8    1  0.8061721E-006  0.1196730E+03  0.7561462E-02  0.1243638E+00
         -3   -1    0    0    0  501 -0.00000000000E+00  0.00000000000E+00  0.10397699479E+03  0.10397699479E+03  0.00000000000E+00 0.  1.
          3   -1    0    0  501    0  0.00000000000E+00 -0.00000000000E+00 -0.19516003251E+03  0.19516003251E+03  0.00000000000E+00 0. -1.
         23    2    1    2    0    0 -0.82121530541E+02  0.15610617886E+02 -0.13784415229E+01  0.12393086059E+03  0.91483992789E+02 0.  0.
         23    2    1    2    0    0  0.82121530541E+02 -0.15610617886E+02 -0.89804596204E+02  0.17520616671E+03  0.12507876792E+03 0.  0.
          5    1    4    4  502    0  0.11260379806E+03 -0.10286509032E+02 -0.47715497207E+02  0.12279930244E+03  0.41800000000E+01 0.  1.
         -5    1    4    4    0  502 -0.30482267521E+02 -0.53241088533E+01 -0.42089098997E+02  0.52406864271E+02  0.41800000000E+01 0.  1.
        -11    1    3    3    0    0 -0.44164482967E+02 -0.14540195381E+02  0.39120547034E+02  0.60764595264E+02  0.00000000000E+00 0.  1.
         11    1    3    3    0    0 -0.37957047574E+02  0.30150813266E+02 -0.40498988557E+02  0.63166265326E+02  0.00000000000E+00 0. -1.
</event>
<event>
 8    1  0.8061721E-006  0.7615351E+02  0.7561462E-02  0.1340336E+00
          4   -1    0    0  501    0  0.00000000000E+00  0.00000000000E+00  0.26151007020E+02  0.26151007020E+02  0.00000000000E+00 0. -1.
         -4   -1    0    0    0  501 -0.00000000000E+00 -0.00000000000E+00 -0.48333006757E+03  0.48333006757E+03  0.00000000000E+00 0.  1.
         23    2    1    2    0    0 -0.20197475781E+01 -0.20623355670E+02 -0.24668562405E+03  0.26374630037E+03  0.90988524912E+02 0.  0.
         23    2    1    2    0    0  0.20197475781E+01  0.20623355670E+02 -0.21049343650E+03  0.24573477422E+03  0.12509472520E+03 0.  0.
          5    1    4    4  502    0  0.31343949542E+02  0.34845097717E+02 -0.20746894401E+03  0.21273800585E+03  0.41800000000E+01 0. -1.
         -5    1    4    4    0  502 -0.29324201964E+02 -0.14221742047E+02 -0.30244924902E+01  0.32996768364E+02  0.41800000000E+01 0. -1.
        -11    1    3    3    0    0  0.31303444997E+02 -0.23213249769E+02 -0.45966793946E+02  0.60263643926E+02  0.00000000000E+00 0. -1.
         11    1    3    3    0    0 -0.33323192575E+02  0.25898940985E+01 -0.20071883010E+03  0.20348265644E+03  0.00000000000E+00 0.  1.
</event>
<event>
 8    1  0.8061721E-006  0.1118104E+03  0.7561462E-02  0.1257254E+00
          1   -1    0    0  501    0  0.00000000000E+00  0.00000000000E+00  0.99100468257E+03  0.99100468257E+03  0.00000000000E+00 0. -1.
         -1   -1    0    0    0  501 -0.00000000000E+00 -0.00000000000E+00 -0.17657753292E+02  0.17657753292E+02  0.00000000000E+00 0.  1.
         23    2    1    2    0    0 -0.50884425205E+02  0.47723563225E+02  0.31900489794E+03  0.33882834119E+03  0.90408830689E+02 0.  0.
         23    2    1    2    0    0  0.50884425205E+02 -0.47723563225E+02  0.65434203134E+03  0.66983409467E+03  0.12508979654E+03 0.  0.
          5    1    4    4  502    0  0.90963052141E+02 -0.17533021676E+02  0.43827744288E+03  0.44798021501E+03  0.41800000000E+01 0. -1.
         -5    1    4    4    0  502 -0.40078626936E+02 -0.30190541549E+02  0.21606458846E+03  0.22185387966E+03  0.41800000000E+01 0. -1.
        -11    1    3    3    0    0 -0.29755437001E+02  0.51108817183E+02  0.31003636139E+03  0.31562642888E+03  0.00000000000E+00 0. -1.
         11    1    3    3    0    0 -0.21128988204E+02 -0.33852539579E+01  0.89685365550E+01  0.23201912310E+02  0.00000000000E+00 0.  1.
</event>
<event>
 8    1  0.8061721E-006  0.8911129E+02  0.7561462E-02  0.1305018E+00
          1   -1    0    0  501    0  0.00000000000E+00  0.00000000000E+00  0.62157010710E+03  0.62157010710E+03  0.00000000000E+00 0. -1.
         -1   -1    0    0    0  501 -0.00000000000E+00 -0.00000000000E+00 -0.22822542702E+02  0.22822542702E+02  0.00000000000E+00 0.  1.
         23    2    1    2    0    0  0.18105454848E+02 -0.24455956893E+02  0.15804758619E+03  0.18527489882E+03  0.91770623346E+02 0.  0.
         23    2    1    2    0    0 -0.18105454848E+02  0.24455956893E+02  0.44069997821E+03  0.45911775099E+03  0.12508691839E+03 0.  0.
          5    1    4    4  502    0  0.30562005090E+02  0.42684039465E+01  0.36757324412E+03  0.36888998037E+03  0.41800000000E+01 0. -1.
         -5    1    4    4    0  502 -0.48667459938E+02  0.20187552947E+02  0.73126734093E+02  0.90227770613E+02  0.41800000000E+01 0. -1.
        -11    1    3    3    0    0  0.51750467090E+02  0.14413672481E+01  0.65793415215E+02  0.83719542935E+02  0.00000000000E+00 0. -1.
         11    1    3    3    0    0 -0.33645012243E+02 -0.25897324141E+02  0.92254170974E+02  0.10155535588E+03  0.00000000000E+00 0.  1.
</event>
<event>
 8    1  0.8061721E-006  0.1646376E+03  0.7561462E-02  0.1183558E+00
         -2   -1    0    0    0  501 -0.00000000000E+00  0.00000000000E+00  0.78400238923E+02  0.78400238923E+02  0.00000000000E+00 0. -1.
          2   -1    0    0  501    0  0.00000000000E+00 -0.00000000000E+00 -0.37926373999E+03  0.37926373999E+03  0.00000000000E+00 0.  1.
         23    2    1    2    0    0  0.10359367735E+03  0.76041526235E+02 -0.89624306156E+02  0.18056504104E+03  0.89762208600E+02 0.  0.
         23    2    1    2    0    0 -0.10359367735E+03 -0.76041526235E+02 -0.21123919491E+03  0.27709893787E+03  0.12509140740E+03 0.  0.
          5    1    4    4  502    0 -0.31039999666E+02 -0.96382364149E+02 -0.97711927249E+02  0.14077689734E+03  0.41800000000E+01 0.  1.
         -5    1    4    4    0  502 -0.72553677683E+02  0.20340837913E+02 -0.11352726766E+03  0.13632204053E+03  0.41800000000E+01 0.  1.
        -11    1    3    3    0    0  0.11762371959E+03  0.71805196434E+02 -0.66082193694E+02  0.15283383777E+03  0.00000000000E+00 0. -1.
         11    1    3    3    0    0 -0.14030042240E+02  0.42363298011E+01 -0.23542112461E+02  0.27731203266E+02  0.00000000000E+00 0.  1.
</event>
<event>
 8    1  0.8061721E-006  0.9997538E+02  0.7561462E-02  0.1280348E+00
         -1   -1    0    0    0  501 -0.00000000000E+00  0.00000000000E+00  0.33761014802E+02  0.33761014802E+02  0.00000000000E+00 0.  1.
          1   -1    0    0  501    0  0.00000000000E+00 -0.00000000000E+00 -0.35239832153E+03  0.35239832153E+03  0.00000000000E+00 0. -1.
         23    2    1    2    0    0  0.50131720960E+01  0.14932401605E+00 -0.13901691911E+03  0.16721526658E+03  0.92790556559E+02 0.  0.
         23    2    1    2    0    0 -0.50131720960E+01 -0.14932401605E+00 -0.17962038762E+03  0.21894406975E+03  0.12509143792E+03 0.  0.
          5    1    4    4  502    0  0.54646733577E+02  0.11043444613E+02 -0.12599006842E+03  0.13783755983E+03  0.41800000000E+01 0.  1.
         -5    1    4    4    0  502 -0.59659905673E+02 -0.11192768629E+02 -0.53630319197E+02  0.81106509921E+02  0.41800000000E+01 0.  1.
        -11    1    3    3    0    0  0.24494746639E+02 -0.35171817582E+02 -0.33970903637E+02  0.54690690788E+02  0.00000000000E+00 0.  1.
         11    1    3    3    0    0 -0.19481574543E+02  0.35321141598E+02 -0.10504601547E+03  0.11252457579E+03  0.00000000000E+00 0. -1.
</event>
<event>
 8    1  0.8061721E-006  0.1833249E+03  0.7561462E-02  0.1164623E+00
          1   -1    0    0  501    0  0.00000000000E+00  0.00000000000E+00  0.45870721790E+03  0.45870721790E+03  0.00000000000E+00 0. -1.
         -1   -1    0    0    0  501 -0.00000000000E+00 -0.00000000000E+00 -0.10208784789E+03  0.10208784789E+03  0.00000000000E+00 0.  1.
         23    2    1    2    0    0 -0.18183688420E+03 -0.44912067616E+01  0.11235361716E+03  0.23155645896E+03  0.88939501933E+02 0.  0.
         23    2    1    2    0    0  0.18183688420E+03  0.44912067616E+01  0.24426575285E+03  0.32923860683E+03  0.12508988296E+03 0.  0.
          5    1    4    4  502    0  0.12680840165E+03  0.74724531017E+01  0.67243138385E+02  0.14378915239E+03  0.41800000000E+01 0. -1.
         -5    1    4    4    0  502  0.55028482550E+02 -0.29812463401E+01  0.17702261446E+03  0.18544945444E+03  0.41800000000E+01 0. -1.
        -11    1    3    3    0    0 -0.23888053416E+02  0.95221506743E+01 -0.13563380349E+02  0.29073626123E+02  0.00000000000E+00 0. -1.
         11    1    3    3    0    0 -0.15794883079E+03 -0.14013357436E+02  0.12591699751E+03  0.20248283284E+03  0.00000000000E+00 0.  1.
</event>
<event>
 8    1  0.8061721E-006  0.7292123E+02  0.7561462E-02  0.1350432E+00
          2   -1    0    0  501    0  0.00000000000E+00  0.00000000000E+00  0.67367657150E+03  0.67367657150E+03  0.00000000000E+00 0. -1.
         -2   -1    0    0    0  501 -0.00000000000E+00 -0.00000000000E+00 -0.57732322347E+02  0.57732322347E+02  0.00000000000E+00 0.  1.
         23    2    1    2    0    0 -0.33146294213E+02  0.46029272151E+02  0.69256627773E+01  0.10709468049E+03  0.90575576559E+02 0.  0.
         23    2    1    2    0    0  0.33146294213E+02 -0.46029272151E+02  0.60901858638E+03  0.62431421336E+03  0.12508887935E+03 0.  0.
          5    1    4    4  502    0  0.48186951494E+02 -0.25007997705E+02  0.58859212497E+03  0.59110535797E+03  0.41800000000E+01 0.  1.
         -5    1    4    4    0  502 -0.15040657281E+02 -0.21021274446E+02  0.20426461407E+02  0.33208855392E+02  0.41800000000E+01 0.  1.
        -11    1    3    3    0    0  0.24823506446E+01  0.22215801583E+02 -0.38578971792E+02  0.44587453047E+02  0.00000000000E+00 0.  1.
         11    1    3    3    0    0 -0.35628644857E+02  0.23813470568E+02  0.45504634570E+02  0.62507227440E+02  0.00000000000E+00 0. -1.
</event>
<event>
 7    1  0.8061721E-006  0.1255775E+03  0.7561462E-02  0.1234170E+00
          2   -1    0    0  501    0  0.00000000000E+00  0.00000000000E+00  0.25042176977E+03  0.25042176977E+03  0.00000000000E+00 0. -1.
         -2   -1    0    0    0  501 -0.00000000000E+00 -0.00000000000E+00 -0.84176791161E+02  0.84176791161E+02  0.00000000000E+00 0.  1.
         23    2    1    2    0    0 -0.18840796516E+02  0.23411019490E+02  0.41780676394E+02  0.10598528932E+03  0.92650985884E+02 0.  0.
          5    1    1    2  502    0  0.86139435656E+02 -0.70510823539E+01  0.13303696460E+03  0.15870106013E+03  0.41800000000E+01 0. -1.
         -5    1    1    2    0  502 -0.67298639141E+02 -0.16359937136E+02 -0.85726623845E+01  0.69912211477E+02  0.41800000000E+01 0.  1.
        -11    1    3    3    0    0 -0.78014458601E+01  0.58211679578E+02  0.14743331938E+02  0.60554339510E+02  0.00000000000E+00 0.  1.
         11    1    3    3    0    0 -0.11039350655E+02 -0.34800660088E+02  0.27037344455E+02  0.45430949810E+02  0.00000000000E+00 0. -1.
</event>
<event>
 8    1  0.8061721E-006  0.1226989E+03  0.7561462E-02  0.1238710E+00
          2   -1    0    0  501    0  0.00000000000E+00  0.00000000000E+00  0.56102145704E+03  0.56102145704E+03  0.00000000000E+00 0. -1.
         -2   -1    0    0    0  501 -0.00000000000E+00 -0.00000000000E+00 -0.33343134318E+02  0.33343134318E+02  0.00000000000E+00 0.  1.
         23    2    1    2    0    0 -0.22770427112E+01 -0.62356054831E+02  0.13352711946E+03  0.17615892678E+03  0.96483228361E+02 0.  0.
         23    2    1    2    0    0  0.22770427112E+01  0.62356054831E+02  0.39415120327E+03  0.41820566458E+03  0.12508934549E+03 0.  0.
          5    1    4    4  502    0  0.43494110026E+02 -0.14181949783E+02  0.80307230975E+02  0.92518047178E+02  0.41800000000E+01 0.  1.
         -5    1    4    4    0  502 -0.41217067315E+02  0.76538004614E+02  0.31384397229E+03  0.32568761741E+03  0.41800000000E+01 0.  1.
        -11    1    3    3    0    0  0.29270705309E+02  0.12016705243E+02  0.55252968783E+02  0.63671547441E+02  0.00000000000E+00 0. -1.
         11    1    3    3    0    0 -0.31547748020E+02 -0.74372760074E+02  0.78274150675E+02  0.11248737934E+03  0.00000000000E+00 0.  1.
</event>
<event>
 8    1  0.8061721E-006  0.1178951E+03  0.7561462E-02  0.1246610E+00
         -2   -1    0    0    0  501 -0.00000000000E+00  0.00000000000E+00  0.47076684437E+03  0.47076684437E+03  0.00000000000E+00 0.  1.
          2   -1    0    0  501    0  0.00000000000E+00 -0.00000000000E+00 -0.54350860376E+02  0.54350860376E+02  0.00000000000E+00 0. -1.
         23    2    1    2    0    0  0.83419317900E+02 -0.63118081776E+02  0.11280874549E+03  0.18049173850E+03  0.94386332499E+02 0.  0.
         23    2    1    2    0    0 -0.83419317900E+02  0.63118081776E+02  0.30360723850E+03  0.34462596624E+03  0.12508807494E+03 0.  0.
          5    1    4    4  502    0 -0.13934906962E+01  0.16940010285E+02  0.21361589261E+03  0.21433181691E+03  0.41800000000E+01 0. -1.
         -5    1    4    4    0  502 -0.82025827203E+02  0.46178071491E+02  0.89991345890E+02  0.13029414933E+03  0.41800000000E+01 0. -1.
        -11    1    3    3    0    0  0.92022804433E+02 -0.41794813568E+02  0.48319186487E+02  0.11202565224E+03  0.00000000000E+00 0. -1.
         11    1    3    3    0    0 -0.86034865329E+01 -0.21323268208E+02  0.64489559008E+02  0.68466086266E+02  0.00000000000E+00 0.  1.
</event>
<event>
 8    1  0.8061721E-006  0.1343120E+03  0.7561462E-02  0.1221194E+00
          2   -1    0    0  501    0  0.00000000000E+00  0.00000000000E+00  0.36702134237E+03  0.36702134237E+03  0.00000000000E+00 0. -1.
         -2   -1    0    0    0  501 -0.00000000000E+00 -0.00000000000E+00 -0.66783347820E+02  0.66783347820E+02  0.00000000000E+00 0.  1.
         23    2    1    2    0    0  0.11238836491E+03  0.35477225606E+01  0.16877559759E+03  0.22033231185E+03  0.86124296228E+02 0.  0.
         23    2    1    2    0    0 -0.11238836491E+03 -0.35477225606E+01  0.13146239696E+03  0.21347237834E+03  0.12507743041E+03 0.  0.
          5    1    4    4  502    0 -0.23041745700E+02 -0.32416345295E+02 -0.12188362164E+02  0.41806339943E+02  0.41800000000E+01 0.  1.
         -5    1    4    4    0  502 -0.89346619207E+02  0.28868622735E+02  0.14365075912E+03  0.17166603839E+03  0.41800000000E+01 0.  1.
        -11    1    3    3    0    0  0.79669328340E+02  0.37009789037E+02  0.74918773359E+02  0.11545453202E+03  0.00000000000E+00 0. -1.
         11    1    3    3    0    0  0.32719036568E+02 -0.33462066476E+02  0.93856824231E+02  0.10487777983E+03  0.00000000000E+00 0.  1.
</event>
<event>
 8    1  0.8061721E-006  0.1033759E+03  0.7561462E-02  0.1273353E+00
          4   -1    0    0  501    0  0.00000000000E+00  0.00000000000E+00  0.43160801723E+02  0.43160801723E+02  0.00000000000E+00 0. -1.
         -4   -1    0    0    0  501 -0.00000000000E+00 -0.00000000000E+00 -0.39752270522E+03  0.39752270522E+03  0.00000000000E+00 0.  1.
         23    2    1    2    0    0 -0.66437011368E+02  0.26732371714E+02 -0.17979749291E+03  0.21430270781E+03  0.92032689529E+02 0.  0.
         23    2    1    2    0    0  0.66437011368E+02 -0.26732371714E+02 -0.17456441058E+03  0.22638079913E+03  0.12508811532E+03 0.  0.
          5    1    4    4  502    0  0.52433216553E+02  0.33174215093E+02 -0.29652800989E+02  0.68895077848E+02  0.41800000000E+01 0. -1.
         -5    1    4    4    0  502  0.14003794815E+02 -0.59906586807E+02 -0.14491160960E+03  0.15748572128E+03  0.41800000000E+01 0. -1.
        -11    1    3    3    0    0 -0.62147907184E+02  0.68070545886E+01 -0.18325826182E+03  0.19362925627E+03  0.00000000000E+00 0.  1.
         11    1    3    3    0    0 -0.42891041843E+01  0.19925317125E+02  0.34607689065E+01  0.20673451542E+02  0.00000000000E+00 0. -1.
</event>
<event>
 8    1  0.8061721E-006  0.9486166E+02  0.7561462E-02  0.1291488E+00
          2   -1    0    0  501    0  0.00000000000E+00  0.00000000000E+00  0.10303776249E+03  0.10303776249E+03  0.00000000000E+00 0. -1.
         -2   -1    0    0    0  501 -0.00000000000E+00 -0.00000000000E+00 -0.11801991243E+03  0.11801991243E+03  0.00000000000E+00 0.  1.
         23    2    1    2    0    0 -0.23096466084E+02  0.38157474280E+02 -0.16102366406E+02  0.99714025063E+02  0.87716366782E+02 0.  0.
         23    2    1    2    0    0  0.23096466084E+02 -0.38157474280E+02  0.11202164660E+01  0.12134364987E+03  0.11284319602E+03 0.  0.
          5    1    4    4  502    0 -0.27273445261E+02 -0.29065608031E+02  0.40235520598E+02  0.56789258706E+02  0.41800000000E+01 0. -1.
         -5    1    4    4    0  502  0.50369911345E+02 -0.90918662490E+01 -0.39115304132E+02  0.64554391160E+02  0.41800000000E+01 0.  1.
        -11    1    3    3    0    0 -0.34676391101E+02  0.62421716951E+02 -0.13817000282E+02  0.72731233619E+02  0.00000000000E+00 0. -1.
         11    1    3    3    0    0  0.11579925017E+02 -0.24264242672E+02 -0.22853661241E+01  0.26982791445E+02  0.00000000000E+00 0.  1.
</event>
<event>
 8    1  0.8061721E-006  0.3599015E+03  0.7561462E-02  0.1058623E+00
          1   -1    0    0  501    0  0.00000000000E+00  0.00000000000E+00  0.34490400167E+03  0.34490400167E+03  0.00000000000E+00 0. -1.
         -1   -1    0    0    0  501 -0.00000000000E+00 -0.00000000000E+00 -0.58499108850E+03  0.58499108850E+03  0.00000000000E+00 0.  1.
         23    2    1    2    0    0  0.35016448524E+03 -0.46971560571E+02 -0.38598987530E+03  0.53077702016E+03  0.88963852602E+02 0.  0.
         23    2    1    2    0    0 -0.35016448524E+03  0.46971560571E+02  0.14590278847E+03  0.39911807001E+03  0.11483081423E+03 0.  0.
          5    1    4    4  502    0 -0.14307811792E+03  0.67690989467E+02  0.95614249942E+02  0.18496749735E+03  0.41800000000E+01 0. -1.
         -5    1    4    4    0  502 -0.20708636732E+03 -0.20719428896E+02  0.50288538525E+02  0.21415057266E+03  0.41800000000E+01 0.  1.
        -11    1    3    3    0    0  0.12820101749E+03 -0.16611626904E+02 -0.20688663317E+03  0.24395394241E+03  0.00000000000E+00 0. -1.
         11    1    3    3    0    0  0.22196346775E+03 -0.30359933668E+02 -0.17910324214E+03  0.28682307775E+03  0.00000000000E+00 0.  1.
</event>
<event>
 7    1  0.8061721E-006  0.1024798E+03  0.7561462E-02  0.1275166E+00
         -2   -1    0    0    0  501 -0.00000000000E+00  0.00000000000E+00  0.42295317424E+02  0.42295317424E+02  0.00000000000E+00 0.  1.
          2   -1    0    0  501    0  0.00000000000E+00 -0.00000000000E+00 -0.25504091828E+03  0.25504091828E+03  0.00000000000E+00 0. -1.
         23    2    1    2    0    0 -0.32789347107E+02 -0.53246958602E+02 -0.15802981100E+03  0.21102362827E+03  0.12508865112E+03 0.  0.
          5    1    3    3  502    0 -0.74132991993E+02 -0.46435281325E+01 -0.10025899630E+03  0.12484631190E+03  0.41800000000E+01 0. -1.
         -5    1    3    3    0  502  0.41343644886E+02 -0.48603430470E+02 -0.57770814698E+02  0.86177316370E+02  0.41800000000E+01 0. -1.
        -11    1    1    2    0    0  0.13227586133E+02  0.42043606354E+02 -0.38766413725E+02  0.58698114990E+02  0.00000000000E+00 0.  1.
         11    1    1    2    0    0  0.19561760974E+02  0.11203352248E+02 -0.15949376127E+02  0.27614492442E+02  0.00000000000E+00 0. -1.
</event>
<event>
 8    1  0.8061721E-006  0.1535853E+03  0.7561462E-02  0.1196135E+00
         -2   -1    0    0    0  501 -0.00000000000E+00  0.00000000000E+00  0.76267385750E+02  0.76267385750E+02  0.00000000000E+00 0. -1.
          2   -1    0    0  501    0  0.00000000000E+00 -0.00000000000E+00 -0.39032693180E+03  0.39032693180E+03  0.00000000000E+00 0.  1.
         23    2    1    2    0    0 -0.83488063884E+02  0.74094807009E+02 -0.46130745131E+02  0.15053512772E+03  0.89846991022E+02 0.  0.
         23    2    1    2    0    0  0.83488063884E+02 -0.74094807009E+02 -0.26792880092E+03  0.31605918982E+03  0.12508905577E+03 0.  0.
          5    1    4    4  502    0 -0.60179579484E+00 -0.79578283029E+02 -0.16282237420E+03  0.18127786193E+03  0.41800000000E+01 0.  1.
         -5    1    4    4    0  502  0.84089859679E+02  0.54834760194E+01 -0.10510642672E+03  0.13478132789E+03  0.41800000000E+01 0.  1.
        -11    1    3    3    0    0 -0.46285768131E+02 -0.13271683682E+02 -0.11933959026E+02  0.49607754406E+02  0.00000000000E+00 0. -1.
         11    1    3    3    0    0 -0.37202295753E+02  0.87366490691E+02 -0.34196786105E+02  0.10092737332E+03  0.00000000000E+00 0.  1.
</event>
<event>
 8    1  0.8061721E-006  0.1604856E+03  0.7561462E-02  0.1188150E+00
          2   -1    0    0  501    0  0.00000000000E+00  0.00000000000E+00  0.23532580372E+04  0.23532580372E+04  0.00000000000E+00 0. -1.
         -2   -1    0    0    0  501 -0.00000000000E+00 -0.00000000000E+00 -0.15804723419E+02  0.15804723419E+02  0.00000000000E+00 0.  1.
         23    2    1    2    0    0  0.10586620056E+03  0.56013331821E+02  0.45431822379E+03  0.47798086434E+03  0.87837989771E+02 0.  0.
         23    2    1    2    0    0 -0.10586620056E+03 -0.56013331821E+02  0.18831350899E+04  0.18910818962E+04  0.12509126868E+03 0.  0.
          5    1    4    4  502    0 -0.47687158240E+02 -0.92274779532E+02  0.10589725025E+04  0.10640624669E+04  0.41800000000E+01 0.  1.
         -5    1    4    4    0  502 -0.58179042323E+02  0.36261447712E+02  0.82416258748E+03  0.82701942937E+03  0.41800000000E+01 0.  1.
        -11    1    3    3    0    0  0.11810805798E+03  0.33593792602E+02  0.38486975382E+03  0.40398364282E+03  0.00000000000E+00 0.  1.
         11    1    3    3    0    0 -0.12241857418E+02  0.22419539218E+02  0.69448469969E+02  0.73997221522E+02  0.00000000000E+00 0. -1.
</event>
<event>
 8    1  0.8061721E-006  0.8632914E+02  0.7561462E-02  0.1311993E+00
         -1   -1    0    0    0  501 -0.00000000000E+00  0.00000000000E+00  0.53422607730E+02  0.53422607730E+02  0.00000000000E+00 0.  1.
          1   -1    0    0  501    0  0.00000000000E+00 -0.00000000000E+00 -0.40601020844E+03  0.40601020844E+03  0.00000000000E+00 0. -1.
         23    2    1    2    0    0  0.43173394900E+02 -0.70057267978E+02 -0.76304774488E+02  0.14518522173E+03  0.92110624664E+02 0.  0.
         23    2    1    2    0    0 -0.43173394900E+02  0.70057267978E+02 -0.27628282622E+03  0.31424759444E+03  0.12508951883E+03 0.  0.
          5    1    4    4  502    0  0.52972856852E+01  0.16959603131E+02  0.87615767280E+01  0.20246654063E+02  0.41800000000E+01 0. -1.
         -5    1    4    4    0  502 -0.48470680585E+02  0.53097664847E+02 -0.28504440295E+03  0.29400094038E+03  0.41800000000E+01 0. -1.
        -11    1    3    3    0    0  0.24891061479E+02 -0.44117980539E+02  0.11394278186E+02  0.51921004649E+02  0.00000000000E+00 0.  1.
         11    1    3    3    0    0  0.18282333421E+02 -0.25939287439E+02 -0.87699052674E+02  0.93264217083E+02  0.00000000000E+00 0. -1.
</event>
<event>
 7    1  0.8061721E-006  0.4235208E+03  0.7561462E-02  0.1035926E+00
         -1   -1    0    0    0  501 -0.00000000000E+00  0.00000000000E+00  0.11429875564E+03  0.11429875564E+03  0.00000000000E+00 0.  1.
          1   -1    0    0  501    0  0.00000000000E+00 -0.00000000000E+00 -0.20857874414E+04  0.20857874414E+04  0.00000000000E+00 0. -1.
         23    2    1    2    0    0 -0.22392885629E+03  0.22407334915E+03 -0.34541848407E+03  0.47836993070E+03  0.95764622830E+02 0.  0.
          5    1    1    2  502    0 -0.19388359852E+02 -0.26848010246E+03 -0.11927891311E+04  0.12227922381E+04  0.41800000000E+01 0. -1.
         -5    1    1    2    0  502  0.24331721614E+03  0.44406753313E+02 -0.43328107059E+03  0.49892402823E+03  0.41800000000E+01 0.  1.
        -11    1    3    3    0    0 -0.85341563247E+01  0.57603085997E+02 -0.71076660740E+02  0.91884922824E+02  0.00000000000E+00 0.  1.
         11    1    3    3    0    0 -0.21539469997E+03  0.16647026315E+03 -0.27434182333E+03  0.38648500788E+03  0.00000000000E+00 0. -1.
</event>
<event>
 8    1  0.8061721E-006  0.1697812E+03  0.7561462E-02  0.1178076E+00
         -1   -1    0    0    0  501 -0.00000000000E+00  0.00000000000E+00  0.45161485266E+02  0.45161485266E+02  0.00000000000E+00 0.  1.
          1   -1    0    0  501    0  0.00000000000E+00 -0.00000000000E+00 -0.95303432006E+03  0.95303432006E+03  0.00000000000E+00 0. -1.
         23    2    1    2    0    0  0.13143569199E+03 -0.79766313826E+02 -0.22938969144E+03  0.29135432191E+03  0.92896202309E+02 0.  0.
         23    2    1    2    0    0 -0.13143569199E+03  0.79766313826E+02 -0.67848314336E+03  0.70684148342E+03  0.12508997130E+03 0.  0.
          5    1    4    4  502    0 -0.11868616288E+03  0.45132388175E+02 -0.29027002570E+03  0.31685564212E+03  0.41800000000E+01 0.  1.
         -5    1    4    4    0  502 -0.12749529106E+02  0.34633925650E+02 -0.38821311765E+03  0.38998584130E+03  0.41800000000E+01 0.  1.
        -11    1    3    3    0    0  0.14073694145E+03 -0.85282351419E+02 -0.22684094680E+03  0.28024414587E+03  0.00000000000E+00 0. -1.
         11    1    3    3    0    0 -0.93012494594E+01  0.55160375932E+01 -0.25487446452E+01  0.11110176034E+02  0.00000000000E+00 0.  1.
</event>
<event>
 8    1  0.8061721E-006  0.8934448E+02  0.7561462E-02  0.1304447E+00
         -1   -1    0    0    0  501 -0.00000000000E+00  0.00000000000E+00  0.15843340855E+03  0.15843340855E+03  0.00000000000E+00 0.  1.
          1   -1    0    0  501    0  0.00000000000E+00 -0.00000000000E+00 -0.11726094230E+03  0.11726094230E+03  0.00000000000E+00 0. -1.
         23    2    1    2    0    0  0.47798042944E+02  0.29127018460E+02  0.81800058237E+02  0.13275567804E+03  0.88316388114E+02 0.  0.
         23    2    1    2    0    0 -0.47798042944E+02 -0.29127018460E+02 -0.40627591980E+02  0.14293867282E+03  0.12509127405E+03 0.  0.
          5    1    4    4  502    0 -0.62727144158E+02 -0.10019099200E+02  0.28362363557E+02  0.69691986839E+02  0.41800000000E+01 0.  1.
         -5    1    4    4    0  502  0.14929101215E+02 -0.19107919260E+02 -0.68989955537E+02  0.73246685976E+02  0.41800000000E+01 0.  1.
        -11    1    3    3    0    0  0.14077818792E+02 -0.23808951383E+02  0.60420522202E+02  0.66450663285E+02  0.00000000000E+00 0.  1.
         11    1    3    3    0    0  0.33720224152E+02  0.52935969843E+02  0.21379536036E+02  0.66305014751E+02  0.00000000000E+00 0. -1.
</event>
<event>
 7    1  0.8061721E-006  0.1959896E+03  0.7561462E-02  0.1153167E+00
          1   -1    0    0  501    0  0.00000000000E+00  0.00000000000E+00  0.11184288805E+04  0.11184288805E+04  0.00000000000E+00 0. -1.
         -1   -1    0    0    0  501 -0.00000000000E+00 -0.00000000000E+00 -0.48716137897E+02  0.48716137897E+02  0.00000000000E+00 0.  1.
         23    2    1    2    0    0  0.14890904967E+03 -0.10401301748E+03  0.30775792636E+03  0.36887626560E+03  0.91444765865E+02 0.  0.
          5    1    1    2  502    0 -0.42196222645E+02  0.11530636898E+01  0.45919866876E+03  0.46115370599E+03  0.41800000000E+01 0. -1.
         -5    1    1    2    0  502 -0.10671282703E+03  0.10285995379E+03  0.30275614753E+03  0.33711504685E+03  0.41800000000E+01 0.  1.
        -11    1    3    3    0    0  0.11502835869E+03 -0.11785650158E+03  0.22941380426E+03  0.28240462435E+03  0.00000000000E+00 0.  1.
         11    1    3    3    0    0  0.33880690986E+02  0.13843484095E+02  0.78344122094E+02  0.86471641249E+02  0.00000000000E+00 0. -1.
</event>
<event>
 8    1  0.8061721E-006  0.1869593E+03  0.7561462E-02  0.1161233E+00
         -2   -1    0    0    0  501 -0.00000000000E+00  0.00000000000E+00  0.90921113641E+02  0.90921113641E+02  0.00000000000E+00 0. -1.
          2   -1    0    0  501    0  0.00000000000E+00 -0.00000000000E+00 -0.70039383439E+03  0.70039383439E+03  0.00000000000E+00 0.  1.
         23    2    1    2    0    0 -0.16770880936E+03 -0.72123547491E+02 -0.85203843570E+02  0.22225153809E+03  0.93850947695E+02 0.  0.
         23    2    1    2    0    0  0.16770880936E+03  0.72123547491E+02 -0.52426887718E+03  0.56906340994E+03  0.12508900078E+03 0.  0.
          5    1    4    4  502    0  0.17030477547E+03  0.64761485713E+02 -0.35034029375E+03  0.39490955977E+03  0.41800000000E+01 0. -1.
         -5    1    4    4    0  502 -0.25959661053E+01  0.73620617783E+01 -0.17392858343E+03  0.17415385017E+03  0.41800000000E+01 0. -1.
        -11    1    3    3    0    0 -0.75669638838E+02 -0.37763838877E+02  0.10352909961E+02  0.85200848078E+02  0.00000000000E+00 0. -1.
         11    1    3    3    0    0 -0.92039170524E+02 -0.34359708614E+02 -0.95556753532E+02  0.13705069001E+03  0.00000000000E+00 0.  1.
</event>
<event>
 7    1  0.8061721E-006  0.2007515E+03  0.7561462E-02  0.1149107E+00
         -2   -1    0    0    0  501 -0.00000000000E+00  0.00000000000E+00  0.34302894176E+02  0.34302894176E+02  0.00000000000E+00 0.  1.
          2   -1    0    0  501    0  0.00000000000E+00 -0.00000000000E+00 -0.18346589296E+04  0.18346589296E+04  0.00000000000E+00 0. -1.
         23    2    1    2    0    0 -0.55391954679E+02 -0.19255589742E+03 -0.10629515568E+04  0.10888797135E+04  0.12508787267E+03 0.  0.
          5    1    3    3  502    0 -0.46412996090E+02 -0.16531715989E+03 -0.10330693169E+04  0.10472505028E+04  0.41800000000E+01 0. -1.
         -5    1    3    3    0  502 -0.89789585892E+01 -0.27238737537E+02 -0.29882239914E+02  0.41629210685E+02  0.41800000000E+01 0. -1.
        -11    1    1    2    0    0  0.14150873494E+02  0.71055445541E+02 -0.71008715050E+02  0.10144634629E+03  0.00000000000E+00 0.  1.
         11    1    1    2    0    0  0.41241081185E+02  0.12150045188E+03 -0.66639576357E+03  0.67863576408E+03  0.00000000000E+00 0. -1.
</event>
<event>
 8    1  0.8061721E-006  0.1090945E+03  0.7561462E-02  0.1262256E+00
         -2   -1    0    0    0  501 -0.00000000000E+00  0.00000000000E+00  0.27486153333E+02  0.27486153333E+02  0.00000000000E+00 0.  1.
          2   -1    0    0  501    0  0.00000000000E+00 -0.00000000000E+00 -0.54161228180E+03  0.54161228180E+03  0.00000000000E+00 0. -1.
         23    2    1    2    0    0 -0.51103608392E+02 -0.20809607549E+02 -0.21897940669E+03  0.24382293688E+03  0.91940336289E+02 0.  0.
         23    2    1    2    0    0  0.51103608392E+02  0.20809607549E+02 -0.29514672178E+03  0.32527549825E+03  0.12509174166E+03 0.  0.
          5    1    4    4  502    0 -0.30578260166E+02 -0.12059380228E+01 -0.18612982348E+02  0.36061056463E+02  0.41800000000E+01 0. -1.
         -5    1    4    4    0  502  0.81681868558E+02  0.22015545572E+02 -0.27653373943E+03  0.28921444179E+03  0.41800000000E+01 0. -1.
        -11    1    3    3    0    0 -0.77773681453E+01 -0.49844405123E+02 -0.72410190786E+02  0.88250710519E+02  0.00000000000E+00 0.  1.
         11    1    3    3    0    0 -0.43326240247E+02  0.29034797574E+02 -0.14656921590E+03  0.15557222636E+03  0.00000000000E+00 0. -1.
</event>
<event>
 8    1  0.8061721E-006  0.1111227E+03  0.7561462E-02  0.1258505E+00
          1   -1    0    0  501    0  0.00000000000E+00  0.00000000000E+00  0.19007172324E+03  0.19007172324E+03  0.00000000000E+00 0. -1.
         -1   -1    0    0    0  501 -0.00000000000E+00 -0.00000000000E+00 -0.80459960068E+02  0.80459960068E+02  0.00000000000E+00 0.  1.
         23    2    1    2    0    0 -0.42497065056E+02 -0.21372242785E+02 -0.31482291489E+01  0.95531323224E+02  0.82786164727E+02 0.  0.
         23    2    1    2    0    0  0.42497065056E+02  0.21372242785E+02  0.11275999232E+03  0.17500036009E+03  0.12509011496E+03 0.  0.
          5    1    4    4  502    0 -0.32570200367E+02 -0.24401542412E+02  0.59210561614E+02  0.71969550719E+02  0.41800000000E+01 0. -1.
         -5    1    4    4    0  502  0.75067265423E+02  0.45773785197E+02  0.53549430708E+02  0.10303080937E+03  0.41800000000E+01 0. -1.
        -11    1    3    3    0    0 -0.60847113394E+02 -0.35236841698E+02  0.64522160303E+01  0.70609045546E+02  0.00000000000E+00 0. -1.
         11    1    3    3    0    0  0.18350048338E+02  0.13864598914E+02 -0.96004451792E+01  0.24922277678E+02  0.00000000000E+00 0.  1.
</event>
<event>
 8    1  0.8061721E-006  0.1996387E+03  0.7561462E-02  0.1150044E+00
         -1   -1    0    0    0  501 -0.00000000000E+00  0.00000000000E+00  0.90985945523E+02  0.90985945523E+02  0.00000000000E+00 0.  1.
          1   -1    0    0  501    0  0.00000000000E+00 -0.00000000000E+00 -0.54579222935E+03  0.54579222935E+03  0.00000000000E+00 0. -1.
         23    2    1    2    0    0  0.18375800791E+03  0.18424966605E+02 -0.13409222551E+03  0.24612317042E+03  0.92137968331E+02 0.  0.
         23    2    1    2    0    0 -0.18375800791E+03 -0.18424966605E+02 -0.32071405831E+03  0.39065500446E+03  0.12508932984E+03 0.  0.
          5    1    4    4  502    0 -0.16894065720E+03 -0.52684602873E+02 -0.29843816510E+03  0.34698620120E+03  0.41800000000E+01 0. -1.
         -5    1    4    4    0  502 -0.14817350706E+02  0.34259636268E+02 -0.22275893213E+02  0.43668803253E+02  0.41800000000E+01 0. -1.
        -11    1    3    3    0    0  0.10128277092E+03  0.11631941758E+02 -0.12729859772E+03  0.16309026560E+03  0.00000000000E+00 0. -1.
         11    1    3    3    0    0  0.82475236993E+02  0.67930248471E+01 -0.67936277985E+01  0.83032904817E+02  0.00000000000E+00 0.  1.
</event>
<event>
 8    1  0.8061721E-006  0.3001625E+03  0.7561462E-02  0.1085159E+00
         -2   -1    0    0    0  501 -0.00000000000E+00  0.00000000000E+00  0.54351094988E+03  0.54351094988E+03  0.00000000000E+00 0. -1.
          2   -1    0    0  501    0  0.00000000000E+00 -0.00000000000E+00 -0.32651064935E+03  0.32651064935E+03  0.00000000000E+00 0.  1.
         23    2    1    2    0    0  0.24492955340E+03 -0.16766994786E+03  0.39442615208E+03  0.50228377975E+03  0.92807911362E+02 0.  0.
         23    2    1    2    0    0 -0.24492955340E+03  0.16766994786E+03 -0.17742585155E+03  0.36773781948E+03  0.12508986184E+03 0.  0.
          5    1    4    4  502    0 -0.61330510227E+02  0.69406190403E+02  0.21348170628E+01  0.92739854404E+02  0.41800000000E+01 0. -1.
         -5    1    4    4    0  502 -0.18359904318E+03  0.98263757456E+02 -0.17956066861E+03  0.27499796508E+03  0.41800000000E+01 0. -1.
        -11    1    3    3    0    0  0.11220281640E+03 -0.53740994289E+02  0.23362422826E+03  0.26468442816E+03  0.00000000000E+00 0. -1.
         11    1    3    3    0    0  0.13272673700E+03 -0.11392895357E+03  0.16080192382E+03  0.23759935160E+03  0.00000000000E+00 0.  1.
</event>
<event>
 7    1  0.8061721E-006  0.1370422E+03  0.7561462E-02  0.1217365E+00
         -2   -1    0    0    0  501 -0.00000000000E+00  0.00000000000E+00  0.10057622247E+02  0.10057622247E+02  0.00000000000E+00 0.  1.
          2   -1    0    0  501    0  0.00000000000E+00 -0.00000000000E+00 -0.20097514854E+04  0.20097514854E+04  0.00000000000E+00 0. -1.
         23    2    1    2    0    0 -0.33425251394E+02  0.46733772853E+02 -0.58328266493E+03  0.59301054006E+03  0.90230485189E+02 0.  0.
          5    1    1    2  502    0  0.96525485863E+02 -0.35474476938E+02 -0.10246902150E+04  0.10298461618E+04  0.41800000000E+01 0. -1.
         -5    1    1    2    0  502 -0.63100234468E+02 -0.11259295915E+02 -0.39172098324E+03  0.39695240577E+03  0.41800000000E+01 0.  1.
        -11    1    3    3    0    0 -0.19917689328E+02 -0.26111883209E+02 -0.18695152124E+03  0.18981416198E+03  0.00000000000E+00 0. -1.
         11    1    3    3    0    0 -0.13507562067E+02  0.72845656063E+02 -0.39633114369E+03  0.40319637808E+03  0.00000000000E+00 0.  1.
</event>
<event>
 8    1  0.8061721E-006  0.1619680E+03  0.7561462E-02  0.1186493E+00
         -1   -1    0    0    0  501 -0.00000000000E+00  0.00000000000E+00  0.45849035276E+02  0.45849035276E+02  0.00000000000E+00 0.  1.
          1   -1    0    0  501    0  0.00000000000E+00 -0.00000000000E+00 -0.75853096216E+03  0.75853096216E+03  0.00000000000E+00 0. -1.
         23    2    1    2    0    0  0.13189542992E+02 -0.15069189236E+03 -0.34192972571E+03  0.38487261468E+03  0.91263255141E+02 0.  0.
         23    2    1    2    0    0 -0.13189542992E+02  0.15069189236E+03 -0.37075220118E+03  0.41950738276E+03  0.12508892455E+03 0.  0.
          5    1    4    4  502    0 -0.44144170329E+01  0.14924215149E+03 -0.20594891470E+03  0.25441134944E+03  0.41800000000E+01 0. -1.
         -5    1    4    4    0  502 -0.87751259589E+01  0.14497408726E+01 -0.16480328648E+03  0.16509603332E+03  0.41800000000E+01 0. -1.
        -11    1    3    3    0    0  0.39119050677E+02 -0.72744762357E+02 -0.24086818492E+03  0.25463617788E+03  0.00000000000E+00 0. -1.
         11    1    3    3    0    0 -0.25929507685E+02 -0.77947130002E+02 -0.10106154078E+03  0.13023643680E+03  0.00000000000E+00 0.  1.
</event>
<event>
 8    1  0.8061721E-006  0.8956486E+02  0.7561462E-02  0.1303909E+00
         -1   -1    0    0    0  501 -0.00000000000E+00  0.00000000000E+00  0.39967151970E+03  0.39967151970E+03  0.00000000000E+00 0.  1.
          1   -1    0    0  501    0  0.00000000000E+00 -0.00000000000E+00 -0.38472602375E+02  0.38472602375E+02  0.00000000000E+00 0. -1.
         23    2    1    2    0    0 -0.97126875180E+01 -0.52005129429E+02  0.21120439498E+03  0.23579729932E+03  0.90521821245E+02 0.  0.
         23    2    1    2    0    0  0.97126875180E+01  0.52005129429E+02  0.14999452235E+03  0.20234682276E+03  0.12508800966E+03 0.  0.
          5    1    4    4  502    0  0.58814427478E+02  0.70723306833E+01  0.33682295060E+02  0.68272425923E+02  0.41800000000E+01 0. -1.
         -5    1    4    4    0  502 -0.49101739960E+02  0.44932798746E+02  0.11631222729E+03  0.13407439684E+03  0.41800000000E+01 0. -1.
        -11    1    3    3    0    0 -0.45253320294E+01 -0.14403640715E+02 -0.52921505505E+01  0.15998448464E+02  0.00000000000E+00 0. -1.
         11    1    3    3    0    0 -0.51873554886E+01 -0.37601488714E+02  0.21649654553E+03  0.21979885085E+03  0.00000000000E+00 0.  1.
</event>
<event>
 8    1  0.8061721E-006  0.1258246E+03  0.7561462E-02  0.1233786E+00
          4   -1    0    0  501    0  0.00000000000E+00  0.00000000000E+00  0.12561808520E+04  0.12561808520E+04  0.00000000000E+00 0. -1.
         -4   -1    0    0    0  501 -0.00000000000E+00 -0.00000000000E+00 -0.18248193050E+02  0.18248193050E+02  0.00000000000E+00 0.  1.
         23    2    1    2    0    0  0.10407716809E+03  0.10704924426E+02  0.62706394730E+03  0.64216929733E+03  0.90694873646E+02 0.  0.
         23    2    1    2    0    0 -0.10407716809E+03 -0.10704924426E+02  0.61086871166E+03  0.63225974773E+03  0.12508058758E+03 0.  0.
          5    1    4    4  502    0 -0.62667418440E+02 -0.31527818484E+02  0.55551253371E+03  0.55994004695E+03  0.41800000000E+01 0. -1.
         -5    1    4    4    0  502 -0.41409749652E+02  0.20822894058E+02  0.55356177949E+02  0.72319700776E+02  0.41800000000E+01 0. -1.
        -11    1    3    3    0    0 -0.22222633913E+01  0.27176234502E+02  0.76974560054E+02  0.81661307066E+02  0.00000000000E+00 0.  1.
         11    1    3    3    0    0  0.10629943148E+03 -0.16471310077E+02  0.55008938724E+03  0.56050799026E+03  0.00000000000E+00 0. -1.
</event>
<event>
 8    1  0.8061721E-006  0.1265224E+03  0.7561462E-02  0.1232709E+00
         -2   -1    0    0    0  501 -0.00000000000E+00  0.00000000000E+00  0.92626559166E+02  0.92626559166E+02  0.00000000000E+00 0. -1.
          2   -1    0    0  501    0  0.00000000000E+00 -0.00000000000E+00 -0.27439927646E+03  0.27439927646E+03  0.00000000000E+00 0.  1.
         23    2    1    2    0    0 -0.66157425003E+02 -0.26346569030E+02  0.23772014932E+02  0.11609474984E+03  0.88554704352E+02 0.  0.
         23    2    1    2    0    0  0.66157425003E+02  0.26346569030E+02 -0.20554473223E+03  0.25093108579E+03  0.12508727468E+03 0.  0.
          5    1    4    4  502    0  0.80906500078E+02 -0.26612391807E+02 -0.96760519294E+02  0.12897345326E+03  0.41800000000E+01 0. -1.
         -5    1    4    4    0  502 -0.14749075075E+02  0.52958960837E+02 -0.10878421293E+03  0.12195763253E+03  0.41800000000E+01 0. -1.
        -11    1    3    3    0    0 -0.17175483921E+02  0.32084497747E+02  0.57028485536E+00  0.36396943119E+02  0.00000000000E+00 0.  1.
         11    1    3    3    0    0 -0.48981941082E+02 -0.58431066777E+02  0.23201730077E+02  0.79697806717E+02  0.00000000000E+00 0. -1.
</event>
<event>
 8    1  0.8061721E-006  0.1361903E+03  0.7561462E-02  0.1218549E+00
         -2   -1    0    0    0  501 -0.00000000000E+00  0.00000000000E+00  0.17747830495E+03  0.17747830495E+03  0.00000000000E+00 0.  1.
          2   -1    0    0  501    0  0.00000000000E+00 -0.00000000000E+00 -0.15287351757E+03  0.15287351757E+03  0.00000000000E+00 0. -1.
         23    2    1    2    0    0  0.11444591149E+03  0.41154526467E+02  0.31025543122E+02  0.15586513796E+03  0.92411012327E+02 0.  0.
         23    2    1    2    0    0 -0.11444591149E+03 -0.41154526467E+02 -0.64207557345E+01  0.17448668456E+03  0.12495125161E+03 0.  0.
          5    1    4    4  502    0 -0.43555611150E+01  0.26350351395E+01 -0.48305095649E+02  0.48752117784E+02  0.41800000000E+01 0. -1.
         -5    1    4    4    0  502 -0.11009035038E+03 -0.43789561606E+02  0.41884339914E+02  0.12573456678E+03  0.41800000000E+01 0. -1.
        -11    1    3    3    0    0  0.59579344301E+02 -0.22063476518E+02 -0.70155920704E+01  0.63919588512E+02  0.00000000000E+00 0. -1.
         11    1    3    3    0    0  0.54866567192E+02  0.63218002985E+02  0.38041135192E+02  0.91945549449E+02  0.00000000000E+00 0.  1.
</event>
<event>
 8    1  0.8061721E-006  0.1404950E+03  0.7561462E-02  0.1212664E+00
          1   -1    0    0  501    0  0.00000000000E+00  0.00000000000E+00  0.13728603814E+03  0.13728603814E+03  0.00000000000E+00 0. -1.
         -1   -1    0    0    0  501 -0.00000000000E+00 -0.00000000000E+00 -0.20672043722E+03  0.20672043722E+03  0.00000000000E+00 0.  1.
         23    2    1    2    0    0  0.11243602216E+03  0.61587404734E+02 -0.24032095370E+02  0.15922507580E+03  0.91324781163E+02 0.  0.
         23    2    1    2    0    0 -0.11243602216E+03 -0.61587404734E+02 -0.45402303710E+02  0.18478139955E+03  0.12509168212E+03 0.  0.
          5    1    4    4  502    0 -0.58440919059E+02 -0.18513247210E+02 -0.85131079078E+02  0.10498978221E+03  0.41800000000E+01 0.  1.
         -5    1    4    4    0  502 -0.53995103105E+02 -0.43074157524E+02  0.39728775368E+02  0.79791617342E+02  0.41800000000E+01 0.  1.
        -11    1    3    3    0    0  0.40423479351E+02  0.66872102090E+02 -0.35998765575E+02  0.86033986562E+02  0.00000000000E+00 0.  1.
         11    1    3    3    0    0  0.72012542813E+02 -0.52846973556E+01  0.11966670204E+02  0.73191089242E+02  0.00000000000E+00 0. -1.
</event>
<event>
 8    1  0.8061721E-006  0.1080346E+03  0.7561462E-02  0.1264253E+00
         -2   -1    0    0    0  501 -0.00000000000E+00  0.00000000000E+00  0.44299369668E+02  0.44299369668E+02  0.00000000000E+00 0.  1.
          2   -1    0    0  501    0  0.00000000000E+00 -0.00000000000E+00 -0.37666871470E+03  0.37666871470E+03  0.00000000000E+00 0. -1.
         23    2    1    2    0    0 -0.64104837201E+02 -0.12718016594E+02 -0.10304592833E+03  0.15169597346E+03  0.90122288694E+02 0.  0.
         23    2    1    2    0    0  0.64104837201E+02  0.12718016594E+02 -0.22932341670E+03  0.26927211091E+03  0.12508821754E+03 0.  0.
          5    1    4    4  502    0  0.10109686490E+03  0.70668727519E+01 -0.18611239495E+03  0.21195710117E+03  0.41800000000E+01 0. -1.
         -5    1    4    4    0  502 -0.36992027702E+02  0.56511438418E+01 -0.43211021754E+02  0.57315009738E+02  0.41800000000E+01 0. -1.
        -11    1    3    3    0    0 -0.23479843933E+02  0.14948411027E+02  0.90736760047E+01  0.29276093653E+02  0.00000000000E+00 0.  1.
         11    1    3    3    0    0 -0.40624993269E+02 -0.27666427621E+02 -0.11211960434E+03  0.12241987981E+03  0.00000000000E+00 0. -1.
</event>
<event>
 8    1  0.8061721E-006  0.1002308E+03  0.7561462E-02  0.1279811E+00
          1   -1    0    0  501    0  0.00000000000E+00  0.00000000000E+00  0.40755635913E+03  0.40755635913E+03  0.00000000000E+00 0. -1.
         -1   -1    0    0    0  501 -0.00000000000E+00 -0.00000000000E+00 -0.40041227334E+02  0.40041227334E+02  0.00000000000E+00 0.  1.
         23    2    1    2    0    0 -0.47240321208E+02  0.46589201614E+02  0.15730842957E+03  0.19414832802E+03  0.92441492865E+02 0.  0.
         23    2    1    2    0    0  0.47240321208E+02 -0.46589201614E+02  0.21020670223E+03  0.25344925845E+03  0.12508983689E+03 0.  0.
          5    1    4    4  502    0 -0.20193921377E+02 -0.25076611025E+02  0.92282411579E+00  0.32480069049E+02  0.41800000000E+01 0.  1.
         -5    1    4    4    0  502  0.67434242585E+02 -0.21512590589E+02  0.20928387811E+03  0.22096918940E+03  0.41800000000E+01 0.  1.
        -11    1    3    3    0    0 -0.22991740114E+02  0.63494444775E+02  0.53324698257E+02  0.86044686500E+02  0.00000000000E+00 0.  1.
         11    1    3    3    0    0 -0.24248581093E+02 -0.16905243161E+02  0.10398373131E+03  0.10810364152E+03  0.00000000000E+00 0. -1.
</event>
<event>
 8    1  0.8061721E-006  0.8326120E+02  0.7561462E-02  0.1320043E+00
         -2   -1    0    0    0  501 -0.00000000000E+00  0.00000000000E+00  0.25874690622E+02  0.25874690622E+02  0.00000000000E+00 0.  1.
          2   -1    0    0  501    0  0.00000000000E+00 -0.00000000000E+00 -0.54117411200E+03  0.54117411200E+03  0.00000000000E+00 0. -1.
         23    2    1    2    0    0  0.10802557019E+02 -0.59505899321E+01 -0.10008121984E+03  0.13322161037E+03  0.87061140271E+02 0.  0.
         23    2    1    2    0    0 -0.10802557019E+02  0.59505899321E+01 -0.41521820154E+03  0.43382719226E+03  0.12509105921E+03 0.  0.
          5    1    4    4  502    0 -0.51520772429E+02 -0.22456768671E+02 -0.10079374582E+03  0.11547964343E+03  0.41800000000E+01 0. -1.
         -5    1    4    4    0  502  0.40718215410E+02  0.28407358603E+02 -0.31442445572E+03  0.31834754882E+03  0.41800000000E+01 0. -1.
        -11    1    3    3    0    0  0.35159779482E+02 -0.74396940326E+01 -0.10257817594E+03  0.10869149608E+03  0.00000000000E+00 0. -1.
         11    1    3    3    0    0 -0.24357222463E+02  0.14891041005E+01  0.24969561018E+01  0.24530114287E+02  0.00000000000E+00 0.  1.
</event>
<event>
 7    1  0.8061721E-006  0.2761205E+03  0.7561462E-02  0.1097827E+00
         -2   -1    0    0    0  501 -0.00000000000E+00  0.00000000000E+00  0.47571901955E+03  0.47571901955E+03  0.00000000000E+00 0.  1.
          2   -1    0    0  501    0  0.00000000000E+00 -0.00000000000E+00 -0.25958919137E+03  0.25958919137E+03  0.00000000000E+00 0. -1.
         23    2    1    2    0    0  0.15075950659E+03 -0.40971803858E+02  0.21312314939E+03  0.27778504310E+03  0.85650077796E+02 0.  0.
          5    1    1    2  502    0 -0.14093643000E+03 -0.13654276147E+03 -0.13002320005E+03  0.23543684495E+03  0.41800000000E+01 0. -1.
         -5    1    1    2    0  502 -0.98230765967E+01  0.17751456533E+03  0.13302987884E+03  0.22208632286E+03  0.41800000000E+01 0.  1.
        -11    1    3    3    0    0  0.10188816202E+03 -0.67793815503E+02  0.14379862975E+03  0.18882596457E+03  0.00000000000E+00 0. -1.
         11    1    3    3    0    0  0.48871344570E+02  0.26822011645E+02  0.69324519645E+02  0.88959078530E+02  0.00000000000E+00 0.  1.
</event>
<event>
 8    1  0.8061721E-006  0.1125603E+03  0.7561462E-02  0.1255901E+00
          2   -1    0    0  501    0  0.00000000000E+00  0.00000000000E+00  0.53077554368E+03  0.53077554368E+03  0.00000000000E+00 0. -1.
         -2   -1    0    0    0  501 -0.00000000000E+00 -0.00000000000E+00 -0.34191962973E+02  0.34191962973E+02  0.00000000000E+00 0.  1.
         23    2    1    2    0    0 -0.61333102909E+02  0.43458823715E+02  0.19743943422E+03  0.23212282794E+03  0.96167864668E+02 0.  0.
         23    2    1    2    0    0  0.61333102909E+02 -0.43458823715E+02  0.29914414648E+03  0.33284467871E+03  0.12509172994E+03 0.  0.
          5    1    4    4  502    0 -0.13541851021E+02  0.20366277053E+02  0.89165483152E+01  0.26365587494E+02  0.41800000000E+01 0.  1.
         -5    1    4    4    0  502  0.74874953930E+02 -0.63825100767E+02  0.29022759816E+03  0.30647909121E+03  0.41800000000E+01 0.  1.
        -11    1    3    3    0    0 -0.68503228002E+02  0.55267629579E+02  0.19959482307E+03  0.21814054305E+03  0.00000000000E+00 0. -1.
         11    1    3    3    0    0  0.71701250925E+01 -0.11808805864E+02 -0.21553888459E+01  0.13982284894E+02  0.00000000000E+00 0.  1.
</event>
<event>
 8    1  0.8061721E-006  0.7774657E+02  0.7561462E-02  0.1335571E+00
          2   -1    0    0  501    0  0.00000000000E+00  0.00000000000E+00  0.46795700987E+03  0.46795700987E+03  0.00000000000E+00 0. -1.
         -2   -1    0    0    0  501 -0.00000000000E+00 -0.00000000000E+00 -0.54446604533E+02  0.54446604533E+02  0.00000000000E+00 0.  1.
         23    2    1    2    0    0  0.71701737170E+01  0.55556764009E+02  0.24345352067E+02  0.10980767017E+03  0.91252741557E+02 0.  0.
         23    2    1    2    0    0 -0.71701737170E+01 -0.55556764009E+02  0.38916505327E+03  0.41259594423E+03  0.12509200252E+03 0.  0.
          5    1    4    4  502    0  0.10077477390E+02 -0.58174667189E+02  0.64907283086E+02  0.87842331769E+02  0.41800000000E+01 0. -1.
         -5    1    4    4    0  502 -0.17247651108E+02  0.26179031795E+01  0.32425777018E+03  0.32475361246E+03  0.41800000000E+01 0. -1.
        -11    1    3    3    0    0  0.31073070342E+02  0.35352771880E+02 -0.23520922821E+02  0.52617373465E+02  0.00000000000E+00 0.  1.
         11    1    3    3    0    0 -0.23902896625E+02  0.20203992129E+02  0.47866274887E+02  0.57190296700E+02  0.00000000000E+00 0. -1.
</event>
<event>
 8    1  0.8061721E-006  0.1200317E+03  0.7561462E-02  0.1243045E+00
         -1   -1    0    0    0  501 -0.00000000000E+00  0.00000000000E+00  0.27570752631E+02  0.27570752631E+02  0.00000000000E+00 0.  1.
          1   -1    0    0  501    0  0.00000000000E+00 -0.00000000000E+00 -0.79642124990E+03  0.79642124990E+03  0.00000000000E+00 0. -1.
         23    2    1    2    0    0 -0.67301806492E+02  0.19754980565E+02 -0.15648281446E+03  0.19505559442E+03  0.92951714773E+02 0.  0.
         23    2    1    2    0    0  0.67301806492E+02 -0.19754980565E+02 -0.61236768281E+03  0.62893640811E+03  0.12508810529E+03 0.  0.
          5    1    4    4  502    0 -0.12789801467E+02  0.28381875345E+02 -0.32973425605E+03  0.33122690392E+03  0.41800000000E+01 0. -1.
         -5    1    4    4    0  502  0.80091607959E+02 -0.48136855910E+02 -0.28263342677E+03  0.29770950419E+03  0.41800000000E+01 0. -1.
        -11    1    3    3    0    0  0.22103852249E+02 -0.43274367053E+01 -0.19956560379E+02  0.30092711656E+02  0.00000000000E+00 0.  1.
         11    1    3    3    0    0 -0.89405658741E+02  0.24082417270E+02 -0.13652625408E+03  0.16496288276E+03  0.00000000000E+00 0. -1.
</event>
<event>
 8    1  0.8061721E-006  0.1143487E+03  0.7561462E-02  0.1252722E+00
          2   -1    0    0  501    0  0.00000000000E+00  0.00000000000E+00  0.13732464785E+04  0.13732464785E+04  0.00000000000E+00 0. -1.
         -2   -1    0    0    0  501 -0.00000000000E+00 -0.00000000000E+00 -0.15651376864E+02  0.15651376864E+02  0.00000000000E+00 0.  1.
         23    2    1    2    0    0 -0.67849062609E+02 -0.71223347245E+02  0.57879161670E+03  0.59400253411E+03  0.90349402237E+02 0.  0.
         23    2    1    2    0    0  0.67849062609E+02  0.71223347245E+02  0.77880348492E+03  0.79489532123E+03  0.12508974019E+03 0.  0.
          5    1    4    4  502    0  0.60884633945E+02  0.51533932980E+02  0.19529618080E+03  0.21099942070E+03  0.41800000000E+01 0.  1.
         -5    1    4    4    0  502  0.69644286641E+01  0.19689414266E+02  0.58350730411E+03  0.58389590053E+03  0.41800000000E+01 0.  1.
        -11    1    3    3    0    0 -0.22825939451E+02 -0.78646064057E+02  0.44940557969E+03  0.45680586900E+03  0.00000000000E+00 0. -1.
         11    1    3    3    0    0 -0.45023123158E+02  0.74227168119E+01  0.12938603701E+03  0.13719666511E+03  0.00000000000E+00 0.  1.
</event>
<event>
 8    1  0.8061721E-006  0.1288571E+03  0.7561462E-02  0.1229161E+00
          2   -1    0    0  501    0  0.00000000000E+00  0.00000000000E+00  0.22301412875E+03  0.22301412875E+03  0.00000000000E+00 0. -1.
         -2   -1    0    0    0  501 -0.00000000000E+00 -0.00000000000E+00 -0.83615939616E+02  0.83615939616E+02  0.00000000000E+00 0.  1.
         23    2    1    2    0    0  0.69450374909E+02  0.38345044919E+02  0.34630941762E+02  0.12520002234E+03  0.90454665003E+02 0.  0.
         23    2    1    2    0    0 -0.69450374909E+02 -0.38345044919E+02  0.10476724737E+03  0.18143004603E+03  0.12508792282E+03 0.  0.
          5    1    4    4  502    0  0.27403620459E+02 -0.37468344554E+02  0.14106338663E+02  0.48695959261E+02  0.41800000000E+01 0.  1.
         -5    1    4    4    0  502 -0.96853995368E+02 -0.87670036497E+00  0.90660908705E+02  0.13273408676E+03  0.41800000000E+01 0.  1.
        -11    1    3    3    0    0  0.41326389159E+02 -0.22552824488E+02 -0.49095415790E+01  0.47335018029E+02  0.00000000000E+00 0.  1.
         11    1    3    3    0    0  0.28123985750E+02  0.60897869407E+02  0.39540483341E+02  0.77865004306E+02  0.00000000000E+00 0. -1.
</event>
<event>
 8    1  0.8061721E-006  0.1637689E+03  0.7561462E-02  0.1184506E+00
          2   -1    0    0  501    0  0.00000000000E+00  0.00000000000E+00  0.11164518427E+04  0.11164518427E+04  0.00000000000E+00 0. -1.
         -2   -1    0    0    0  501 -0.00000000000E+00 -0.00000000000E+00 -0.30341197455E+02  0.30341197455E+02  0.00000000000E+00 0.  1.
         23    2    1    2    0    0  0.11325038888E+03 -0.76392922526E+02  0.32922868622E+03  0.36757653989E+03  0.89774471055E+02 0.  0.
         23    2    1    2    0    0 -0.11325038888E+03  0.76392922526E+02  0.75688195902E+03  0.77921650027E+03  0.12508607116E+03 0.  0.
          5    1    4    4  502    0 -0.11643778645E+03  0.10076585572E+03  0.56137912188E+03  0.58213014583E+03  0.41800000000E+01 0. -1.
         -5    1    4    4    0  502  0.31873975766E+01 -0.24372933197E+02  0.19550283714E+03  0.19708635444E+03  0.41800000000E+01 0. -1.
        -11    1    3    3    0    0  0.12450038617E+02 -0.39182725063E+02  0.17397638520E+03  0.17876820750E+03  0.00000000000E+00 0. -1.
         11    1    3    3    0    0  0.10080035026E+03 -0.37210197463E+02  0.15525230102E+03  0.18880833239E+03  0.00000000000E+00 0.  1.
</event>
<event>
 8    1  0.8061721E-006  0.1139571E+03  0.7561462E-02  0.1253413E+00
         -1   -1    0    0    0  501 -0.00000000000E+00  0.00000000000E+00  0.37122135450E+02  0.37122135450E+02  0.00000000000E+00 0.  1.
          1   -1    0    0  501    0  0.00000000000E+00 -0.00000000000E+00 -0.47916874412E+03  0.47916874412E+03  0.00000000000E+00 0. -1.
         23    2    1    2    0    0 -0.32931828791E+02 -0.56370014801E+02 -0.11522898857E+03  0.16031326970E+03  0.90335711216E+02 0.  0.
         23    2    1    2    0    0  0.32931828791E+02  0.56370014801E+02 -0.32681762010E+03  0.35597760987E+03  0.12509283752E+03 0.  0.
          5    1    4    4  502    0 -0.27949793019E+02  0.58585188586E+02 -0.24733912080E+03  0.25574895567E+03  0.41800000000E+01 0.  1.
         -5    1    4    4    0  502  0.60881621810E+02 -0.22151737854E+01 -0.79478499305E+02  0.10022865419E+03  0.41800000000E+01 0.  1.
        -11    1    3    3    0    0 -0.43240900526E+02  0.12596407636E+01 -0.18075483345E+02  0.46883742079E+02  0.00000000000E+00 0.  1.
         11    1    3    3    0    0  0.10309071735E+02 -0.57629655565E+02 -0.97153505221E+02  0.11342952763E+03  0.00000000000E+00 0. -1.
</event>
<event>
 8    1  0.8061721E-006  0.8394725E+02  0.7561462E-02  0.1318209E+00
         -2   -1    0    0    0  501 -0.00000000000E+00  0.00000000000E+00  0.23949902642E+02  0.23949902642E+02  0.00000000000E+00 0. -1.
          2   -1    0    0  501    0  0.00000000000E+00 -0.00000000000E+00 -0.53804350907E+03  0.53804350907E+03  0.00000000000E+00 0.  1.
         23    2    1    2    0    0  0.13357748224E+02 -0.18949553178E+02 -0.16183193689E+03  0.18746410066E+03  0.91737114827E+02 0.  0.
         23    2    1    2    0    0 -0.13357748224E+02  0.18949553178E+02 -0.35226166954E+03  0.37452931105E+03  0.12508559472E+03 0.  0.
          5    1    4    4  502    0 -0.15228636211E+02 -0.30400701611E+02 -0.30201622288E+03  0.30395293271E+03  0.41800000000E+01 0.  1.
         -5    1    4    4    0  502  0.18708879876E+01  0.49350254789E+02 -0.50245446654E+02  0.70576378336E+02  0.41800000000E+01 0.  1.
        -11    1    3    3    0    0 -0.31278018940E+02 -0.23620682126E+02 -0.11952389703E+03  0.12578637865E+03  0.00000000000E+00 0.  1.
         11    1    3    3    0    0  0.44635767164E+02  0.46711289480E+01 -0.42308039861E+02  0.61677722014E+02  0.00000000000E+00 0. -1.
</event>
<event>
 8    1  0.8061721E-006  0.1081006E+03  0.7561462E-02  0.1264128E+00
          2   -1    0    0  501    0  0.00000000000E+00  0.00000000000E+00  0.68339778803E+03  0.68339778803E+03  0.00000000000E+00 0. -1.
         -2   -1    0    0    0  501 -0.00000000000E+00 -0.00000000000E+00 -0.35204577609E+02  0.35204577609E+02  0.00000000000E+00 0.  1.
         23    2    1    2    0    0  0.27701315230E+02 -0.78649179878E+02  0.13315499052E+03  0.18207118614E+03  0.92014178039E+02 0.  0.
         23    2    1    2    0    0 -0.27701315230E+02  0.78649179878E+02  0.51503821990E+03  0.53653117950E+03  0.12509309436E+03 0.  0.
          5    1    4    4  502    0 -0.24075277485E+00  0.91687563980E+02  0.48493925838E+03  0.49354860356E+03  0.41800000000E+01 0.  1.
         -5    1    4    4    0  502 -0.27460562455E+02 -0.13038384102E+02  0.30098961513E+02  0.42982575941E+02  0.41800000000E+01 0.  1.
        -11    1    3    3    0    0 -0.44876180585E+01 -0.51296392350E+02  0.10776791397E+02  0.52607963435E+02  0.00000000000E+00 0.  1.
         11    1    3    3    0    0  0.32188933289E+02 -0.27352787528E+02  0.12237819913E+03  0.12946322270E+03  0.00000000000E+00 0. -1.
</event>
<event>
 8    1  0.8061721E-006  0.1291507E+03  0.7561462E-02  0.1228721E+00
         -1   -1    0    0    0  501 -0.00000000000E+00  0.00000000000E+00  0.23403756713E+02  0.23403756713E+02  0.00000000000E+00 0.  1.
          1   -1    0    0  501    0  0.00000000000E+00 -0.00000000000E+00 -0.76449661282E+03  0.76449661282E+03  0.00000000000E+00 0. -1.
         23    2    1    2    0    0 -0.65291051357E+02  0.32121657692E+02 -0.24913318823E+03  0.27515702847E+03  0.91374627548E+02 0.  0.
         23    2    1    2    0    0  0.65291051357E+02 -0.32121657692E+02 -0.49195966788E+03  0.51274334106E+03  0.12484669281E+03 0.  0.
          5    1    4    4  502    0 -0.54780270316E+01 -0.64994256895E+02 -0.19434125543E+03  0.20503721167E+03  0.41800000000E+01 0. -1.
         -5    1    4    4    0  502  0.70769078389E+02  0.32872599202E+02 -0.29761841245E+03  0.30770612939E+03  0.41800000000E+01 0.  1.
        -11    1    3    3    0    0 -0.55524603684E+02 -0.22058955053E+02 -0.10410495141E+03  0.12003091277E+03  0.00000000000E+00 0. -1.
         11    1    3    3    0    0 -0.97664476734E+01  0.54180612745E+02 -0.14502823682E+03  0.15512611570E+03  0.00000000000E+00 0.  1.
</event>
<event>
 8    1  0.8061721E-006  0.8069475E+02  0.7561462E-02  0.1327091E+00
          2   -1    0    0  501    0  0.00000000000E+00  0.00000000000E+00  0.49656258511E+03  0.49656258511E+03  0.00000000000E+00 0. -1.
         -2   -1    0    0    0  501 -0.00000000000E+00 -0.00000000000E+00 -0.33429453965E+02  0.33429453965E+02  0.00000000000E+00 0.  1.
         23    2    1    2    0    0 -0.63978779933E+02  0.26247502084E+02  0.21287257190E+03  0.24178958781E+03  0.91461780311E+02 0.  0.
         23    2    1    2    0    0  0.63978779933E+02 -0.26247502084E+02  0.25026055924E+03  0.28820245126E+03  0.12509232492E+03 0.  0.
          5    1    4    4  502    0  0.45158293335E+02 -0.27987075424E+02  0.26078126036E+03  0.26617078353E+03  0.41800000000E+01 0.  1.
         -5    1    4    4    0  502  0.18820486598E+02  0.17395733407E+01 -0.10520701120E+02  0.22031667737E+02  0.41800000000E+01 0.  1.
        -11    1    3    3    0    0 -0.61355817772E+02 -0.10028010440E+01  0.20397226860E+03  0.21300288341E+03  0.00000000000E+00 0.  1.
         11    1    3    3    0    0 -0.26229621619E+01  0.27250303128E+02  0.89003032985E+01  0.28786704394E+02  0.00000000000E+00 0. -1.
</event>
<event>
 8    1  0.8061721E-006  0.1086992E+03  0.7561462E-02  0.1262998E+00
         -2   -1    0    0    0  501 -0.00000000000E+00  0.00000000000E+00  0.26723487334E+02  0.26723487334E+02  0.00000000000E+00 0.  1.
          2   -1    0    0  501    0  0.00000000000E+00 -0.00000000000E+00 -0.78593873883E+03  0.78593873883E+03  0.00000000000E+00 0. -1.
         23    2    1    2    0    0 -0.90473379277E+02  0.11681558897E+02 -0.21411581487E+03  0.24600282867E+03  0.79686374996E+02 0.  0.
         23    2    1    2    0    0  0.90473379277E+02 -0.11681558897E+02 -0.54509943663E+03  0.56665939750E+03  0.12509031051E+03 0.  0.
          5    1    4    4  502    0  0.28187659336E+02  0.14463388099E+02 -0.44308572326E+03  0.44423660845E+03  0.41800000000E+01 0.  1.
         -5    1    4    4    0  502  0.62285719941E+02 -0.26144946996E+02 -0.10201371337E+03  0.12242278905E+03  0.41800000000E+01 0.  1.
        -11    1    3    3    0    0 -0.23545411504E+02 -0.30590388662E+02 -0.45078474780E+02  0.59348354399E+02  0.00000000000E+00 0.  1.
         11    1    3    3    0    0 -0.66927967773E+02  0.42271947559E+02 -0.16903734009E+03  0.18665447427E+03  0.00000000000E+00 0. -1.
</event>
<event>
 8    1  0.8061721E-006  0.8268091E+02  0.7561462E-02  0.1321611E+00
         -2   -1    0    0    0  501 -0.00000000000E+00  0.00000000000E+00  0.32952301315E+02  0.32952301315E+02  0.00000000000E+00 0.  1.
          2   -1    0    0  501    0  0.00000000000E+00 -0.00000000000E+00 -0.38344452947E+03  0.38344452947E+03  0.00000000000E+00 0. -1.
         23    2    1    2    0    0 -0.23632192114E+01 -0.12083270406E+02 -0.97120456450E+02  0.13357049759E+03  0.90868611386E+02 0.  0.
         23    2    1    2    0    0  0.23632192114E+01  0.12083270406E+02 -0.25337177170E+03  0.28282633320E+03  0.12506754105E+03 0.  0.
          5    1    4    4  502    0  0.12502623736E+01 -0.48192786683E+02 -0.45766163047E+02  0.66604218517E+02  0.41800000000E+01 0.  1.
         -5    1    4    4    0  502  0.11129568378E+01  0.60276057089E+02 -0.20760560866E+03  0.21622211468E+03  0.41800000000E+01 0.  1.
        -11    1    3    3    0    0  0.22253499894E+01 -0.34038551860E+02 -0.10452501523E+03  0.10995023421E+03  0.00000000000E+00 0. -1.
         11    1    3    3    0    0 -0.45885692008E+01  0.21955281453E+02  0.74045587782E+01  0.23620263371E+02  0.00000000000E+00 0.  1.
</event>
<event>
 8    1  0.8061721E-006  0.1202345E+03  0.7561462E-02  0.1242711E+00
          1   -1    0    0  501    0  0.00000000000E+00  0.00000000000E+00  0.35897653720E+03  0.35897653720E+03  0.00000000000E+00 0. -1.
         -1   -1    0    0    0  501 -0.00000000000E+00 -0.00000000000E+00 -0.62423486734E+02  0.62423486734E+02  0.00000000000E+00 0.  1.
         23    2    1    2    0    0 -0.95315661005E+02  0.25052412767E+02  0.85126328876E+02  0.15670831610E+03  0.87168261709E+02 0.  0.
         23    2    1    2    0    0  0.95315661005E+02 -0.25052412767E+02  0.21142672159E+03  0.26469170784E+03  0.12509093882E+03 0.  0.
          5    1    4    4  502    0  0.39582543996E+02  0.21195456245E+02  0.18012408204E+03  0.18568301615E+03  0.41800000000E+01 0. -1.
         -5    1    4    4    0  502  0.55733117009E+02 -0.46247869012E+02  0.31302639555E+02  0.79008691691E+02  0.41800000000E+01 0. -1.
        -11    1    3    3    0    0 -0.14398619761E+02 -0.24159367827E+02 -0.17653508609E+01  0.28179988795E+02  0.00000000000E+00 0.  1.
         11    1    3    3    0    0 -0.80917041243E+02  0.49211780594E+02  0.86891679736E+02  0.12852832731E+03  0.00000000000E+00 0. -1.
</event>
<event>
 8    1  0.1413837E-005  0.1391485E+03  0.7561462E-02  0.1214479E+00
         -1   -1    0    0    0  501 -0.00000000000E+00  0.00000000000E+00  0.15347670122E+03  0.15347670122E+03  0.00000000000E+00 0.  1.
          1   -1    0    0  501    0  0.00000000000E+00 -0.00000000000E+00 -0.22046612413E+03  0.22046612413E+03  0.00000000000E+00 0. -1.
         23    2    1    2    0    0  0.86382677351E+02  0.10790247645E+03  0.32465176503E+02  0.16265266099E+03  0.79353569998E+02 0.  0.
         23    2    1    2    0    0 -0.86382677351E+02 -0.10790247645E+03 -0.99454599418E+02  0.21129016436E+03  0.12508958725E+03 0.  0.
          5    1    4    4  502    0 -0.62818937882E+02 -0.63340163033E+02  0.10828338497E+02  0.89960660981E+02  0.41800000000E+01 0.  1.
         -5    1    4    4    0  502 -0.23563739469E+02 -0.44562313414E+02 -0.11028293791E+03  0.12132950338E+03  0.41800000000E+01 0.  1.
        -11    1    3    3    0    0  0.63354386741E+02  0.84060963714E+02  0.58570953845E+02  0.12045987122E+03  0.00000000000E+00 0.  1.
         11    1    3    3    0    0  0.23028290610E+02  0.23841512732E+02 -0.26105777342E+02  0.42192789768E+02  0.00000000000E+00 0. -1.
</event>
<event>
 8    1  0.8061721E-006  0.1261918E+03  0.7561462E-02  0.1233218E+00
         -1   -1    0    0    0  501 -0.00000000000E+00  0.00000000000E+00  0.37145472091E+02  0.37145472091E+02  0.00000000000E+00 0.  1.
          1   -1    0    0  501    0  0.00000000000E+00 -0.00000000000E+00 -0.65309828814E+03  0.65309828814E+03  0.00000000000E+00 0. -1.
         23    2    1    2    0    0  0.32248365300E+02 -0.10252469148E+03 -0.20521455937E+03  0.24763417510E+03  0.87512284119E+02 0.  0.
         23    2    1    2    0    0 -0.32248365300E+02  0.10252469148E+03 -0.41073825667E+03  0.44260958512E+03  0.12508421132E+03 0.  0.
          5    1    4    4  502    0  0.27281679178E+02  0.62722869142E+02 -0.31835835822E+03  0.32565006523E+03  0.41800000000E+01 0.  1.
         -5    1    4    4    0  502 -0.59530044478E+02  0.39801822340E+02 -0.92379898448E+02  0.11695951990E+03  0.41800000000E+01 0.  1.
        -11    1    3    3    0    0  0.98119717188E+01 -0.79034810429E+02 -0.19929097401E+03  0.21461516342E+03  0.00000000000E+00 0.  1.
         11    1    3    3    0    0  0.22436393581E+02 -0.23489881053E+02 -0.59235853632E+01  0.33019011681E+02  0.00000000000E+00 0. -1.
</event>
<event>
 8    1  0.8061721E-006  0.1194899E+03  0.7561462E-02  0.1243941E+00
          1   -1    0    0  501    0  0.00000000000E+00  0.00000000000E+00  0.87952881806E+03  0.87952881806E+03  0.00000000000E+00 0. -1.
         -1   -1    0    0    0  501 -0.00000000000E+00 -0.00000000000E+00 -0.21961955199E+02  0.21961955199E+02  0.00000000000E+00 0.  1.
         23    2    1    2    0    0 -0.74741176406E+02 -0.44209254219E+02  0.28225779138E+03  0.30914723854E+03  0.91443166458E+02 0.  0.
         23    2    1    2    0    0  0.74741176406E+02  0.44209254219E+02  0.57530907148E+03  0.59234353472E+03  0.11112890618E+03 0.  0.
          5    1    4    4  502    0 -0.12130616059E+02  0.51670716066E+02  0.19423419269E+03  0.20139863146E+03  0.41800000000E+01 0. -1.
         -5    1    4    4    0  502  0.86871792465E+02 -0.74614618476E+01  0.38107487879E+03  0.39094490326E+03  0.41800000000E+01 0.  1.
        -11    1    3    3    0    0  0.35279604607E+01 -0.14186297703E+02 -0.88880807967E-01  0.14618667768E+02  0.00000000000E+00 0.  1.
         11    1    3    3    0    0 -0.78269136866E+02 -0.30022956516E+02  0.28234667219E+03  0.29452857077E+03  0.00000000000E+00 0. -1.
</event>
<event>
 8    1  0.8061721E-006  0.1088239E+03  0.7561462E-02  0.1262764E+00
         -1   -1    0    0    0  501 -0.00000000000E+00  0.00000000000E+00  0.16306751896E+03  0.16306751896E+03  0.00000000000E+00 0.  1.
          1   -1    0    0  501    0  0.00000000000E+00 -0.00000000000E+00 -0.11209176932E+03  0.11209176932E+03  0.00000000000E+00 0. -1.
         23    2    1    2    0    0  0.65390734727E+02  0.48539072046E+02  0.30762219384E+02  0.12451800529E+03  0.89030499254E+02 0.  0.
         23    2    1    2    0    0 -0.65390734727E+02 -0.48539072046E+02  0.20213530254E+02  0.15064128298E+03  0.12510883114E+03 0.  0.
          5    1    4    4  502    0 -0.63273915195E+02 -0.71141483308E+02  0.54141183389E+02  0.10960583529E+03  0.41800000000E+01 0.  1.
         -5    1    4    4    0  502 -0.21168195320E+01  0.22602411261E+02 -0.33927653135E+02  0.41035447689E+02  0.41800000000E+01 0.  1.
        -11    1    3    3    0    0  0.75014986921E+02  0.35323161376E+02 -0.71577206645E+01  0.83223836474E+02  0.00000000000E+00 0. -1.
         11    1    3    3    0    0 -0.96242521938E+01  0.13215910670E+02  0.37919940048E+02  0.41294168818E+02  0.00000000000E+00 0.  1.
</event>
<event>
 8    1  0.8061721E-006  0.1503142E+03  0.7561462E-02  0.1200088E+00
         -2   -1    0    0    0  501 -0.00000000000E+00  0.00000000000E+00  0.69420995528E+03  0.69420995528E+03  0.00000000000E+00 0.  1.
          2   -1    0    0  501    0  0.00000000000E+00 -0.00000000000E+00 -0.33265491660E+02  0.33265491660E+02  0.00000000000E+00 0. -1.
         23    2    1    2    0    0  0.27846083017E+02 -0.98526321709E+02  0.32478739361E+03  0.35446943677E+03  0.98381350605E+02 0.  0.
         23    2    1    2    0    0 -0.27846083017E+02  0.98526321709E+02  0.33615707000E+03  0.37300601017E+03  0.12509623294E+03 0.  0.
          5    1    4    4  502    0 -0.73718156067E+02  0.36815876276E+02  0.14348022790E+03  0.16551079565E+03  0.41800000000E+01 0. -1.
         -5    1    4    4    0  502  0.45872073050E+02  0.61710445434E+02  0.19267684211E+03  0.20749521451E+03  0.41800000000E+01 0. -1.
        -11    1    3    3    0    0  0.48638214323E+02 -0.93251822713E+01  0.13334757712E+03  0.14224700784E+03  0.00000000000E+00 0. -1.
         11    1    3    3    0    0 -0.20792131306E+02 -0.89201139438E+02  0.19143981649E+03  0.21222242893E+03  0.00000000000E+00 0.  1.
</event>
<event>
 8    1  0.8061721E-006  0.1066040E+03  0.7561462E-02  0.1266991E+00
          1   -1    0    0  501    0  0.00000000000E+00  0.00000000000E+00  0.19083322446E+03  0.19083322446E+03  0.00000000000E+00 0. -1.
         -1   -1    0    0    0  501 -0.00000000000E+00 -0.00000000000E+00 -0.92198465866E+02  0.92198465866E+02  0.00000000000E+00 0.  1.
         23    2    1    2    0    0  0.48612288940E+02 -0.24368036176E+02  0.14659961235E+01  0.11556053478E+03  0.10195652128E+03 0.  0.
         23    2    1    2    0    0 -0.48612288940E+02  0.24368036176E+02  0.97168762467E+02  0.16747115554E+03  0.12509142143E+03 0.  0.
          5    1    4    4  502    0 -0.70605090683E+02 -0.31957893046E+01  0.10905760751E+03  0.13002432870E+03  0.41800000000E+01 0.  1.
         -5    1    4    4    0  502  0.21992801743E+02  0.27563825481E+02 -0.11888845042E+02  0.37446826836E+02  0.41800000000E+01 0.  1.
        -11    1    3    3    0    0  0.11818773563E+02 -0.56698957568E+02 -0.21087748063E+02  0.61637231575E+02  0.00000000000E+00 0. -1.
         11    1    3    3    0    0  0.36793515377E+02  0.32330921392E+02  0.22553744187E+02  0.53923303206E+02  0.00000000000E+00 0.  1.
</event>
<event>
 8    1  0.1552663E-005  0.1723730E+03  0.7561462E-02  0.1175396E+00
          2   -1    0    0  501    0  0.00000000000E+00  0.00000000000E+00  0.20645791565E+03  0.20645791565E+03  0.00000000000E+00 0. -1.
         -2   -1    0    0    0  501 -0.00000000000E+00 -0.00000000000E+00 -0.16922086083E+03  0.16922086083E+03  0.00000000000E+00 0.  1.
         23    2    1    2    0    0  0.48289013245E+02 -0.14476982611E+03 -0.76264879440E+01  0.17331739705E+03  0.81796243504E+02 0.  0.
         23    2    1    2    0    0 -0.48289013245E+02  0.14476982611E+03  0.44863542765E+02  0.20236137943E+03  0.12508900457E+03 0.  0.
          5    1    4    4  502    0 -0.86815994767E+02  0.98345343103E+02  0.52596605097E+02  0.14139553998E+03  0.41800000000E+01 0.  1.
         -5    1    4    4    0  502  0.38526981522E+02  0.46424483004E+02 -0.77330623327E+01  0.60965839455E+02  0.41800000000E+01 0.  1.
        -11    1    3    3    0    0  0.18554941009E+02 -0.39605117428E+02  0.34994590415E+02  0.56013145963E+02  0.00000000000E+00 0.  1.
         11    1    3    3    0    0  0.29734072236E+02 -0.10516470868E+03 -0.42621078359E+02  0.11730425109E+03  0.00000000000E+00 0. -1.
</event>
<event>
 8    1  0.8061721E-006  0.3630736E+03  0.7561462E-02  0.1057373E+00
          2   -1    0    0  501    0  0.00000000000E+00  0.00000000000E+00  0.20170398198E+03  0.20170398198E+03  0.00000000000E+00 0. -1.
         -2   -1    0    0    0  501 -0.00000000000E+00 -0.00000000000E+00 -0.70686923687E+03  0.70686923687E+03  0.00000000000E+00 0.  1.
         23    2    1    2    0    0  0.28479253764E+03  0.21031283775E+03 -0.32486130050E+03  0.49204482073E+03  0.10599510285E+03 0.  0.
         23    2    1    2    0    0 -0.28479253764E+03 -0.21031283775E+03 -0.18030395440E+03  0.41652839813E+03  0.12509241087E+03 0.  0.
          5    1    4    4  502    0 -0.29544531907E+03 -0.20362830136E+03 -0.18328672884E+03  0.40294406441E+03  0.41800000000E+01 0. -1.
         -5    1    4    4    0  502  0.10652781434E+02 -0.66845363886E+01  0.29827744458E+01  0.13584333712E+02  0.41800000000E+01 0. -1.
        -11    1    3    3    0    0  0.18793545074E+03  0.14086566486E+03 -0.27812323277E+03  0.36402664983E+03  0.00000000000E+00 0. -1.
         11    1    3    3    0    0  0.96857086901E+02  0.69447172888E+02 -0.46738067729E+02  0.12801817090E+03  0.00000000000E+00 0.  1.
</event>
<event>
 8    1  0.8061721E-006  0.1028812E+03  0.7561462E-02  0.1274351E+00
          1   -1    0    0  501    0  0.00000000000E+00  0.00000000000E+00  0.20359535577E+02  0.20359535577E+02  0.00000000000E+00 0. -1.
         -1   -1    0    0    0  501 -0.00000000000E+00 -0.00000000000E+00 -0.86103266759E+03  0.86103266759E+03  0.00000000000E+00 0.  1.
         23    2    1    2    0    0  0.51419275013E+02  0.54782094071E+02 -0.34190786249E+03  0.36171985084E+03  0.91078232197E+02 0.  0.
         23    2    1    2    0    0 -0.51419275013E+02 -0.54782094071E+02 -0.49876526952E+03  0.51967235233E+03  0.12509012761E+03 0.  0.
          5    1    4    4  502    0  0.37946540715E+01 -0.31546345884E+02 -0.21378878079E+02  0.38524020638E+02  0.41800000000E+01 0.  1.
         -5    1    4    4    0  502 -0.55213929085E+02 -0.23235748187E+02 -0.47738639144E+03  0.48114833169E+03  0.41800000000E+01 0.  1.
        -11    1    3    3    0    0  0.41066478792E+02 -0.14547474323E+02 -0.18165361748E+03  0.18680503589E+03  0.00000000000E+00 0.  1.
         11    1    3    3    0    0  0.10352796221E+02  0.69329568394E+02 -0.16025424501E+03  0.17491481495E+03  0.00000000000E+00 0. -1.
</event>
<event>
 8    1  0.8061721E-006  0.6578978E+02  0.7561462E-02  0.1375025E+00
         -2   -1    0    0    0  501 -0.00000000000E+00  0.00000000000E+00  0.24089053331E+02  0.24089053331E+02  0.00000000000E+00 0. -1.
          2   -1    0    0  501    0  0.00000000000E+00 -0.00000000000E+00 -0.74682184120E+03  0.74682184120E+03  0.00000000000E+00 0.  1.
         23    2    1    2    0    0  0.23413892889E+02  0.52147939849E+02 -0.16813983499E+03  0.19951960287E+03  0.90936515261E+02 0.  0.
         23    2    1    2    0    0 -0.23413892889E+02 -0.52147939849E+02 -0.55459295288E+03  0.57139129167E+03  0.12508815608E+03 0.  0.
          5    1    4    4  502    0 -0.83917864818E+01 -0.14196834959E+02 -0.18339474050E+01  0.17111632485E+02  0.41800000000E+01 0. -1.
         -5    1    4    4    0  502 -0.15022106407E+02 -0.37951104890E+02 -0.55275900548E+03  0.55427965918E+03  0.41800000000E+01 0. -1.
        -11    1    3    3    0    0 -0.46241785000E+01  0.44134682651E+02 -0.20242895137E+02  0.48775281065E+02  0.00000000000E+00 0. -1.
         11    1    3    3    0    0  0.28038071389E+02  0.80132571983E+01 -0.14789693985E+03  0.15074432180E+03  0.00000000000E+00 0.  1.
</event>
<event>
 8    1  0.8061721E-006  0.1107841E+03  0.7561462E-02  0.1259125E+00
          1   -1    0    0  501    0  0.00000000000E+00  0.00000000000E+00  0.15311105227E+03  0.15311105227E+03  0.00000000000E+00 0. -1.
         -1   -1    0    0    0  501 -0.00000000000E+00 -0.00000000000E+00 -0.11234368157E+03  0.11234368157E+03  0.00000000000E+00 0.  1.
         23    2    1    2    0    0 -0.42115179372E+02 -0.63056074769E+02  0.61889593962E+01  0.11514420586E+03  0.86429902381E+02 0.  0.
         23    2    1    2    0    0  0.42115179372E+02  0.63056074769E+02  0.34578411303E+02  0.15031052799E+03  0.12509129225E+03 0.  0.
          5    1    4    4  502    0 -0.10674465705E+02  0.86285844744E+02  0.10512298039E+02  0.87676519271E+02  0.41800000000E+01 0. -1.
         -5    1    4    4    0  502  0.52789645077E+02 -0.23229769976E+02  0.24066113264E+02  0.62634008718E+02  0.41800000000E+01 0. -1.
        -11    1    3    3    0    0 -0.48650563951E+01 -0.15763458905E+02 -0.37361814232E+02  0.40841897276E+02  0.00000000000E+00 0.  1.
         11    1    3    3    0    0 -0.37250122977E+02 -0.47292615864E+02  0.43550773629E+02  0.74302308582E+02  0.00000000000E+00 0. -1.
</event>
<event>
 8    1  0.8061721E-006  0.1429883E+03  0.7561462E-02  0.1209364E+00
         -1   -1    0    0    0  501 -0.00000000000E+00  0.00000000000E+00  0.10462641766E+03  0.10462641766E+03  0.00000000000E+00 0.  1.
          1   -1    0    0  501    0  0.00000000000E+00 -0.00000000000E+00 -0.34887130119E+03  0.34887130119E+03  0.00000000000E+00 0. -1.
         23    2    1    2    0    0  0.11766855201E+03 -0.10875345003E+02  0.26744192834E+01  0.15683253748E+03  0.10307827625E+03 0.  0.
         23    2    1    2    0    0 -0.11766855201E+03  0.10875345003E+02 -0.24691930281E+03  0.29666518137E+03  0.11435438983E+03 0.  0.
          5    1    4    4  502    0 -0.12494831958E+03 -0.24608222067E+02 -0.20171771368E+03  0.23858993183E+03  0.41800000000E+01 0. -1.
         -5    1    4    4    0  502  0.72797675794E+01  0.35483567070E+02 -0.45201589139E+02  0.58075249537E+02  0.41800000000E+01 0.  1.
        -11    1    3    3    0    0  0.39131244981E+02 -0.18319511041E+02 -0.46813957390E+02  0.63705615334E+02  0.00000000000E+00 0. -1.
         11    1    3    3    0    0  0.78537307024E+02  0.74441660389E+01  0.49488376674E+02  0.93126922146E+02  0.00000000000E+00 0.  1.
</event>
<event>
 8    1  0.8061721E-006  0.1379508E+03  0.7561462E-02  0.1216113E+00
          2   -1    0    0  501    0  0.00000000000E+00  0.00000000000E+00  0.66174795832E+02  0.66174795832E+02  0.00000000000E+00 0. -1.
         -2   -1    0    0    0  501 -0.00000000000E+00 -0.00000000000E+00 -0.35432165870E+03  0.35432165870E+03  0.00000000000E+00 0.  1.
         23    2    1    2    0    0 -0.10411403568E+03 -0.46350098319E+01 -0.16478402700E+03  0.21621629383E+03  0.93458517118E+02 0.  0.
         23    2    1    2    0    0  0.10411403568E+03  0.46350098319E+01 -0.12336283587E+03  0.20428016070E+03  0.12510307367E+03 0.  0.
          5    1    4    4  502    0  0.38785035953E+02 -0.50448265922E+02 -0.94468574585E+02  0.11397846521E+03  0.41800000000E+01 0.  1.
         -5    1    4    4    0  502  0.65328999726E+02  0.55083275754E+02 -0.28894261282E+02  0.90301695488E+02  0.41800000000E+01 0.  1.
        -11    1    3    3    0    0 -0.14256120421E+01  0.20748112191E+02 -0.73853593087E+02  0.76725939167E+02  0.00000000000E+00 0.  1.
         11    1    3    3    0    0 -0.10268842364E+03 -0.25383122023E+02 -0.90930433917E+02  0.13949035467E+03  0.00000000000E+00 0. -1.
</event>
<event>
 8    1  0.8061721E-006  0.1163293E+03  0.7561462E-02  0.1249278E+00
          2   -1    0    0  501    0  0.00000000000E+00  0.00000000000E+00  0.76784812579E+02  0.76784812579E+02  0.00000000000E+00 0. -1.
         -2   -1    0    0    0  501 -0.00000000000E+00 -0.00000000000E+00 -0.37125108557E+03  0.37125108557E+03  0.00000000000E+00 0.  1.
         23    2    1    2    0    0 -0.77195765850E+02 -0.28654924603E+01 -0.27470657239E+03  0.29969387946E+03  0.91571410150E+02 0.  0.
         23    2    1    2    0    0  0.77195765850E+02  0.28654924603E+01 -0.19759700595E+02  0.14834201869E+03  0.12509001331E+03 0.  0.
          5    1    4    4  502    0  0.43081163707E+02  0.43127567878E+02  0.36434653001E+02  0.71140214484E+02  0.41800000000E+01 0. -1.
         -5    1    4    4    0  502  0.34114602143E+02 -0.40262075418E+02 -0.56194353597E+02  0.77201804205E+02  0.41800000000E+01 0. -1.
        -11    1    3    3    0    0 -0.91910440611E+02 -0.21975382267E+02 -0.23424935497E+03  0.25259296669E+03  0.00000000000E+00 0.  1.
         11    1    3    3    0    0  0.14714674761E+02  0.19109889806E+02 -0.40457217429E+02  0.47100912771E+02  0.00000000000E+00 0. -1.
</event>
<event>
 8    1  0.8061721E-006  0.9386762E+02  0.7561462E-02  0.1293747E+00
          2   -1    0    0  501    0  0.00000000000E+00  0.00000000000E+00  0.41545442312E+02  0.41545442312E+02  0.00000000000E+00 0. -1.
         -2   -1    0    0    0  501 -0.00000000000E+00 -0.00000000000E+00 -0.48198627575E+03  0.48198627575E+03  0.00000000000E+00 0.  1.
         23    2    1    2    0    0 -0.24006259188E+02 -0.27808485917E+02 -0.35997218213E+03  0.37032474743E+03  0.78808846478E+02 0.  0.
         23    2    1    2    0    0  0.24006259188E+02  0.27808485917E+02 -0.80468651307E+02  0.15320697063E+03  0.12509020600E+03 0.  0.
          5    1    4    4  502    0  0.56587461001E+02 -0.14666629595E+02 -0.26565557805E+01  0.58666689483E+02  0.41800000000E+01 0. -1.
         -5    1    4    4    0  502 -0.32581201813E+02  0.42475115511E+02 -0.77812095527E+02  0.94540281148E+02  0.41800000000E+01 0. -1.
        -11    1    3    3    0    0 -0.41562734891E+02 -0.36974269459E+02 -0.32823080720E+03  0.33291143016E+03  0.00000000000E+00 0.  1.
         11    1    3    3    0    0  0.17556475703E+02  0.91657835423E+01 -0.31741374932E+02  0.37413317276E+02  0.00000000000E+00 0. -1.
</event>
<event>
 7    1  0.8061721E-006  0.8409771E+02  0.7561462E-02  0.1317809E+00
         -1   -1    0    0    0  501 -0.00000000000E+00  0.00000000000E+00  0.44385385221E+02  0.44385385221E+02  0.00000000000E+00 0.  1.
          1   -1    0    0  501    0  0.00000000000E+00 -0.00000000000E+00 -0.48499713546E+03  0.48499713546E+03  0.00000000000E+00 0. -1.
         23    2    1    2    0    0  0.65515780588E+02  0.21347650524E+02 -0.75864690212E+02  0.13372853410E+03  0.85905936476E+02 0.  0.
          5    1    1    2  502    0 -0.35829040148E+02 -0.25782277403E+02 -0.36256899509E+03  0.36527002963E+03  0.41800000000E+01 0. -1.
         -5    1    1    2    0  502 -0.29686740440E+02  0.44346268794E+01 -0.21780649422E+01  0.30383956958E+02  0.41800000000E+01 0. -1.
        -11    1    3    3    0    0 -0.62350050322E+01  0.20887987019E+02  0.81243019885E+01  0.23263438531E+02  0.00000000000E+00 0.  1.
         11    1    3    3    0    0  0.71750785620E+02  0.45966350460E+00 -0.83988992200E+02  0.11046509557E+03  0.00000000000E+00 0. -1.
</event>
<event>
 8    1  0.8061721E-006  0.1174931E+03  0.7561462E-02  0.1247291E+00
          1   -1    0    0  501    0  0.00000000000E+00  0.00000000000E+00  0.19848989345E+03  0.19848989345E+03  0.00000000000E+00 0. -1.
         -1   -1    0    0    0  501 -0.00000000000E+00 -0.00000000000E+00 -0.87800536312E+02  0.87800536312E+02  0.00000000000E+00 0.  1.
         23    2    1    2    0    0  0.24377826363E+02 -0.41025745727E+02 -0.12800150203E+02  0.10415304111E+03  0.91687632189E+02 0.  0.
         23    2    1    2    0    0 -0.24377826363E+02  0.41025745727E+02  0.12348950734E+03  0.18213738866E+03  0.12508788787E+03 0.  0.
          5    1    4    4  502    0 -0.62634767787E+02 -0.14352384540E+02  0.76236469907E+02  0.99792669178E+02  0.41800000000E+01 0. -1.
         -5    1    4    4    0  502  0.38256941425E+02  0.55378130267E+02  0.47253037438E+02  0.82344719479E+02  0.41800000000E+01 0. -1.
        -11    1    3    3    0    0 -0.33633560325E+02 -0.27846625756E+02 -0.86908659477E+01  0.44521703662E+02  0.00000000000E+00 0. -1.
         11    1    3    3    0    0  0.58011386687E+02 -0.13179119971E+02 -0.41092842552E+01  0.59631337447E+02  0.00000000000E+00 0.  1.
</event>
<event>
 8    1  0.8061721E-006  0.1208306E+03  0.7561462E-02  0.1241733E+00
         -2   -1    0    0    0  501 -0.00000000000E+00  0.00000000000E+00  0.49975237145E+02  0.49975237145E+02  0.00000000000E+00 0.  1.
          2   -1    0    0  501    0  0.00000000000E+00 -0.00000000000E+00 -0.62429641952E+03  0.62429641952E+03  0.00000000000E+00 0. -1.
         23    2    1    2    0    0  0.39330683905E+02 -0.10325320562E+03 -0.10573484796E+03  0.17684901420E+03  0.88812097044E+02 0.  0.
         23    2    1    2    0    0 -0.39330683905E+02  0.10325320562E+03 -0.46858633442E+03  0.49742264247E+03  0.12509198724E+03 0.  0.
          5    1    4    4  502    0 -0.39290207434E+02  0.57945620623E+02 -0.80871502939E+02  0.10704712858E+03  0.41800000000E+01 0.  1.
         -5    1    4    4    0  502 -0.40476470305E-01  0.45307585002E+02 -0.38771483148E+03  0.39037551389E+03  0.41800000000E+01 0.  1.
        -11    1    3    3    0    0  0.54771022437E+02 -0.91426537917E+02 -0.11369196459E+03  0.15583497536E+03  0.00000000000E+00 0. -1.
         11    1    3    3    0    0 -0.15440338532E+02 -0.11826667708E+02  0.79571166297E+01  0.21014038834E+02  0.00000000000E+00 0.  1.
</event>
<event>
 8    1  0.8061721E-006  0.1243395E+03  0.7561462E-02  0.1236105E+00
          2   -1    0    0  501    0  0.00000000000E+00  0.00000000000E+00  0.15042317395E+03  0.15042317395E+03  0.00000000000E+00 0. -1.
         -2   -1    0    0    0  501 -0.00000000000E+00 -0.00000000000E+00 -0.16159965263E+03  0.16159965263E+03  0.00000000000E+00 0.  1.
         23    2    1    2    0    0 -0.63773781785E+02  0.62487711650E+02 -0.73129940194E+02  0.14631969874E+03  0.89942519074E+02 0.  0.
         23    2    1    2    0    0  0.63773781785E+02 -0.62487711650E+02  0.61953461520E+02  0.16570312783E+03  0.12508991098E+03 0.  0.
          5    1    4    4  502    0  0.88896247247E+02 -0.12064182250E+02  0.12595415188E+02  0.90687397977E+02  0.41800000000E+01 0.  1.
         -5    1    4    4    0  502 -0.25122465462E+02 -0.50423529400E+02  0.49358046332E+02  0.75015729856E+02  0.41800000000E+01 0.  1.
        -11    1    3    3    0    0 -0.13501187923E+02 -0.80816863845E+01 -0.55776951628E+02  0.57953982289E+02  0.00000000000E+00 0.  1.
         11    1    3    3    0    0 -0.50272593861E+02  0.70569398035E+02 -0.17352988566E+02  0.88365716456E+02  0.00000000000E+00 0. -1.
</event>
<event>
 8    1  0.8061721E-006  0.1061615E+03  0.7561462E-02  0.1267848E+00
          1   -1    0    0  501    0  0.00000000000E+00  0.00000000000E+00  0.51493578492E+02  0.51493578492E+02  0.00000000000E+00 0. -1.
         -1   -1    0    0    0  501 -0.00000000000E+00 -0.00000000000E+00 -0.31409420970E+03  0.31409420970E+03  0.00000000000E+00 0.  1.
         23    2    1    2    0    0 -0.62941458807E+02  0.30571811336E+01 -0.86869326187E+02  0.14085984078E+03  0.91237280313E+02 0.  0.
         23    2    1    2    0    0  0.62941458807E+02 -0.30571811336E+01 -0.17573130502E+03  0.22472794742E+03  0.12510070020E+03 0.  0.
          5    1    4    4  502    0 -0.11800027184E+02 -0.27359599627E+02 -0.13056013698E+03  0.13398212605E+03  0.41800000000E+01 0. -1.
         -5    1    4    4    0  502  0.74741485991E+02  0.24302418493E+02 -0.45171168046E+02  0.90745821366E+02  0.41800000000E+01 0. -1.
        -11    1    3    3    0    0 -0.38994435304E+02  0.42317261524E+02 -0.22579226295E+02  0.61815354627E+02  0.00000000000E+00 0. -1.
         11    1    3    3    0    0 -0.23947023503E+02 -0.39260080390E+02 -0.64290099892E+02  0.79044486152E+02  0.00000000000E+00 0.  1.
</event>
<event>
 8    1  0.8061721E-006  0.9675427E+02  0.7561462E-02  0.1287273E+00
          2   -1    0    0  501    0  0.00000000000E+00  0.00000000000E+00  0.65210768287E+02  0.65210768287E+02  0.00000000000E+00 0.  1.
         -2   -1    0    0    0  501 -0.00000000000E+00 -0.00000000000E+00 -0.49007053205E+03  0.49007053205E+03  0.00000000000E+00 0. -1.
         23    2    1    2    0    0 -0.48175779380E+02  0.56106524100E+02 -0.38778034174E+03  0.40530397386E+03  0.91808877707E+02 0.  0.
         23    2    1    2    0    0  0.48175779380E+02 -0.56106524100E+02 -0.37079422026E+02  0.14997732647E+03  0.12509783033E+03 0.  0.
          5    1    4    4  502    0 -0.94324103579E+01 -0.36838719416E+02 -0.70726814329E+02  0.80410299579E+02  0.41800000000E+01 0.  1.
         -5    1    4    4    0  502  0.57608189738E+02 -0.19267804684E+02  0.33647392303E+02  0.69567026895E+02  0.41800000000E+01 0.  1.
        -11    1    3    3    0    0 -0.59117474801E+02  0.30508966775E+02 -0.35956477913E+03  0.36566720290E+03  0.00000000000E+00 0. -1.
         11    1    3    3    0    0  0.10941695421E+02  0.25597557325E+02 -0.28215562606E+02  0.39636770969E+02  0.00000000000E+00 0.  1.
</event>
<event>
 8    1  0.8061721E-006  0.1591071E+03  0.7561462E-02  0.1189709E+00
         -2   -1    0    0    0  501 -0.00000000000E+00  0.00000000000E+00  0.95552871996E+02  0.95552871996E+02  0.00000000000E+00 0. -1.
          2   -1    0    0  501    0  0.00000000000E+00 -0.00000000000E+00 -0.28785268920E+03  0.28785268920E+03  0.00000000000E+00 0.  1.
         23    2    1    2    0    0  0.47042688755E+02  0.10391213641E+03 -0.37574714905E+02  0.15405116329E+03  0.96483962665E+02 0.  0.
         23    2    1    2    0    0 -0.47042688755E+02 -0.10391213641E+03 -0.15472510230E+03  0.22935439791E+03  0.12511129405E+03 0.  0.
          5    1    4    4  502    0 -0.23301933135E+01 -0.12108907108E+03 -0.10853319233E+03  0.16268042038E+03  0.41800000000E+01 0.  1.
         -5    1    4    4    0  502 -0.44712495441E+02  0.17176934671E+02 -0.46191909966E+02  0.66673977529E+02  0.41800000000E+01 0.  1.
        -11    1    3    3    0    0 -0.55633410425E+01  0.95516581419E+02 -0.29821174744E+02  0.10021811489E+03  0.00000000000E+00 0.  1.
         11    1    3    3    0    0  0.52606029797E+02  0.83955549936E+01 -0.77535401614E+01  0.53833048397E+02  0.00000000000E+00 0. -1.
</event>
<event>
 8    1  0.8061721E-006  0.1536576E+03  0.7561462E-02  0.1196049E+00
         -1   -1    0    0    0  501 -0.00000000000E+00  0.00000000000E+00  0.17471077802E+02  0.17471077802E+02  0.00000000000E+00 0.  1.
          1   -1    0    0  501    0  0.00000000000E+00 -0.00000000000E+00 -0.16628526349E+04  0.16628526349E+04  0.00000000000E+00 0. -1.
         23    2    1    2    0    0  0.10737507591E+03 -0.46999935107E+02 -0.47779528740E+03  0.50022104459E+03  0.90522682029E+02 0.  0.
         23    2    1    2    0    0 -0.10737507591E+03  0.46999935107E+02 -0.11675862697E+04  0.11801026681E+04  0.12508480833E+03 0.  0.
          5    1    4    4  502    0 -0.83339381088E+02 -0.31518316701E+02 -0.60812351778E+03  0.61463041090E+03  0.41800000000E+01 0.  1.
         -5    1    4    4    0  502 -0.24035694821E+02  0.78518251808E+02 -0.55946275193E+03  0.56547225722E+03  0.41800000000E+01 0.  1.
        -11    1    3    3    0    0  0.38410663175E+02 -0.54336865005E+02 -0.13534160182E+03  0.15081519528E+03  0.00000000000E+00 0.  1.
         11    1    3    3    0    0  0.68964412733E+02  0.73369298980E+01 -0.34245368559E+03  0.34940584931E+03  0.00000000000E+00 0. -1.
</event>
<event>
 8    1  0.8061721E-006  0.1289088E+03  0.7561462E-02  0.1229084E+00
         -1   -1    0    0    0  501 -0.00000000000E+00  0.00000000000E+00  0.20728827325E+03  0.20728827325E+03  0.00000000000E+00 0.  1.
          1   -1    0    0  501    0  0.00000000000E+00 -0.00000000000E+00 -0.83676456389E+02  0.83676456389E+02  0.00000000000E+00 0. -1.
         23    2    1    2    0    0 -0.11815573135E+02  0.72420131705E+02  0.60072888713E+02  0.13263221474E+03  0.92726852547E+02 0.  0.
         23    2    1    2    0    0  0.11815573135E+02 -0.72420131705E+02  0.63538928144E+02  0.15833251490E+03  0.12509079358E+03 0.  0.
          5    1    4    4  502    0  0.36388480432E+02 -0.97547854147E+02  0.65173180530E+02  0.12290126613E+03  0.41800000000E+01 0. -1.
         -5    1    4    4    0  502 -0.24572907297E+02  0.25127722442E+02 -0.16342523861E+01  0.35431248765E+02  0.41800000000E+01 0. -1.
        -11    1    3    3    0    0 -0.32725413733E+02  0.86856426821E+02  0.46113093780E+02  0.10364076902E+03  0.00000000000E+00 0.  1.
         11    1    3    3    0    0  0.20909840598E+02 -0.14436295116E+02  0.13959794933E+02  0.28991445723E+02  0.00000000000E+00 0. -1.
</event>
<event>
 7    1  0.8061721E-006  0.7049616E+02  0.7561462E-02  0.1358414E+00
          1   -1    0    0  501    0  0.00000000000E+00  0.00000000000E+00  0.21129458281E+04  0.21129458281E+04  0.00000000000E+00 0. -1.
         -1   -1    0    0    0  501 -0.00000000000E+00 -0.00000000000E+00 -0.11610651347E+02  0.11610651347E+02  0.00000000000E+00 0.  1.
         23    2    1    2    0    0 -0.32440050007E+02  0.12201868063E+02  0.33135917297E+03  0.34536599458E+03  0.90980911585E+02 0.  0.
          5    1    1    2  502    0  0.36219796626E+02 -0.25583420137E+02  0.17621177517E+04  0.17626805804E+04  0.41800000000E+01 0. -1.
         -5    1    1    2    0  502 -0.37797466187E+01  0.13381552074E+02  0.78582520114E+01  0.16509904454E+02  0.41800000000E+01 0.  1.
        -11    1    3    3    0    0  0.17010692110E+02  0.25565264615E+02  0.45111026422E+02  0.54570606610E+02  0.00000000000E+00 0. -1.
         11    1    3    3    0    0 -0.49450742117E+02 -0.13363396551E+02  0.28624814654E+03  0.29079538797E+03  0.00000000000E+00 0.  1.
</event>
<event>
 8    1  0.8061721E-006  0.1123071E+03  0.7561462E-02  0.1256356E+00
          1   -1    0    0  501    0  0.00000000000E+00  0.00000000000E+00  0.24745497115E+02  0.24745497115E+02  0.00000000000E+00 0. -1.
         -1   -1    0    0    0  501 -0.00000000000E+00 -0.00000000000E+00 -0.64656873118E+03  0.64656873118E+03  0.00000000000E+00 0.  1.
         23    2    1    2    0    0  0.11174199150E+02  0.54080119730E+02 -0.37145077811E+03  0.38603971380E+03  0.89450869165E+02 0.  0.
         23    2    1    2    0    0 -0.11174199150E+02 -0.54080119730E+02 -0.25037245595E+03  0.28527451450E+03  0.12508261208E+03 0.  0.
          5    1    4    4  502    0 -0.51373150597E+02 -0.61967552624E+02 -0.21943381187E+03  0.23376879255E+03  0.41800000000E+01 0. -1.
         -5    1    4    4    0  502  0.40198951447E+02  0.78874328948E+01 -0.30938644087E+02  0.51505721945E+02  0.41800000000E+01 0. -1.
        -11    1    3    3    0    0  0.42767070355E+02  0.31266852049E+01 -0.11668892680E+03  0.12431855897E+03  0.00000000000E+00 0.  1.
         11    1    3    3    0    0 -0.31592871204E+02  0.50953434525E+02 -0.25476185131E+03  0.26172115483E+03  0.00000000000E+00 0. -1.
</event>
<event>
 8    1  0.8061721E-006  0.4762825E+02  0.7561462E-02  0.1458571E+00
          2   -1    0    0  501    0  0.00000000000E+00  0.00000000000E+00  0.40897857783E+03  0.40897857783E+03  0.00000000000E+00 0. -1.
         -2   -1    0    0    0  501 -0.00000000000E+00 -0.00000000000E+00 -0.32595484034E+02  0.32595484034E+02  0.00000000000E+00 0.  1.
         23    2    1    2    0    0 -0.15961108530E+02 -0.23201119009E+02  0.12778228316E+03  0.16185477456E+03  0.95265981590E+02 0.  0.
         23    2    1    2    0    0  0.15961108530E+02  0.23201119009E+02  0.24860081063E+03  0.27971928731E+03  0.12508983865E+03 0.  0.
          5    1    4    4  502    0  0.16896267021E+02  0.10971476615E+02 -0.85221008556E+01  0.22270063793E+02  0.41800000000E+01 0. -1.
         -5    1    4    4    0  502 -0.93515849119E+00  0.12229642394E+02  0.25712291149E+03  0.25744922351E+03  0.41800000000E+01 0. -1.
        -11    1    3    3    0    0 -0.34833409521E+02 -0.44447241608E+01  0.13046874799E+03  0.13511186548E+03  0.00000000000E+00 0. -1.
         11    1    3    3    0    0  0.18872300991E+02 -0.18756394849E+02 -0.26864648313E+01  0.26742909074E+02  0.00000000000E+00 0.  1.
</event>
<event>
 8    1  0.8061721E-006  0.2380842E+03  0.7561462E-02  0.1121076E+00
         -2   -1    0    0    0  501 -0.00000000000E+00  0.00000000000E+00  0.36920263195E+02  0.36920263195E+02  0.00000000000E+00 0.  1.
          2   -1    0    0  501    0  0.00000000000E+00 -0.00000000000E+00 -0.16190832003E+04  0.16190832003E+04  0.00000000000E+00 0. -1.
         23    2    1    2    0    0  0.13859988520E+03  0.16643152081E+03 -0.72045635354E+03  0.75873445983E+03  0.98545643641E+02 0.  0.
         23    2    1    2    0    0 -0.13859988520E+03 -0.16643152081E+03 -0.86170658358E+03  0.89726900367E+03  0.12507617471E+03 0.  0.
          5    1    4    4  502    0  0.20781113599E+02 -0.30155826487E+02 -0.83116824376E+02  0.90923635254E+02  0.41800000000E+01 0. -1.
         -5    1    4    4    0  502 -0.15938099880E+03 -0.13627569433E+03 -0.77858975920E+03  0.80634536842E+03  0.41800000000E+01 0. -1.
        -11    1    3    3    0    0  0.10947415324E+03  0.72698470638E+02 -0.50763504549E+03  0.52436914218E+03  0.00000000000E+00 0. -1.
         11    1    3    3    0    0  0.29125731959E+02  0.93733050174E+02 -0.21282130804E+03  0.23436531765E+03  0.00000000000E+00 0.  1.
</event>
<event>
 7    1  0.8061721E-006  0.1076251E+03  0.7561462E-02  0.1265032E+00
          3   -1    0    0  501    0  0.00000000000E+00  0.00000000000E+00  0.14301914832E+03  0.14301914832E+03  0.00000000000E+00 0. -1.
         -3   -1    0    0    0  501 -0.00000000000E+00 -0.00000000000E+00 -0.95127527244E+02  0.95127527244E+02  0.00000000000E+00 0.  1.
         23    2    1    2    0    0  0.41122907786E+02 -0.51091151263E+01  0.83059499465E+01  0.75563732258E+02  0.62639382389E+02 0.  0.
          5    1    1    2  502    0 -0.84927519362E+02  0.40154232305E+02  0.48208822603E+02  0.10567217654E+03  0.41800000000E+01 0. -1.
         -5    1    1    2    0  502  0.43804611576E+02 -0.35045117179E+02 -0.86231514701E+01  0.56910766773E+02  0.41800000000E+01 0.  1.
        -11    1    3    3    0    0 -0.30109990487E+01 -0.18576494809E+02 -0.14816396171E+02  0.23951573438E+02  0.00000000000E+00 0. -1.
         11    1    3    3    0    0  0.44133906835E+02  0.13467379683E+02  0.23122346118E+02  0.51612158820E+02  0.00000000000E+00 0.  1.
</event>
<event>
 8    1  0.8061721E-006  0.1031143E+03  0.7561462E-02  0.1273880E+00
          2   -1    0    0  501    0  0.00000000000E+00  0.00000000000E+00  0.29411254939E+03  0.29411254939E+03  0.00000000000E+00 0. -1.
         -2   -1    0    0    0  501 -0.00000000000E+00 -0.00000000000E+00 -0.50201231363E+02  0.50201231363E+02  0.00000000000E+00 0.  1.
         23    2    1    2    0    0 -0.18696301921E+02 -0.74628381361E+01  0.31523422348E+02  0.97007504034E+02  0.89506893722E+02 0.  0.
         23    2    1    2    0    0  0.18696301921E+02  0.74628381361E+01  0.21238789568E+03  0.24730627672E+03  0.12508609281E+03 0.  0.
          5    1    4    4  502    0  0.35073447647E+02  0.60077369768E+02  0.13841933181E+03  0.15497361359E+03  0.41800000000E+01 0.  1.
         -5    1    4    4    0  502 -0.16377145725E+02 -0.52614531631E+02  0.73968563863E+02  0.92332663131E+02  0.41800000000E+01 0.  1.
        -11    1    3    3    0    0  0.28023342221E+02 -0.18098089826E+02 -0.86690255721E+01  0.34467384133E+02  0.00000000000E+00 0.  1.
         11    1    3    3    0    0 -0.46719644143E+02  0.10635251690E+02  0.40192447920E+02  0.62540119900E+02  0.00000000000E+00 0. -1.
</event>
<event>
 8    1  0.8061721E-006  0.8940919E+02  0.7561462E-02  0.1304289E+00
         -1   -1    0    0    0  501 -0.00000000000E+00  0.00000000000E+00  0.18113766777E+02  0.18113766777E+02  0.00000000000E+00 0.  1.
          1   -1    0    0  501    0  0.00000000000E+00 -0.00000000000E+00 -0.91994377964E+03  0.91994377964E+03  0.00000000000E+00 0. -1.
         23    2    1    2    0    0 -0.63334973990E+02 -0.56915646541E+01 -0.30072839289E+03  0.32074833378E+03  0.91641772659E+02 0.  0.
         23    2    1    2    0    0  0.63334973990E+02  0.56915646541E+01 -0.60110161997E+03  0.61730921263E+03  0.12531477818E+03 0.  0.
          5    1    4    4  502    0  0.58619899492E+02  0.20136856231E+02 -0.59803609992E+03  0.60125405180E+03  0.41800000000E+01 0. -1.
         -5    1    4    4    0  502  0.47150744980E+01 -0.14445291577E+02 -0.30655200528E+01  0.16055160836E+02  0.41800000000E+01 0. -1.
        -11    1    3    3    0    0 -0.34250176390E+01 -0.34352577256E+02 -0.46053916228E+02  0.57556871961E+02  0.00000000000E+00 0.  1.
         11    1    3    3    0    0 -0.59909956351E+02  0.28661012602E+02 -0.25467447666E+03  0.26319146182E+03  0.00000000000E+00 0. -1.
</event>
<event>
 8    1  0.8061721E-006  0.1165372E+03  0.7561462E-02  0.1248921E+00
          2   -1    0    0  501    0  0.00000000000E+00  0.00000000000E+00  0.40024820521E+03  0.40024820521E+03  0.00000000000E+00 0. -1.
         -2   -1    0    0    0  501 -0.00000000000E+00 -0.00000000000E+00 -0.56512289558E+02  0.56512289558E+02  0.00000000000E+00 0.  1.
         23    2    1    2    0    0 -0.28562573672E+02 -0.35925196224E+02  0.14063986903E+02  0.10117843949E+03  0.89066495109E+02 0.  0.
         23    2    1    2    0    0  0.28562573672E+02  0.35925196224E+02  0.32967192875E+03  0.35558205528E+03  0.12509427282E+03 0.  0.
          5    1    4    4  502    0 -0.37913816135E+02  0.52108328936E+02  0.15222423999E+03  0.16535545664E+03  0.41800000000E+01 0. -1.
         -5    1    4    4    0  502  0.66476389807E+02 -0.16183132711E+02  0.17744768876E+03  0.19022659864E+03  0.41800000000E+01 0. -1.
        -11    1    3    3    0    0  0.19181276522E+02  0.19121811352E+02  0.68513491672E+00  0.27093070115E+02  0.00000000000E+00 0.  1.
         11    1    3    3    0    0 -0.47743850194E+02 -0.55047007577E+02  0.13378851986E+02  0.74085369372E+02  0.00000000000E+00 0. -1.
</event>
<event>
 8    1  0.8061721E-006  0.1838702E+03  0.7561462E-02  0.1164109E+00
          2   -1    0    0  501    0  0.00000000000E+00  0.00000000000E+00  0.35428031471E+03  0.35428031471E+03  0.00000000000E+00 0. -1.
         -2   -1    0    0    0  501 -0.00000000000E+00 -0.00000000000E+00 -0.13635785086E+03  0.13635785086E+03  0.00000000000E+00 0.  1.
         23    2    1    2    0    0  0.56312280431E+02 -0.13922597065E+03 -0.27703135043E+02  0.17673761918E+03  0.88959420595E+02 0.  0.
         23    2    1    2    0    0 -0.56312280431E+02  0.13922597065E+03  0.24562559889E+03  0.31390054638E+03  0.12508666739E+03 0.  0.
          5    1    4    4  502    0 -0.86848294179E+02  0.13744530434E+03  0.18848727531E+03  0.24895534387E+03  0.41800000000E+01 0. -1.
         -5    1    4    4    0  502  0.30536013749E+02  0.17806663068E+01  0.57138323577E+02  0.64945202513E+02  0.41800000000E+01 0. -1.
        -11    1    3    3    0    0 -0.24049459338E+02 -0.38193871747E+02 -0.24885721006E+01  0.45203333114E+02  0.00000000000E+00 0.  1.
         11    1    3    3    0    0  0.80361739769E+02 -0.10103209890E+03 -0.25214562942E+02  0.13153428607E+03  0.00000000000E+00 0. -1.
</event>
<event>
 7    1  0.8061721E-006  0.1655022E+03  0.7561462E-02  0.1182621E+00
         -1   -1    0    0    0  501 -0.00000000000E+00  0.00000000000E+00  0.54138992455E+02  0.54138992455E+02  0.00000000000E+00 0.  1.
          1   -1    0    0  501    0  0.00000000000E+00 -0.00000000000E+00 -0.96859016553E+03  0.96859016553E+03  0.00000000000E+00 0. -1.
         23    2    1    2    0    0  0.13713791729E+02  0.52725363661E+02 -0.22327916096E+02  0.96431623071E+02  0.76370740693E+02 0.  0.
          5    1    1    2  502    0 -0.20809189348E+02 -0.14517854419E+03 -0.66393553400E+03  0.67995418798E+03  0.41800000000E+01 0. -1.
         -5    1    1    2    0  502  0.70953976185E+01  0.92453180526E+02 -0.22818772298E+03  0.24634334693E+03  0.41800000000E+01 0.  1.
        -11    1    3    3    0    0  0.12809553070E+02  0.71514350884E+02 -0.86327527343E+01  0.73163593761E+02  0.00000000000E+00 0.  1.
         11    1    3    3    0    0  0.90423865930E+00 -0.18788987223E+02 -0.13695163362E+02  0.23268029310E+02  0.00000000000E+00 0. -1.
</event>
<event>
 8    1  0.8061721E-006  0.1041015E+03  0.7561462E-02  0.1271900E+00
         -1   -1    0    0    0  501 -0.00000000000E+00  0.00000000000E+00  0.56895078747E+03  0.56895078747E+03  0.00000000000E+00 0.  1.
          1   -1    0    0  501    0  0.00000000000E+00 -0.00000000000E+00 -0.38798632775E+02  0.38798632775E+02  0.00000000000E+00 0. -1.
         23    2    1    2    0    0 -0.49754397687E+02 -0.69318715913E+02  0.34482292314E+03  0.36842511752E+03  0.97742695024E+02 0.  0.
         23    2    1    2    0    0  0.49754397687E+02  0.69318715913E+02  0.18532923155E+03  0.23932430272E+03  0.12509441771E+03 0.  0.
          5    1    4    4  502    0 -0.27016521838E+00 -0.19989232035E+02  0.11071741904E+03  0.11258535280E+03  0.41800000000E+01 0. -1.
         -5    1    4    4    0  502  0.50024562905E+02  0.89307947948E+02  0.74611812507E+02  0.12673894992E+03  0.41800000000E+01 0. -1.
        -11    1    3    3    0    0 -0.33310150808E+02 -0.45734343977E+02  0.33227039083E+03  0.33705312488E+03  0.00000000000E+00 0.  1.
         11    1    3    3    0    0 -0.16444246879E+02 -0.23584371936E+02  0.12552532311E+02  0.31371992644E+02  0.00000000000E+00 0. -1.
</event>
<event>
 8    1  0.8061721E-006  0.9317057E+02  0.7561462E-02  0.1295350E+00
          1   -1    0    0  501    0  0.00000000000E+00  0.00000000000E+00  0.69515361104E+03  0.69515361104E+03  0.00000000000E+00 0. -1.
         -1   -1    0    0    0  501 -0.00000000000E+00 -0.00000000000E+00 -0.20736327953E+02  0.20736327953E+02  0.00000000000E+00 0.  1.
         23    2    1    2    0    0 -0.20581285912E+02 -0.42541907467E+02  0.22996511239E+03  0.25175783261E+03  0.90910121220E+02 0.  0.
         23    2    1    2    0    0  0.20581285912E+02  0.42541907467E+02  0.44445217069E+03  0.46413210639E+03  0.12508987538E+03 0.  0.
          5    1    4    4  502    0  0.52192957229E+02  0.54228594839E+02  0.15149494160E+03  0.16921298713E+03  0.41800000000E+01 0. -1.
         -5    1    4    4    0  502 -0.31611671317E+02 -0.11686687372E+02  0.29295722909E+03  0.29491911925E+03  0.41800000000E+01 0. -1.
        -11    1    3    3    0    0  0.13314338741E+02 -0.40956512170E+02  0.20540085744E+03  0.20986714784E+03  0.00000000000E+00 0. -1.
         11    1    3    3    0    0 -0.33895624652E+02 -0.15853952971E+01  0.24564254951E+02  0.41890684765E+02  0.00000000000E+00 0.  1.
</event>
<event>
 8    1  0.8061721E-006  0.9037190E+02  0.7561462E-02  0.1301954E+00
         -2   -1    0    0    0  501 -0.00000000000E+00  0.00000000000E+00  0.14556986632E+03  0.14556986632E+03  0.00000000000E+00 0.  1.
          2   -1    0    0  501    0  0.00000000000E+00 -0.00000000000E+00 -0.10140017405E+03  0.10140017405E+03  0.00000000000E+00 0. -1.
         23    2    1    2    0    0 -0.26854609130E+02 -0.28561565080E+02  0.69299157048E+02  0.11561764962E+03  0.83833971063E+02 0.  0.
         23    2    1    2    0    0  0.26854609130E+02  0.28561565080E+02 -0.25129464776E+02  0.13135239076E+03  0.12282112004E+03 0.  0.
          5    1    4    4  502    0  0.51999060569E+02 -0.32928762065E+02 -0.54005065243E+01  0.61926113570E+02  0.41800000000E+01 0. -1.
         -5    1    4    4    0  502 -0.25144451439E+02  0.61490327145E+02 -0.19728958251E+02  0.69426277188E+02  0.41800000000E+01 0.  1.
        -11    1    3    3    0    0 -0.14660224761E+02  0.59994445985E+01 -0.16161640391E+02  0.22629939144E+02  0.00000000000E+00 0. -1.
         11    1    3    3    0    0 -0.12194384369E+02 -0.34561009678E+02  0.85460797439E+02  0.92987710474E+02  0.00000000000E+00 0.  1.
</event>
<event>
 8    1  0.8061721E-006  0.2897495E+03  0.7561462E-02  0.1090480E+00
          1   -1    0    0  501    0  0.00000000000E+00  0.00000000000E+00  0.19204356365E+04  0.19204356365E+04  0.00000000000E+00 0.  1.
         -1   -1    0    0    0  501 -0.00000000000E+00 -0.00000000000E+00 -0.99733880502E+02  0.99733880502E+02  0.00000000000E+00 0. -1.
         23    2    1    2    0    0 -0.69120816139E+02  0.27227176310E+03  0.16902875383E+03  0.34011627154E+03  0.90546995214E+02 0.  0.
         23    2    1    2    0    0  0.69120816139E+02 -0.27227176310E+03  0.16516730022E+04  0.16800532455E+04  0.12508237790E+03 0.  0.
          5    1    4    4  502    0  0.33740069178E+02 -0.25732751443E+03  0.12586194936E+04  0.12851055770E+04  0.41800000000E+01 0.  1.
         -5    1    4    4    0  502  0.35380746961E+02 -0.14944248669E+02  0.39305350856E+03  0.39494766845E+03  0.41800000000E+01 0.  1.
        -11    1    3    3    0    0 -0.42695724489E+02  0.13800287614E+03  0.35143644510E+02  0.14867008597E+03  0.00000000000E+00 0. -1.
         11    1    3    3    0    0 -0.26425091650E+02  0.13426888696E+03  0.13388510931E+03  0.19144618558E+03  0.00000000000E+00 0.  1.
</event>
<event>
 8    1  0.8061721E-006  0.2395559E+03  0.7561462E-02  0.1120089E+00
         -1   -1    0    0    0  501 -0.00000000000E+00  0.00000000000E+00  0.95813343935E+02  0.95813343935E+02  0.00000000000E+00 0.  1.
          1   -1    0    0  501    0  0.00000000000E+00 -0.00000000000E+00 -0.71249000724E+03  0.71249000724E+03  0.00000000000E+00 0. -1.
         23    2    1    2    0    0  0.17224008631E+02 -0.23355924735E+03 -0.25230654573E+03  0.35745954300E+03  0.96291969388E+02 0.  0.
         23    2    1    2    0    0 -0.17224008631E+02  0.23355924735E+03 -0.36437011757E+03  0.45084380817E+03  0.12509183943E+03 0.  0.
          5    1    4    4  502    0  0.12145654679E+02  0.15214879096E+03 -0.12851193892E+03  0.19957345105E+03  0.41800000000E+01 0. -1.
         -5    1    4    4    0  502 -0.29369663310E+02  0.81410456387E+02 -0.23585817865E+03  0.25127035713E+03  0.41800000000E+01 0. -1.
        -11    1    3    3    0    0  0.15473779907E+02 -0.16178787775E+02  0.24939578273E+01  0.22525782209E+02  0.00000000000E+00 0. -1.
         11    1    3    3    0    0  0.17502287242E+01 -0.21738045957E+03 -0.25480050356E+03  0.33493376079E+03  0.00000000000E+00 0.  1.
</event>
<event>
 7    1  0.8061721E-006  0.1440574E+03  0.7561462E-02  0.1207971E+00
          2   -1    0    0  501    0  0.00000000000E+00  0.00000000000E+00  0.17651143528E+04  0.17651143528E+04  0.00000000000E+00 0. -1.
         -2   -1    0    0    0  501 -0.00000000000E+00 -0.00000000000E+00 -0.15929755976E+02  0.15929755976E+02  0.00000000000E+00 0.  1.
         23    2    1    2    0    0 -0.13974446322E+01  0.89947237580E+02  0.76236280899E+03  0.77777722426E+03  0.12509156504E+03 0.  0.
          5    1    3    3  502    0 -0.18146877579E+02  0.32718331974E+01  0.12367977160E+02  0.22593213967E+02  0.41800000000E+01 0.  1.
         -5    1    3    3    0  502  0.16749432947E+02  0.86675404382E+02  0.74999483183E+03  0.75518401029E+03  0.41800000000E+01 0.  1.
        -11    1    1    2    0    0 -0.44347876097E+02  0.29270570202E+02  0.30347614388E+03  0.30809295723E+03  0.00000000000E+00 0. -1.
         11    1    1    2    0    0  0.45745320729E+02 -0.11921780778E+03  0.68334564395E+03  0.69517392727E+03  0.00000000000E+00 0.  1.
</event>
<event>
 8    1  0.8061721E-006  0.1238762E+03  0.7561462E-02  0.1236836E+00
         -1   -1    0    0    0  501 -0.00000000000E+00  0.00000000000E+00  0.33632334301E+02  0.33632334301E+02  0.00000000000E+00 0.  1.
          1   -1    0    0  501    0  0.00000000000E+00 -0.00000000000E+00 -0.54637152094E+03  0.54637152094E+03  0.00000000000E+00 0. -1.
         23    2    1    2    0    0  0.81787421149E+02  0.44372468898E+02 -0.23035890992E+03  0.26249375003E+03  0.84732775068E+02 0.  0.
         23    2    1    2    0    0 -0.81787421149E+02 -0.44372468898E+02 -0.28238027672E+03  0.31751010521E+03  0.11142687278E+03 0.  0.
          5    1    4    4  502    0  0.22991442422E+02 -0.31928886675E+02 -0.78055361958E+02  0.87510983078E+02  0.41800000000E+01 0.  1.
         -5    1    4    4    0  502 -0.10477886357E+03 -0.12443582223E+02 -0.20432491476E+03  0.22999912213E+03  0.41800000000E+01 0. -1.
        -11    1    3    3    0    0  0.17954213825E+02 -0.83460419411E+01 -0.23720766362E+01  0.19940836435E+02  0.00000000000E+00 0.  1.
         11    1    3    3    0    0  0.63833207324E+02  0.52718510839E+02 -0.22798683328E+03  0.24255291359E+03  0.00000000000E+00 0. -1.
</event>
<event>
 8    1  0.8061721E-006  0.1070052E+03  0.7561462E-02  0.1266218E+00
          1   -1    0    0  501    0  0.00000000000E+00  0.00000000000E+00  0.65594550520E+02  0.65594550520E+02  0.00000000000E+00 0. -1.
         -1   -1    0    0    0  501 -0.00000000000E+00 -0.00000000000E+00 -0.21910354802E+03  0.21910354802E+03  0.00000000000E+00 0.  1.
         23    2    1    2    0    0 -0.45651428340E+01 -0.49430586382E+02 -0.60675033488E+02  0.12120716489E+03  0.92441839735E+02 0.  0.
         23    2    1    2    0    0  0.45651428340E+01  0.49430586382E+02 -0.92833964012E+02  0.16349093365E+03  0.12508763772E+03 0.  0.
          5    1    4    4  502    0 -0.49951157393E+02  0.35315919468E+01 -0.52864789888E+01  0.50527314659E+02  0.41800000000E+01 0.  1.
         -5    1    4    4    0  502  0.54516300227E+02  0.45898994435E+02 -0.87547485023E+02  0.11296361899E+03  0.41800000000E+01 0.  1.
        -11    1    3    3    0    0 -0.13787725040E+02  0.18915435715E+02  0.71535051494E+01  0.24475859657E+02  0.00000000000E+00 0. -1.
         11    1    3    3    0    0  0.92225822058E+01 -0.68346022097E+02 -0.67828538638E+02  0.96731305236E+02  0.00000000000E+00 0.  1.
</event>
<event>
 8    1  0.8061721E-006  0.2798467E+03  0.7561462E-02  0.1095773E+00
         -1   -1    0    0    0  501 -0.00000000000E+00  0.00000000000E+00  0.11357895966E+04  0.11357895966E+04  0.00000000000E+00 0.  1.
          1   -1    0    0  501    0  0.00000000000E+00 -0.00000000000E+00 -0.81871009390E+02  0.81871009390E+02  0.00000000000E+00 0. -1.
         23    2    1    2    0    0  0.16656682950E+03  0.20412145327E+03  0.73264844730E+03  0.78375574590E+03  0.89940233061E+02 0.  0.
         23    2    1    2    0    0 -0.16656682950E+03 -0.20412145327E+03  0.32127013989E+03  0.43390486007E+03  0.12509535735E+03 0.  0.
          5    1    4    4  502    0 -0.42965568148E+02  0.97812378994E+01  0.56168383595E+02  0.71512742758E+02  0.41800000000E+01 0.  1.
         -5    1    4    4    0  502 -0.12360126136E+03 -0.21390269117E+03  0.26510175629E+03  0.36239211731E+03  0.41800000000E+01 0.  1.
        -11    1    3    3    0    0  0.69637270602E+02  0.12557105877E+03  0.28616200830E+03  0.32016579338E+03  0.00000000000E+00 0. -1.
         11    1    3    3    0    0  0.96929558902E+02  0.78550394503E+02  0.44648643900E+03  0.46358995252E+03  0.00000000000E+00 0.  1.
</event>
<event>
 8    1  0.8061721E-006  0.1037208E+03  0.7561462E-02  0.1272661E+00
          1   -1    0    0  501    0  0.00000000000E+00  0.00000000000E+00  0.92283962274E+03  0.92283962274E+03  0.00000000000E+00 0. -1.
         -1   -1    0    0    0  501 -0.00000000000E+00 -0.00000000000E+00 -0.18335821264E+02  0.18335821264E+02  0.00000000000E+00 0.  1.
         23    2    1    2    0    0  0.31017922926E+01  0.74845442569E+02  0.30766858673E+03  0.32678908332E+03  0.80744562216E+02 0.  0.
         23    2    1    2    0    0 -0.31017922926E+01 -0.74845442569E+02  0.59683521475E+03  0.61438636068E+03  0.12508743040E+03 0.  0.
          5    1    4    4  502    0  0.16940027566E+02  0.76814430293E+01  0.10200514884E+02  0.21621563423E+02  0.41800000000E+01 0. -1.
         -5    1    4    4    0  502 -0.20041819859E+02 -0.82526885598E+02  0.58663469986E+03  0.59276479726E+03  0.41800000000E+01 0. -1.
        -11    1    3    3    0    0 -0.32969091580E+02  0.48653785018E+02  0.22845876407E+03  0.23589734775E+03  0.00000000000E+00 0. -1.
         11    1    3    3    0    0  0.36070883872E+02  0.26191657550E+02  0.79209822660E+02  0.90891735567E+02  0.00000000000E+00 0.  1.
</event>
<event>
 8    1  0.8061721E-006  0.1045773E+03  0.7561462E-02  0.1270955E+00
          1   -1    0    0  501    0  0.00000000000E+00  0.00000000000E+00  0.29806833157E+02  0.29806833157E+02  0.00000000000E+00 0. -1.
         -1   -1    0    0    0  501 -0.00000000000E+00 -0.00000000000E+00 -0.50674472956E+03  0.50674472956E+03  0.00000000000E+00 0.  1.
         23    2    1    2    0    0  0.10461788958E+02 -0.24926382055E+02 -0.32851600596E+03  0.34057401499E+03  0.85656990160E+02 0.  0.
         23    2    1    2    0    0 -0.10461788958E+02  0.24926382055E+02 -0.14842189044E+03  0.19597754773E+03  0.12508944040E+03 0.  0.
          5    1    4    4  502    0  0.52211255754E+02  0.30533716230E+02 -0.97991315851E+02  0.11523060981E+03  0.41800000000E+01 0. -1.
         -5    1    4    4    0  502 -0.62673044711E+02 -0.56073341750E+01 -0.50430574590E+02  0.80746937920E+02  0.41800000000E+01 0. -1.
        -11    1    3    3    0    0  0.41731126976E+02  0.51872456875E+01 -0.10950465163E+03  0.11730159080E+03  0.00000000000E+00 0. -1.
         11    1    3    3    0    0 -0.31269338019E+02 -0.30113627742E+02 -0.21901135433E+03  0.22327242419E+03  0.00000000000E+00 0.  1.
</event>
<event>
 8    1  0.8061721E-006  0.1939660E+03  0.7561462E-02  0.1154932E+00
          2   -1    0    0  501    0  0.00000000000E+00  0.00000000000E+00  0.38435870609E+03  0.38435870609E+03  0.00000000000E+00 0.  1.
         -2   -1    0    0    0  501 -0.00000000000E+00 -0.00000000000E+00 -0.16289888034E+03  0.16289888034E+03  0.00000000000E+00 0. -1.
         23    2    1    2    0    0  0.47671715482E+02 -0.15525352214E+03 -0.61681304851E+02  0.19769458743E+03  0.94352095564E+02 0.  0.
         23    2    1    2    0    0 -0.47671715482E+02  0.15525352214E+03  0.28314113060E+03  0.34956299901E+03  0.12509653011E+03 0.  0.
          5    1    4    4  502    0 -0.73512460657E+02  0.16073129978E+03  0.23024953779E+03  0.29029459976E+03  0.41800000000E+01 0.  1.
         -5    1    4    4    0  502  0.25840745175E+02 -0.54777776404E+01  0.52891592815E+02  0.59268399250E+02  0.41800000000E+01 0.  1.
        -11    1    3    3    0    0  0.66603009483E+02 -0.68278511019E+02 -0.13070440664E+02  0.96274359818E+02  0.00000000000E+00 0.  1.
         11    1    3    3    0    0 -0.18931294001E+02 -0.86975011117E+02 -0.48610864187E+02  0.10142022761E+03  0.00000000000E+00 0. -1.
</event>
<event>
 8    1  0.8061721E-006  0.1634409E+03  0.7561462E-02  0.1184866E+00
         -2   -1    0    0    0  501 -0.00000000000E+00  0.00000000000E+00  0.39753092219E+03  0.39753092219E+03  0.00000000000E+00 0.  1.
          2   -1    0    0  501    0  0.00000000000E+00 -0.00000000000E+00 -0.86426285733E+02  0.86426285733E+02  0.00000000000E+00 0. -1.
         23    2    1    2    0    0  0.14650802664E+03 -0.23183416244E+02  0.17290448553E+03  0.24573663772E+03  0.92132846172E+02 0.  0.
         23    2    1    2    0    0 -0.14650802664E+03  0.23183416244E+02  0.13820015093E+03  0.23822057020E+03  0.12509070985E+03 0.  0.
          5    1    4    4  502    0 -0.12818931810E+03  0.67833699192E+01  0.36522090600E+02  0.13352846470E+03  0.41800000000E+01 0. -1.
         -5    1    4    4    0  502 -0.18318708537E+02  0.16400046325E+02  0.10167806033E+03  0.10469210550E+03  0.41800000000E+01 0. -1.
        -11    1    3    3    0    0  0.76892073868E+02 -0.57381499251E+02  0.10925216970E+03  0.14539967010E+03  0.00000000000E+00 0.  1.
         11    1    3    3    0    0  0.69615952774E+02  0.34198083007E+02  0.63652315831E+02  0.10033696763E+03  0.00000000000E+00 0. -1.
</event>
<event>
 8    1  0.8061721E-006  0.1193436E+03  0.7561462E-02  0.1244184E+00
         -2   -1    0    0    0  501 -0.00000000000E+00  0.00000000000E+00  0.21567769585E+02  0.21567769585E+02  0.00000000000E+00 0.  1.
          2   -1    0    0  501    0  0.00000000000E+00 -0.00000000000E+00 -0.12366243607E+04  0.12366243607E+04  0.00000000000E+00 0. -1.
         23    2    1    2    0    0 -0.97485644917E+02  0.66311583831E+02 -0.45170584414E+03  0.47572615641E+03  0.91523380323E+02 0.  0.
         23    2    1    2    0    0  0.97485644917E+02 -0.66311583831E+02 -0.76335074699E+03  0.78246597390E+03  0.12509180731E+03 0.  0.
          5    1    4    4  502    0  0.22578815485E+02 -0.20668492699E+02 -0.27399789688E+02  0.41294192983E+02  0.41800000000E+01 0. -1.
         -5    1    4    4    0  502  0.74906829432E+02 -0.45643091132E+02 -0.73595095730E+03  0.74117178091E+03  0.41800000000E+01 0. -1.
        -11    1    3    3    0    0 -0.37960125312E+01  0.99270497875E+01  0.34937384965E+00  0.10633818256E+02  0.00000000000E+00 0.  1.
         11    1    3    3    0    0 -0.93689632386E+02  0.56384534043E+02 -0.45205521799E+03  0.46509233816E+03  0.00000000000E+00 0. -1.
</event>
<event>
 8    1  0.8061721E-006  0.7774720E+02  0.7561462E-02  0.1335569E+00
          2   -1    0    0  501    0  0.00000000000E+00  0.00000000000E+00  0.39110640507E+03  0.39110640507E+03  0.00000000000E+00 0. -1.
         -2   -1    0    0    0  501 -0.00000000000E+00 -0.00000000000E+00 -0.43902156082E+02  0.43902156082E+02  0.00000000000E+00 0.  1.
         23    2    1    2    0    0 -0.20560485167E+01  0.56163468881E+02  0.88482565116E+02  0.14219196866E+03  0.96077203586E+02 0.  0.
         23    2    1    2    0    0  0.20560485167E+01 -0.56163468881E+02  0.25872168387E+03  0.29281659250E+03  0.12508430982E+03 0.  0.
          5    1    4    4  502    0 -0.39226964189E+02 -0.29115091875E+02  0.27227176911E+02  0.56082393467E+02  0.41800000000E+01 0. -1.
         -5    1    4    4    0  502  0.41283012706E+02 -0.27048377005E+02  0.23149450696E+03  0.23673419903E+03  0.41800000000E+01 0. -1.
        -11    1    3    3    0    0  0.35215850503E+01  0.28179323158E+02  0.10530545373E+03  0.10906747637E+03  0.00000000000E+00 0. -1.
         11    1    3    3    0    0 -0.55776335671E+01  0.27984145723E+02 -0.16822888618E+02  0.33124492291E+02  0.00000000000E+00 0.  1.
</event>
<event>
 8    1  0.8061721E-006  0.1958260E+03  0.7561462E-02  0.1153309E+00
          1   -1    0    0  501    0  0.00000000000E+00  0.00000000000E+00  0.92274521262E+02  0.92274521262E+02  0.00000000000E+00 0. -1.
         -1   -1    0    0    0  501 -0.00000000000E+00 -0.00000000000E+00 -0.43674075431E+03  0.43674075431E+03  0.00000000000E+00 0.  1.
         23    2    1    2    0    0  0.12177838427E+03 -0.11338501985E+03 -0.18305215261E+03  0.26542780088E+03  0.96216886797E+02 0.  0.
         23    2    1    2    0    0 -0.12177838427E+03  0.11338501985E+03 -0.16141408044E+03  0.26358747469E+03  0.12545004523E+03 0.  0.
          5    1    4    4  502    0  0.19764554310E+02 -0.33669965567E+01 -0.21560235006E+01  0.20593569632E+02  0.41800000000E+01 0. -1.
         -5    1    4    4    0  502 -0.14154293857E+03  0.11675201641E+03 -0.15925805694E+03  0.24299390506E+03  0.41800000000E+01 0.  1.
        -11    1    3    3    0    0  0.36631816288E+02 -0.93193775770E+02 -0.12608664400E+03  0.16101183684E+03  0.00000000000E+00 0.  1.
         11    1    3    3    0    0  0.85146567978E+02 -0.20191244080E+02 -0.56965508610E+02  0.10441596404E+03  0.00000000000E+00 0. -1.
</event>
<event>
 8    1  0.8061721E-006  0.1136167E+03  0.7561462E-02  0.1254015E+00
         -1   -1    0    0    0  501 -0.00000000000E+00  0.00000000000E+00  0.29508280953E+02  0.29508280953E+02  0.00000000000E+00 0.  1.
          1   -1    0    0  501    0  0.00000000000E+00 -0.00000000000E+00 -0.55881000572E+03  0.55881000572E+03  0.00000000000E+00 0. -1.
         23    2    1    2    0    0 -0.52581296524E+02 -0.39956450593E+02 -0.20976829576E+03  0.23887406085E+03  0.93256465472E+02 0.  0.
         23    2    1    2    0    0  0.52581296524E+02  0.39956450593E+02 -0.31953342901E+03  0.34944422583E+03  0.12509334123E+03 0.  0.
          5    1    4    4  502    0  0.60954915930E+02 -0.30932253841E+02 -0.13127393222E+03  0.14806290482E+03  0.41800000000E+01 0. -1.
         -5    1    4    4    0  502 -0.83736194065E+01  0.70888704434E+02 -0.18825949680E+03  0.20138132101E+03  0.41800000000E+01 0. -1.
        -11    1    3    3    0    0  0.44975420600E+01 -0.28724061140E+02 -0.15908108457E+03  0.16171608158E+03  0.00000000000E+00 0. -1.
         11    1    3    3    0    0 -0.57078838584E+02 -0.11232389453E+02 -0.50687211187E+02  0.77157979269E+02  0.00000000000E+00 0.  1.
</event>
<event>
 8    1  0.8061721E-006  0.1025548E+03  0.7561462E-02  0.1275013E+00
          1   -1    0    0  501    0  0.00000000000E+00  0.00000000000E+00  0.61494139309E+03  0.61494139309E+03  0.00000000000E+00 0. -1.
         -1   -1    0    0    0  501 -0.00000000000E+00 -0.00000000000E+00 -0.22800961723E+02  0.22800961723E+02  0.00000000000E+00 0.  1.
         23    2    1    2    0    0  0.14547438975E+02 -0.38338558775E+02  0.21014131895E+03  0.23369679488E+03  0.93666135485E+02 0.  0.
         23    2    1    2    0    0 -0.14547438975E+02  0.38338558775E+02  0.38199911241E+03  0.40404555993E+03  0.12509204429E+03 0.  0.
          5    1    4    4  502    0  0.23804569130E+02  0.74760269873E+02  0.23111380707E+03  0.24410411648E+03  0.41800000000E+01 0. -1.
         -5    1    4    4    0  502 -0.38352008105E+02 -0.36421711098E+02  0.15088530535E+03  0.15994144345E+03  0.41800000000E+01 0. -1.
        -11    1    3    3    0    0  0.35575069882E+02 -0.38548711125E+02  0.20559632584E+03  0.21218255801E+03  0.00000000000E+00 0. -1.
         11    1    3    3    0    0 -0.21027630908E+02  0.21015234940E+00  0.45449931131E+01  0.21514236867E+02  0.00000000000E+00 0.  1.
</event>
<event>
 7    1  0.8061721E-006  0.1302015E+03  0.7561462E-02  0.1227157E+00
          1   -1    0    0  501    0  0.00000000000E+00  0.00000000000E+00  0.22959576838E+02  0.22959576838E+02  0.00000000000E+00 0. -1.
         -1   -1    0    0    0  501 -0.00000000000E+00 -0.00000000000E+00 -0.91540967858E+03  0.91540967858E+03  0.00000000000E+00 0.  1.
         23    2    1    2    0    0  0.82148161304E+02  0.27731113425E+02 -0.48413495829E+03  0.50033075424E+03  0.91797988775E+02 0.  0.
          5    1    1    2  502    0  0.13922959574E+02  0.23423452965E+02 -0.20981247853E+03  0.21161582053E+03  0.41800000000E+01 0.  1.
         -5    1    1    2    0  502 -0.96071120879E+02 -0.51154566391E+02 -0.19850266492E+03  0.22642268064E+03  0.41800000000E+01 0.  1.
        -11    1    3    3    0    0 -0.16882685931E+02  0.17564015629E+02 -0.61967411556E+02  0.66584381233E+02  0.00000000000E+00 0. -1.
         11    1    3    3    0    0  0.99030847235E+02  0.10167097796E+02 -0.42216754673E+03  0.43374637301E+03  0.00000000000E+00 0.  1.
</event>
<event>
 8    1  0.8061721E-006  0.1567820E+03  0.7561462E-02  0.1192378E+00
         -1   -1    0    0    0  501 -0.00000000000E+00  0.00000000000E+00  0.26551495391E+03  0.26551495391E+03  0.00000000000E+00 0.  1.
          1   -1    0    0  501    0  0.00000000000E+00 -0.00000000000E+00 -0.13115787247E+03  0.13115787247E+03  0.00000000000E+00 0. -1.
         23    2    1    2    0    0 -0.13684744185E+03  0.17072179217E+02  0.13063180134E+03  0.21044914927E+03  0.90584188805E+02 0.  0.
         23    2    1    2    0    0  0.13684744185E+03 -0.17072179217E+02  0.37252800962E+01  0.18622367712E+03  0.12508676413E+03 0.  0.
          5    1    4    4  502    0 -0.85014130758E+01  0.21283843872E+02  0.25196031838E+02  0.34316008722E+02  0.41800000000E+01 0.  1.
         -5    1    4    4    0  502  0.14534885493E+03 -0.38356023089E+02 -0.21470751741E+02  0.15190766839E+03  0.41800000000E+01 0.  1.
        -11    1    3    3    0    0 -0.71918518733E+02 -0.28285966435E+01  0.12246561386E+03  0.14204964228E+03  0.00000000000E+00 0.  1.
         11    1    3    3    0    0 -0.64928923120E+02  0.19900775861E+02  0.81661874795E+01  0.68399506982E+02  0.00000000000E+00 0. -1.
</event>
<event>
 8    1  0.9284823E-006  0.1189291E+03  0.7561462E-02  0.1244874E+00
          3   -1    0    0  501    0  0.00000000000E+00  0.00000000000E+00  0.12013936300E+03  0.12013936300E+03  0.00000000000E+00 0. -1.
         -3   -1    0    0    0  501 -0.00000000000E+00 -0.00000000000E+00 -0.17411490493E+03  0.17411490493E+03  0.00000000000E+00 0.  1.
         23    2    1    2    0    0  0.19772883683E+02  0.89262984814E+02 -0.54347806990E+02  0.13931390872E+03  0.89976850647E+02 0.  0.
         23    2    1    2    0    0 -0.19772883683E+02 -0.89262984814E+02  0.37226505214E+00  0.15494035921E+03  0.12509008331E+03 0.  0.
          5    1    4    4  502    0  0.55292436933E+01 -0.82863273821E+02 -0.50730935562E+02  0.97406339153E+02  0.41800000000E+01 0.  1.
         -5    1    4    4    0  502 -0.25302127376E+02 -0.63997109929E+01  0.51103200614E+02  0.57534020053E+02  0.41800000000E+01 0.  1.
        -11    1    3    3    0    0 -0.35541604880E+02  0.45529725627E+02 -0.24840608512E+02  0.62874616694E+02  0.00000000000E+00 0.  1.
         11    1    3    3    0    0  0.55314488563E+02  0.43733259187E+02 -0.29507198478E+02  0.76439292030E+02  0.00000000000E+00 0. -1.
</event>
<event>
 7    1  0.8061721E-006  0.1318681E+03  0.7561462E-02  0.1224710E+00
         -3   -1    0    0    0  501 -0.00000000000E+00  0.00000000000E+00  0.22170036972E+02  0.22170036972E+02  0.00000000000E+00 0.  1.
          3   -1    0    0  501    0  0.00000000000E+00 -0.00000000000E+00 -0.95166071940E+03  0.95166071940E+03  0.00000000000E+00 0. -1.
         23    2    1    2    0    0 -0.15481859877E+02  0.53156297939E+02 -0.27071092432E+03  0.29258861181E+03  0.96220638241E+02 0.  0.
          5    1    1    2  502    0  0.87953567370E+02 -0.38533903894E+02 -0.43633733108E+03  0.44679797521E+03  0.41800000000E+01 0. -1.
         -5    1    1    2    0  502 -0.72471707492E+02 -0.14622394045E+02 -0.22244242703E+03  0.23444416934E+03  0.41800000000E+01 0.  1.
        -11    1    3    3    0    0 -0.46227153364E+02  0.33263250968E+02 -0.78861650960E+02  0.97275657619E+02  0.00000000000E+00 0.  1.
         11    1    3    3    0    0  0.30745293486E+02  0.19893046972E+02 -0.19184927336E+03  0.19531295419E+03  0.00000000000E+00 0. -1.
</event>
<event>
 8    1  0.8061721E-006  0.9176338E+02  0.7561462E-02  0.1298637E+00
         -3   -1    0    0    0  501 -0.00000000000E+00  0.00000000000E+00  0.87466295574E+02  0.87466295574E+02  0.00000000000E+00 0.  1.
          3   -1    0    0  501    0  0.00000000000E+00 -0.00000000000E+00 -0.15783506628E+03  0.15783506628E+03  0.00000000000E+00 0. -1.
         23    2    1    2    0    0  0.25840687415E+02 -0.41331721427E+02 -0.34851161152E+02  0.10642756302E+03  0.87955502471E+02 0.  0.
         23    2    1    2    0    0 -0.25840687415E+02  0.41331721427E+02 -0.35517609557E+02  0.13887379883E+03  0.12509348141E+03 0.  0.
          5    1    4    4  502    0 -0.44782088954E+02  0.74765130083E+02 -0.46260136150E+02  0.98755925209E+02  0.41800000000E+01 0. -1.
         -5    1    4    4    0  502  0.18941401539E+02 -0.33433408656E+02  0.10742526593E+02  0.40117873625E+02  0.41800000000E+01 0. -1.
        -11    1    3    3    0    0  0.22682733951E+02 -0.78650544601E+01  0.26939713274E+02  0.36084811936E+02  0.00000000000E+00 0.  1.
         11    1    3    3    0    0  0.31579534639E+01 -0.33466666967E+02 -0.61790874427E+02  0.70342751086E+02  0.00000000000E+00 0. -1.
</event>
<event>
 8    1  0.8061721E-006  0.1768253E+03  0.7561462E-02  0.1170911E+00
          2   -1    0    0  501    0  0.00000000000E+00  0.00000000000E+00  0.59272705232E+03  0.59272705232E+03  0.00000000000E+00 0. -1.
         -2   -1    0    0    0  501 -0.00000000000E+00 -0.00000000000E+00 -0.59105876040E+02  0.59105876040E+02  0.00000000000E+00 0.  1.
         23    2    1    2    0    0  0.13405096719E+03  0.71880628089E+02  0.26510518137E+03  0.31883530507E+03  0.90767329298E+02 0.  0.
         23    2    1    2    0    0 -0.13405096719E+03 -0.71880628089E+02  0.26851599490E+03  0.33299762329E+03  0.12510032413E+03 0.  0.
          5    1    4    4  502    0 -0.43831720268E+02  0.29379054076E+02  0.36764284608E+02  0.64447137584E+02  0.41800000000E+01 0. -1.
         -5    1    4    4    0  502 -0.90219246921E+02 -0.10125968217E+03  0.23175171029E+03  0.26855048570E+03  0.41800000000E+01 0. -1.
        -11    1    3    3    0    0  0.89730553024E+01  0.32779885129E+02  0.11331572617E+03  0.11830253754E+03  0.00000000000E+00 0. -1.
         11    1    3    3    0    0  0.12507791189E+03  0.39100742960E+02  0.15178945520E+03  0.20053276753E+03  0.00000000000E+00 0.  1.
</event>
<event>
 8    1  0.8061721E-006  0.9457177E+02  0.7561462E-02  0.1292143E+00
          2   -1    0    0  501    0  0.00000000000E+00  0.00000000000E+00  0.31883161140E+03  0.31883161140E+03  0.00000000000E+00 0. -1.
         -2   -1    0    0    0  501 -0.00000000000E+00 -0.00000000000E+00 -0.38593063741E+02  0.38593063741E+02  0.00000000000E+00 0.  1.
         23    2    1    2    0    0  0.19789492147E+02 -0.31760956137E+01  0.99284775127E+02  0.13653370087E+03  0.91554755841E+02 0.  0.
         23    2    1    2    0    0 -0.19789492147E+02  0.31760956137E+01  0.18095377253E+03  0.22089097428E+03  0.12508734205E+03 0.  0.
          5    1    4    4  502    0  0.28907152693E+02  0.48499200843E+02  0.58119220996E+02  0.81136380301E+02  0.41800000000E+01 0.  1.
         -5    1    4    4    0  502 -0.48696644840E+02 -0.45323105229E+02  0.12283455154E+03  0.13975459398E+03  0.41800000000E+01 0.  1.
        -11    1    3    3    0    0  0.41877161845E+02  0.53063792359E+01  0.10414914924E+03  0.11237837707E+03  0.00000000000E+00 0. -1.
         11    1    3    3    0    0 -0.22087669698E+02 -0.84824748496E+01 -0.48643741135E+01  0.24155323798E+02  0.00000000000E+00 0.  1.
</event>
<event>
 8    1  0.8061721E-006  0.1522676E+03  0.7561462E-02  0.1197714E+00
          1   -1    0    0  501    0  0.00000000000E+00  0.00000000000E+00  0.28754764546E+03  0.28754764546E+03  0.00000000000E+00 0. -1.
         -1   -1    0    0    0  501 -0.00000000000E+00 -0.00000000000E+00 -0.10967973792E+03  0.10967973792E+03  0.00000000000E+00 0.  1.
         23    2    1    2    0    0 -0.11242261990E+03 -0.19478520043E+02 -0.70895117399E+01  0.14647991070E+03  0.91585178135E+02 0.  0.
         23    2    1    2    0    0  0.11242261990E+03  0.19478520043E+02  0.18495741928E+03  0.25074747267E+03  0.12508712922E+03 0.  0.
          5    1    4    4  502    0 -0.21564728484E+02 -0.34321942221E+01  0.13687073993E+01  0.22274721810E+02  0.41800000000E+01 0. -1.
         -5    1    4    4    0  502  0.13398734839E+03  0.22910714265E+02  0.18358871188E+03  0.22847275086E+03  0.41800000000E+01 0. -1.
        -11    1    3    3    0    0 -0.38082858846E+02  0.36883554515E+02 -0.29265168902E+01  0.53096753504E+02  0.00000000000E+00 0. -1.
         11    1    3    3    0    0 -0.74339761058E+02 -0.56362074557E+02 -0.41629948496E+01  0.93383157200E+02  0.00000000000E+00 0.  1.
</event>
<event>
 8    1  0.8061721E-006  0.7734988E+02  0.7561462E-02  0.1336745E+00
          1   -1    0    0  501    0  0.00000000000E+00  0.00000000000E+00  0.71212923233E+02  0.71212923233E+02  0.00000000000E+00 0. -1.
         -1   -1    0    0    0  501 -0.00000000000E+00 -0.00000000000E+00 -0.20190623562E+03  0.20190623562E+03  0.00000000000E+00 0.  1.
         23    2    1    2    0    0  0.35744542265E+02  0.21580113105E+02 -0.92327082955E+02  0.13577499462E+03  0.90372481067E+02 0.  0.
         23    2    1    2    0    0 -0.35744542265E+02 -0.21580113105E+02 -0.38366229432E+02  0.13734416423E+03  0.12509227915E+03 0.  0.
          5    1    4    4  502    0 -0.96498086364E+01  0.14755311930E+02 -0.76374461120E+02  0.78494386731E+02  0.41800000000E+01 0. -1.
         -5    1    4    4    0  502 -0.26094733629E+02 -0.36335425035E+02  0.38008231688E+02  0.58849777500E+02  0.41800000000E+01 0. -1.
        -11    1    3    3    0    0  0.29403080509E+02 -0.28631532355E+02 -0.15695640812E+02  0.43939264092E+02  0.00000000000E+00 0. -1.
         11    1    3    3    0    0  0.63414617563E+01  0.50211645460E+02 -0.76631442143E+02  0.91835730530E+02  0.00000000000E+00 0.  1.
</event>
<event>
 8    1  0.8061721E-006  0.1666941E+03  0.7561462E-02  0.1181340E+00
          2   -1    0    0  501    0  0.00000000000E+00  0.00000000000E+00  0.64999847369E+03  0.64999847369E+03  0.00000000000E+00 0. -1.
         -2   -1    0    0    0  501 -0.00000000000E+00 -0.00000000000E+00 -0.49100464034E+02  0.49100464034E+02  0.00000000000E+00 0.  1.
         23    2    1    2    0    0 -0.25686786396E+02  0.13392863016E+03  0.20413630972E+03  0.26130382494E+03  0.89506240065E+02 0.  0.
         23    2    1    2    0    0  0.25686786396E+02 -0.13392863016E+03  0.39676169993E+03  0.43779511278E+03  0.12509206716E+03 0.  0.
          5    1    4    4  502    0 -0.43554890503E+02 -0.94051998837E+02  0.19785425909E+03  0.22339782276E+03  0.41800000000E+01 0. -1.
         -5    1    4    4    0  502  0.69241676900E+02 -0.39876631326E+02  0.19890744084E+03  0.21439729002E+03  0.41800000000E+01 0. -1.
        -11    1    3    3    0    0 -0.46164369554E+02  0.88649586716E+02  0.81446266275E+02  0.12893173594E+03  0.00000000000E+00 0. -1.
         11    1    3    3    0    0  0.20477583158E+02  0.45279043447E+02  0.12269004344E+03  0.13237208900E+03  0.00000000000E+00 0.  1.
</event>
<event>
 8    1  0.8061721E-006  0.8146361E+02  0.7561462E-02  0.1324948E+00
          2   -1    0    0  501    0  0.00000000000E+00  0.00000000000E+00  0.53811308098E+03  0.53811308098E+03  0.00000000000E+00 0.  1.
         -2   -1    0    0    0  501 -0.00000000000E+00 -0.00000000000E+00 -0.18104493839E+02  0.18104493839E+02  0.00000000000E+00 0. -1.
         23    2    1    2    0    0 -0.32940771418E+02  0.78669660127E+01  0.15139334952E+03  0.16548466591E+03  0.57604208153E+02 0.  0.
         23    2    1    2    0    0  0.32940771418E+02 -0.78669660127E+01  0.36861523762E+03  0.39073290891E+03  0.12509208257E+03 0.  0.
          5    1    4    4  502    0 -0.37560733523E+02  0.12829633263E+02  0.51309665775E+02  0.65004325967E+02  0.41800000000E+01 0. -1.
         -5    1    4    4    0  502  0.70501504941E+02 -0.20696599276E+02  0.31730557185E+03  0.32572858294E+03  0.41800000000E+01 0. -1.
        -11    1    3    3    0    0 -0.32024919298E+02  0.19669404617E+02  0.14865751205E+03  0.15333472152E+03  0.00000000000E+00 0.  1.
         11    1    3    3    0    0 -0.91585212022E+00 -0.11802438604E+02  0.27358374708E+01  0.12149944394E+02  0.00000000000E+00 0. -1.
</event>
<event>
 8    1  0.8061721E-006  0.1272250E+03  0.7561462E-02  0.1231632E+00
         -2   -1    0    0    0  501 -0.00000000000E+00  0.00000000000E+00  0.61568634164E+02  0.61568634164E+02  0.00000000000E+00 0.  1.
          2   -1    0    0  501    0  0.00000000000E+00 -0.00000000000E+00 -0.48433244214E+03  0.48433244214E+03  0.00000000000E+00 0. -1.
         23    2    1    2    0    0  0.60948765899E+02  0.30235675665E+02 -0.14790166629E+02  0.11379399806E+03  0.90007648664E+02 0.  0.
         23    2    1    2    0    0 -0.60948765899E+02 -0.30235675665E+02 -0.40797364135E+03  0.43210707825E+03  0.12508032175E+03 0.  0.
          5    1    4    4  502    0 -0.60369409066E+02  0.39634408503E+02 -0.21313479662E+03  0.22507613338E+03  0.41800000000E+01 0. -1.
         -5    1    4    4    0  502 -0.57935683256E+00 -0.69870084169E+02 -0.19483884473E+03  0.20703094487E+03  0.41800000000E+01 0. -1.
        -11    1    3    3    0    0  0.81374024259E+02  0.38572483111E+02 -0.67214882790E+01  0.90303636041E+02  0.00000000000E+00 0.  1.
         11    1    3    3    0    0 -0.20425258360E+02 -0.83368074459E+01 -0.80686783503E+01  0.23490362019E+02  0.00000000000E+00 0. -1.
</event>
<event>
 8    1  0.8061721E-006  0.2936645E+03  0.7561462E-02  0.1088451E+00
         -1   -1    0    0    0  501 -0.00000000000E+00  0.00000000000E+00  0.50473764161E+02  0.50473764161E+02  0.00000000000E+00 0.  1.
          1   -1    0    0  501    0  0.00000000000E+00 -0.00000000000E+00 -0.17276252287E+04  0.17276252287E+04  0.00000000000E+00 0. -1.
         23    2    1    2    0    0  0.11285916290E+02  0.27255899618E+03 -0.73924158461E+03  0.79334634891E+03  0.92220011879E+02 0.  0.
         23    2    1    2    0    0 -0.11285916290E+02 -0.27255899618E+03 -0.93790987989E+03  0.98475264393E+03  0.12508816334E+03 0.  0.
          5    1    4    4  502    0 -0.62007411471E+02 -0.21238025339E+03 -0.69388596581E+03  0.72831689329E+03  0.41800000000E+01 0. -1.
         -5    1    4    4    0  502  0.50721495182E+02 -0.60178742793E+02 -0.24402391409E+03  0.25643575064E+03  0.41800000000E+01 0. -1.
        -11    1    3    3    0    0  0.30066314967E+02  0.25406198039E+02 -0.83194107399E+02  0.92036502000E+02  0.00000000000E+00 0. -1.
         11    1    3    3    0    0 -0.18780398678E+02  0.24715279814E+03 -0.65604747722E+03  0.70130984690E+03  0.00000000000E+00 0.  1.
</event>
<event>
 8    1  0.8061721E-006  0.7858643E+02  0.7561462E-02  0.1333111E+00
         -1   -1    0    0    0  501 -0.00000000000E+00  0.00000000000E+00  0.11578638209E+02  0.11578638209E+02  0.00000000000E+00 0.  1.
          1   -1    0    0  501    0  0.00000000000E+00 -0.00000000000E+00 -0.11547334597E+04  0.11547334597E+04  0.00000000000E+00 0. -1.
         23    2    1    2    0    0 -0.28212209200E+02 -0.20448820550E+02 -0.39953422462E+03  0.41143871613E+03  0.91870220873E+02 0.  0.
         23    2    1    2    0    0  0.28212209200E+02  0.20448820550E+02 -0.74362059690E+03  0.75487338180E+03  0.12509255537E+03 0.  0.
          5    1    4    4  502    0  0.15930512247E+02 -0.14870584463E+02 -0.18817938608E+02  0.29094719731E+02  0.41800000000E+01 0.  1.
         -5    1    4    4    0  502  0.12281696953E+02  0.35319405013E+02 -0.72480265829E+03  0.72577866207E+03  0.41800000000E+01 0.  1.
        -11    1    3    3    0    0 -0.45268500640E+02  0.22930030902E+02 -0.18034384311E+03  0.18734707154E+03  0.00000000000E+00 0.  1.
         11    1    3    3    0    0  0.17056291439E+02 -0.43378851451E+02 -0.21919038150E+03  0.22409164459E+03  0.00000000000E+00 0. -1.
</event>
<event>
 7    1  0.8061721E-006  0.1470944E+03  0.7561462E-02  0.1204089E+00
         -1   -1    0    0    0  501 -0.00000000000E+00  0.00000000000E+00  0.18060040307E+02  0.18060040307E+02  0.00000000000E+00 0.  1.
          1   -1    0    0  501    0  0.00000000000E+00 -0.00000000000E+00 -0.20290732132E+04  0.20290732132E+04  0.00000000000E+00 0. -1.
         23    2    1    2    0    0  0.17554773762E+02  0.18274690839E+02 -0.17708108495E+03  0.20208601928E+03  0.94015499448E+02 0.  0.
          5    1    1    2  502    0  0.78367305838E+02 -0.55411507990E+02 -0.72280177270E+03  0.72915824404E+03  0.41800000000E+01 0. -1.
         -5    1    1    2    0  502 -0.95922079600E+02  0.37136817151E+02 -0.11111303152E+04  0.11158889902E+04  0.41800000000E+01 0.  1.
        -11    1    3    3    0    0 -0.37461498351E+02  0.14001189540E+02 -0.96118139532E+02  0.10410616655E+03  0.00000000000E+00 0.  1.
         11    1    3    3    0    0  0.55016272114E+02  0.42735012982E+01 -0.80962945414E+02  0.97979852729E+02  0.00000000000E+00 0. -1.
</event>
<event>
 8    1  0.8061721E-006  0.1446638E+03  0.7561462E-02  0.1207188E+00
          2   -1    0    0  501    0  0.00000000000E+00  0.00000000000E+00  0.66621499433E+02  0.66621499433E+02  0.00000000000E+00 0.  1.
         -2   -1    0    0    0  501 -0.00000000000E+00 -0.00000000000E+00 -0.62629641829E+03  0.62629641829E+03  0.00000000000E+00 0. -1.
         23    2    1    2    0    0 -0.11069311169E+03  0.67642142828E+02 -0.46054049600E+03  0.48724332804E+03  0.92087392176E+02 0.  0.
         23    2    1    2    0    0  0.11069311169E+03 -0.67642142828E+02 -0.99134422854E+02  0.20567458968E+03  0.12508388620E+03 0.  0.
          5    1    4    4  502    0 -0.16222230046E+02 -0.28069909259E+01  0.15294048895E+02  0.22856514986E+02  0.41800000000E+01 0. -1.
         -5    1    4    4    0  502  0.12691534173E+03 -0.64835151902E+02 -0.11442847175E+03  0.18281807470E+03  0.41800000000E+01 0. -1.
        -11    1    3    3    0    0 -0.96797007096E+02  0.57891065775E+02 -0.45590013870E+03  0.46964451722E+03  0.00000000000E+00 0. -1.
         11    1    3    3    0    0 -0.13896104592E+02  0.97510770530E+01 -0.46403572981E+01  0.17598810823E+02  0.00000000000E+00 0.  1.
</event>
<event>
 8    1  0.8061721E-006  0.1125875E+03  0.7561462E-02  0.1255852E+00
         -1   -1    0    0    0  501 -0.00000000000E+00  0.00000000000E+00  0.49528489798E+02  0.49528489798E+02  0.00000000000E+00 0.  1.
          1   -1    0    0  501    0  0.00000000000E+00 -0.00000000000E+00 -0.43628885937E+03  0.43628885937E+03  0.00000000000E+00 0. -1.
         23    2    1    2    0    0 -0.68472976321E+02 -0.23799411053E+02 -0.86379189167E+02  0.15245289787E+03  0.10259415819E+03 0.  0.
         23    2    1    2    0    0  0.68472976321E+02  0.23799411053E+02 -0.30038118041E+03  0.33336445131E+03  0.12509213964E+03 0.  0.
          5    1    4    4  502    0  0.36536768897E+02 -0.23715091173E+02 -0.25882707866E+03  0.26250003824E+03  0.41800000000E+01 0. -1.
         -5    1    4    4    0  502  0.31936207424E+02  0.47514502227E+02 -0.41554101749E+02  0.70864413062E+02  0.41800000000E+01 0. -1.
        -11    1    3    3    0    0 -0.56899767166E+01 -0.54032219931E+02 -0.50039549195E+02  0.73863476152E+02  0.00000000000E+00 0.  1.
         11    1    3    3    0    0 -0.62782999604E+02  0.30232808878E+02 -0.36339639972E+02  0.78589421713E+02  0.00000000000E+00 0. -1.
</event>
<event>
 8    1  0.8061721E-006  0.8410671E+02  0.7561462E-02  0.1317785E+00
          2   -1    0    0  501    0  0.00000000000E+00  0.00000000000E+00  0.34742585856E+03  0.34742585856E+03  0.00000000000E+00 0. -1.
         -2   -1    0    0    0  501 -0.00000000000E+00 -0.00000000000E+00 -0.42781395568E+02  0.42781395568E+02  0.00000000000E+00 0.  1.
         23    2    1    2    0    0 -0.20151622639E+02 -0.12951965588E+02  0.27258057501E+02  0.84973104921E+02  0.76834793900E+02 0.  0.
         23    2    1    2    0    0  0.20151622639E+02  0.12951965588E+02  0.27738640549E+03  0.30523414921E+03  0.12510326368E+03 0.  0.
          5    1    4    4  502    0  0.52807615113E+02 -0.53934261964E+01  0.44719370529E+02  0.69534363883E+02  0.41800000000E+01 0. -1.
         -5    1    4    4    0  502 -0.32655992474E+02  0.18345391785E+02  0.23266703497E+03  0.23569978533E+03  0.41800000000E+01 0. -1.
        -11    1    3    3    0    0 -0.20850652344E+02 -0.42701560843E+02  0.49405907736E+01  0.47776379507E+02  0.00000000000E+00 0.  1.
         11    1    3    3    0    0  0.69902970488E+00  0.29749595255E+02  0.22317466727E+02  0.37196725414E+02  0.00000000000E+00 0. -1.
</event>
<event>
 8    1  0.8061721E-006  0.8635515E+02  0.7561462E-02  0.1311926E+00
          3   -1    0    0  501    0  0.00000000000E+00  0.00000000000E+00  0.65589743629E+02  0.65589743629E+02  0.00000000000E+00 0. -1.
         -3   -1    0    0    0  501 -0.00000000000E+00 -0.00000000000E+00 -0.21981182951E+03  0.21981182951E+03  0.00000000000E+00 0.  1.
         23    2    1    2    0    0  0.40105025851E+02  0.25398902330E+01 -0.10762589548E+03  0.14599887916E+03  0.90097032125E+02 0.  0.
         23    2    1    2    0    0 -0.40105025851E+02 -0.25398902330E+01 -0.46596190408E+02  0.13940269398E+03  0.12508813688E+03 0.  0.
          5    1    4    4  502    0 -0.67019266630E+02 -0.33697548711E+02  0.25243679292E+01  0.75172812387E+02  0.41800000000E+01 0.  1.
         -5    1    4    4    0  502  0.26914240778E+02  0.31157658477E+02 -0.49120558338E+02  0.64229881596E+02  0.41800000000E+01 0.  1.
        -11    1    3    3    0    0  0.15820690353E+02  0.20569648749E+02 -0.11241950343E+03  0.11537568827E+03  0.00000000000E+00 0.  1.
         11    1    3    3    0    0  0.24284335498E+02 -0.18029758516E+02  0.47936079558E+01  0.30623190885E+02  0.00000000000E+00 0. -1.
</event>
<event>
 8    1  0.8061721E-006  0.1753507E+03  0.7561462E-02  0.1172380E+00
          2   -1    0    0  501    0  0.00000000000E+00  0.00000000000E+00  0.13890401262E+04  0.13890401262E+04  0.00000000000E+00 0. -1.
         -2   -1    0    0    0  501 -0.00000000000E+00 -0.00000000000E+00 -0.31813669736E+02  0.31813669736E+02  0.00000000000E+00 0.  1.
         23    2    1    2    0    0 -0.17167288794E+03  0.22166764781E+02  0.49372896495E+03  0.53133794465E+03  0.92675642349E+02 0.  0.
         23    2    1    2    0    0  0.17167288794E+03 -0.22166764781E+02  0.86349749148E+03  0.88951585125E+03  0.12509031102E+03 0.  0.
          5    1    4    4  502    0  0.18597767537E+02 -0.12504202027E+02  0.15075126957E+02  0.27330639920E+02  0.41800000000E+01 0. -1.
         -5    1    4    4    0  502  0.15307512040E+03 -0.96625627542E+01  0.84842236452E+03  0.86218521133E+03  0.41800000000E+01 0. -1.
        -11    1    3    3    0    0 -0.81145273947E+02 -0.49486359700E+00  0.11162642046E+03  0.13800455833E+03  0.00000000000E+00 0.  1.
         11    1    3    3    0    0 -0.90527613995E+02  0.22661628378E+02  0.38210254448E+03  0.39333338632E+03  0.00000000000E+00 0. -1.
</event>
<event>
 8    1  0.8061721E-006  0.6235701E+02  0.7561462E-02  0.1388198E+00
          2   -1    0    0  501    0  0.00000000000E+00  0.00000000000E+00  0.14017433398E+03  0.14017433398E+03  0.00000000000E+00 0. -1.
         -2   -1    0    0    0  501 -0.00000000000E+00 -0.00000000000E+00 -0.10454547586E+03  0.10454547586E+03  0.00000000000E+00 0.  1.
         23    2    1    2    0    0 -0.30813695193E+02 -0.43435998139E+02  0.71965816516E+01  0.10582941708E+03  0.91169649483E+02 0.  0.
         23    2    1    2    0    0  0.30813695193E+02  0.43435998139E+02  0.28432276467E+02  0.13889039276E+03  0.12508388030E+03 0.  0.
          5    1    4    4  502    0  0.24437186037E+02  0.18646586914E+02  0.77451411932E+02  0.83432996322E+02  0.41800000000E+01 0. -1.
         -5    1    4    4    0  502  0.63765091558E+01  0.24789411224E+02 -0.49019135465E+02  0.55457396438E+02  0.41800000000E+01 0. -1.
        -11    1    3    3    0    0 -0.38992537266E+02 -0.21903431496E+02 -0.35643673381E+02  0.57189594559E+02  0.00000000000E+00 0.  1.
         11    1    3    3    0    0  0.81788420733E+01 -0.21532566643E+02  0.42840255032E+02  0.48639822524E+02  0.00000000000E+00 0. -1.
</event>
<event>
 8    1  0.8061721E-006  0.9694384E+02  0.7561462E-02  0.1286857E+00
         -1   -1    0    0    0  501 -0.00000000000E+00  0.00000000000E+00  0.53470819250E+02  0.53470819250E+02  0.00000000000E+00 0.  1.
          1   -1    0    0  501    0  0.00000000000E+00 -0.00000000000E+00 -0.25280848173E+03  0.25280848173E+03  0.00000000000E+00 0. -1.
         23    2    1    2    0    0  0.28130020106E+02  0.21946119226E+02 -0.54886167149E+02  0.11189271747E+03  0.90744469243E+02 0.  0.
         23    2    1    2    0    0 -0.28130020106E+02 -0.21946119226E+02 -0.14445149533E+03  0.19438658351E+03  0.12508788577E+03 0.  0.
          5    1    4    4  502    0  0.14034826660E+02  0.29765969908E+02 -0.11785744944E+03  0.12243708635E+03  0.41800000000E+01 0.  1.
         -5    1    4    4    0  502 -0.42164846766E+02 -0.51712089135E+02 -0.26594045889E+02  0.71949497164E+02  0.41800000000E+01 0.  1.
        -11    1    3    3    0    0  0.11726810834E+02  0.55386025652E+02 -0.47544308140E+02  0.73929636590E+02  0.00000000000E+00 0. -1.
         11    1    3    3    0    0  0.16403209271E+02 -0.33439906426E+02 -0.73418590091E+01  0.37963080880E+02  0.00000000000E+00 0.  1.
</event>
<event>
 8    1  0.8061721E-006  0.1403648E+03  0.7561462E-02  0.1212839E+00
          2   -1    0    0  501    0  0.00000000000E+00  0.00000000000E+00  0.29367804432E+03  0.29367804432E+03  0.00000000000E+00 0. -1.
         -2   -1    0    0    0  501 -0.00000000000E+00 -0.00000000000E+00 -0.81592373623E+02  0.81592373623E+02  0.00000000000E+00 0.  1.
         23    2    1    2    0    0 -0.90698933009E+02 -0.21106114941E+02  0.24540989869E+02  0.13135960942E+03  0.89338246375E+02 0.  0.
         23    2    1    2    0    0  0.90698933009E+02  0.21106114941E+02  0.18754468082E+03  0.24391080852E+03  0.12509080970E+03 0.  0.
          5    1    4    4  502    0 -0.28452671828E+02 -0.10496202366E+02  0.23106707026E+02  0.38355144477E+02  0.41800000000E+01 0.  1.
         -5    1    4    4    0  502  0.11915160484E+03  0.31602317307E+02  0.16443797380E+03  0.20555566405E+03  0.41800000000E+01 0.  1.
        -11    1    3    3    0    0 -0.22667647874E+02  0.32871903893E+02  0.19321690496E+02  0.44358900452E+02  0.00000000000E+00 0. -1.
         11    1    3    3    0    0 -0.68031285135E+02 -0.53978018834E+02  0.52192993729E+01  0.87000708964E+02  0.00000000000E+00 0.  1.
</event>
<event>
 8    1  0.8061721E-006  0.7547801E+02  0.7561462E-02  0.1342397E+00
         -2   -1    0    0    0  501 -0.00000000000E+00  0.00000000000E+00  0.27023048109E+02  0.27023048109E+02  0.00000000000E+00 0.  1.
          2   -1    0    0  501    0  0.00000000000E+00 -0.00000000000E+00 -0.64597425357E+03  0.64597425357E+03  0.00000000000E+00 0. -1.
         23    2    1    2    0    0 -0.17099921338E+01  0.14635716817E+02 -0.87891379688E+02  0.12721079133E+03  0.90777544183E+02 0.  0.
         23    2    1    2    0    0  0.17099921338E+01 -0.14635716817E+02 -0.53105982578E+03  0.54578651035E+03  0.12506497530E+03 0.  0.
          5    1    4    4  502    0 -0.48296271166E+02 -0.13009405186E+02 -0.10077698390E+03  0.11258440086E+03  0.41800000000E+01 0. -1.
         -5    1    4    4    0  502  0.50006263300E+02 -0.16263116315E+01 -0.43028284188E+03  0.43320210950E+03  0.41800000000E+01 0. -1.
        -11    1    3    3    0    0  0.22732521384E+02  0.14356460428E+01  0.10421488458E+02  0.25048673212E+02  0.00000000000E+00 0.  1.
         11    1    3    3    0    0 -0.24442513518E+02  0.13200070774E+02 -0.98312868146E+02  0.10216211812E+03  0.00000000000E+00 0. -1.
</event>
<event>
 8    1  0.8061721E-006  0.1901516E+03  0.7561462E-02  0.1158325E+00
          1   -1    0    0  501    0  0.00000000000E+00  0.00000000000E+00  0.44154532470E+03  0.44154532470E+03  0.00000000000E+00 0. -1.
         -1   -1    0    0    0  501 -0.00000000000E+00 -0.00000000000E+00 -0.11802579587E+03  0.11802579587E+03  0.00000000000E+00 0.  1.
         23    2    1    2    0    0 -0.15738722406E+03 -0.65974821926E+02  0.26712852706E+02  0.19506311622E+03  0.90623547629E+02 0.  0.
         23    2    1    2    0    0  0.15738722406E+03  0.65974821926E+02  0.29680667612E+03  0.36450800435E+03  0.12509383205E+03 0.  0.
          5    1    4    4  502    0  0.14318453083E+03  0.47877995413E+01  0.16580565360E+03  0.21916596465E+03  0.41800000000E+01 0. -1.
         -5    1    4    4    0  502  0.14202693230E+02  0.61187022384E+02  0.13100102252E+03  0.14534203970E+03  0.41800000000E+01 0. -1.
        -11    1    3    3    0    0 -0.14520659740E+03 -0.49243271853E+02 -0.92095053924E+01  0.15360556872E+03  0.00000000000E+00 0.  1.
         11    1    3    3    0    0 -0.12180626659E+02 -0.16731550073E+02  0.35922358099E+02  0.41457547503E+02  0.00000000000E+00 0. -1.
</event>
<event>
 8    1  0.8061721E-006  0.2211346E+03  0.7561462E-02  0.1133040E+00
          1   -1    0    0  501    0  0.00000000000E+00  0.00000000000E+00  0.26594782617E+02  0.26594782617E+02  0.00000000000E+00 0. -1.
         -1   -1    0    0    0  501 -0.00000000000E+00 -0.00000000000E+00 -0.19701137009E+04  0.19701137009E+04  0.00000000000E+00 0.  1.
         23    2    1    2    0    0 -0.18800768434E+03  0.45795666953E+02 -0.69036036794E+03  0.72254217930E+03  0.89585884863E+02 0.  0.
         23    2    1    2    0    0  0.18800768434E+03 -0.45795666953E+02 -0.12531585503E+04  0.12741663042E+04  0.12509710633E+03 0.  0.
          5    1    4    4  502    0  0.99052976539E+02 -0.87066909996E+02 -0.75170481927E+03  0.76319705626E+03  0.41800000000E+01 0. -1.
         -5    1    4    4    0  502  0.88954707799E+02  0.41271243043E+02 -0.50145373105E+03  0.51096924792E+03  0.41800000000E+01 0. -1.
        -11    1    3    3    0    0 -0.13836465342E+02 -0.21404067137E+02 -0.10913708565E+03  0.11207357105E+03  0.00000000000E+00 0. -1.
         11    1    3    3    0    0 -0.17417121900E+03  0.67199734090E+02 -0.58122328228E+03  0.61046860825E+03  0.00000000000E+00 0.  1.
</event>
<event>
 8    1  0.8061721E-006  0.1173458E+03  0.7561462E-02  0.1247541E+00
         -1   -1    0    0    0  501 -0.00000000000E+00  0.00000000000E+00  0.70047016100E+02  0.70047016100E+02  0.00000000000E+00 0.  1.
          1   -1    0    0  501    0  0.00000000000E+00 -0.00000000000E+00 -0.37018871266E+03  0.37018871266E+03  0.00000000000E+00 0. -1.
         23    2    1    2    0    0  0.71721727653E+02 -0.78249518046E+02 -0.75050714483E+02  0.16170257619E+03  0.96167146734E+02 0.  0.
         23    2    1    2    0    0 -0.71721727653E+02  0.78249518046E+02 -0.22509098207E+03  0.27853315256E+03  0.12509106113E+03 0.  0.
          5    1    4    4  502    0 -0.91973616999E+00  0.56227313535E+01  0.15700850887E+02  0.17217727524E+02  0.41800000000E+01 0.  1.
         -5    1    4    4    0  502 -0.70801991483E+02  0.72626786692E+02 -0.24079183296E+03  0.26131542504E+03  0.41800000000E+01 0.  1.
        -11    1    3    3    0    0  0.30460932364E+02 -0.79183290428E+02 -0.84090041049E+02  0.11945290657E+03  0.00000000000E+00 0. -1.
         11    1    3    3    0    0  0.41260795289E+02  0.93377238183E+00  0.90393265667E+01  0.42249669626E+02  0.00000000000E+00 0.  1.
</event>
<event>
 8    1  0.8061721E-006  0.9634910E+02  0.7561462E-02  0.1288166E+00
          1   -1    0    0  501    0  0.00000000000E+00  0.00000000000E+00  0.10965876595E+03  0.10965876595E+03  0.00000000000E+00 0. -1.
         -1   -1    0    0    0  501 -0.00000000000E+00 -0.00000000000E+00 -0.13075480681E+03  0.13075480681E+03  0.00000000000E+00 0.  1.
         23    2    1    2    0    0  0.13839358753E+02  0.46516220749E+02 -0.13293073057E+02  0.10601123727E+03  0.93308038200E+02 0.  0.
         23    2    1    2    0    0 -0.13839358753E+02 -0.46516220749E+02 -0.78029678021E+01  0.13440233548E+03  0.12509122605E+03 0.  0.
          5    1    4    4  502    0  0.10195818002E+02 -0.73497817380E+02  0.31615819972E+02  0.80764573526E+02  0.41800000000E+01 0.  1.
         -5    1    4    4    0  502 -0.24035176756E+02  0.26981596630E+02 -0.39418787774E+02  0.53637761959E+02  0.41800000000E+01 0.  1.
        -11    1    3    3    0    0 -0.25150014796E+02  0.61683387255E+01 -0.36949245932E+02  0.45120044568E+02  0.00000000000E+00 0.  1.
         11    1    3    3    0    0  0.38989373550E+02  0.40347882024E+02  0.23656172875E+02  0.60891192702E+02  0.00000000000E+00 0. -1.
</event>
<event>
 8    1  0.8061721E-006  0.1337144E+03  0.7561462E-02  0.1222046E+00
         -1   -1    0    0    0  501 -0.00000000000E+00  0.00000000000E+00  0.14466032962E+03  0.14466032962E+03  0.00000000000E+00 0.  1.
          1   -1    0    0  501    0  0.00000000000E+00 -0.00000000000E+00 -0.21148975812E+03  0.21148975812E+03  0.00000000000E+00 0. -1.
         23    2    1    2    0    0 -0.11668788597E+03  0.40901930417E+01  0.41313675598E+02  0.15374933249E+03  0.91100192307E+02 0.  0.
         23    2    1    2    0    0  0.11668788597E+03 -0.40901930417E+01 -0.10814310410E+03  0.20240075525E+03  0.12505335802E+03 0.  0.
          5    1    4    4  502    0 -0.85189970288E+01  0.12630120847E+02 -0.67970724424E+02  0.69782412123E+02  0.41800000000E+01 0.  1.
         -5    1    4    4    0  502  0.12520688300E+03 -0.16720313888E+02 -0.40172379677E+02  0.13261834313E+03  0.41800000000E+01 0.  1.
        -11    1    3    3    0    0 -0.10378176525E+03 -0.12160061067E+02  0.64371607768E+02  0.12272825987E+03  0.00000000000E+00 0.  1.
         11    1    3    3    0    0 -0.12906120719E+02  0.16250254109E+02 -0.23057932170E+02  0.31021072621E+02  0.00000000000E+00 0. -1.
</event>
<event>
 8    1  0.8061721E-006  0.8820545E+02  0.7561462E-02  0.1307257E+00
         -1   -1    0    0    0  501 -0.00000000000E+00  0.00000000000E+00  0.49739482727E+02  0.49739482727E+02  0.00000000000E+00 0.  1.
          1   -1    0    0  501    0  0.00000000000E+00 -0.00000000000E+00 -0.36996679725E+03  0.36996679725E+03  0.00000000000E+00 0. -1.
         23    2    1    2    0    0 -0.48600483307E+02  0.26109700718E+02 -0.23212909155E+03  0.25707038345E+03  0.95695054474E+02 0.  0.
         23    2    1    2    0    0  0.48600483307E+02 -0.26109700718E+02 -0.88098222967E+02  0.16263589653E+03  0.12508163135E+03 0.  0.
          5    1    4    4  502    0 -0.57393926165E+01  0.58065566344E+01 -0.98241285130E+02  0.98668532124E+02  0.41800000000E+01 0.  1.
         -5    1    4    4    0  502  0.54339875924E+02 -0.31916257353E+02  0.10143062163E+02  0.63967364404E+02  0.41800000000E+01 0.  1.
        -11    1    3    3    0    0  0.19257199818E+02 -0.15291675672E+02 -0.24356165754E+02  0.34610661651E+02  0.00000000000E+00 0.  1.
         11    1    3    3    0    0 -0.67857683126E+02  0.41401376390E+02 -0.20777292580E+03  0.22245972180E+03  0.00000000000E+00 0. -1.
</event>
<event>
 8    1  0.8061721E-006  0.1238860E+03  0.7561462E-02  0.1236821E+00
          1   -1    0    0  501    0  0.00000000000E+00  0.00000000000E+00  0.33748737744E+03  0.33748737744E+03  0.00000000000E+00 0. -1.
         -1   -1    0    0    0  501 -0.00000000000E+00 -0.00000000000E+00 -0.67660565615E+02  0.67660565615E+02  0.00000000000E+00 0.  1.
         23    2    1    2    0    0 -0.81615737335E+02 -0.34996128004E+02  0.47146926957E+02  0.13474117777E+03  0.89702255873E+02 0.  0.
         23    2    1    2    0    0  0.81615737335E+02  0.34996128004E+02  0.22267988486E+03  0.27040676528E+03  0.12509048738E+03 0.  0.
          5    1    4    4  502    0 -0.23995429967E+02  0.40762407628E+02  0.72781251435E+02  0.86901884303E+02  0.41800000000E+01 0.  1.
         -5    1    4    4    0  502  0.10561116730E+03 -0.57662796243E+01  0.14989863343E+03  0.18350488098E+03  0.41800000000E+01 0.  1.
        -11    1    3    3    0    0 -0.43803789012E+01 -0.13605275196E+02  0.52508665234E+02  0.54419216800E+02  0.00000000000E+00 0. -1.
         11    1    3    3    0    0 -0.77235358434E+02 -0.21390852808E+02 -0.53617382775E+01  0.80321960967E+02  0.00000000000E+00 0.  1.
</event>
<event>
 8    1  0.8061721E-006  0.1144082E+03  0.7561462E-02  0.1252618E+00
          1   -1    0    0  501    0  0.00000000000E+00  0.00000000000E+00  0.43272588940E+03  0.43272588940E+03  0.00000000000E+00 0. -1.
         -1   -1    0    0    0  501 -0.00000000000E+00 -0.00000000000E+00 -0.39824014677E+02  0.39824014677E+02  0.00000000000E+00 0.  1.
         23    2    1    2    0    0 -0.58716417106E+02 -0.48302710273E+01  0.13853297190E+03  0.18302894096E+03  0.10410216026E+03 0.  0.
         23    2    1    2    0    0  0.58716417106E+02  0.48302710273E+01  0.25436890282E+03  0.28952096311E+03  0.12509156728E+03 0.  0.
          5    1    4    4  502    0  0.45526705781E+02  0.57077959265E+02  0.87063228431E+02  0.11370159418E+03  0.41800000000E+01 0.  1.
         -5    1    4    4    0  502  0.13189711325E+02 -0.52247688238E+02  0.16730567439E+03  0.17581936894E+03  0.41800000000E+01 0.  1.
        -11    1    3    3    0    0 -0.31870482947E+02 -0.43890416176E+02  0.24459439965E+02  0.59500928722E+02  0.00000000000E+00 0.  1.
         11    1    3    3    0    0 -0.26845934159E+02  0.39060145148E+02  0.11407353194E+03  0.12352801224E+03  0.00000000000E+00 0. -1.
</event>
<event>
 8    1  0.8061721E-006  0.1447063E+03  0.7561462E-02  0.1207133E+00
          2   -1    0    0  501    0  0.00000000000E+00  0.00000000000E+00  0.86075271029E+03  0.86075271029E+03  0.00000000000E+00 0. -1.
         -2   -1    0    0    0  501 -0.00000000000E+00 -0.00000000000E+00 -0.34129591565E+02  0.34129591565E+02  0.00000000000E+00 0.  1.
         23    2    1    2    0    0 -0.29217800521E+02 -0.12867271376E+03  0.32645215830E+03  0.36268916410E+03  0.86960168826E+02 0.  0.
         23    2    1    2    0    0  0.29217800521E+02  0.12867271376E+03  0.50017096043E+03  0.53219313776E+03  0.12509276193E+03 0.  0.
          5    1    4    4  502    0  0.63511136212E+01  0.12282747050E+03  0.49155009150E+03  0.50672072092E+03  0.41800000000E+01 0.  1.
         -5    1    4    4    0  502  0.22866686900E+02  0.58452432610E+01  0.86208689260E+01  0.25472416839E+02  0.41800000000E+01 0.  1.
        -11    1    3    3    0    0  0.10590470553E+02 -0.73983428966E+02  0.91234193020E+02  0.11793805070E+03  0.00000000000E+00 0.  1.
         11    1    3    3    0    0 -0.39808271074E+02 -0.54689284798E+02  0.23521796528E+03  0.24475111340E+03  0.00000000000E+00 0. -1.
</event>
<event>
 8    1  0.8061721E-006  0.9711057E+02  0.7561462E-02  0.1286492E+00
         -2   -1    0    0    0  501 -0.00000000000E+00  0.00000000000E+00  0.50179031500E+02  0.50179031500E+02  0.00000000000E+00 0.  1.
          2   -1    0    0  501    0  0.00000000000E+00 -0.00000000000E+00 -0.32756051995E+03  0.32756051995E+03  0.00000000000E+00 0. -1.
         23    2    1    2    0    0 -0.33443159068E+02 -0.49050194196E+02 -0.94694232908E+02  0.14851979366E+03  0.97809840624E+02 0.  0.
         23    2    1    2    0    0  0.33443159068E+02  0.49050194196E+02 -0.18268725555E+03  0.22921975780E+03  0.12507077031E+03 0.  0.
          5    1    4    4  502    0  0.15925978163E+02  0.88419835646E+02 -0.91631341157E+02  0.12839579120E+03  0.41800000000E+01 0. -1.
         -5    1    4    4    0  502  0.17517180905E+02 -0.39369641450E+02 -0.91055914390E+02  0.10082396660E+03  0.41800000000E+01 0. -1.
        -11    1    3    3    0    0 -0.17297611562E+02 -0.13495677471E+02 -0.10569746495E+03  0.10795042739E+03  0.00000000000E+00 0. -1.
         11    1    3    3    0    0 -0.16145547505E+02 -0.35554516725E+02  0.11003232046E+02  0.40569366266E+02  0.00000000000E+00 0.  1.
</event>
<event>
 8    1  0.8061721E-006  0.1726342E+03  0.7561462E-02  0.1175128E+00
          2   -1    0    0  501    0  0.00000000000E+00  0.00000000000E+00  0.17718905944E+03  0.17718905944E+03  0.00000000000E+00 0. -1.
         -2   -1    0    0    0  501 -0.00000000000E+00 -0.00000000000E+00 -0.17563887208E+03  0.17563887208E+03  0.00000000000E+00 0.  1.
         23    2    1    2    0    0  0.58212875397E+02  0.12622110840E+03  0.14710434698E+02  0.16536077575E+03  0.88358826389E+02 0.  0.
         23    2    1    2    0    0 -0.58212875397E+02 -0.12622110840E+03 -0.13160247333E+02  0.18746715577E+03  0.12510090053E+03 0.  0.
          5    1    4    4  502    0 -0.93380086941E+02 -0.96490726981E+02 -0.31056693768E+02  0.13788506684E+03  0.41800000000E+01 0.  1.
         -5    1    4    4    0  502  0.35167211543E+02 -0.29730381419E+02  0.17896446435E+02  0.49582088924E+02  0.41800000000E+01 0.  1.
        -11    1    3    3    0    0  0.79795631844E+02  0.76762550201E+02  0.11050266615E+02  0.11127416756E+03  0.00000000000E+00 0.  1.
         11    1    3    3    0    0 -0.21582756447E+02  0.49458558200E+02  0.36601680832E+01  0.54086608190E+02  0.00000000000E+00 0. -1.
</event>
<event>
 8    1  0.8061721E-006  0.9402234E+02  0.7561462E-02  0.1293393E+00
         -2   -1    0    0    0  501 -0.00000000000E+00  0.00000000000E+00  0.10551744402E+03  0.10551744402E+03  0.00000000000E+00 0.  1.
          2   -1    0    0  501    0  0.00000000000E+00 -0.00000000000E+00 -0.14672195722E+03  0.14672195722E+03  0.00000000000E+00 0. -1.
         23    2    1    2    0    0 -0.31614854527E+02 -0.65117854270E+01  0.28682538248E+02  0.10536197506E+03  0.96106999813E+02 0.  0.
         23    2    1    2    0    0  0.31614854527E+02  0.65117854270E+01 -0.69887051450E+02  0.14687742618E+03  0.12508747333E+03 0.  0.
          5    1    4    4  502    0 -0.48135145358E+02 -0.45142921273E+01 -0.24468088478E+02  0.54346396438E+02  0.41800000000E+01 0. -1.
         -5    1    4    4    0  502  0.79749999884E+02  0.11026077554E+02 -0.45418962972E+02  0.92531029743E+02  0.41800000000E+01 0. -1.
        -11    1    3    3    0    0 -0.36984883180E+02 -0.21638123777E+02  0.57896735328E+02  0.72028618938E+02  0.00000000000E+00 0.  1.
         11    1    3    3    0    0  0.53700286536E+01  0.15126338350E+02 -0.29214197080E+02  0.33333356127E+02  0.00000000000E+00 0. -1.
</event>
<event>
 8    1  0.8061721E-006  0.1257318E+03  0.7561462E-02  0.1233930E+00
          1   -1    0    0  501    0  0.00000000000E+00  0.00000000000E+00  0.17182558126E+03  0.17182558126E+03  0.00000000000E+00 0. -1.
         -1   -1    0    0    0  501 -0.00000000000E+00 -0.00000000000E+00 -0.14516853470E+03  0.14516853470E+03  0.00000000000E+00 0.  1.
         23    2    1    2    0    0 -0.81540055205E+02  0.33089317329E+02 -0.61193504598E+02  0.14061770692E+03  0.91022035625E+02 0.  0.
         23    2    1    2    0    0  0.81540055205E+02 -0.33089317329E+02  0.87850551160E+02  0.17637640904E+03  0.12508890759E+03 0.  0.
          5    1    4    4  502    0 -0.12481060969E+02 -0.52798450707E+02  0.17242091455E+02  0.57080779583E+02  0.41800000000E+01 0.  1.
         -5    1    4    4    0  502  0.94021116175E+02  0.19709133378E+02  0.70608459704E+02  0.11929562945E+03  0.41800000000E+01 0.  1.
        -11    1    3    3    0    0 -0.47311648721E+02 -0.73872364068E+01 -0.72047577323E+02  0.86509055968E+02  0.00000000000E+00 0.  1.
         11    1    3    3    0    0 -0.34228406484E+02  0.40476553736E+02  0.10854072724E+02  0.54108650948E+02  0.00000000000E+00 0. -1.
</event>
<event>
 8    1  0.8061721E-006  0.1366752E+03  0.7561462E-02  0.1217874E+00
          2   -1    0    0  501    0  0.00000000000E+00  0.00000000000E+00  0.84886200530E+03  0.84886200530E+03  0.00000000000E+00 0. -1.
         -2   -1    0    0    0  501 -0.00000000000E+00 -0.00000000000E+00 -0.34778959340E+02  0.34778959340E+02  0.00000000000E+00 0.  1.
         23    2    1    2    0    0 -0.84819890788E+02 -0.98614507301E+02  0.30341613108E+03  0.34202589346E+03  0.89449026140E+02 0.  0.
         23    2    1    2    0    0  0.84819890788E+02  0.98614507301E+02  0.51066691488E+03  0.54161507118E+03  0.12508777897E+03 0.  0.
          5    1    4    4  502    0  0.76812930345E+02  0.79715016576E+02  0.18757813814E+03  0.21784797553E+03  0.41800000000E+01 0.  1.
         -5    1    4    4    0  502  0.80069604425E+01  0.18899490724E+02  0.32308877674E+03  0.32376709565E+03  0.41800000000E+01 0.  1.
        -11    1    3    3    0    0 -0.68822740149E+02 -0.37348983116E+02  0.23983155656E+03  0.25229088693E+03  0.00000000000E+00 0. -1.
         11    1    3    3    0    0 -0.15997150638E+02 -0.61265524185E+02  0.63584574513E+02  0.89735006537E+02  0.00000000000E+00 0.  1.
</event>
<event>
 8    1  0.8061721E-006  0.2046719E+03  0.7561462E-02  0.1145856E+00
         -2   -1    0    0    0  501 -0.00000000000E+00  0.00000000000E+00  0.48742152685E+03  0.48742152685E+03  0.00000000000E+00 0.  1.
          2   -1    0    0  501    0  0.00000000000E+00 -0.00000000000E+00 -0.10980990811E+03  0.10980990811E+03  0.00000000000E+00 0. -1.
         23    2    1    2    0    0  0.16782819991E+03  0.10117142464E+03  0.25912186486E+03  0.33629416791E+03  0.86877296661E+02 0.  0.
         23    2    1    2    0    0 -0.16782819991E+03 -0.10117142464E+03  0.11848975388E+03  0.26093726705E+03  0.12508586536E+03 0.  0.
          5    1    4    4  502    0 -0.68353429438E+02 -0.38811750905E+02 -0.18106850936E+02  0.80770500649E+02  0.41800000000E+01 0. -1.
         -5    1    4    4    0  502 -0.99474770469E+02 -0.62359673733E+02  0.13659660482E+03  0.18016676640E+03  0.41800000000E+01 0. -1.
        -11    1    3    3    0    0  0.64230337256E+02  0.87661982786E+02  0.14991557739E+03  0.18516165854E+03  0.00000000000E+00 0. -1.
         11    1    3    3    0    0  0.10359786265E+03  0.13509441852E+02  0.10920628747E+03  0.15113250937E+03  0.00000000000E+00 0.  1.
</event>
<event>
 8    1  0.8061721E-006  0.4838314E+02  0.7561462E-02  0.1454263E+00
         -2   -1    0    0    0  501 -0.00000000000E+00  0.00000000000E+00  0.55082497063E+02  0.55082497063E+02  0.00000000000E+00 0. -1.
          2   -1    0    0  501    0  0.00000000000E+00 -0.00000000000E+00 -0.21386672508E+03  0.21386672508E+03  0.00000000000E+00 0.  1.
         23    2    1    2    0    0 -0.19964464368E+02  0.10355346519E+01 -0.52896890660E+02  0.10384807218E+03  0.87101600925E+02 0.  0.
         23    2    1    2    0    0  0.19964464368E+02 -0.10355346519E+01 -0.10588733736E+03  0.16510114997E+03  0.12508640749E+03 0.  0.
          5    1    4    4  502    0  0.15217888010E+02  0.47353992574E+01 -0.13436129902E+03  0.13536779231E+03  0.41800000000E+01 0.  1.
         -5    1    4    4    0  502  0.47465763574E+01 -0.57709339093E+01  0.28473961657E+02  0.29733357660E+02  0.41800000000E+01 0.  1.
        -11    1    3    3    0    0  0.87526403141E+01  0.29813980620E+02  0.66211868868E+01  0.31769832682E+02  0.00000000000E+00 0. -1.
         11    1    3    3    0    0 -0.28717104682E+02 -0.28778445968E+02 -0.59518077547E+02  0.72078239494E+02  0.00000000000E+00 0.  1.
</event>
<event>
 8    1  0.8061721E-006  0.1699339E+03  0.7561462E-02  0.1177917E+00
          2   -1    0    0  501    0  0.00000000000E+00  0.00000000000E+00  0.20842137378E+04  0.20842137378E+04  0.00000000000E+00 0. -1.
         -2   -1    0    0    0  501 -0.00000000000E+00 -0.00000000000E+00 -0.23654255229E+02  0.23654255229E+02  0.00000000000E+00 0.  1.
         23    2    1    2    0    0  0.13316165406E+03  0.10250026991E+03  0.52021819550E+03  0.55443595140E+03  0.92379228387E+02 0.  0.
         23    2    1    2    0    0 -0.13316165406E+03 -0.10250026991E+03  0.15403412871E+04  0.15534320416E+04  0.11073163885E+03 0.  0.
          5    1    4    4  502    0 -0.12884302106E+03 -0.92985718903E+02  0.15297259626E+04  0.15379615929E+04  0.41800000000E+01 0. -1.
         -5    1    4    4    0  502 -0.43186330069E+01 -0.95145510045E+01  0.10615324461E+02  0.15470448775E+02  0.41800000000E+01 0.  1.
        -11    1    3    3    0    0  0.58547427833E+02  0.59840423501E+02  0.12825499716E+03  0.15316011846E+03  0.00000000000E+00 0.  1.
         11    1    3    3    0    0  0.74614226229E+02  0.42659846406E+02  0.39196319834E+03  0.40127583294E+03  0.00000000000E+00 0. -1.
</event>
<event>
 8    1  0.8061721E-006  0.1324688E+03  0.7561462E-02  0.1223838E+00
          1   -1    0    0  501    0  0.00000000000E+00  0.00000000000E+00  0.75194052969E+02  0.75194052969E+02  0.00000000000E+00 0. -1.
         -1   -1    0    0    0  501 -0.00000000000E+00 -0.00000000000E+00 -0.31851778572E+03  0.31851778572E+03  0.00000000000E+00 0.  1.
         23    2    1    2    0    0  0.22780586753E+02  0.10716721583E+03 -0.12242577060E+03  0.18812401177E+03  0.91645006489E+02 0.  0.
         23    2    1    2    0    0 -0.22780586753E+02 -0.10716721583E+03 -0.12089796215E+03  0.20558782692E+03  0.12508505125E+03 0.  0.
          5    1    4    4  502    0  0.19997971948E+02 -0.10531360764E+03 -0.12212112877E+03  0.16254820002E+03  0.41800000000E+01 0.  1.
         -5    1    4    4    0  502 -0.42778558701E+02 -0.18536081866E+01  0.12231666213E+01  0.43039626908E+02  0.41800000000E+01 0.  1.
        -11    1    3    3    0    0  0.18295625598E+02  0.19070269567E+02 -0.90554331511E+02  0.94331818878E+02  0.00000000000E+00 0.  1.
         11    1    3    3    0    0  0.44849611553E+01  0.88096946260E+02 -0.31871439091E+02  0.93792192888E+02  0.00000000000E+00 0. -1.
</event>
<event>
 8    1  0.8061721E-006  0.1165758E+03  0.7561462E-02  0.1248855E+00
         -3   -1    0    0    0  501 -0.00000000000E+00  0.00000000000E+00  0.33388874715E+03  0.33388874715E+03  0.00000000000E+00 0.  1.
          3   -1    0    0  501    0  0.00000000000E+00 -0.00000000000E+00 -0.89732943321E+02  0.89732943321E+02  0.00000000000E+00 0. -1.
         23    2    1    2    0    0  0.75382214884E+02  0.13771783987E+02  0.24882167929E+03  0.27685185350E+03  0.94141278651E+02 0.  0.
         23    2    1    2    0    0 -0.75382214884E+02 -0.13771783987E+02 -0.46658754595E+01  0.14676983697E+03  0.12508986488E+03 0.  0.
          5    1    4    4  502    0  0.37320788449E+01  0.44406378989E+02 -0.16639846680E+02  0.47751563377E+02  0.41800000000E+01 0. -1.
         -5    1    4    4    0  502 -0.79114293729E+02 -0.58178162976E+02  0.11973971221E+02  0.99018273597E+02  0.41800000000E+01 0. -1.
        -11    1    3    3    0    0  0.37189284319E+02  0.30797019616E+02  0.22196070334E+03  0.22715204845E+03  0.00000000000E+00 0. -1.
         11    1    3    3    0    0  0.38192930565E+02 -0.17025235629E+02  0.26860975948E+02  0.49699805052E+02  0.00000000000E+00 0.  1.
</event>
<event>
 8    1  0.8061721E-006  0.9146616E+02  0.7561462E-02  0.1299340E+00
          4   -1    0    0  501    0  0.00000000000E+00  0.00000000000E+00  0.83204296386E+03  0.83204296386E+03  0.00000000000E+00 0. -1.
         -4   -1    0    0    0  501 -0.00000000000E+00 -0.00000000000E+00 -0.14814592591E+02  0.14814592591E+02  0.00000000000E+00 0.  1.
         23    2    1    2    0    0 -0.12767346645E+02 -0.96053796192E+01  0.27036657439E+03  0.28619139488E+03  0.92477897375E+02 0.  0.
         23    2    1    2    0    0  0.12767346645E+02  0.96053796192E+01  0.54686179688E+03  0.56066616156E+03  0.12261097576E+03 0.  0.
          5    1    4    4  502    0 -0.12011680687E+02  0.47202998888E+02  0.46135049979E+03  0.46393335689E+03  0.41800000000E+01 0. -1.
         -5    1    4    4    0  502  0.24779027333E+02 -0.37597619269E+02  0.85511297086E+02  0.96732804671E+02  0.41800000000E+01 0.  1.
        -11    1    3    3    0    0 -0.45078395366E+02 -0.26573767435E+02  0.20229868843E+03  0.20895690031E+03  0.00000000000E+00 0.  1.
         11    1    3    3    0    0  0.32311048721E+02  0.16968387816E+02  0.68067885952E+02  0.77234494576E+02  0.00000000000E+00 0. -1.
</event>
<event>
 8    1  0.8061721E-006  0.9820089E+02  0.7561462E-02  0.1284125E+00
         -1   -1    0    0    0  501 -0.00000000000E+00  0.00000000000E+00  0.21110645645E+03  0.21110645645E+03  0.00000000000E+00 0.  1.
          1   -1    0    0  501    0  0.00000000000E+00 -0.00000000000E+00 -0.71627285439E+02  0.71627285439E+02  0.00000000000E+00 0. -1.
         23    2    1    2    0    0  0.38639116902E+02 -0.39093436852E+02  0.65323838650E+02  0.12726792317E+03  0.94385603833E+02 0.  0.
         23    2    1    2    0    0 -0.38639116902E+02  0.39093436852E+02  0.74155332360E+02  0.15546581872E+03  0.12509727940E+03 0.  0.
          5    1    4    4  502    0  0.27125121681E+02 -0.12219303416E+02  0.64798918014E+02  0.71424476042E+02  0.41800000000E+01 0.  1.
         -5    1    4    4    0  502 -0.65764238584E+02  0.51312740268E+02  0.93564143467E+01  0.84041342682E+02  0.41800000000E+01 0.  1.
        -11    1    3    3    0    0  0.55837043832E+02 -0.30049805951E+02  0.80598679028E+02  0.10255200321E+03  0.00000000000E+00 0.  1.
         11    1    3    3    0    0 -0.17197926930E+02 -0.90436309015E+01 -0.15274840378E+02  0.24715919953E+02  0.00000000000E+00 0. -1.
</event>
<event>
 8    1  0.8061721E-006  0.1030128E+03  0.7561462E-02  0.1274085E+00
          1   -1    0    0  501    0  0.00000000000E+00  0.00000000000E+00  0.16347014109E+03  0.16347014109E+03  0.00000000000E+00 0. -1.
         -1   -1    0    0    0  501 -0.00000000000E+00 -0.00000000000E+00 -0.10687664310E+03  0.10687664310E+03  0.00000000000E+00 0.  1.
         23    2    1    2    0    0  0.30084901611E+02  0.11351518014E+02 -0.45208866772E+02  0.10589366667E+03  0.90197941990E+02 0.  0.
         23    2    1    2    0    0 -0.30084901611E+02 -0.11351518014E+02  0.10180236476E+03  0.16445311752E+03  0.12508856112E+03 0.  0.
          5    1    4    4  502    0  0.34634548340E+01  0.50891910326E+02  0.70236043169E+02  0.86905444111E+02  0.41800000000E+01 0. -1.
         -5    1    4    4    0  502 -0.33548356445E+02 -0.62243428341E+02  0.31566321594E+02  0.77547673406E+02  0.41800000000E+01 0. -1.
        -11    1    3    3    0    0  0.55631138210E+02  0.16345788741E+02 -0.52708676317E+01  0.58221906476E+02  0.00000000000E+00 0. -1.
         11    1    3    3    0    0 -0.25546236598E+02 -0.49942707265E+01 -0.39937999140E+02  0.47671760192E+02  0.00000000000E+00 0.  1.
</event>
<event>
 8    1  0.8061721E-006  0.8463508E+02  0.7561462E-02  0.1316390E+00
         -2   -1    0    0    0  501 -0.00000000000E+00  0.00000000000E+00  0.20608282937E+02  0.20608282937E+02  0.00000000000E+00 0. -1.
          2   -1    0    0  501    0  0.00000000000E+00 -0.00000000000E+00 -0.74205468537E+03  0.74205468537E+03  0.00000000000E+00 0.  1.
         23    2    1    2    0    0 -0.46785425657E+02  0.12219619358E+02 -0.19707769075E+03  0.22141160648E+03  0.88573631196E+02 0.  0.
         23    2    1    2    0    0  0.46785425657E+02 -0.12219619358E+02 -0.52436871169E+03  0.54125136183E+03  0.12510913529E+03 0.  0.
          5    1    4    4  502    0  0.33684603542E+02 -0.40927882577E+02 -0.49529366312E+03  0.49813956801E+03  0.41800000000E+01 0. -1.
         -5    1    4    4    0  502  0.13100822115E+02  0.28708263219E+02 -0.29075048566E+02  0.43111793819E+02  0.41800000000E+01 0. -1.
        -11    1    3    3    0    0 -0.44740015812E+02 -0.22089942899E+02 -0.51014697179E+02  0.71359189460E+02  0.00000000000E+00 0. -1.
         11    1    3    3    0    0 -0.20454098450E+01  0.34309562257E+02 -0.14606299357E+03  0.15005241702E+03  0.00000000000E+00 0.  1.
</event>
<event>
 8    1  0.8061721E-006  0.1227066E+03  0.7561462E-02  0.1238698E+00
         -1   -1    0    0    0  501 -0.00000000000E+00  0.00000000000E+00  0.13623878190E+03  0.13623878190E+03  0.00000000000E+00 0.  1.
          1   -1    0    0  501    0  0.00000000000E+00 -0.00000000000E+00 -0.14962097702E+03  0.14962097702E+03  0.00000000000E+00 0. -1.
         23    2    1    2    0    0 -0.90554920170E+02 -0.12150794317E+02 -0.16599262455E+02  0.13092058157E+03  0.92286660974E+02 0.  0.
         23    2    1    2    0    0  0.90554920170E+02  0.12150794317E+02  0.32170673407E+01  0.15493917735E+03  0.12509182142E+03 0.  0.
          5    1    4    4  502    0  0.10598792104E+03  0.46026613972E+02 -0.78124323633E+01  0.11588958149E+03  0.41800000000E+01 0.  1.
         -5    1    4    4    0  502 -0.15433000866E+02 -0.33875819655E+02  0.11029499704E+02  0.39049595859E+02  0.41800000000E+01 0.  1.
        -11    1    3    3    0    0 -0.45200062774E+02  0.63691146274E+00 -0.54241463215E+02  0.70608693960E+02  0.00000000000E+00 0. -1.
         11    1    3    3    0    0 -0.45354857396E+02 -0.12787705780E+02  0.37642200760E+02  0.60311887605E+02  0.00000000000E+00 0.  1.
</event>
<event>
 8    1  0.8061721E-006  0.8262690E+02  0.7561462E-02  0.1321758E+00
          2   -1    0    0  501    0  0.00000000000E+00  0.00000000000E+00  0.84035307282E+03  0.84035307282E+03  0.00000000000E+00 0. -1.
         -2   -1    0    0    0  501 -0.00000000000E+00 -0.00000000000E+00 -0.16337653777E+02  0.16337653777E+02  0.00000000000E+00 0.  1.
         23    2    1    2    0    0 -0.18035918432E+02  0.12492149637E+02  0.21442149756E+03  0.23400716855E+03  0.91112173502E+02 0.  0.
         23    2    1    2    0    0  0.18035918432E+02 -0.12492149637E+02  0.60959392149E+03  0.62268355805E+03  0.12509482882E+03 0.  0.
          5    1    4    4  502    0  0.40499420643E+02 -0.41763867828E+02  0.54550274755E+03  0.54861201565E+03  0.41800000000E+01 0.  1.
         -5    1    4    4    0  502 -0.22463502211E+02  0.29271718191E+02  0.64091173935E+02  0.74071542402E+02  0.41800000000E+01 0.  1.
        -11    1    3    3    0    0 -0.15929722330E+02 -0.26406183836E+02  0.17808551036E+03  0.18073597206E+03  0.00000000000E+00 0. -1.
         11    1    3    3    0    0 -0.21061961020E+01  0.38898333473E+02  0.36335987200E+02  0.53271196484E+02  0.00000000000E+00 0.  1.
</event>
<event>
 8    1  0.9814705E-006  0.1159872E+03  0.7561462E-02  0.1249868E+00
          1   -1    0    0  501    0  0.00000000000E+00  0.00000000000E+00  0.22019018128E+03  0.22019018128E+03  0.00000000000E+00 0. -1.
         -1   -1    0    0    0  501 -0.00000000000E+00 -0.00000000000E+00 -0.83573088761E+02  0.83573088761E+02  0.00000000000E+00 0.  1.
         23    2    1    2    0    0  0.74491240338E+02  0.25908551239E+02  0.29637516956E+02  0.12124521632E+03  0.87188429023E+02 0.  0.
         23    2    1    2    0    0 -0.74491240338E+02 -0.25908551239E+02  0.10697957557E+03  0.18251805372E+03  0.12509201586E+03 0.  0.
          5    1    4    4  502    0 -0.10604650423E+03 -0.36561707169E+01  0.61511361030E+02  0.12272061188E+03  0.41800000000E+01 0.  1.
         -5    1    4    4    0  502  0.31555263891E+02 -0.22252380522E+02  0.45468214536E+02  0.59797441845E+02  0.41800000000E+01 0.  1.
        -11    1    3    3    0    0  0.48842180882E+02  0.34608074210E+02 -0.21314482737E+02  0.63541990905E+02  0.00000000000E+00 0. -1.
         11    1    3    3    0    0  0.25649059455E+02 -0.86995229710E+01  0.50951999693E+02  0.57703225417E+02  0.00000000000E+00 0.  1.
</event>
<event>
 8    1  0.8061721E-006  0.1238872E+03  0.7561462E-02  0.1236819E+00
         -2   -1    0    0    0  501 -0.00000000000E+00  0.00000000000E+00  0.83072179868E+02  0.83072179868E+02  0.00000000000E+00 0.  1.
          2   -1    0    0  501    0  0.00000000000E+00 -0.00000000000E+00 -0.28809599979E+03  0.28809599979E+03  0.00000000000E+00 0. -1.
         23    2    1    2    0    0  0.35278606749E+01  0.10996677490E+03 -0.11225794307E+03  0.18048627194E+03  0.88703501602E+02 0.  0.
         23    2    1    2    0    0 -0.35278606749E+01 -0.10996677490E+03 -0.92765876859E+02  0.19068190772E+03  0.12509574189E+03 0.  0.
          5    1    4    4  502    0 -0.28844485419E+02 -0.10104446467E+03 -0.11481166662E+03  0.15569579112E+03  0.41800000000E+01 0.  1.
         -5    1    4    4    0  502  0.25316624744E+02 -0.89223102286E+01  0.22045789764E+02  0.34986116597E+02  0.41800000000E+01 0.  1.
        -11    1    3    3    0    0  0.19331402774E+02  0.59856809249E+02 -0.75731534982E+01  0.63355294969E+02  0.00000000000E+00 0.  1.
         11    1    3    3    0    0 -0.15803542099E+02  0.50109965650E+02 -0.10468478957E+03  0.11713097698E+03  0.00000000000E+00 0. -1.
</event>
<event>
 8    1  0.8061721E-006  0.1260974E+03  0.7561462E-02  0.1233364E+00
          1   -1    0    0  501    0  0.00000000000E+00  0.00000000000E+00  0.16995838320E+04  0.16995838320E+04  0.00000000000E+00 0. -1.
         -1   -1    0    0    0  501 -0.00000000000E+00 -0.00000000000E+00 -0.13738735235E+02  0.13738735235E+02  0.00000000000E+00 0.  1.
         23    2    1    2    0    0 -0.42461379583E+02 -0.53779502278E+02  0.30298543345E+03  0.32312669619E+03  0.88969013069E+02 0.  0.
         23    2    1    2    0    0  0.42461379583E+02  0.53779502278E+02  0.13828596634E+04  0.13901958711E+04  0.12509399598E+03 0.  0.
          5    1    4    4  502    0  0.53785625248E+02 -0.26176209838E+02  0.48231023788E+03  0.48602337949E+03  0.41800000000E+01 0.  1.
         -5    1    4    4    0  502 -0.11324245666E+02  0.79955712117E+02  0.90054942548E+03  0.90417249160E+03  0.41800000000E+01 0.  1.
        -11    1    3    3    0    0 -0.69934383462E+02 -0.41039577770E+02  0.23794118321E+03  0.25137834354E+03  0.00000000000E+00 0. -1.
         11    1    3    3    0    0  0.27473003879E+02 -0.12739924509E+02  0.65044250240E+02  0.71748352650E+02  0.00000000000E+00 0.  1.
</event>
<event>
 8    1  0.8061721E-006  0.1421868E+03  0.7561462E-02  0.1210416E+00
         -2   -1    0    0    0  501 -0.00000000000E+00  0.00000000000E+00  0.42531249304E+03  0.42531249304E+03  0.00000000000E+00 0.  1.
          2   -1    0    0  501    0  0.00000000000E+00 -0.00000000000E+00 -0.18569426337E+03  0.18569426337E+03  0.00000000000E+00 0. -1.
         23    2    1    2    0    0 -0.10754997592E+03  0.17992330522E+02  0.37759404737E+03  0.40339876194E+03  0.90898708689E+02 0.  0.
         23    2    1    2    0    0  0.10754997592E+03 -0.17992330522E+02 -0.13797581771E+03  0.20760799447E+03  0.11033146340E+03 0.  0.
          5    1    4    4  502    0  0.98028438243E+02 -0.51374497312E+02 -0.13170963381E+03  0.17208664596E+03  0.41800000000E+01 0. -1.
         -5    1    4    4    0  502  0.95215376785E+01  0.33382166791E+02 -0.62661838973E+01  0.35521348511E+02  0.41800000000E+01 0.  1.
        -11    1    3    3    0    0 -0.30109350380E+02  0.47119852400E+02  0.11146019849E+03  0.12470055861E+03  0.00000000000E+00 0.  1.
         11    1    3    3    0    0 -0.77440625542E+02 -0.29127521879E+02  0.26613384888E+03  0.27869820332E+03  0.00000000000E+00 0. -1.
</event>
<event>
 8    1  0.8061721E-006  0.9536609E+02  0.7561462E-02  0.1290354E+00
          4   -1    0    0  501    0  0.00000000000E+00  0.00000000000E+00  0.10586694061E+03  0.10586694061E+03  0.00000000000E+00 0. -1.
         -4   -1    0    0    0  501 -0.00000000000E+00 -0.00000000000E+00 -0.17811004442E+03  0.17811004442E+03  0.00000000000E+00 0.  1.
         23    2    1    2    0    0  0.18760072226E+02 -0.60739473097E+02 -0.88954852043E+02  0.14266626392E+03  0.91648640237E+02 0.  0.
         23    2    1    2    0    0 -0.18760072226E+02  0.60739473097E+02  0.16711748226E+02  0.14131072111E+03  0.12509281942E+03 0.  0.
          5    1    4    4  502    0 -0.40779989908E+02  0.81381752316E+02  0.43284292439E+02  0.10088111597E+03  0.41800000000E+01 0. -1.
         -5    1    4    4    0  502  0.22019917681E+02 -0.20642279219E+02 -0.26572544213E+02  0.40429605143E+02  0.41800000000E+01 0. -1.
        -11    1    3    3    0    0  0.25524723970E+02 -0.41253049868E+02  0.28286244227E+01  0.48593484885E+02  0.00000000000E+00 0. -1.
         11    1    3    3    0    0 -0.67646517440E+01 -0.19486423229E+02 -0.91783476466E+02  0.94072779037E+02  0.00000000000E+00 0.  1.
</event>
<event>
 8    1  0.8061721E-006  0.1506776E+03  0.7561462E-02  0.1199643E+00
          2   -1    0    0  501    0  0.00000000000E+00  0.00000000000E+00  0.43953040320E+03  0.43953040320E+03  0.00000000000E+00 0. -1.
         -2   -1    0    0    0  501 -0.00000000000E+00 -0.00000000000E+00 -0.84852078675E+02  0.84852078675E+02  0.00000000000E+00 0.  1.
         23    2    1    2    0    0  0.96056362410E+02 -0.90070452833E+02  0.65064768357E+02  0.18253053608E+03  0.10837186575E+03 0.  0.
         23    2    1    2    0    0 -0.96056362410E+02  0.90070452833E+02  0.28961355617E+03  0.34185194580E+03  0.12508888718E+03 0.  0.
          5    1    4    4  502    0 -0.79544650518E+02  0.32144511484E+02  0.26150654595E+03  0.27525218803E+03  0.41800000000E+01 0. -1.
         -5    1    4    4    0  502 -0.16511711892E+02  0.57925941348E+02  0.28107010222E+02  0.66599757765E+02  0.41800000000E+01 0. -1.
        -11    1    3    3    0    0 -0.13808207727E+02 -0.13640499334E+01 -0.14813858902E+02  0.20297232531E+02  0.00000000000E+00 0.  1.
         11    1    3    3    0    0  0.10986457014E+03 -0.88706402899E+02  0.79878627259E+02  0.16223330355E+03  0.00000000000E+00 0. -1.
</event>
<event>
 8    1  0.8061721E-006  0.1893836E+03  0.7561462E-02  0.1159018E+00
         -1   -1    0    0    0  501 -0.00000000000E+00  0.00000000000E+00  0.25761279488E+02  0.25761279488E+02  0.00000000000E+00 0.  1.
          1   -1    0    0  501    0  0.00000000000E+00 -0.00000000000E+00 -0.17803846975E+04  0.17803846975E+04  0.00000000000E+00 0. -1.
         23    2    1    2    0    0 -0.13915238339E+03 -0.72435501239E+02 -0.44912976839E+03  0.48532363212E+03  0.95974951915E+02 0.  0.
         23    2    1    2    0    0  0.13915238339E+03  0.72435501239E+02 -0.13054936496E+04  0.13208223448E+04  0.12509080647E+03 0.  0.
          5    1    4    4  502    0  0.75458526419E+02  0.10029586222E+03 -0.68343784324E+03  0.69487985088E+03  0.41800000000E+01 0. -1.
         -5    1    4    4    0  502  0.63693856971E+02 -0.27860360976E+02 -0.62205580635E+03  0.62594249396E+03  0.41800000000E+01 0. -1.
        -11    1    3    3    0    0 -0.93467691913E+02  0.50335743842E+01 -0.24434630599E+03  0.26166135281E+03  0.00000000000E+00 0. -1.
         11    1    3    3    0    0 -0.45684691477E+02 -0.77469075623E+02 -0.20478346240E+03  0.22366227931E+03  0.00000000000E+00 0.  1.
</event>
<event>
 8    1  0.8061721E-006  0.1078398E+03  0.7561462E-02  0.1264623E+00
          4   -1    0    0  501    0  0.00000000000E+00  0.00000000000E+00  0.13680334488E+02  0.13680334488E+02  0.00000000000E+00 0. -1.
         -4   -1    0    0    0  501 -0.00000000000E+00 -0.00000000000E+00 -0.91395915163E+03  0.91395915163E+03  0.00000000000E+00 0.  1.
         23    2    1    2    0    0 -0.12178750786E+02 -0.20777761483E+02 -0.44257457959E+03  0.45253161135E+03  0.91282875894E+02 0.  0.
         23    2    1    2    0    0  0.12178750786E+02  0.20777761483E+02 -0.45770423755E+03  0.47510787476E+03  0.12511709015E+03 0.  0.
          5    1    4    4  502    0 -0.51194626271E+02 -0.81811785110E+01 -0.26727404978E+03  0.27228792028E+03  0.41800000000E+01 0. -1.
         -5    1    4    4    0  502  0.63373377057E+02  0.28958939994E+02 -0.19043018776E+03  0.20281995448E+03  0.41800000000E+01 0. -1.
        -11    1    3    3    0    0 -0.47740098931E+02  0.76358511518E+01 -0.20369968773E+03  0.20935851082E+03  0.00000000000E+00 0. -1.
         11    1    3    3    0    0  0.35561348145E+02 -0.28413612635E+02 -0.23887489186E+03  0.24317310054E+03  0.00000000000E+00 0.  1.
</event>
<event>
 8    1  0.8061721E-006  0.1247797E+03  0.7561462E-02  0.1235414E+00
         -2   -1    0    0    0  501 -0.00000000000E+00  0.00000000000E+00  0.39984187125E+02  0.39984187125E+02  0.00000000000E+00 0.  1.
          2   -1    0    0  501    0  0.00000000000E+00 -0.00000000000E+00 -0.67906325409E+03  0.67906325409E+03  0.00000000000E+00 0. -1.
         23    2    1    2    0    0 -0.88002327052E+02  0.82011276904E+02 -0.24022145479E+03  0.28407168204E+03  0.92304464080E+02 0.  0.
         23    2    1    2    0    0  0.88002327052E+02 -0.82011276904E+02 -0.39885761218E+03  0.43497575918E+03  0.12508499980E+03 0.  0.
          5    1    4    4  502    0  0.60101544630E+02 -0.58470998704E+02 -0.38753891168E+03  0.39652860404E+03  0.41800000000E+01 0. -1.
         -5    1    4    4    0  502  0.27900782422E+02 -0.23540278199E+02 -0.11318700504E+02  0.38447155143E+02  0.41800000000E+01 0. -1.
        -11    1    3    3    0    0 -0.48758196770E+02  0.14667683239E+02 -0.28259978084E+02  0.58233401457E+02  0.00000000000E+00 0. -1.
         11    1    3    3    0    0 -0.39244130282E+02  0.67343593665E+02 -0.21196147670E+03  0.22583828058E+03  0.00000000000E+00 0.  1.
</event>
<event>
 7    1  0.8061721E-006  0.1769831E+03  0.7561462E-02  0.1170755E+00
         -3   -1    0    0    0  501 -0.00000000000E+00  0.00000000000E+00  0.66549647117E+02  0.66549647117E+02  0.00000000000E+00 0.  1.
          3   -1    0    0  501    0  0.00000000000E+00 -0.00000000000E+00 -0.56416848486E+03  0.56416848486E+03  0.00000000000E+00 0. -1.
         23    2    1    2    0    0  0.88113220834E+02 -0.10814683525E+01 -0.91067323540E+02  0.15756968295E+03  0.93647414847E+02 0.  0.
          5    1    1    2  502    0 -0.15655319150E+03 -0.24084558400E+02 -0.33652992599E+03  0.37196616944E+03  0.41800000000E+01 0. -1.
         -5    1    1    2    0  502  0.68439970666E+02  0.25166026753E+02 -0.70021588217E+02  0.10118227959E+03  0.41800000000E+01 0.  1.
        -11    1    3    3    0    0  0.48410242175E+02  0.41855896165E+02 -0.23414892180E+02  0.68144880710E+02  0.00000000000E+00 0.  1.
         11    1    3    3    0    0  0.39702978659E+02 -0.42937364517E+02 -0.67652431360E+02  0.89424802237E+02  0.00000000000E+00 0. -1.
</event>
<event>
 8    1  0.8061721E-006  0.1554290E+03  0.7561462E-02  0.1193956E+00
         -2   -1    0    0    0  501 -0.00000000000E+00  0.00000000000E+00  0.10494880108E+03  0.10494880108E+03  0.00000000000E+00 0.  1.
          2   -1    0    0  501    0  0.00000000000E+00 -0.00000000000E+00 -0.38135163267E+03  0.38135163267E+03  0.00000000000E+00 0. -1.
         23    2    1    2    0    0  0.13534827860E+03 -0.88475958834E+01 -0.14128134003E+02  0.16562464562E+03  0.93991928331E+02 0.  0.
         23    2    1    2    0    0 -0.13534827860E+03  0.88475958834E+01 -0.26227469759E+03  0.32067578814E+03  0.12508999813E+03 0.  0.
          5    1    4    4  502    0  0.15239525812E+02  0.17147984672E+02 -0.73494134107E+01  0.24449597191E+02  0.41800000000E+01 0.  1.
         -5    1    4    4    0  502 -0.15058780442E+03 -0.83003887888E+01 -0.25492528417E+03  0.29622619095E+03  0.41800000000E+01 0.  1.
        -11    1    3    3    0    0  0.91047582623E+02 -0.13802810513E+02  0.35701118531E+02  0.98766136626E+02  0.00000000000E+00 0.  1.
         11    1    3    3    0    0  0.44300695980E+02  0.49552146301E+01 -0.49829252534E+02  0.66858508991E+02  0.00000000000E+00 0. -1.
</event>
<event>
 8    1  0.8061721E-006  0.1074214E+03  0.7561462E-02  0.1265421E+00
          3   -1    0    0  501    0  0.00000000000E+00  0.00000000000E+00  0.36019478295E+02  0.36019478295E+02  0.00000000000E+00 0. -1.
         -3   -1    0    0    0  501 -0.00000000000E+00 -0.00000000000E+00 -0.38729407002E+03  0.38729407002E+03  0.00000000000E+00 0.  1.
         23    2    1    2    0    0  0.43134809949E+02  0.15605949494E+02 -0.15654457305E+03  0.18736802045E+03  0.92175996039E+02 0.  0.
         23    2    1    2    0    0 -0.43134809949E+02 -0.15605949494E+02 -0.19473001867E+03  0.23594552787E+03  0.12508538867E+03 0.  0.
          5    1    4    4  502    0 -0.47462362552E+02  0.45768401256E+02 -0.13396068843E+03  0.14936653192E+03  0.41800000000E+01 0. -1.
         -5    1    4    4    0  502  0.43275526024E+01 -0.61374350750E+02 -0.60769330245E+02  0.86578995952E+02  0.41800000000E+01 0. -1.
        -11    1    3    3    0    0 -0.99012509681E+00  0.37732234702E+02 -0.21174178390E+02  0.43278721259E+02  0.00000000000E+00 0. -1.
         11    1    3    3    0    0  0.44124935046E+02 -0.22126285208E+02 -0.13537039466E+03  0.14408929919E+03  0.00000000000E+00 0.  1.
</event>
<event>
 8    1  0.8061721E-006  0.8725323E+02  0.7561462E-02  0.1309643E+00
          1   -1    0    0  501    0  0.00000000000E+00  0.00000000000E+00  0.14369554719E+04  0.14369554719E+04  0.00000000000E+00 0. -1.
         -1   -1    0    0    0  501 -0.00000000000E+00 -0.00000000000E+00 -0.26730238948E+02  0.26730238948E+02  0.00000000000E+00 0.  1.
         23    2    1    2    0    0  0.28179839966E+02 -0.86303008827E+01  0.71836384722E+02  0.11914133472E+03  0.90363742706E+02 0.  0.
         23    2    1    2    0    0 -0.28179839966E+02  0.86303008827E+01  0.13383888483E+04  0.13445443762E+04  0.12508511034E+03 0.  0.
          5    1    4    4  502    0 -0.33375680225E+02 -0.27049343271E+02  0.16370105423E+03  0.16929592599E+03  0.41800000000E+01 0. -1.
         -5    1    4    4    0  502  0.51958402590E+01  0.35679644154E+02  0.11746877940E+04  0.11752484502E+04  0.41800000000E+01 0. -1.
        -11    1    3    3    0    0  0.21242889236E+02 -0.49355994642E+02  0.40164179479E+02  0.67085287980E+02  0.00000000000E+00 0.  1.
         11    1    3    3    0    0  0.69369507298E+01  0.40725693759E+02  0.31672205243E+02  0.52056046743E+02  0.00000000000E+00 0. -1.
</event>
<event>
 8    1  0.8061721E-006  0.9555093E+02  0.7561462E-02  0.1289940E+00
         -3   -1    0    0    0  501 -0.00000000000E+00  0.00000000000E+00  0.12881003534E+03  0.12881003534E+03  0.00000000000E+00 0.  1.
          3   -1    0    0  501    0  0.00000000000E+00 -0.00000000000E+00 -0.97729485155E+02  0.97729485155E+02  0.00000000000E+00 0. -1.
         23    2    1    2    0    0 -0.23533006217E+02  0.98690853210E+01  0.30064141941E+02  0.98868002844E+02  0.90663267805E+02 0.  0.
         23    2    1    2    0    0  0.23533006217E+02 -0.98690853210E+01  0.10164082460E+01  0.12767151765E+03  0.12509109524E+03 0.  0.
          5    1    4    4  502    0  0.32436771722E+02  0.48168691556E+02 -0.24937956623E+02  0.63338306628E+02  0.41800000000E+01 0.  1.
         -5    1    4    4    0  502 -0.89037655049E+01 -0.58037776877E+02  0.25954364869E+02  0.64333211025E+02  0.41800000000E+01 0.  1.
        -11    1    3    3    0    0  0.24801445805E+02  0.60522294407E+01  0.41803269268E+02  0.48982185708E+02  0.00000000000E+00 0.  1.
         11    1    3    3    0    0 -0.48334452021E+02  0.38168558803E+01 -0.11739127327E+02  0.49885817137E+02  0.00000000000E+00 0. -1.
</event>
<event>
 8    1  0.8061721E-006  0.1668761E+03  0.7561462E-02  0.1181145E+00
          2   -1    0    0  501    0  0.00000000000E+00  0.00000000000E+00  0.51607799431E+02  0.51607799431E+02  0.00000000000E+00 0. -1.
         -2   -1    0    0    0  501 -0.00000000000E+00 -0.00000000000E+00 -0.67232859491E+03  0.67232859491E+03  0.00000000000E+00 0.  1.
         23    2    1    2    0    0 -0.10680223617E+03  0.85368949169E+02 -0.41794417176E+03  0.44923032540E+03  0.91847587998E+02 0.  0.
         23    2    1    2    0    0  0.10680223617E+03 -0.85368949169E+02 -0.20277662372E+03  0.27470606894E+03  0.12510191865E+03 0.  0.
          5    1    4    4  502    0  0.79008079552E+02  0.18551284807E+01 -0.41871149750E+02  0.89534260021E+02  0.41800000000E+01 0.  1.
         -5    1    4    4    0  502  0.27794156618E+02 -0.87224077650E+02 -0.16090547397E+03  0.18517180891E+03  0.41800000000E+01 0.  1.
        -11    1    3    3    0    0 -0.84399002117E+02  0.10392639543E+03 -0.36565225660E+03  0.38939114010E+03  0.00000000000E+00 0.  1.
         11    1    3    3    0    0 -0.22403234053E+02 -0.18557446259E+02 -0.52291915155E+02  0.59839185308E+02  0.00000000000E+00 0. -1.
</event>
<event>
 8    1  0.8061721E-006  0.1767534E+03  0.7561462E-02  0.1170983E+00
         -1   -1    0    0    0  501 -0.00000000000E+00  0.00000000000E+00  0.75730270500E+02  0.75730270500E+02  0.00000000000E+00 0.  1.
          1   -1    0    0  501    0  0.00000000000E+00 -0.00000000000E+00 -0.50491787050E+03  0.50491787050E+03  0.00000000000E+00 0. -1.
         23    2    1    2    0    0  0.24654036411E+02 -0.15713456083E+03 -0.15117300284E+03  0.23678977945E+03  0.88977700279E+02 0.  0.
         23    2    1    2    0    0 -0.24654036411E+02  0.15713456083E+03 -0.27801459716E+03  0.34385836154E+03  0.12508942741E+03 0.  0.
          5    1    4    4  502    0 -0.28866117949E+01 -0.15892929451E+02 -0.12830389184E+01  0.16734285855E+02  0.41800000000E+01 0. -1.
         -5    1    4    4    0  502 -0.21767424616E+02  0.17302749029E+03 -0.27673155824E+03  0.32712407569E+03  0.41800000000E+01 0. -1.
        -11    1    3    3    0    0  0.31647251851E+02 -0.10180389999E+03 -0.42745313429E+02  0.11485967274E+03  0.00000000000E+00 0.  1.
         11    1    3    3    0    0 -0.69932154405E+01 -0.55330660846E+02 -0.10842768941E+03  0.12193010671E+03  0.00000000000E+00 0. -1.
</event>
<event>
 8    1  0.8061721E-006  0.9660840E+02  0.7561462E-02  0.1287594E+00
          1   -1    0    0  501    0  0.00000000000E+00  0.00000000000E+00  0.11878579223E+04  0.11878579223E+04  0.00000000000E+00 0. -1.
         -1   -1    0    0    0  501 -0.00000000000E+00 -0.00000000000E+00 -0.19886907350E+02  0.19886907350E+02  0.00000000000E+00 0.  1.
         23    2    1    2    0    0  0.17954474835E+02  0.62645839471E+02  0.19863928686E+03  0.22820492405E+03  0.91504408143E+02 0.  0.
         23    2    1    2    0    0 -0.17954474835E+02 -0.62645839471E+02  0.96933172809E+03  0.97953990559E+03  0.12509022024E+03 0.  0.
          5    1    4    4  502    0  0.30680055149E+02 -0.58896504256E+02  0.81307368709E+03  0.81579185890E+03  0.41800000000E+01 0.  1.
         -5    1    4    4    0  502 -0.48634529984E+02 -0.37493352154E+01  0.15625804100E+03  0.16374804670E+03  0.41800000000E+01 0.  1.
        -11    1    3    3    0    0  0.30889913340E+02  0.32106186665E+02  0.18824880159E+03  0.19344923176E+03  0.00000000000E+00 0. -1.
         11    1    3    3    0    0 -0.12935438506E+02  0.30539652807E+02  0.10390485270E+02  0.34755692297E+02  0.00000000000E+00 0.  1.
</event>
<event>
 8    1  0.8061721E-006  0.2915734E+03  0.7561462E-02  0.1089531E+00
         -2   -1    0    0    0  501 -0.00000000000E+00  0.00000000000E+00  0.69502902995E+02  0.69502902995E+02  0.00000000000E+00 0.  1.
          2   -1    0    0  501    0  0.00000000000E+00 -0.00000000000E+00 -0.15913804365E+04  0.15913804365E+04  0.00000000000E+00 0. -1.
         23    2    1    2    0    0  0.26170482146E+03  0.11248334367E+03 -0.10785132070E+04  0.11192752759E+04  0.91893902163E+02 0.  0.
         23    2    1    2    0    0 -0.26170482146E+03 -0.11248334367E+03 -0.44336432643E+03  0.54160806358E+03  0.12500180962E+03 0.  0.
          5    1    4    4  502    0 -0.11060796446E+03 -0.86546468864E+02 -0.12428921218E+03  0.18758916211E+03  0.41800000000E+01 0. -1.
         -5    1    4    4    0  502 -0.15109685700E+03 -0.25936874804E+02 -0.31907511425E+03  0.35401890147E+03  0.41800000000E+01 0. -1.
        -11    1    3    3    0    0  0.10684700683E+03  0.19391861915E+02 -0.55317523874E+03  0.56373324537E+03  0.00000000000E+00 0.  1.
         11    1    3    3    0    0  0.15485781463E+03  0.93091481753E+02 -0.52533796830E+03  0.55554203051E+03  0.00000000000E+00 0. -1.
</event>
<event>
 8    1  0.8061721E-006  0.1194673E+03  0.7561462E-02  0.1243978E+00
         -2   -1    0    0    0  501 -0.00000000000E+00  0.00000000000E+00  0.24939501143E+02  0.24939501143E+02  0.00000000000E+00 0.  1.
          2   -1    0    0  501    0  0.00000000000E+00 -0.00000000000E+00 -0.66372502536E+03  0.66372502536E+03  0.00000000000E+00 0. -1.
         23    2    1    2    0    0 -0.38890399909E+01  0.67005268742E+02 -0.23558891544E+03  0.26120455143E+03  0.90668902831E+02 0.  0.
         23    2    1    2    0    0  0.38890399909E+01 -0.67005268742E+02 -0.40319660878E+03  0.42745997507E+03  0.12509873814E+03 0.  0.
          5    1    4    4  502    0  0.27184753002E+02  0.27929522329E+02 -0.17205025731E+03  0.17645915236E+03  0.41800000000E+01 0.  1.
         -5    1    4    4    0  502 -0.23295713011E+02 -0.94934791070E+02 -0.23114635147E+03  0.25100082270E+03  0.41800000000E+01 0.  1.
        -11    1    3    3    0    0 -0.37298513046E+02  0.15254882017E+02 -0.42672366876E+02  0.58692600859E+02  0.00000000000E+00 0.  1.
         11    1    3    3    0    0  0.33409473055E+02  0.51750386725E+02 -0.19291654856E+03  0.20251195057E+03  0.00000000000E+00 0. -1.
</event>
<event>
 7    1  0.8061721E-006  0.1040233E+03  0.7561462E-02  0.1272056E+00
          2   -1    0    0  501    0  0.00000000000E+00  0.00000000000E+00  0.60970879928E+03  0.60970879928E+03  0.00000000000E+00 0. -1.
         -2   -1    0    0    0  501 -0.00000000000E+00 -0.00000000000E+00 -0.24969929534E+02  0.24969929534E+02  0.00000000000E+00 0.  1.
         23    2    1    2    0    0 -0.43482008239E+02  0.71283501089E+01  0.24184443452E+03  0.26389847702E+03  0.95980087769E+02 0.  0.
          5    1    1    2  502    0 -0.22926633218E+00  0.52310279905E+02  0.22955662866E+03  0.23547852579E+03  0.41800000000E+01 0. -1.
         -5    1    1    2    0  502  0.43711274571E+02 -0.59438630014E+02  0.11333780656E+03  0.13530172600E+03  0.41800000000E+01 0.  1.
        -11    1    3    3    0    0 -0.18431973063E+02 -0.30990061102E+02  0.29144996441E+02  0.46363264937E+02  0.00000000000E+00 0.  1.
         11    1    3    3    0    0 -0.25050035176E+02  0.38118411211E+02  0.21269943808E+03  0.21753521208E+03  0.00000000000E+00 0. -1.
</event>
<event>
 8    1  0.8061721E-006  0.9422028E+02  0.7561462E-02  0.1292942E+00
         -1   -1    0    0    0  501 -0.00000000000E+00  0.00000000000E+00  0.15819530682E+02  0.15819530682E+02  0.00000000000E+00 0.  1.
          1   -1    0    0  501    0  0.00000000000E+00 -0.00000000000E+00 -0.83722227830E+03  0.83722227830E+03  0.00000000000E+00 0. -1.
         23    2    1    2    0    0 -0.33512016325E+02  0.11988985272E+02 -0.32067184923E+03  0.33569710563E+03  0.92710953142E+02 0.  0.
         23    2    1    2    0    0  0.33512016325E+02 -0.11988985272E+02 -0.50073089839E+03  0.51734470336E+03  0.12508924207E+03 0.  0.
          5    1    4    4  502    0 -0.22023931636E+02 -0.26869928041E+02 -0.40525462045E+02  0.53542805974E+02  0.41800000000E+01 0. -1.
         -5    1    4    4    0  502  0.55535947962E+02  0.14880942769E+02 -0.46020543635E+03  0.46380189739E+03  0.41800000000E+01 0. -1.
        -11    1    3    3    0    0 -0.29045871494E+02 -0.36758347708E+02 -0.11285592686E+03  0.12219369461E+03  0.00000000000E+00 0.  1.
         11    1    3    3    0    0 -0.44661448318E+01  0.48747332980E+02 -0.20781592237E+03  0.21350341101E+03  0.00000000000E+00 0. -1.
</event>
<event>
 8    1  0.8061721E-006  0.1715977E+03  0.7561462E-02  0.1176192E+00
          1   -1    0    0  501    0  0.00000000000E+00  0.00000000000E+00  0.11045859982E+03  0.11045859982E+03  0.00000000000E+00 0. -1.
         -1   -1    0    0    0  501 -0.00000000000E+00 -0.00000000000E+00 -0.50951440913E+03  0.50951440913E+03  0.00000000000E+00 0.  1.
         23    2    1    2    0    0 -0.51786458427E+02 -0.14327277099E+03 -0.38193452833E+03  0.42210999258E+03  0.95362139849E+02 0.  0.
         23    2    1    2    0    0  0.51786458427E+02  0.14327277099E+03 -0.17121280977E+02  0.19786301637E+03  0.12509081022E+03 0.  0.
          5    1    4    4  502    0 -0.20868548440E+02  0.29420153304E+02 -0.47080999941E+02  0.59456998662E+02  0.41800000000E+01 0.  1.
         -5    1    4    4    0  502  0.72655006867E+02  0.11385261768E+03  0.29959718965E+02  0.13840601770E+03  0.41800000000E+01 0.  1.
        -11    1    3    3    0    0 -0.55912385989E+02 -0.40829766259E+02 -0.21824086498E+03  0.22895925373E+03  0.00000000000E+00 0.  1.
         11    1    3    3    0    0  0.41259275621E+01 -0.10244300473E+03 -0.16369366335E+03  0.19315073885E+03  0.00000000000E+00 0. -1.
</event>
<event>
 8    1  0.8061721E-006  0.1162236E+03  0.7561462E-02  0.1249460E+00
          2   -1    0    0  501    0  0.00000000000E+00  0.00000000000E+00  0.60089375546E+03  0.60089375546E+03  0.00000000000E+00 0. -1.
         -2   -1    0    0    0  501 -0.00000000000E+00 -0.00000000000E+00 -0.26177019886E+02  0.26177019886E+02  0.00000000000E+00 0.  1.
         23    2    1    2    0    0 -0.13961136747E+02  0.45518709781E+02  0.14772978931E+03  0.17959735140E+03  0.90356248818E+02 0.  0.
         23    2    1    2    0    0  0.13961136747E+02 -0.45518709781E+02  0.42698694627E+03  0.44747342395E+03  0.12509095323E+03 0.  0.
          5    1    4    4  502    0 -0.24221672706E+02  0.34289572218E+02  0.18602146059E+03  0.19074569561E+03  0.41800000000E+01 0.  1.
         -5    1    4    4    0  502  0.38182809453E+02 -0.79808282000E+02  0.24096548568E+03  0.25672772834E+03  0.41800000000E+01 0.  1.
        -11    1    3    3    0    0 -0.34195560002E+02  0.65096792094E+02  0.11404493453E+03  0.13569515746E+03  0.00000000000E+00 0.  1.
         11    1    3    3    0    0  0.20234423255E+02 -0.19578082313E+02  0.33684854776E+02  0.43902193941E+02  0.00000000000E+00 0. -1.
</event>
<event>
 7    1  0.8061721E-006  0.1190518E+03  0.7561462E-02  0.1244669E+00
         -2   -1    0    0    0  501 -0.00000000000E+00  0.00000000000E+00  0.11369749435E+03  0.11369749435E+03  0.00000000000E+00 0.  1.
          2   -1    0    0  501    0  0.00000000000E+00 -0.00000000000E+00 -0.35703372092E+03  0.35703372092E+03  0.00000000000E+00 0. -1.
         23    2    1    2    0    0 -0.27864645046E+01  0.34708650875E+02  0.65930874198E+02  0.11711330717E+03  0.90311636645E+02 0.  0.
          5    1    1    2  502    0 -0.60775031073E+02 -0.52973817828E+02 -0.25651545489E+03  0.26891909708E+03  0.41800000000E+01 0. -1.
         -5    1    1    2    0  502  0.63561495577E+02  0.18265166952E+02 -0.52751645879E+02  0.84698811012E+02  0.41800000000E+01 0.  1.
        -11    1    3    3    0    0  0.23982554959E+02 -0.19329836693E+02  0.46777397087E+01  0.31155846605E+02  0.00000000000E+00 0. -1.
         11    1    3    3    0    0 -0.26769019463E+02  0.54038487568E+02  0.61253134490E+02  0.85957460563E+02  0.00000000000E+00 0.  1.
</event>
<event>
 8    1  0.8061721E-006  0.1229757E+03  0.7561462E-02  0.1238267E+00
          2   -1    0    0  501    0  0.00000000000E+00  0.00000000000E+00  0.84631777054E+02  0.84631777054E+02  0.00000000000E+00 0. -1.
         -2   -1    0    0    0  501 -0.00000000000E+00 -0.00000000000E+00 -0.21557129921E+03  0.21557129921E+03  0.00000000000E+00 0.  1.
         23    2    1    2    0    0 -0.64821681433E+02  0.31156874641E+02 -0.89255184108E+02  0.15000941342E+03  0.96766393980E+02 0.  0.
         23    2    1    2    0    0  0.64821681433E+02 -0.31156874641E+02 -0.41684338043E+02  0.15019366284E+03  0.12509177070E+03 0.  0.
          5    1    4    4  502    0  0.38638118287E+01 -0.66794518432E+02  0.19830497357E+01  0.67065949786E+02  0.41800000000E+01 0. -1.
         -5    1    4    4    0  502  0.60957869605E+02  0.35637643791E+02 -0.43667387778E+02  0.83127713051E+02  0.41800000000E+01 0. -1.
        -11    1    3    3    0    0  0.10509260863E+02 -0.16119794501E+02  0.55403625191E+01  0.20024683655E+02  0.00000000000E+00 0. -1.
         11    1    3    3    0    0 -0.75330942296E+02  0.47276669142E+02 -0.94795546627E+02  0.12998472977E+03  0.00000000000E+00 0.  1.
</event>
<event>
 8    1  0.8061721E-006  0.1061700E+03  0.7561462E-02  0.1267831E+00
         -2   -1    0    0    0  501 -0.00000000000E+00  0.00000000000E+00  0.11641685611E+02  0.11641685611E+02  0.00000000000E+00 0. -1.
          2   -1    0    0  501    0  0.00000000000E+00 -0.00000000000E+00 -0.14532205975E+04  0.14532205975E+04  0.00000000000E+00 0.  1.
         23    2    1    2    0    0 -0.97759940353E+01  0.14946894904E+02 -0.26920923619E+03  0.28570190861E+03  0.93983977398E+02 0.  0.
         23    2    1    2    0    0  0.97759940353E+01 -0.14946894904E+02 -0.11723696757E+04  0.11791603745E+04  0.12509817170E+03 0.  0.
          5    1    4    4  502    0  0.65263577094E+02 -0.23801414139E+02 -0.69564348540E+03  0.69911599395E+03  0.41800000000E+01 0.  1.
         -5    1    4    4    0  502 -0.55487583058E+02  0.88545192354E+01 -0.47672619028E+03  0.48004438053E+03  0.41800000000E+01 0.  1.
        -11    1    3    3    0    0  0.34759105058E+02  0.22251054524E+02 -0.19097865196E+03  0.19538718054E+03  0.00000000000E+00 0.  1.
         11    1    3    3    0    0 -0.44535099093E+02 -0.73041596208E+01 -0.78230584225E+02  0.90314728075E+02  0.00000000000E+00 0. -1.
</event>
<event>
 8    1  0.8061721E-006  0.8714826E+02  0.7561462E-02  0.1309908E+00
         -2   -1    0    0    0  501 -0.00000000000E+00  0.00000000000E+00  0.12580280845E+02  0.12580280845E+02  0.00000000000E+00 0.  1.
          2   -1    0    0  501    0  0.00000000000E+00 -0.00000000000E+00 -0.10860073894E+04  0.10860073894E+04  0.00000000000E+00 0. -1.
         23    2    1    2    0    0  0.10580601139E+02  0.30281299846E+02 -0.30247876612E+03  0.31689870700E+03  0.88895895876E+02 0.  0.
         23    2    1    2    0    0 -0.10580601139E+02 -0.30281299846E+02 -0.77094834243E+03  0.78168896324E+03  0.12508949723E+03 0.  0.
          5    1    4    4  502    0  0.87757573867E+01 -0.59105207404E+02 -0.70032070803E+03  0.70287766073E+03  0.41800000000E+01 0.  1.
         -5    1    4    4    0  502 -0.19356358526E+02  0.28823907558E+02 -0.70627634402E+02  0.78811302511E+02  0.41800000000E+01 0.  1.
        -11    1    3    3    0    0 -0.29833933289E+02  0.24491836522E+02 -0.62402280083E+02  0.73375460416E+02  0.00000000000E+00 0.  1.
         11    1    3    3    0    0  0.40414534429E+02  0.57894633245E+01 -0.24007648603E+03  0.24352324658E+03  0.00000000000E+00 0. -1.
</event>
<event>
 8    1  0.8061721E-006  0.1852640E+03  0.7561462E-02  0.1162804E+00
          2   -1    0    0  501    0  0.00000000000E+00  0.00000000000E+00  0.17017977736E+04  0.17017977736E+04  0.00000000000E+00 0. -1.
         -2   -1    0    0    0  501 -0.00000000000E+00 -0.00000000000E+00 -0.27751211051E+02  0.27751211051E+02  0.00000000000E+00 0.  1.
         23    2    1    2    0    0 -0.21459221082E+01 -0.17715564460E+03  0.54832128821E+03  0.58312245313E+03  0.89369082169E+02 0.  0.
         23    2    1    2    0    0  0.21459221082E+01  0.17715564460E+03  0.11257252744E+04  0.11464265315E+04  0.12509065306E+03 0.  0.
          5    1    4    4  502    0 -0.27304819307E+02  0.63594712966E+02  0.73979656278E+03  0.74303853694E+03  0.41800000000E+01 0. -1.
         -5    1    4    4    0  502  0.29450741415E+02  0.11356093164E+03  0.38592871157E+03  0.40338799459E+03  0.41800000000E+01 0. -1.
        -11    1    3    3    0    0 -0.25433558765E+02 -0.83073789069E+02  0.37105198079E+03  0.38108751330E+03  0.00000000000E+00 0. -1.
         11    1    3    3    0    0  0.23287636656E+02 -0.94081855536E+02  0.17726930741E+03  0.20203493983E+03  0.00000000000E+00 0.  1.
</event>
<event>
 7    1  0.8061721E-006  0.1445245E+03  0.7561462E-02  0.1207367E+00
         -3   -1    0    0    0  501 -0.00000000000E+00  0.00000000000E+00  0.33076645996E+03  0.33076645996E+03  0.00000000000E+00 0.  1.
          3   -1    0    0  501    0  0.00000000000E+00 -0.00000000000E+00 -0.96409920719E+02  0.96409920719E+02  0.00000000000E+00 0. -1.
         23    2    1    2    0    0  0.63666546439E+02 -0.10315335587E+03  0.16790131737E+02  0.17499559518E+03  0.12508999099E+03 0.  0.
          5    1    3    3  502    0 -0.31791519366E+02 -0.44950587827E+02 -0.17593820169E+02  0.57950590659E+02  0.41800000000E+01 0.  1.
         -5    1    3    3    0  502  0.95458065805E+02 -0.58202768041E+02  0.34383951906E+02  0.11704500452E+03  0.41800000000E+01 0.  1.
        -11    1    1    2    0    0 -0.23984433113E+02  0.27242590083E+02  0.34549192702E+02  0.50110462606E+02  0.00000000000E+00 0. -1.
         11    1    1    2    0    0 -0.39682113326E+02  0.75910765785E+02  0.18301721480E+03  0.20207032289E+03  0.00000000000E+00 0.  1.
</event>
<event>
 8    1  0.8061721E-006  0.9707725E+02  0.7561462E-02  0.1286565E+00
          1   -1    0    0  501    0  0.00000000000E+00  0.00000000000E+00  0.62743007517E+02  0.62743007517E+02  0.00000000000E+00 0. -1.
         -1   -1    0    0    0  501 -0.00000000000E+00 -0.00000000000E+00 -0.23940990228E+03  0.23940990228E+03  0.00000000000E+00 0.  1.
         23    2    1    2    0    0  0.27614273790E+02  0.34160712265E+02 -0.12580246285E+03  0.16015203974E+03  0.88842072216E+02 0.  0.
         23    2    1    2    0    0 -0.27614273790E+02 -0.34160712265E+02 -0.50864431918E+02  0.14200087006E+03  0.12509018460E+03 0.  0.
          5    1    4    4  502    0 -0.66785964133E+02 -0.41818760100E+02 -0.62000506752E+02  0.10035292193E+03  0.41800000000E+01 0.  1.
         -5    1    4    4    0  502  0.39171690342E+02  0.76580478349E+01  0.11136074833E+02  0.41647948132E+02  0.41800000000E+01 0.  1.
        -11    1    3    3    0    0  0.33726702864E+02  0.48759408603E+02 -0.13075527327E+03  0.14356849202E+03  0.00000000000E+00 0.  1.
         11    1    3    3    0    0 -0.61124290732E+01 -0.14598696338E+02  0.49528104219E+01  0.16583547721E+02  0.00000000000E+00 0. -1.
</event>
<event>
 8    1  0.8061721E-006  0.1125044E+03  0.7561462E-02  0.1256001E+00
          2   -1    0    0  501    0  0.00000000000E+00  0.00000000000E+00  0.20175795822E+03  0.20175795822E+03  0.00000000000E+00 0. -1.
         -2   -1    0    0    0  501 -0.00000000000E+00 -0.00000000000E+00 -0.11542868525E+03  0.11542868525E+03  0.00000000000E+00 0.  1.
         23    2    1    2    0    0  0.58271632527E+02  0.79412341811E+02  0.19810561791E+01  0.13700752076E+03  0.95211517013E+02 0.  0.
         23    2    1    2    0    0 -0.58271632527E+02 -0.79412341811E+02  0.84348216790E+02  0.18017912271E+03  0.12509193178E+03 0.  0.
          5    1    4    4  502    0 -0.14605572736E+02 -0.18656452776E+02 -0.33064074612E+02  0.40891214399E+02  0.41800000000E+01 0.  1.
         -5    1    4    4    0  502 -0.43666059791E+02 -0.60755889035E+02  0.11741229140E+03  0.13928790831E+03  0.41800000000E+01 0.  1.
        -11    1    3    3    0    0 -0.40331519006E+01  0.60875444749E+02  0.27825016031E+02  0.67054586754E+02  0.00000000000E+00 0. -1.
         11    1    3    3    0    0  0.62304784428E+02  0.18536897062E+02 -0.25843959851E+02  0.69952934007E+02  0.00000000000E+00 0.  1.
</event>
<event>
 8    1  0.8061721E-006  0.1705099E+03  0.7561462E-02  0.1177317E+00
          2   -1    0    0  501    0  0.00000000000E+00  0.00000000000E+00  0.98785134369E+03  0.98785134369E+03  0.00000000000E+00 0. -1.
         -2   -1    0    0    0  501 -0.00000000000E+00 -0.00000000000E+00 -0.37716896947E+02  0.37716896947E+02  0.00000000000E+00 0.  1.
         23    2    1    2    0    0  0.11208731854E+02 -0.14883601438E+03  0.30654246365E+03  0.35315707565E+03  0.92053480216E+02 0.  0.
         23    2    1    2    0    0 -0.11208731854E+02  0.14883601438E+03  0.64359198310E+03  0.67241116499E+03  0.12509332212E+03 0.  0.
          5    1    4    4  502    0  0.63790603103E+01 -0.19997860929E+02  0.12240162332E+03  0.12425874876E+03  0.41800000000E+01 0. -1.
         -5    1    4    4    0  502 -0.17587792164E+02  0.16883387531E+03  0.52119035978E+03  0.54815241622E+03  0.41800000000E+01 0. -1.
        -11    1    3    3    0    0 -0.21366596279E+01 -0.54597546090E+02  0.33714817093E+02  0.64203942597E+02  0.00000000000E+00 0.  1.
         11    1    3    3    0    0  0.13345391481E+02 -0.94238468290E+02  0.27282764655E+03  0.28895313306E+03  0.00000000000E+00 0. -1.
</event>
<event>
 8    1  0.8061721E-006  0.1076072E+03  0.7561462E-02  0.1265066E+00
          3   -1    0    0  501    0  0.00000000000E+00  0.00000000000E+00  0.12693013714E+03  0.12693013714E+03  0.00000000000E+00 0. -1.
         -3   -1    0    0    0  501 -0.00000000000E+00 -0.00000000000E+00 -0.20798508768E+03  0.20798508768E+03  0.00000000000E+00 0.  1.
         23    2    1    2    0    0  0.24910043371E+02  0.46377159579E+02 -0.14925068710E+03  0.18303046186E+03  0.91940367496E+02 0.  0.
         23    2    1    2    0    0 -0.24910043371E+02 -0.46377159579E+02  0.68195736571E+02  0.15188476297E+03  0.12508785530E+03 0.  0.
          5    1    4    4  502    0 -0.50519418599E+02  0.23445443994E+02  0.86414779702E+01  0.56515909629E+02  0.41800000000E+01 0.  1.
         -5    1    4    4    0  502  0.25609375229E+02 -0.69822603573E+02  0.59554258601E+02  0.95368853337E+02  0.41800000000E+01 0.  1.
        -11    1    3    3    0    0  0.45768098009E+02  0.44658340010E+02 -0.14895366383E+03  0.16209959931E+03  0.00000000000E+00 0.  1.
         11    1    3    3    0    0 -0.20858054638E+02  0.17188195693E+01 -0.29702326937E+00  0.20930862544E+02  0.00000000000E+00 0. -1.
</event>
<event>
 8    1  0.8061721E-006  0.1081853E+03  0.7561462E-02  0.1263968E+00
          1   -1    0    0  501    0  0.00000000000E+00  0.00000000000E+00  0.47286112778E+02  0.47286112778E+02  0.00000000000E+00 0. -1.
         -1   -1    0    0    0  501 -0.00000000000E+00 -0.00000000000E+00 -0.30892343393E+03  0.30892343393E+03  0.00000000000E+00 0.  1.
         23    2    1    2    0    0 -0.43972632184E+02 -0.20498742998E+02 -0.14769390169E+03  0.18018512968E+03  0.91101051110E+02 0.  0.
         23    2    1    2    0    0  0.43972632184E+02  0.20498742998E+02 -0.11394341945E+03  0.17602441703E+03  0.12509077387E+03 0.  0.
          5    1    4    4  502    0 -0.31228611061E+02  0.25332766566E+02 -0.86916403527E+02  0.95858796220E+02  0.41800000000E+01 0. -1.
         -5    1    4    4    0  502  0.75201243245E+02 -0.48340235685E+01 -0.27027015927E+02  0.80165620807E+02  0.41800000000E+01 0. -1.
        -11    1    3    3    0    0 -0.68066187970E+02 -0.30240610891E+02 -0.12583701150E+03  0.14622740493E+03  0.00000000000E+00 0.  1.
         11    1    3    3    0    0  0.24093555786E+02  0.97418678938E+01 -0.21856890199E+02  0.33957724742E+02  0.00000000000E+00 0. -1.
</event>
<event>
 8    1  0.8061721E-006  0.1333923E+03  0.7561462E-02  0.1222507E+00
         -2   -1    0    0    0  501 -0.00000000000E+00  0.00000000000E+00  0.46472924537E+02  0.46472924537E+02  0.00000000000E+00 0.  1.
          2   -1    0    0  501    0  0.00000000000E+00 -0.00000000000E+00 -0.79959320398E+03  0.79959320398E+03  0.00000000000E+00 0. -1.
         23    2    1    2    0    0 -0.35506524244E+02 -0.10254251433E+03 -0.10314380980E+03  0.17532583017E+03  0.91240455483E+02 0.  0.
         23    2    1    2    0    0  0.35506524244E+02  0.10254251433E+03 -0.64997646965E+03  0.67074029835E+03  0.12508979265E+03 0.  0.
          5    1    4    4  502    0 -0.50936349611E+01 -0.19703295337E+02 -0.24202852933E+03  0.24291860031E+03  0.41800000000E+01 0. -1.
         -5    1    4    4    0  502  0.40600159205E+02  0.12224580966E+03 -0.40794794032E+03  0.42782169804E+03  0.41800000000E+01 0. -1.
        -11    1    3    3    0    0 -0.38034105287E+02 -0.42499741363E+02 -0.10003282230E+03  0.11514941042E+03  0.00000000000E+00 0. -1.
         11    1    3    3    0    0  0.25275810432E+01 -0.60042772963E+02 -0.31109874911E+01  0.60176419752E+02  0.00000000000E+00 0.  1.
</event>
<event>
 8    1  0.8061721E-006  0.9530566E+02  0.7561462E-02  0.1290489E+00
          2   -1    0    0  501    0  0.00000000000E+00  0.00000000000E+00  0.74153486998E+03  0.74153486998E+03  0.00000000000E+00 0. -1.
         -2   -1    0    0    0  501 -0.00000000000E+00 -0.00000000000E+00 -0.16957801887E+02  0.16957801887E+02  0.00000000000E+00 0.  1.
         23    2    1    2    0    0  0.33315676908E+02  0.27440535531E+02  0.29101506461E+03  0.30518662811E+03  0.81155362281E+02 0.  0.
         23    2    1    2    0    0 -0.33315676908E+02 -0.27440535531E+02  0.43356200348E+03  0.45330604376E+03  0.12508973230E+03 0.  0.
          5    1    4    4  502    0  0.24531515294E+02  0.14331200445E+02  0.23628522391E+02  0.37188143530E+02  0.41800000000E+01 0.  1.
         -5    1    4    4    0  502 -0.57847192201E+02 -0.41771735976E+02  0.40993348109E+03  0.41611790023E+03  0.41800000000E+01 0.  1.
        -11    1    3    3    0    0  0.22776953817E+02 -0.26796260352E+02  0.14102009401E+03  0.14533924490E+03  0.00000000000E+00 0. -1.
         11    1    3    3    0    0  0.10538723091E+02  0.54236795883E+02  0.14999497060E+03  0.15984738320E+03  0.00000000000E+00 0.  1.
</event>
<event>
 8    1  0.8061721E-006  0.1012732E+03  0.7561462E-02  0.1277641E+00
         -2   -1    0    0    0  501 -0.00000000000E+00  0.00000000000E+00  0.13137607286E+02  0.13137607286E+02  0.00000000000E+00 0.  1.
          2   -1    0    0  501    0  0.00000000000E+00 -0.00000000000E+00 -0.96459634568E+03  0.96459634568E+03  0.00000000000E+00 0. -1.
         23    2    1    2    0    0 -0.33491615332E+02  0.21279128788E+02 -0.28120622490E+03  0.29475505387E+03  0.78924718817E+02 0.  0.
         23    2    1    2    0    0  0.33491615332E+02 -0.21279128788E+02 -0.67025251350E+03  0.68297889910E+03  0.12508898890E+03 0.  0.
          5    1    4    4  502    0 -0.30708416742E+02  0.24925533988E+02 -0.38123439956E+03  0.38330331190E+03  0.41800000000E+01 0. -1.
         -5    1    4    4    0  502  0.64200032074E+02 -0.46204662776E+02 -0.28901811393E+03  0.29967558720E+03  0.41800000000E+01 0. -1.
        -11    1    3    3    0    0  0.22594170356E+02 -0.23305295130E+01 -0.40080698915E+02  0.46069407717E+02  0.00000000000E+00 0.  1.
         11    1    3    3    0    0 -0.56085785688E+02  0.23609658301E+02 -0.24112552598E+03  0.24868564615E+03  0.00000000000E+00 0. -1.
</event>
<event>
 8    1  0.8061721E-006  0.1336477E+03  0.7561462E-02  0.1222141E+00
          3   -1    0    0  501    0  0.00000000000E+00  0.00000000000E+00  0.13417529935E+03  0.13417529935E+03  0.00000000000E+00 0. -1.
         -3   -1    0    0    0  501 -0.00000000000E+00 -0.00000000000E+00 -0.16476788925E+03  0.16476788925E+03  0.00000000000E+00 0.  1.
         23    2    1    2    0    0  0.55026149833E+02 -0.63451120822E+02 -0.70351442094E+02  0.14309055550E+03  0.92041619770E+02 0.  0.
         23    2    1    2    0    0 -0.55026149833E+02  0.63451120822E+02  0.39758852185E+02  0.15585263310E+03  0.12512136116E+03 0.  0.
          5    1    4    4  502    0 -0.58128398068E+02  0.98892634681E+02  0.28036952454E+02  0.11816178299E+03  0.41800000000E+01 0.  1.
         -5    1    4    4    0  502  0.31022482349E+01 -0.35441513859E+02  0.11721899730E+02  0.37690850110E+02  0.41800000000E+01 0.  1.
        -11    1    3    3    0    0  0.53759490937E+01 -0.66712871501E+02 -0.14861515604E+02  0.68559264134E+02  0.00000000000E+00 0. -1.
         11    1    3    3    0    0  0.49650200739E+02  0.32617506793E+01 -0.55489926490E+02  0.74531291366E+02  0.00000000000E+00 0.  1.
</event>
<event>
 8    1  0.8061721E-006  0.1623277E+03  0.7561462E-02  0.1186094E+00
         -1   -1    0    0    0  501 -0.00000000000E+00  0.00000000000E+00  0.18241350082E+03  0.18241350082E+03  0.00000000000E+00 0.  1.
          1   -1    0    0  501    0  0.00000000000E+00 -0.00000000000E+00 -0.18462783968E+03  0.18462783968E+03  0.00000000000E+00 0. -1.
         23    2    1    2    0    0 -0.96747517515E+02  0.92387434768E+02  0.60516072008E+02  0.17344618820E+03  0.92335610589E+02 0.  0.
         23    2    1    2    0    0  0.96747517515E+02 -0.92387434768E+02 -0.62730410861E+02  0.19359515230E+03  0.12509379800E+03 0.  0.
          5    1    4    4  502    0  0.11624030165E+03 -0.70869010628E+02 -0.14272737571E+02  0.13695038456E+03  0.41800000000E+01 0. -1.
         -5    1    4    4    0  502 -0.19492784133E+02 -0.21518424141E+02 -0.48457673290E+02  0.56644767732E+02  0.41800000000E+01 0. -1.
        -11    1    3    3    0    0 -0.41112082676E+02  0.94902268882E+02  0.55895645968E+02  0.11756260978E+03  0.00000000000E+00 0.  1.
         11    1    3    3    0    0 -0.55635434839E+02 -0.25148341135E+01  0.46204260400E+01  0.55883578421E+02  0.00000000000E+00 0. -1.
</event>
<event>
 8    1  0.8061721E-006  0.2058536E+03  0.7561462E-02  0.1144892E+00
          2   -1    0    0  501    0  0.00000000000E+00  0.00000000000E+00  0.34505666813E+03  0.34505666813E+03  0.00000000000E+00 0. -1.
         -2   -1    0    0    0  501 -0.00000000000E+00 -0.00000000000E+00 -0.14041639682E+03  0.14041639682E+03  0.00000000000E+00 0.  1.
         23    2    1    2    0    0 -0.16831089398E+03 -0.87349951992E+02  0.12958642383E+03  0.24622472880E+03  0.88743476842E+02 0.  0.
         23    2    1    2    0    0  0.16831089398E+03  0.87349951992E+02  0.75053847475E+02  0.23924833615E+03  0.12509242655E+03 0.  0.
          5    1    4    4  502    0  0.10523640746E+03  0.11151858618E+03  0.25795174825E+02  0.15554407724E+03  0.41800000000E+01 0. -1.
         -5    1    4    4    0  502  0.63074486523E+02 -0.24168634188E+02  0.49258672650E+02  0.83704258911E+02  0.41800000000E+01 0. -1.
        -11    1    3    3    0    0 -0.74516305245E+02 -0.27766098703E+02  0.10619593917E+03  0.13266956501E+03  0.00000000000E+00 0.  1.
         11    1    3    3    0    0 -0.93794588739E+02 -0.59583853289E+02  0.23390484668E+02  0.11355516379E+03  0.00000000000E+00 0. -1.
</event>
<event>
 8    1  0.8061721E-006  0.2421987E+03  0.7561462E-02  0.1118337E+00
          2   -1    0    0  501    0  0.00000000000E+00  0.00000000000E+00  0.19817106775E+03  0.19817106775E+03  0.00000000000E+00 0. -1.
         -2   -1    0    0    0  501 -0.00000000000E+00 -0.00000000000E+00 -0.32464291069E+03  0.32464291069E+03  0.00000000000E+00 0.  1.
         23    2    1    2    0    0  0.13018502692E+03 -0.18449073018E+03 -0.21729303786E+02  0.24425833557E+03  0.90581461090E+02 0.  0.
         23    2    1    2    0    0 -0.13018502692E+03  0.18449073018E+03 -0.10474253915E+03  0.27855564287E+03  0.12504909399E+03 0.  0.
          5    1    4    4  502    0 -0.36431407805E+02 -0.13008208487E+02 -0.22447591689E+02  0.44920237481E+02  0.41800000000E+01 0. -1.
         -5    1    4    4    0  502 -0.93753619117E+02  0.19749893867E+03 -0.82294947462E+02  0.23363540539E+03  0.41800000000E+01 0. -1.
        -11    1    3    3    0    0  0.98092214713E+01 -0.58758285070E+01  0.21703318045E+02  0.24531208708E+02  0.00000000000E+00 0. -1.
         11    1    3    3    0    0  0.12037580545E+03 -0.17861490168E+03 -0.43432621831E+02  0.21972712686E+03  0.00000000000E+00 0.  1.
</event>
<event>
 8    1  0.8061721E-006  0.1169041E+03  0.7561462E-02  0.1248293E+00
          2   -1    0    0  501    0  0.00000000000E+00  0.00000000000E+00  0.38395925832E+03  0.38395925832E+03  0.00000000000E+00 0. -1.
         -2   -1    0    0    0  501 -0.00000000000E+00 -0.00000000000E+00 -0.47561942601E+02  0.47561942601E+02  0.00000000000E+00 0.  1.
         23    2    1    2    0    0 -0.78040832843E+02  0.74502943628E+01  0.17805560779E+03  0.21503680391E+03  0.91603215506E+02 0.  0.
         23    2    1    2    0    0  0.78040832843E+02 -0.74502943628E+01  0.15834170793E+03  0.21648439701E+03  0.12509004439E+03 0.  0.
          5    1    4    4  502    0 -0.31197215714E+02 -0.18991963982E+02  0.50766706652E+02  0.62679277823E+02  0.41800000000E+01 0.  1.
         -5    1    4    4    0  502  0.10923804856E+03  0.11541669619E+02  0.10757500127E+03  0.15380511919E+03  0.41800000000E+01 0.  1.
        -11    1    3    3    0    0 -0.66049393344E+02  0.20732062665E+02  0.18366966288E+03  0.19628266823E+03  0.00000000000E+00 0. -1.
         11    1    3    3    0    0 -0.11991439499E+02 -0.13281768303E+02 -0.56140550893E+01  0.18754135678E+02  0.00000000000E+00 0.  1.
</event>
<event>
 8    1  0.8061721E-006  0.1209548E+03  0.7561462E-02  0.1241530E+00
          2   -1    0    0  501    0  0.00000000000E+00  0.00000000000E+00  0.10650474251E+03  0.10650474251E+03  0.00000000000E+00 0. -1.
         -2   -1    0    0    0  501 -0.00000000000E+00 -0.00000000000E+00 -0.18699345050E+03  0.18699345050E+03  0.00000000000E+00 0.  1.
         23    2    1    2    0    0  0.80418941517E+02  0.91460844979E+01 -0.78522752916E+02  0.14449345008E+03  0.90342002270E+02 0.  0.
         23    2    1    2    0    0 -0.80418941517E+02 -0.91460844979E+01 -0.19659550751E+01  0.14900474293E+03  0.12509073275E+03 0.  0.
          5    1    4    4  502    0 -0.96218834594E+02  0.27430443019E+02  0.21715194051E+02  0.10246714297E+03  0.41800000000E+01 0. -1.
         -5    1    4    4    0  502  0.15799893077E+02 -0.36576527516E+02 -0.23681149126E+02  0.46537599963E+02  0.41800000000E+01 0. -1.
        -11    1    3    3    0    0 -0.10433281648E+02  0.49679121105E+00 -0.46680712046E+02  0.47835019019E+02  0.00000000000E+00 0.  1.
         11    1    3    3    0    0  0.90852223165E+02  0.86492932868E+01 -0.31842040870E+02  0.96658431061E+02  0.00000000000E+00 0. -1.
</event>
<event>
 7    1  0.8061721E-006  0.5499316E+02  0.7561462E-02  0.1420131E+00
          2   -1    0    0  501    0  0.00000000000E+00  0.00000000000E+00  0.10335884217E+04  0.10335884217E+04  0.00000000000E+00 0. -1.
         -2   -1    0    0    0  501 -0.00000000000E+00 -0.00000000000E+00 -0.60608197960E+01  0.60608197960E+01  0.00000000000E+00 0.  1.
         23    2    1    2    0    0  0.34020269915E+02  0.99753065542E+01  0.83270024261E+03  0.84140596985E+03  0.11540115490E+03 0.  0.
          5    1    3    3  502    0  0.22919336096E+02  0.37075701206E+02  0.77789438301E+03  0.77912582238E+03  0.41800000000E+01 0. -1.
         -5    1    3    3    0  502  0.11100933820E+02 -0.27100394652E+02  0.54805859596E+02  0.62280147463E+02  0.41800000000E+01 0.  1.
        -11    1    1    2    0    0 -0.17464234556E+02 -0.98681495055E+01  0.11050720953E+03  0.11231305900E+03  0.00000000000E+00 0.  1.
         11    1    1    2    0    0 -0.16556035360E+02 -0.10715704864E+00  0.84320149774E+02  0.85930212658E+02  0.00000000000E+00 0. -1.
</event>
<event>
 8    1  0.8061721E-006  0.1552172E+03  0.7561462E-02  0.1194205E+00
         -2   -1    0    0    0  501 -0.00000000000E+00  0.00000000000E+00  0.54411843972E+02  0.54411843972E+02  0.00000000000E+00 0.  1.
          2   -1    0    0  501    0  0.00000000000E+00 -0.00000000000E+00 -0.51368716983E+03  0.51368716983E+03  0.00000000000E+00 0. -1.
         23    2    1    2    0    0 -0.98429622189E+02  0.63217680556E+02 -0.12839886988E+03  0.19552547997E+03  0.89772366969E+02 0.  0.
         23    2    1    2    0    0  0.98429622189E+02 -0.63217680556E+02 -0.33087645598E+03  0.37257353384E+03  0.12508774254E+03 0.  0.
          5    1    4    4  502    0  0.10936297484E+03 -0.42156141862E+01 -0.18844248204E+03  0.21795887939E+03  0.41800000000E+01 0. -1.
         -5    1    4    4    0  502 -0.10933352649E+02 -0.59002066370E+02 -0.14243397395E+03  0.15461465445E+03  0.41800000000E+01 0. -1.
        -11    1    3    3    0    0 -0.11209641806E+03  0.56459854017E+02 -0.12936831709E+03  0.18024839396E+03  0.00000000000E+00 0. -1.
         11    1    3    3    0    0  0.13666795873E+02  0.67578265393E+01  0.96944721357E+00  0.15277086007E+02  0.00000000000E+00 0.  1.
</event>
<event>
 8    1  0.8061721E-006  0.1704043E+03  0.7561462E-02  0.1177427E+00
         -1   -1    0    0    0  501 -0.00000000000E+00  0.00000000000E+00  0.67554667404E+02  0.67554667404E+02  0.00000000000E+00 0.  1.
          1   -1    0    0  501    0  0.00000000000E+00 -0.00000000000E+00 -0.49913276694E+03  0.49913276694E+03  0.00000000000E+00 0. -1.
         23    2    1    2    0    0 -0.14194835283E+03  0.49006506662E+01 -0.14127311240E+03  0.22013783009E+03  0.91264564329E+02 0.  0.
         23    2    1    2    0    0  0.14194835283E+03 -0.49006506662E+01 -0.29030498714E+03  0.34654960425E+03  0.12508513661E+03 0.  0.
          5    1    4    4  502    0  0.12119442384E+03  0.46910430329E+02 -0.23047051435E+03  0.26461822921E+03  0.41800000000E+01 0. -1.
         -5    1    4    4    0  502  0.20753928989E+02 -0.51811080996E+02 -0.59834472787E+02  0.81931375041E+02  0.41800000000E+01 0. -1.
        -11    1    3    3    0    0 -0.13231507258E+03 -0.14547346464E+02 -0.80394190199E+02  0.15550604342E+03  0.00000000000E+00 0.  1.
         11    1    3    3    0    0 -0.96332802511E+01  0.19447997130E+02 -0.60878922197E+02  0.64631786674E+02  0.00000000000E+00 0. -1.
</event>
<event>
 8    1  0.8061721E-006  0.9198604E+02  0.7561462E-02  0.1298112E+00
          2   -1    0    0  501    0  0.00000000000E+00  0.00000000000E+00  0.10859425408E+04  0.10859425408E+04  0.00000000000E+00 0. -1.
         -2   -1    0    0    0  501 -0.00000000000E+00 -0.00000000000E+00 -0.16206152255E+02  0.16206152255E+02  0.00000000000E+00 0.  1.
         23    2    1    2    0    0 -0.21500000865E+02  0.56856778037E+02  0.27857860105E+03  0.29886007743E+03  0.89534159250E+02 0.  0.
         23    2    1    2    0    0  0.21500000865E+02 -0.56856778037E+02  0.79115778747E+03  0.80328861560E+03  0.12508801714E+03 0.  0.
          5    1    4    4  502    0 -0.11600424296E+02 -0.10586192529E+01  0.62116630587E+03  0.62128958021E+03  0.41800000000E+01 0.  1.
         -5    1    4    4    0  502  0.33100425161E+02 -0.55798158784E+02  0.16999148159E+03  0.18199903539E+03  0.41800000000E+01 0.  1.
        -11    1    3    3    0    0 -0.33727879641E+01  0.78375472351E+02  0.18016081466E+03  0.19649938805E+03  0.00000000000E+00 0.  1.
         11    1    3    3    0    0 -0.18127212900E+02 -0.21518694314E+02  0.98417786392E+02  0.10236068938E+03  0.00000000000E+00 0. -1.
</event>
<event>
 8    1  0.8061721E-006  0.1237927E+03  0.7561462E-02  0.1236968E+00
         -1   -1    0    0    0  501 -0.00000000000E+00  0.00000000000E+00  0.28060259414E+02  0.28060259414E+02  0.00000000000E+00 0.  1.
          1   -1    0    0  501    0  0.00000000000E+00 -0.00000000000E+00 -0.12511580809E+04  0.12511580809E+04  0.00000000000E+00 0. -1.
         23    2    1    2    0    0 -0.66254646466E+02  0.61984530525E+02 -0.16105945900E+03  0.20599686250E+03  0.90899933030E+02 0.  0.
         23    2    1    2    0    0  0.66254646466E+02 -0.61984530525E+02 -0.10620383625E+04  0.10732214778E+04  0.12508835614E+03 0.  0.
          5    1    4    4  502    0  0.34428846532E+02 -0.77252755798E+02 -0.98200965313E+03  0.98565397833E+03  0.41800000000E+01 0.  1.
         -5    1    4    4    0  502  0.31825799933E+02  0.15268225273E+02 -0.80028709322E+02  0.87567499451E+02  0.41800000000E+01 0.  1.
        -11    1    3    3    0    0 -0.33941008288E+02 -0.19889552632E+02 -0.62547562928E+02  0.73890351033E+02  0.00000000000E+00 0.  1.
         11    1    3    3    0    0 -0.32313638178E+02  0.81874083157E+02 -0.98511896072E+02  0.13210651147E+03  0.00000000000E+00 0. -1.
</event>
<event>
 8    1  0.8061721E-006  0.9525370E+02  0.7561462E-02  0.1290606E+00
         -1   -1    0    0    0  501 -0.00000000000E+00  0.00000000000E+00  0.44889572362E+02  0.44889572362E+02  0.00000000000E+00 0.  1.
          1   -1    0    0  501    0  0.00000000000E+00 -0.00000000000E+00 -0.45404120499E+03  0.45404120499E+03  0.00000000000E+00 0. -1.
         23    2    1    2    0    0  0.91816371925E+01  0.35622668065E+02 -0.47459056576E+02  0.11445413909E+03  0.97437728641E+02 0.  0.
         23    2    1    2    0    0 -0.91816371925E+01 -0.35622668065E+02 -0.36169257605E+03  0.38447663826E+03  0.12508992307E+03 0.  0.
          5    1    4    4  502    0  0.30658665086E+02 -0.36728427556E+02 -0.46843212860E+02  0.67087183028E+02  0.41800000000E+01 0.  1.
         -5    1    4    4    0  502 -0.39840302278E+02  0.11057594913E+01 -0.31484936319E+03  0.31738945523E+03  0.41800000000E+01 0.  1.
        -11    1    3    3    0    0  0.58292555381E+01 -0.33097162044E+02 -0.60334033823E+01  0.34143876638E+02  0.00000000000E+00 0.  1.
         11    1    3    3    0    0  0.33523816544E+01  0.68719830109E+02 -0.41425653194E+02  0.80310262455E+02  0.00000000000E+00 0. -1.
</event>
<event>
 7    1  0.8061721E-006  0.6192025E+02  0.7561462E-02  0.1389946E+00
         -2   -1    0    0    0  501 -0.00000000000E+00  0.00000000000E+00  0.41721344026E+03  0.41721344026E+03  0.00000000000E+00 0. -1.
          2   -1    0    0  501    0  0.00000000000E+00 -0.00000000000E+00 -0.18243091243E+02  0.18243091243E+02  0.00000000000E+00 0.  1.
         23    2    1    2    0    0  0.11550470283E+02 -0.22772230953E+02  0.19333658649E+03  0.22647142372E+03  0.11514461438E+03 0.  0.
          5    1    3    3  502    0  0.44076399534E+02 -0.29348020139E+02  0.18433421336E+03  0.19183485058E+03  0.41800000000E+01 0. -1.
         -5    1    3    3    0  502 -0.32525929252E+02  0.65757891862E+01  0.90023731312E+01  0.34636573143E+02  0.41800000000E+01 0.  1.
        -11    1    1    2    0    0 -0.14954857943E+02  0.72982874953E+00  0.82650922485E+02  0.83996163089E+02  0.00000000000E+00 0.  1.
         11    1    1    2    0    0  0.34043876601E+01  0.22042402204E+02  0.12298284005E+03  0.12498894470E+03  0.00000000000E+00 0. -1.
</event>
<event>
 8    1  0.8061721E-006  0.1532894E+03  0.7561462E-02  0.1196488E+00
         -1   -1    0    0    0  501 -0.00000000000E+00  0.00000000000E+00  0.15091569469E+03  0.15091569469E+03  0.00000000000E+00 0.  1.
          1   -1    0    0  501    0  0.00000000000E+00 -0.00000000000E+00 -0.21065625451E+03  0.21065625451E+03  0.00000000000E+00 0. -1.
         23    2    1    2    0    0  0.12327526644E+03 -0.58642022534E+02  0.84380904386E+01  0.16426275563E+03  0.90969079342E+02 0.  0.
         23    2    1    2    0    0 -0.12327526644E+03  0.58642022534E+02 -0.68178650258E+02  0.19730919357E+03  0.12508761488E+03 0.  0.
          5    1    4    4  502    0 -0.40492785576E+02  0.66029907854E+02  0.15712508215E+02  0.79145244515E+02  0.41800000000E+01 0. -1.
         -5    1    4    4    0  502 -0.82782480862E+02 -0.73878853204E+01 -0.83891158472E+02  0.11816394906E+03  0.41800000000E+01 0. -1.
        -11    1    3    3    0    0  0.41969167121E+02 -0.48051683505E+02 -0.33616193585E+02  0.72113963611E+02  0.00000000000E+00 0. -1.
         11    1    3    3    0    0  0.81306099316E+02 -0.10590339029E+02  0.42054284023E+02  0.92148792024E+02  0.00000000000E+00 0.  1.
</event>
<event>
 8    1  0.8061721E-006  0.8849066E+02  0.7561462E-02  0.1306548E+00
         -1   -1    0    0    0  501 -0.00000000000E+00  0.00000000000E+00  0.47016143049E+02  0.47016143049E+02  0.00000000000E+00 0.  1.
          1   -1    0    0  501    0  0.00000000000E+00 -0.00000000000E+00 -0.32180346746E+03  0.32180346746E+03  0.00000000000E+00 0. -1.
         23    2    1    2    0    0  0.36689278374E+01  0.32284254805E+01 -0.29982367782E+02  0.93864636720E+02  0.88812971385E+02 0.  0.
         23    2    1    2    0    0 -0.36689278374E+01 -0.32284254805E+01 -0.24480495663E+03  0.27495497379E+03  0.12508751760E+03 0.  0.
          5    1    4    4  502    0 -0.39228585482E+02  0.24183786421E+02 -0.29270037555E+02  0.54753492519E+02  0.41800000000E+01 0.  1.
         -5    1    4    4    0  502  0.35559657644E+02 -0.27412211901E+02 -0.21553491908E+03  0.22020148127E+03  0.41800000000E+01 0.  1.
        -11    1    3    3    0    0  0.13380653901E+02  0.42813621262E+02 -0.29433380558E+01  0.44952322558E+02  0.00000000000E+00 0.  1.
         11    1    3    3    0    0 -0.97117260638E+01 -0.39585195782E+02 -0.27039029726E+02  0.48912314163E+02  0.00000000000E+00 0. -1.
</event>
<event>
 8    1  0.8061721E-006  0.9726249E+02  0.7561462E-02  0.1286160E+00
          2   -1    0    0  501    0  0.00000000000E+00  0.00000000000E+00  0.92925542660E+03  0.92925542660E+03  0.00000000000E+00 0.  1.
         -2   -1    0    0    0  501 -0.00000000000E+00 -0.00000000000E+00 -0.34660850173E+02  0.34660850173E+02  0.00000000000E+00 0. -1.
         23    2    1    2    0    0  0.26977044036E+02  0.25993043327E+02  0.50767377271E+02  0.11004540237E+03  0.90162435539E+02 0.  0.
         23    2    1    2    0    0 -0.26977044036E+02 -0.25993043327E+02  0.84382719915E+03  0.85387087440E+03  0.12509088258E+03 0.  0.
          5    1    4    4  502    0 -0.59950797143E+02 -0.47474962612E+02  0.71531031096E+03  0.71939855679E+03  0.41800000000E+01 0.  1.
         -5    1    4    4    0  502  0.32973753107E+02  0.21481919284E+02  0.12851688819E+03  0.13447231760E+03  0.41800000000E+01 0.  1.
        -11    1    3    3    0    0  0.45195020941E+02  0.35815857065E+02  0.63475163249E+02  0.85758159289E+02  0.00000000000E+00 0.  1.
         11    1    3    3    0    0 -0.18217976905E+02 -0.98228137371E+01 -0.12707785978E+02  0.24287243085E+02  0.00000000000E+00 0. -1.
</event>
<event>
 8    1  0.8061721E-006  0.1112519E+03  0.7561462E-02  0.1258269E+00
         -1   -1    0    0    0  501 -0.00000000000E+00  0.00000000000E+00  0.50255373552E+02  0.50255373552E+02  0.00000000000E+00 0.  1.
          1   -1    0    0  501    0  0.00000000000E+00 -0.00000000000E+00 -0.32094515149E+03  0.32094515149E+03  0.00000000000E+00 0. -1.
         23    2    1    2    0    0  0.48073972322E+02  0.18842284348E+02 -0.56819856991E+02  0.11811247483E+03  0.89754788545E+02 0.  0.
         23    2    1    2    0    0 -0.48073972322E+02 -0.18842284348E+02 -0.21386992094E+03  0.25308805021E+03  0.12508828715E+03 0.  0.
          5    1    4    4  502    0 -0.28609775034E+01 -0.68092863294E+02 -0.10425332154E+03  0.12462363611E+03  0.41800000000E+01 0.  1.
         -5    1    4    4    0  502 -0.45212994819E+02  0.49250578946E+02 -0.10961659940E+03  0.12846441410E+03  0.41800000000E+01 0.  1.
        -11    1    3    3    0    0  0.26530030918E+02  0.45677004838E+02 -0.13559311316E+01  0.52840040317E+02  0.00000000000E+00 0.  1.
         11    1    3    3    0    0  0.21543941404E+02 -0.26834720490E+02 -0.55463925859E+02  0.65272434509E+02  0.00000000000E+00 0. -1.
</event>
<event>
 8    1  0.8745574E-006  0.1831663E+03  0.7561462E-02  0.1164773E+00
          1   -1    0    0  501    0  0.00000000000E+00  0.00000000000E+00  0.11151662358E+04  0.11151662358E+04  0.00000000000E+00 0. -1.
         -1   -1    0    0    0  501 -0.00000000000E+00 -0.00000000000E+00 -0.42141318524E+02  0.42141318524E+02  0.00000000000E+00 0.  1.
         23    2    1    2    0    0 -0.45121975795E+02 -0.15842903989E+03  0.27875710810E+03  0.33654904799E+03  0.91782258690E+02 0.  0.
         23    2    1    2    0    0  0.45121975795E+02  0.15842903989E+03  0.79426780917E+03  0.82075850633E+03  0.12508964640E+03 0.  0.
          5    1    4    4  502    0  0.53164723853E+02  0.61490639426E+02  0.57649304788E+03  0.58221069490E+03  0.41800000000E+01 0. -1.
         -5    1    4    4    0  502 -0.80427480573E+01  0.96938400463E+02  0.21777476129E+03  0.23854781142E+03  0.41800000000E+01 0. -1.
        -11    1    3    3    0    0 -0.42738195850E+02 -0.16790129659E+02  0.54107915500E+02  0.70965684371E+02  0.00000000000E+00 0.  1.
         11    1    3    3    0    0 -0.23837799450E+01 -0.14163891023E+03  0.22464919260E+03  0.26558336362E+03  0.00000000000E+00 0. -1.
</event>
<event>
 8    1  0.8061721E-006  0.1067481E+03  0.7561462E-02  0.1266713E+00
          1   -1    0    0  501    0  0.00000000000E+00  0.00000000000E+00  0.36922653986E+02  0.36922653986E+02  0.00000000000E+00 0. -1.
         -1   -1    0    0    0  501 -0.00000000000E+00 -0.00000000000E+00 -0.38481485863E+03  0.38481485863E+03  0.00000000000E+00 0.  1.
         23    2    1    2    0    0  0.41400189433E+02 -0.26680788249E+02 -0.19528831632E+03  0.21836096029E+03  0.84369084024E+02 0.  0.
         23    2    1    2    0    0 -0.41400189433E+02  0.26680788249E+02 -0.15260388832E+03  0.20337655233E+03  0.12509290611E+03 0.  0.
          5    1    4    4  502    0 -0.15874325699E+02  0.67093192225E+02 -0.13612103124E+03  0.15264304178E+03  0.41800000000E+01 0. -1.
         -5    1    4    4    0  502 -0.25525863734E+02 -0.40412403976E+02 -0.16482857081E+02  0.50733510543E+02  0.41800000000E+01 0. -1.
        -11    1    3    3    0    0  0.66858196005E+02 -0.15464701826E+02 -0.12208348466E+03  0.14004839379E+03  0.00000000000E+00 0. -1.
         11    1    3    3    0    0 -0.25458006572E+02 -0.11216086423E+02 -0.73204831656E+02  0.78312566495E+02  0.00000000000E+00 0.  1.
</event>
<event>
 8    1  0.8061721E-006  0.1941734E+03  0.7561462E-02  0.1154750E+00
          2   -1    0    0  501    0  0.00000000000E+00  0.00000000000E+00  0.20735728692E+04  0.20735728692E+04  0.00000000000E+00 0.  1.
         -2   -1    0    0    0  501 -0.00000000000E+00 -0.00000000000E+00 -0.22281964497E+02  0.22281964497E+02  0.00000000000E+00 0. -1.
         23    2    1    2    0    0 -0.13005541774E+03  0.12580940050E+03  0.11458125530E+04  0.11640394850E+04  0.96742437201E+02 0.  0.
         23    2    1    2    0    0  0.13005541774E+03 -0.12580940050E+03  0.90547835170E+03  0.93181534866E+03  0.12508549744E+03 0.  0.
          5    1    4    4  502    0  0.48089196917E+02 -0.65410335441E+02  0.67419507900E+03  0.67907846365E+03  0.41800000000E+01 0.  1.
         -5    1    4    4    0  502  0.81966220823E+02 -0.60399065063E+02  0.23128327270E+03  0.25273688501E+03  0.41800000000E+01 0.  1.
        -11    1    3    3    0    0 -0.31827725354E+01 -0.15163689977E+02  0.92354887037E+02  0.93645569540E+02  0.00000000000E+00 0.  1.
         11    1    3    3    0    0 -0.12687264520E+03  0.14097309048E+03  0.10534576659E+04  0.10703939155E+04  0.00000000000E+00 0. -1.
</event>
<event>
 8    1  0.8061721E-006  0.9693092E+02  0.7561462E-02  0.1286885E+00
         -2   -1    0    0    0  501 -0.00000000000E+00  0.00000000000E+00  0.84217055281E+02  0.84217055281E+02  0.00000000000E+00 0.  1.
          2   -1    0    0  501    0  0.00000000000E+00 -0.00000000000E+00 -0.15359073122E+03  0.15359073122E+03  0.00000000000E+00 0. -1.
         23    2    1    2    0    0  0.16695544192E+01 -0.25034075422E+02 -0.20609036457E+01  0.93559132532E+02  0.90108665577E+02 0.  0.
         23    2    1    2    0    0 -0.16695544192E+01  0.25034075422E+02 -0.67312772292E+02  0.14424865397E+03  0.12508865861E+03 0.  0.
          5    1    4    4  502    0  0.45419895140E+02 -0.30089472431E+02 -0.23882933614E+02  0.59633968036E+02  0.41800000000E+01 0.  1.
         -5    1    4    4    0  502 -0.47089449560E+02  0.55123547853E+02 -0.43429838678E+02  0.84614685932E+02  0.41800000000E+01 0.  1.
        -11    1    3    3    0    0 -0.25926827698E+02 -0.28796841949E+02  0.31506823008E+02  0.49941349569E+02  0.00000000000E+00 0.  1.
         11    1    3    3    0    0  0.27596382117E+02  0.37627665270E+01 -0.33567726654E+02  0.43617782963E+02  0.00000000000E+00 0. -1.
</event>
<event>
 8    1  0.8061721E-006  0.1001074E+03  0.7561462E-02  0.1280070E+00
         -2   -1    0    0    0  501 -0.00000000000E+00  0.00000000000E+00  0.15951754253E+02  0.15951754253E+02  0.00000000000E+00 0.  1.
          2   -1    0    0  501    0  0.00000000000E+00 -0.00000000000E+00 -0.11412026025E+04  0.11412026025E+04  0.00000000000E+00 0. -1.
         23    2    1    2    0    0  0.42183588919E+02  0.31177880787E+02 -0.24469798155E+03  0.26621525985E+03  0.90785169354E+02 0.  0.
         23    2    1    2    0    0 -0.42183588919E+02 -0.31177880787E+02 -0.88055286671E+03  0.89093909692E+03  0.12509039902E+03 0.  0.
          5    1    4    4  502    0  0.13271667744E+02 -0.61748937630E+02 -0.59835003290E+03  0.60168870916E+03  0.41800000000E+01 0.  1.
         -5    1    4    4    0  502 -0.55455256663E+02  0.30571056843E+02 -0.28220283381E+03  0.28925038776E+03  0.41800000000E+01 0.  1.
        -11    1    3    3    0    0  0.17119671227E+02  0.42600714625E+02 -0.23087758724E+03  0.23539830993E+03  0.00000000000E+00 0. -1.
         11    1    3    3    0    0  0.25063917692E+02 -0.11422833838E+02 -0.13820394312E+02  0.30816949913E+02  0.00000000000E+00 0.  1.
</event>
<event>
 8    1  0.8061721E-006  0.1306637E+03  0.7561462E-02  0.1226474E+00
         -2   -1    0    0    0  501 -0.00000000000E+00  0.00000000000E+00  0.25135141706E+03  0.25135141706E+03  0.00000000000E+00 0.  1.
          2   -1    0    0  501    0  0.00000000000E+00 -0.00000000000E+00 -0.77775624022E+02  0.77775624022E+02  0.00000000000E+00 0. -1.
         23    2    1    2    0    0  0.45179530268E+02  0.64687500894E+02  0.12379255997E+03  0.17307775067E+03  0.91682316421E+02 0.  0.
         23    2    1    2    0    0 -0.45179530268E+02 -0.64687500894E+02  0.49783233068E+02  0.15604929042E+03  0.12508936013E+03 0.  0.
          5    1    4    4  502    0 -0.79734934357E+02 -0.69226574451E+02  0.57212707496E+02  0.12016964952E+03  0.41800000000E+01 0.  1.
         -5    1    4    4    0  502  0.34555404089E+02  0.45390735566E+01 -0.74294744279E+01  0.35879640895E+02  0.41800000000E+01 0.  1.
        -11    1    3    3    0    0 -0.27167746570E+02  0.70988673479E+01  0.35091441737E+02  0.44943182514E+02  0.00000000000E+00 0. -1.
         11    1    3    3    0    0  0.72347276838E+02  0.57588633547E+02  0.88701118236E+02  0.12813456815E+03  0.00000000000E+00 0.  1.
</event>
<event>
 8    1  0.8061721E-006  0.1765387E+03  0.7561462E-02  0.1171196E+00
         -2   -1    0    0    0  501 -0.00000000000E+00  0.00000000000E+00  0.24806109194E+03  0.24806109194E+03  0.00000000000E+00 0.  1.
          2   -1    0    0  501    0  0.00000000000E+00 -0.00000000000E+00 -0.24395019155E+03  0.24395019155E+03  0.00000000000E+00 0. -1.
         23    2    1    2    0    0 -0.14500261512E+03 -0.70833274434E+02  0.15211773924E+03  0.23982761200E+03  0.91292747414E+02 0.  0.
         23    2    1    2    0    0  0.14500261512E+03  0.70833274434E+02 -0.14800683885E+03  0.25218367148E+03  0.12508984235E+03 0.  0.
          5    1    4    4  502    0  0.91438825341E+02  0.77175445863E+02 -0.15689459111E+03  0.19735879343E+03  0.41800000000E+01 0.  1.
         -5    1    4    4    0  502  0.53563789778E+02 -0.63421714296E+01  0.88877522576E+01  0.54824878057E+02  0.41800000000E+01 0.  1.
        -11    1    3    3    0    0 -0.56051531952E+02 -0.70797185335E+02  0.45939432332E+02  0.10131360782E+03  0.00000000000E+00 0.  1.
         11    1    3    3    0    0 -0.88951083167E+02 -0.36089098562E-01  0.10617830691E+03  0.13851400419E+03  0.00000000000E+00 0. -1.
</event>
<event>
 8    1  0.8061721E-006  0.1187264E+03  0.7561462E-02  0.1245213E+00
          2   -1    0    0  501    0  0.00000000000E+00  0.00000000000E+00  0.73256043931E+03  0.73256043931E+03  0.00000000000E+00 0. -1.
         -2   -1    0    0    0  501 -0.00000000000E+00 -0.00000000000E+00 -0.28829051556E+02  0.28829051556E+02  0.00000000000E+00 0.  1.
         23    2    1    2    0    0 -0.17257487101E+01 -0.61999788914E+02  0.13117906757E+03  0.17205845901E+03  0.92461957130E+02 0.  0.
         23    2    1    2    0    0  0.17257487101E+01  0.61999788914E+02  0.57255232019E+03  0.58933103186E+03  0.12509178118E+03 0.  0.
          5    1    4    4  502    0 -0.43167913062E+02  0.72926562510E+02  0.45706331014E+03  0.46487212663E+03  0.41800000000E+01 0. -1.
         -5    1    4    4    0  502  0.44893661773E+02 -0.10926773596E+02  0.11548901005E+03  0.12445890523E+03  0.41800000000E+01 0. -1.
        -11    1    3    3    0    0 -0.29047756499E+02 -0.71587415736E+02  0.11598301047E+03  0.13935777325E+03  0.00000000000E+00 0. -1.
         11    1    3    3    0    0  0.27322007789E+02  0.95876268227E+01  0.15196057101E+02  0.32700685760E+02  0.00000000000E+00 0.  1.
</event>
<event>
 8    1  0.8061721E-006  0.1556242E+03  0.7561462E-02  0.1193728E+00
         -2   -1    0    0    0  501 -0.00000000000E+00  0.00000000000E+00  0.13167963708E+03  0.13167963708E+03  0.00000000000E+00 0.  1.
          2   -1    0    0  501    0  0.00000000000E+00 -0.00000000000E+00 -0.25530461626E+03  0.25530461626E+03  0.00000000000E+00 0. -1.
         23    2    1    2    0    0 -0.79480897808E+02  0.11054600186E+03  0.11234993511E+01  0.16395806370E+03  0.91341955083E+02 0.  0.
         23    2    1    2    0    0  0.79480897808E+02 -0.11054600186E+03 -0.12474847853E+03  0.22302618963E+03  0.12506345079E+03 0.  0.
          5    1    4    4  502    0 -0.14695954187E+01  0.20240169170E+02 -0.45396608748E+02  0.49901389205E+02  0.41800000000E+01 0. -1.
         -5    1    4    4    0  502  0.80950493227E+02 -0.13078617103E+03 -0.79351869780E+02  0.17312480043E+03  0.41800000000E+01 0. -1.
        -11    1    3    3    0    0 -0.50529751862E+02  0.79596749860E+02 -0.42252290421E+02  0.10331579965E+03  0.00000000000E+00 0. -1.
         11    1    3    3    0    0 -0.28951145946E+02  0.30949252000E+02  0.43375789772E+02  0.60642264052E+02  0.00000000000E+00 0.  1.
</event>
<event>
 8    1  0.8061721E-006  0.1256004E+03  0.7561462E-02  0.1234134E+00
         -3   -1    0    0    0  501 -0.00000000000E+00  0.00000000000E+00  0.50052136331E+03  0.50052136331E+03  0.00000000000E+00 0. -1.
          3   -1    0    0  501    0  0.00000000000E+00 -0.00000000000E+00 -0.44059180163E+02  0.44059180163E+02  0.00000000000E+00 0.  1.
         23    2    1    2    0    0  0.68597103170E+02  0.41005465829E+02  0.32354642014E+03  0.34532831221E+03  0.90456323376E+02 0.  0.
         23    2    1    2    0    0 -0.68597103170E+02 -0.41005465829E+02  0.13291576301E+03  0.19925223126E+03  0.12509132990E+03 0.  0.
          5    1    4    4  502    0 -0.95916277909E+02 -0.18114552323E+02  0.51869359135E+02  0.11061632877E+03  0.41800000000E+01 0.  1.
         -5    1    4    4    0  502  0.27319174740E+02 -0.22890913506E+02  0.81046403873E+02  0.88635902491E+02  0.41800000000E+01 0.  1.
        -11    1    3    3    0    0 -0.20711910917E+02  0.10628564721E+02  0.10036111831E+03  0.10302574295E+03  0.00000000000E+00 0.  1.
         11    1    3    3    0    0  0.89309014087E+02  0.30376901108E+02  0.22318530183E+03  0.24230256926E+03  0.00000000000E+00 0. -1.
</event>
<event>
 8    1  0.8061721E-006  0.1143973E+03  0.7561462E-02  0.1252637E+00
         -2   -1    0    0    0  501 -0.00000000000E+00  0.00000000000E+00  0.10570512977E+03  0.10570512977E+03  0.00000000000E+00 0.  1.
          2   -1    0    0  501    0  0.00000000000E+00 -0.00000000000E+00 -0.18855447447E+03  0.18855447447E+03  0.00000000000E+00 0. -1.
         23    2    1    2    0    0 -0.55637808196E+02 -0.12422499407E+02  0.35199866089E+02  0.11305959747E+03  0.91068972844E+02 0.  0.
         23    2    1    2    0    0  0.55637808196E+02  0.12422499407E+02 -0.11804921078E+03  0.18120000677E+03  0.12509173472E+03 0.  0.
          5    1    4    4  502    0 -0.35099300430E+02 -0.11633965133E+02 -0.60451265444E+02  0.70986885614E+02  0.41800000000E+01 0. -1.
         -5    1    4    4    0  502  0.90737108626E+02  0.24056464540E+02 -0.57597945336E+02  0.11021312116E+03  0.41800000000E+01 0. -1.
        -11    1    3    3    0    0 -0.97188535754E+01  0.32171694616E+02 -0.95742858871E+01  0.34944827937E+02  0.00000000000E+00 0. -1.
         11    1    3    3    0    0 -0.45918954621E+02 -0.44594194023E+02  0.44774151976E+02  0.78114769533E+02  0.00000000000E+00 0.  1.
</event>
<event>
 8    1  0.8061721E-006  0.1476453E+03  0.7561462E-02  0.1203397E+00
          1   -1    0    0  501    0  0.00000000000E+00  0.00000000000E+00  0.10490488194E+04  0.10490488194E+04  0.00000000000E+00 0. -1.
         -1   -1    0    0    0  501 -0.00000000000E+00 -0.00000000000E+00 -0.34801566353E+02  0.34801566353E+02  0.00000000000E+00 0.  1.
         23    2    1    2    0    0 -0.10819558117E+03  0.60007016039E+02  0.20942079791E+03  0.26001763650E+03  0.91896544733E+02 0.  0.
         23    2    1    2    0    0  0.10819558117E+03 -0.60007016039E+02  0.80482645518E+03  0.82383274929E+03  0.12509056757E+03 0.  0.
          5    1    4    4  502    0  0.73540413002E+02 -0.75218060677E+02  0.74835317033E+03  0.75572209770E+03  0.41800000000E+01 0. -1.
         -5    1    4    4    0  502  0.34655168173E+02  0.15211044638E+02  0.56473284843E+02  0.68110651598E+02  0.41800000000E+01 0. -1.
        -11    1    3    3    0    0 -0.59790116055E+02  0.79737446941E+02  0.15719217494E+03  0.18612441615E+03  0.00000000000E+00 0.  1.
         11    1    3    3    0    0 -0.48405465120E+02 -0.19730430902E+02  0.52228622960E+02  0.73893220348E+02  0.00000000000E+00 0. -1.
</event>
<event>
 8    1  0.8061721E-006  0.1408688E+03  0.7561462E-02  0.1212165E+00
          2   -1    0    0  501    0  0.00000000000E+00  0.00000000000E+00  0.14443280224E+04  0.14443280224E+04  0.00000000000E+00 0. -1.
         -2   -1    0    0    0  501 -0.00000000000E+00 -0.00000000000E+00 -0.14838231364E+02  0.14838231364E+02  0.00000000000E+00 0.  1.
         23    2    1    2    0    0 -0.44873146425E+02  0.81728803050E+02  0.46665555891E+03  0.48377251151E+03  0.87035830055E+02 0.  0.
         23    2    1    2    0    0  0.44873146425E+02 -0.81728803050E+02  0.96283423211E+03  0.97539374224E+03  0.12509994946E+03 0.  0.
          5    1    4    4  502    0  0.42715463759E+02  0.24296181117E+02  0.26782825787E+03  0.27233134849E+03  0.41800000000E+01 0. -1.
         -5    1    4    4    0  502  0.21576826664E+01 -0.10602498417E+03  0.69500597424E+03  0.70306239374E+03  0.41800000000E+01 0. -1.
        -11    1    3    3    0    0 -0.54575937579E+02  0.95172122110E+02  0.42517605628E+03  0.43910243068E+03  0.00000000000E+00 0. -1.
         11    1    3    3    0    0  0.97027911536E+01 -0.13443319060E+02  0.41479502630E+02  0.44670080837E+02  0.00000000000E+00 0.  1.
</event>
<event>
 8    1  0.8061721E-006  0.1058418E+03  0.7561462E-02  0.1268470E+00
          1   -1    0    0  501    0  0.00000000000E+00  0.00000000000E+00  0.23900414029E+03  0.23900414029E+03  0.00000000000E+00 0. -1.
         -1   -1    0    0    0  501 -0.00000000000E+00 -0.00000000000E+00 -0.64491726489E+02  0.64491726489E+02  0.00000000000E+00 0.  1.
         23    2    1    2    0    0  0.22041838322E+02 -0.18501891274E+02  0.58293906152E+02  0.13034148445E+03  0.11297150285E+03 0.  0.
         23    2    1    2    0    0 -0.22041838322E+02  0.18501891274E+02  0.11621850765E+03  0.17315438232E+03  0.12509011144E+03 0.  0.
          5    1    4    4  502    0 -0.56712836392E+02  0.21974914671E+02  0.12312059782E+03  0.13738776035E+03  0.41800000000E+01 0. -1.
         -5    1    4    4    0  502  0.34670998070E+02 -0.34730233972E+01 -0.69020901730E+01  0.35766621974E+02  0.41800000000E+01 0. -1.
        -11    1    3    3    0    0 -0.21918682414E+02 -0.54540361512E+02  0.37949616665E+02  0.69966085196E+02  0.00000000000E+00 0. -1.
         11    1    3    3    0    0  0.43960520736E+02  0.36038470239E+02  0.20344289486E+02  0.60375399255E+02  0.00000000000E+00 0.  1.
</event>
<event>
 7    1  0.8061721E-006  0.8748436E+02  0.7561462E-02  0.1309061E+00
          1   -1    0    0  501    0  0.00000000000E+00  0.00000000000E+00  0.38610285685E+03  0.38610285685E+03  0.00000000000E+00 0. -1.
         -1   -1    0    0    0  501 -0.00000000000E+00 -0.00000000000E+00 -0.13902865802E+03  0.13902865802E+03  0.00000000000E+00 0.  1.
         23    2    1    2    0    0 -0.68490956651E+02  0.27898676416E+02 -0.94090246881E+02  0.15145025347E+03  0.92816256278E+02 0.  0.
          5    1    1    2  502    0  0.65908084603E+02 -0.16388114749E+01  0.34061294113E+03  0.34695995357E+03  0.41800000000E+01 0. -1.
         -5    1    1    2    0  502  0.25828720480E+01 -0.26259864942E+02  0.55150458991E+00  0.26721307829E+02  0.41800000000E+01 0.  1.
        -11    1    3    3    0    0 -0.36246203492E+02  0.33627159021E+02 -0.10570926116E+03  0.11670056121E+03  0.00000000000E+00 0.  1.
         11    1    3    3    0    0 -0.32244753159E+02 -0.57284826047E+01  0.11619014282E+02  0.34749692260E+02  0.00000000000E+00 0. -1.
</event>
<event>
 8    1  0.8061721E-006  0.1292002E+03  0.7561462E-02  0.1228647E+00
          1   -1    0    0  501    0  0.00000000000E+00  0.00000000000E+00  0.56969788017E+02  0.56969788017E+02  0.00000000000E+00 0. -1.
         -1   -1    0    0    0  501 -0.00000000000E+00 -0.00000000000E+00 -0.44788677558E+03  0.44788677558E+03  0.00000000000E+00 0.  1.
         23    2    1    2    0    0  0.10060636459E+03  0.53051341862E+02 -0.13689890208E+03  0.19972046368E+03  0.90613844156E+02 0.  0.
         23    2    1    2    0    0 -0.10060636459E+03 -0.53051341862E+02 -0.25401808548E+03  0.30513609991E+03  0.12508703470E+03 0.  0.
          5    1    4    4  502    0 -0.34324673873E+02  0.23326554044E+02 -0.12938131338E+02  0.43671260602E+02  0.41800000000E+01 0. -1.
         -5    1    4    4    0  502 -0.66281690717E+02 -0.76377895906E+02 -0.24107995414E+03  0.26146483931E+03  0.41800000000E+01 0. -1.
        -11    1    3    3    0    0  0.79107736373E+02  0.31842330738E+02 -0.14521006283E+03  0.16839813042E+03  0.00000000000E+00 0. -1.
         11    1    3    3    0    0  0.21498628218E+02  0.21209011124E+02  0.83111607495E+01  0.31322333264E+02  0.00000000000E+00 0.  1.
</event>
<event>
 8    1  0.8061721E-006  0.1373451E+03  0.7561462E-02  0.1216947E+00
         -1   -1    0    0    0  501 -0.00000000000E+00  0.00000000000E+00  0.22120891159E+02  0.22120891159E+02  0.00000000000E+00 0.  1.
          1   -1    0    0  501    0  0.00000000000E+00 -0.00000000000E+00 -0.15330625304E+04  0.15330625304E+04  0.00000000000E+00 0. -1.
         23    2    1    2    0    0 -0.12416379564E+03 -0.26314838171E+02 -0.39138498536E+03  0.42153303725E+03  0.91644835484E+02 0.  0.
         23    2    1    2    0    0  0.12416379564E+03  0.26314838171E+02 -0.11195566539E+04  0.11336503843E+04  0.12508786408E+03 0.  0.
          5    1    4    4  502    0  0.10371837455E+03  0.22273237739E+02 -0.40210746998E+03  0.41588638852E+03  0.41800000000E+01 0.  1.
         -5    1    4    4    0  502  0.20445421091E+02  0.40416004322E+01 -0.71744918391E+03  0.71776399580E+03  0.41800000000E+01 0.  1.
        -11    1    3    3    0    0 -0.13452791294E+03 -0.24796209449E+02 -0.38646422095E+03  0.40996000468E+03  0.00000000000E+00 0. -1.
         11    1    3    3    0    0  0.10364117296E+02 -0.15186287218E+01 -0.49207644146E+01  0.11573032573E+02  0.00000000000E+00 0.  1.
</event>
<event>
 8    1  0.9031798E-006  0.1281606E+03  0.7561462E-02  0.1230211E+00
          3   -1    0    0  501    0  0.00000000000E+00  0.00000000000E+00  0.12849555404E+03  0.12849555404E+03  0.00000000000E+00 0. -1.
         -3   -1    0    0    0  501 -0.00000000000E+00 -0.00000000000E+00 -0.17563231732E+03  0.17563231732E+03  0.00000000000E+00 0.  1.
         23    2    1    2    0    0  0.49449412972E+02 -0.90343060028E+02 -0.30715317429E+02  0.14126666379E+03  0.91682749936E+02 0.  0.
         23    2    1    2    0    0 -0.49449412972E+02  0.90343060028E+02 -0.16421445848E+02  0.16286120756E+03  0.12508795348E+03 0.  0.
          5    1    4    4  502    0 -0.26415907942E+02 -0.17592804306E+02 -0.38666060724E+02  0.50198043863E+02  0.41800000000E+01 0.  1.
         -5    1    4    4    0  502 -0.23033505029E+02  0.10793586433E+03  0.22244614876E+02  0.11266316370E+03  0.41800000000E+01 0.  1.
        -11    1    3    3    0    0  0.58118765585E+02 -0.65581053411E+02 -0.56674827133E+02  0.10435852390E+03  0.00000000000E+00 0. -1.
         11    1    3    3    0    0 -0.86693526135E+01 -0.24762006618E+02  0.25959509704E+02  0.36908139895E+02  0.00000000000E+00 0.  1.
</event>
<event>
 8    1  0.8061721E-006  0.6371513E+02  0.7561462E-02  0.1382871E+00
          2   -1    0    0  501    0  0.00000000000E+00  0.00000000000E+00  0.15594250752E+04  0.15594250752E+04  0.00000000000E+00 0. -1.
         -2   -1    0    0    0  501 -0.00000000000E+00 -0.00000000000E+00 -0.11432110841E+02  0.11432110841E+02  0.00000000000E+00 0.  1.
         23    2    1    2    0    0 -0.23665214819E+01 -0.35347071334E+01  0.22688412459E+03  0.24383268958E+03  0.89218159241E+02 0.  0.
         23    2    1    2    0    0  0.23665214819E+01  0.35347071334E+01  0.13211088397E+04  0.13270244964E+04  0.12508938051E+03 0.  0.
          5    1    4    4  502    0  0.21852065810E+02 -0.15685968831E+01  0.12869924101E+04  0.12871856546E+04  0.41800000000E+01 0. -1.
         -5    1    4    4    0  502 -0.19485544328E+02  0.51033040165E+01  0.34116429644E+02  0.39838841867E+02  0.41800000000E+01 0. -1.
        -11    1    3    3    0    0 -0.51910500085E+01 -0.43842254127E+02  0.78688907500E+02  0.90227680956E+02  0.00000000000E+00 0.  1.
         11    1    3    3    0    0  0.28245285267E+01  0.40307546994E+02  0.14819521709E+03  0.15360500863E+03  0.00000000000E+00 0. -1.
</event>
<event>
 8    1  0.1076437E-005  0.9468428E+02  0.7561462E-02  0.1291889E+00
         -1   -1    0    0    0  501 -0.00000000000E+00  0.00000000000E+00  0.82725901737E+02  0.82725901737E+02  0.00000000000E+00 0.  1.
          1   -1    0    0  501    0  0.00000000000E+00 -0.00000000000E+00 -0.15149667017E+03  0.15149667017E+03  0.00000000000E+00 0. -1.
         23    2    1    2    0    0 -0.47236886646E+02 -0.21199128894E+02 -0.10831623992E+02  0.86966036374E+02  0.69029275517E+02 0.  0.
         23    2    1    2    0    0  0.47236886646E+02  0.21199128894E+02 -0.57939144439E+02  0.14725653553E+03  0.12508723465E+03 0.  0.
          5    1    4    4  502    0  0.48673776867E+02  0.66546078255E+02 -0.59349633727E+02  0.10167285040E+03  0.41800000000E+01 0. -1.
         -5    1    4    4    0  502 -0.14368902207E+01 -0.45346949361E+02  0.14104892883E+01  0.45583685128E+02  0.41800000000E+01 0. -1.
        -11    1    3    3    0    0 -0.45227799350E+02 -0.56545879421E+01  0.21980096144E+02  0.50602893448E+02  0.00000000000E+00 0.  1.
         11    1    3    3    0    0 -0.20090872963E+01 -0.15544540952E+02 -0.32811720136E+02  0.36363142926E+02  0.00000000000E+00 0. -1.
</event>
<event>
 8    1  0.8061721E-006  0.9902599E+02  0.7561462E-02  0.1282358E+00
         -1   -1    0    0    0  501 -0.00000000000E+00  0.00000000000E+00  0.24466663014E+02  0.24466663014E+02  0.00000000000E+00 0.  1.
          1   -1    0    0  501    0  0.00000000000E+00 -0.00000000000E+00 -0.48489954047E+03  0.48489954047E+03  0.00000000000E+00 0. -1.
         23    2    1    2    0    0 -0.16374686673E+02  0.17816011760E+02 -0.18237143543E+03  0.20555845633E+03  0.91702769151E+02 0.  0.
         23    2    1    2    0    0  0.16374686673E+02 -0.17816011760E+02 -0.27806144202E+03  0.30380774715E+03  0.11998100287E+03 0.  0.
          5    1    4    4  502    0  0.52514915487E+02 -0.35529752617E+02 -0.23995133109E+03  0.24822226605E+03  0.41800000000E+01 0. -1.
         -5    1    4    4    0  502 -0.36140228815E+02  0.17713740857E+02 -0.38110110929E+02  0.55585481098E+02  0.41800000000E+01 0.  1.
        -11    1    3    3    0    0 -0.26882052912E+02 -0.32766570390E+02 -0.95567728115E+02  0.10454417038E+03  0.00000000000E+00 0.  1.
         11    1    3    3    0    0  0.10507366239E+02  0.50582582150E+02 -0.86803707319E+02  0.10101428595E+03  0.00000000000E+00 0. -1.
</event>
<event>
 8    1  0.8061721E-006  0.1817943E+03  0.7561462E-02  0.1166078E+00
          2   -1    0    0  501    0  0.00000000000E+00  0.00000000000E+00  0.88117897652E+03  0.88117897652E+03  0.00000000000E+00 0. -1.
         -2   -1    0    0    0  501 -0.00000000000E+00 -0.00000000000E+00 -0.61760274694E+02  0.61760274694E+02  0.00000000000E+00 0.  1.
         23    2    1    2    0    0 -0.16222544175E+03 -0.25398049964E+02  0.14346419347E+03  0.23615987821E+03  0.90704786925E+02 0.  0.
         23    2    1    2    0    0  0.16222544175E+03  0.25398049964E+02  0.67595450835E+03  0.70677937300E+03  0.12514163916E+03 0.  0.
          5    1    4    4  502    0  0.14806906685E+03 -0.35743245367E+01  0.36207115922E+03  0.39121633541E+03  0.41800000000E+01 0.  1.
         -5    1    4    4    0  502  0.14156374909E+02  0.28972374501E+02  0.31388334913E+03  0.31556303759E+03  0.41800000000E+01 0.  1.
        -11    1    3    3    0    0 -0.34475652558E+01 -0.23868682489E+02  0.39783183113E+02  0.46522052498E+02  0.00000000000E+00 0. -1.
         11    1    3    3    0    0 -0.15877787650E+03 -0.15293674750E+01  0.10368101036E+03  0.18963782571E+03  0.00000000000E+00 0.  1.
</event>
<event>
 8    1  0.8061721E-006  0.1296296E+03  0.7561462E-02  0.1228006E+00
          2   -1    0    0  501    0  0.00000000000E+00  0.00000000000E+00  0.12095254199E+03  0.12095254199E+03  0.00000000000E+00 0. -1.
         -2   -1    0    0    0  501 -0.00000000000E+00 -0.00000000000E+00 -0.15034089131E+03  0.15034089131E+03  0.00000000000E+00 0.  1.
         23    2    1    2    0    0  0.55979433230E+02  0.54159545667E+02 -0.31085057182E+02  0.12392803615E+03  0.91241021647E+02 0.  0.
         23    2    1    2    0    0 -0.55979433230E+02 -0.54159545667E+02  0.16967078601E+01  0.14736539716E+03  0.12508688232E+03 0.  0.
          5    1    4    4  502    0 -0.66724311118E+02  0.15700805015E+02  0.24601320283E+02  0.72947558780E+02  0.41800000000E+01 0. -1.
         -5    1    4    4    0  502  0.10744877887E+02 -0.69860350682E+02 -0.22904612423E+02  0.74417838375E+02  0.41800000000E+01 0. -1.
        -11    1    3    3    0    0 -0.15081864934E+02 -0.14533158716E+02 -0.28409405105E+01  0.21136373746E+02  0.00000000000E+00 0.  1.
         11    1    3    3    0    0  0.71061298164E+02  0.68692704383E+02 -0.28244116671E+02  0.10279166240E+03  0.00000000000E+00 0. -1.
</event>
<event>
 7    1  0.8061721E-006  0.2727741E+03  0.7561462E-02  0.1099702E+00
         -2   -1    0    0    0  501 -0.00000000000E+00  0.00000000000E+00  0.45428959018E+02  0.45428959018E+02  0.00000000000E+00 0.  1.
          2   -1    0    0  501    0  0.00000000000E+00 -0.00000000000E+00 -0.32100564817E+04  0.32100564817E+04  0.00000000000E+00 0. -1.
         23    2    1    2    0    0 -0.13826961143E+03 -0.16699051921E+03 -0.40469941615E+03  0.46770389768E+03  0.89224433410E+02 0.  0.
          5    1    1    2  502    0  0.17482913232E+03  0.37784911239E+02 -0.23412816330E+04  0.23481077664E+04  0.41800000000E+01 0. -1.
         -5    1    1    2    0  502 -0.36559520887E+02  0.12920560797E+03 -0.41864647351E+03  0.43967377666E+03  0.41800000000E+01 0.  1.
        -11    1    3    3    0    0 -0.67472428790E+02 -0.22051433251E+02 -0.15431349341E+03  0.16985714175E+03  0.00000000000E+00 0.  1.
         11    1    3    3    0    0 -0.70797182639E+02 -0.14493908596E+03 -0.25038592275E+03  0.29784675593E+03  0.00000000000E+00 0. -1.
</event>
<event>
 8    1  0.8061721E-006  0.1078911E+03  0.7561462E-02  0.1264526E+00
         -1   -1    0    0    0  501 -0.00000000000E+00  0.00000000000E+00  0.11449072742E+02  0.11449072742E+02  0.00000000000E+00 0.  1.
          1   -1    0    0  501    0  0.00000000000E+00 -0.00000000000E+00 -0.14533254621E+04  0.14533254621E+04  0.00000000000E+00 0. -1.
         23    2    1    2    0    0  0.49229118815E+01  0.36520836177E+02 -0.31875323581E+03  0.33410675019E+03  0.93089680654E+02 0.  0.
         23    2    1    2    0    0 -0.49229118815E+01 -0.36520836177E+02 -0.11231231536E+04  0.11306677847E+04  0.12508403050E+03 0.  0.
          5    1    4    4  502    0  0.50030957334E+02  0.12647466643E+02 -0.61922772093E+03  0.62138836316E+03  0.41800000000E+01 0.  1.
         -5    1    4    4    0  502 -0.54953869215E+02 -0.49168302819E+02 -0.50389543265E+03  0.50927942153E+03  0.41800000000E+01 0.  1.
        -11    1    3    3    0    0  0.43459889099E+02  0.14779743380E+02 -0.89098954829E+02  0.10022887072E+03  0.00000000000E+00 0.  1.
         11    1    3    3    0    0 -0.38536977218E+02  0.21741092797E+02 -0.22965428098E+03  0.23387787946E+03  0.00000000000E+00 0. -1.
</event>
<event>
 8    1  0.8061721E-006  0.1528087E+03  0.7561462E-02  0.1197064E+00
         -3   -1    0    0    0  501 -0.00000000000E+00  0.00000000000E+00  0.17775440214E+03  0.17775440214E+03  0.00000000000E+00 0.  1.
          3   -1    0    0  501    0  0.00000000000E+00 -0.00000000000E+00 -0.13640207603E+03  0.13640207603E+03  0.00000000000E+00 0. -1.
         23    2    1    2    0    0  0.10863992698E+03  0.21967178488E+02  0.32190135461E+02  0.14677566626E+03  0.90673594394E+02 0.  0.
         23    2    1    2    0    0 -0.10863992698E+03 -0.21967178488E+02  0.91621906569E+01  0.16738081191E+03  0.12508876765E+03 0.  0.
          5    1    4    4  502    0 -0.54447898680E+02 -0.71725387140E+02 -0.11427548116E+02  0.90868950070E+02  0.41800000000E+01 0.  1.
         -5    1    4    4    0  502 -0.54192028299E+02  0.49758208651E+02  0.20589738773E+02  0.76511861839E+02  0.41800000000E+01 0.  1.
        -11    1    3    3    0    0 -0.15257817054E+02 -0.25798589337E+01  0.10294552223E+02  0.18585867180E+02  0.00000000000E+00 0.  1.
         11    1    3    3    0    0  0.12389774403E+03  0.24547037422E+02  0.21895583238E+02  0.12818979908E+03  0.00000000000E+00 0. -1.
</event>
<event>
 8    1  0.8061721E-006  0.8920108E+02  0.7561462E-02  0.1304798E+00
         -2   -1    0    0    0  501 -0.00000000000E+00  0.00000000000E+00  0.59332521139E+02  0.59332521139E+02  0.00000000000E+00 0. -1.
          2   -1    0    0  501    0  0.00000000000E+00 -0.00000000000E+00 -0.31580072197E+03  0.31580072197E+03  0.00000000000E+00 0.  1.
         23    2    1    2    0    0 -0.12224456846E+01 -0.29367899439E+02 -0.62918431006E+01  0.93888279431E+02  0.88946353686E+02 0.  0.
         23    2    1    2    0    0  0.12224456846E+01  0.29367899439E+02 -0.25017635773E+03  0.28124496367E+03  0.12508617724E+03 0.  0.
          5    1    4    4  502    0 -0.61093020656E+02  0.55420625055E+01 -0.12691577030E+03  0.14102537637E+03  0.41800000000E+01 0.  1.
         -5    1    4    4    0  502  0.62315466341E+02  0.23825836934E+02 -0.12326058743E+03  0.14021958731E+03  0.41800000000E+01 0.  1.
        -11    1    3    3    0    0  0.17401318847E+02 -0.25781146781E+02 -0.42705099294E+02  0.52831798499E+02  0.00000000000E+00 0.  1.
         11    1    3    3    0    0 -0.18623764532E+02 -0.35867526586E+01  0.36413256193E+02  0.41056480932E+02  0.00000000000E+00 0. -1.
</event>
<event>
 8    1  0.8061721E-006  0.9618822E+02  0.7561462E-02  0.1288522E+00
         -2   -1    0    0    0  501 -0.00000000000E+00  0.00000000000E+00  0.34065801563E+03  0.34065801563E+03  0.00000000000E+00 0.  1.
          2   -1    0    0  501    0  0.00000000000E+00 -0.00000000000E+00 -0.47363228028E+02  0.47363228028E+02  0.00000000000E+00 0. -1.
         23    2    1    2    0    0 -0.23848858777E+02  0.61026521572E+02  0.14365983536E+03  0.18228330808E+03  0.91082664144E+02 0.  0.
         23    2    1    2    0    0  0.23848858777E+02 -0.61026521572E+02  0.14963495224E+03  0.20573793558E+03  0.12507787496E+03 0.  0.
          5    1    4    4  502    0  0.37849135233E+02 -0.43261710975E+02  0.34306900924E+01  0.57735385241E+02  0.41800000000E+01 0. -1.
         -5    1    4    4    0  502 -0.14000276456E+02 -0.17764810597E+02  0.14620426215E+03  0.14800255034E+03  0.41800000000E+01 0. -1.
        -11    1    3    3    0    0 -0.56365970761E+02  0.54838621902E+02  0.10839482648E+03  0.13391727118E+03  0.00000000000E+00 0.  1.
         11    1    3    3    0    0  0.32517111983E+02  0.61878996702E+01  0.35265008879E+02  0.48366036899E+02  0.00000000000E+00 0. -1.
</event>
<event>
 8    1  0.8061721E-006  0.1056364E+03  0.7561462E-02  0.1268871E+00
          4   -1    0    0  501    0  0.00000000000E+00  0.00000000000E+00  0.20431772005E+02  0.20431772005E+02  0.00000000000E+00 0.  1.
         -4   -1    0    0    0  501 -0.00000000000E+00 -0.00000000000E+00 -0.73404718892E+03  0.73404718892E+03  0.00000000000E+00 0. -1.
         23    2    1    2    0    0  0.56063276511E+02 -0.15842674599E+02 -0.29269902984E+03  0.31152094534E+03  0.89322427215E+02 0.  0.
         23    2    1    2    0    0 -0.56063276511E+02  0.15842674599E+02 -0.42091638707E+03  0.44295801558E+03  0.12508843812E+03 0.  0.
          5    1    4    4  502    0 -0.73349796120E+02  0.32447673807E+02 -0.40716249355E+03  0.41500820796E+03  0.41800000000E+01 0. -1.
         -5    1    4    4    0  502  0.17286519609E+02 -0.16604999208E+02 -0.13753893527E+02  0.27949807621E+02  0.41800000000E+01 0. -1.
        -11    1    3    3    0    0 -0.24223010630E+02  0.22473802479E+01 -0.64527745367E+02  0.68961111390E+02  0.00000000000E+00 0.  1.
         11    1    3    3    0    0  0.80286287141E+02 -0.18090054847E+02 -0.22817128447E+03  0.24255983395E+03  0.00000000000E+00 0. -1.
</event>
<event>
 8    1  0.9479628E-006  0.1859314E+03  0.7561462E-02  0.1162183E+00
         -1   -1    0    0    0  501 -0.00000000000E+00  0.00000000000E+00  0.28673408974E+03  0.28673408974E+03  0.00000000000E+00 0.  1.
          1   -1    0    0  501    0  0.00000000000E+00 -0.00000000000E+00 -0.16410345498E+03  0.16410345498E+03  0.00000000000E+00 0. -1.
         23    2    1    2    0    0  0.31314892873E+02  0.16533880176E+03  0.14526684851E+03  0.23994033849E+03  0.90284920527E+02 0.  0.
         23    2    1    2    0    0 -0.31314892873E+02 -0.16533880176E+03 -0.22636213752E+02  0.21089720623E+03  0.12509073323E+03 0.  0.
          5    1    4    4  502    0 -0.61060161957E+02 -0.16094095318E+03 -0.38802342852E+02  0.17650333708E+03  0.41800000000E+01 0. -1.
         -5    1    4    4    0  502  0.29745269085E+02 -0.43978485756E+01  0.16166129100E+02  0.34393869150E+02  0.41800000000E+01 0. -1.
        -11    1    3    3    0    0  0.63694854457E+01  0.84013397192E+02  0.12784148145E+03  0.15310867262E+03  0.00000000000E+00 0. -1.
         11    1    3    3    0    0  0.24945407427E+02  0.81325404568E+02  0.17425367058E+02  0.86831665865E+02  0.00000000000E+00 0.  1.
</event>
<event>
 8    1  0.8061721E-006  0.1377481E+03  0.7561462E-02  0.1216392E+00
         -2   -1    0    0    0  501 -0.00000000000E+00  0.00000000000E+00  0.22926809682E+02  0.22926809682E+02  0.00000000000E+00 0.  1.
          2   -1    0    0  501    0  0.00000000000E+00 -0.00000000000E+00 -0.10996810150E+04  0.10996810150E+04  0.00000000000E+00 0. -1.
         23    2    1    2    0    0  0.94820468615E+02 -0.61363497074E+02 -0.42804016930E+03  0.45235851475E+03  0.93023864116E+02 0.  0.
         23    2    1    2    0    0 -0.94820468615E+02  0.61363497074E+02 -0.64871403604E+03  0.67024930995E+03  0.12509131421E+03 0.  0.
          5    1    4    4  502    0 -0.19751665912E+02  0.72718209163E+02 -0.47016797245E+03  0.47618637209E+03  0.41800000000E+01 0. -1.
         -5    1    4    4    0  502 -0.75068802703E+02 -0.11354712089E+02 -0.17854606360E+03  0.19406293786E+03  0.41800000000E+01 0. -1.
        -11    1    3    3    0    0  0.27996255571E+02 -0.48408861456E+02 -0.79281693993E+02  0.97019560893E+02  0.00000000000E+00 0.  1.
         11    1    3    3    0    0  0.66824213044E+02 -0.12954635618E+02 -0.34875847530E+03  0.35533895386E+03  0.00000000000E+00 0. -1.
</event>
<event>
 8    1  0.8061721E-006  0.1075345E+03  0.7561462E-02  0.1265205E+00
         -1   -1    0    0    0  501 -0.00000000000E+00  0.00000000000E+00  0.12992063386E+02  0.12992063386E+02  0.00000000000E+00 0.  1.
          1   -1    0    0  501    0  0.00000000000E+00 -0.00000000000E+00 -0.10815565610E+04  0.10815565610E+04  0.00000000000E+00 0. -1.
         23    2    1    2    0    0  0.68138788617E-01 -0.18175419090E+01 -0.26117172433E+03  0.27752095614E+03  0.93829118104E+02 0.  0.
         23    2    1    2    0    0 -0.68138788617E-01  0.18175419090E+01 -0.80739277326E+03  0.81702766823E+03  0.12509121565E+03 0.  0.
          5    1    4    4  502    0  0.17685666380E+01 -0.60514938129E+02 -0.32664160256E+03  0.33223093547E+03  0.41800000000E+01 0.  1.
         -5    1    4    4    0  502 -0.18367054266E+01  0.62332480038E+02 -0.48075117070E+03  0.48479673275E+03  0.41800000000E+01 0.  1.
        -11    1    3    3    0    0 -0.12884606545E+02 -0.44996371778E+02 -0.16115804676E+03  0.16781717014E+03  0.00000000000E+00 0. -1.
         11    1    3    3    0    0  0.12952745333E+02  0.43178829869E+02 -0.10001367757E+03  0.10970378600E+03  0.00000000000E+00 0.  1.
</event>
<event>
 8    1  0.8061721E-006  0.1006109E+03  0.7561462E-02  0.1279016E+00
         -2   -1    0    0    0  501 -0.00000000000E+00  0.00000000000E+00  0.86305984003E+02  0.86305984003E+02  0.00000000000E+00 0.  1.
          2   -1    0    0  501    0  0.00000000000E+00 -0.00000000000E+00 -0.23830989268E+03  0.23830989268E+03  0.00000000000E+00 0. -1.
         23    2    1    2    0    0  0.65287894821E+02 -0.39469684535E+02 -0.40033300711E+02  0.14021600540E+03  0.11062322450E+03 0.  0.
         23    2    1    2    0    0 -0.65287894821E+02  0.39469684535E+02 -0.11197060796E+03  0.18439987128E+03  0.12508209413E+03 0.  0.
          5    1    4    4  502    0 -0.31763218586E+02  0.54974131306E+02  0.28703308082E+01  0.63692765419E+02  0.41800000000E+01 0. -1.
         -5    1    4    4    0  502 -0.33524676236E+02 -0.15504446771E+02 -0.11484093877E+03  0.12070710586E+03  0.41800000000E+01 0. -1.
        -11    1    3    3    0    0  0.45945140071E+02  0.10247749696E+02  0.27216805495E+02  0.54375792144E+02  0.00000000000E+00 0.  1.
         11    1    3    3    0    0  0.19342754751E+02 -0.49717434232E+02 -0.67250106206E+02  0.85840213261E+02  0.00000000000E+00 0. -1.
</event>
<event>
 8    1  0.8061721E-006  0.1201340E+03  0.7561462E-02  0.1242876E+00
         -1   -1    0    0    0  501 -0.00000000000E+00  0.00000000000E+00  0.39094620285E+02  0.39094620285E+02  0.00000000000E+00 0.  1.
          1   -1    0    0  501    0  0.00000000000E+00 -0.00000000000E+00 -0.52514137486E+03  0.52514137486E+03  0.00000000000E+00 0. -1.
         23    2    1    2    0    0 -0.85536859626E+02  0.22957293729E+02 -0.18499467602E+03  0.22641527261E+03  0.95902313961E+02 0.  0.
         23    2    1    2    0    0  0.85536859626E+02 -0.22957293729E+02 -0.30105207855E+03  0.33782072254E+03  0.12508754888E+03 0.  0.
          5    1    4    4  502    0  0.62147455867E+01 -0.57964485029E+02 -0.71153715053E+02  0.92080552524E+02  0.41800000000E+01 0.  1.
         -5    1    4    4    0  502  0.79322114039E+02  0.35007191300E+02 -0.22989836350E+03  0.24574017001E+03  0.41800000000E+01 0.  1.
        -11    1    3    3    0    0 -0.57418927910E+02 -0.19530585045E+01 -0.26032657571E+02  0.63074931471E+02  0.00000000000E+00 0.  1.
         11    1    3    3    0    0 -0.28117931716E+02  0.24910352234E+02 -0.15896201845E+03  0.16334034113E+03  0.00000000000E+00 0. -1.
</event>
<event>
 8    1  0.8061721E-006  0.9302118E+02  0.7561462E-02  0.1295696E+00
         -1   -1    0    0    0  501 -0.00000000000E+00  0.00000000000E+00  0.22894731217E+03  0.22894731217E+03  0.00000000000E+00 0.  1.
          1   -1    0    0  501    0  0.00000000000E+00 -0.00000000000E+00 -0.10830725032E+03  0.10830725032E+03  0.00000000000E+00 0. -1.
         23    2    1    2    0    0 -0.16101638158E+02 -0.32953912978E+01  0.17649791459E+03  0.19928094519E+03  0.91056350169E+02 0.  0.
         23    2    1    2    0    0  0.16101638158E+02  0.32953912978E+01 -0.55857852741E+02  0.13797361730E+03  0.12508595845E+03 0.  0.
          5    1    4    4  502    0  0.36231948991E+02 -0.47299897758E+02 -0.58085360822E+02  0.83315160670E+02  0.41800000000E+01 0. -1.
         -5    1    4    4    0  502 -0.20130310832E+02  0.50595289056E+02  0.22275080812E+01  0.54658456629E+02  0.41800000000E+01 0. -1.
        -11    1    3    3    0    0  0.21517582330E+02 -0.21050528171E+02  0.14224386743E+03  0.14539411580E+03  0.00000000000E+00 0.  1.
         11    1    3    3    0    0 -0.37619220489E+02  0.17755136873E+02  0.34254047156E+02  0.53886829394E+02  0.00000000000E+00 0. -1.
</event>
<event>
 8    1  0.8061721E-006  0.1231447E+03  0.7561462E-02  0.1237998E+00
          1   -1    0    0  501    0  0.00000000000E+00  0.00000000000E+00  0.27578503405E+03  0.27578503405E+03  0.00000000000E+00 0. -1.
         -1   -1    0    0    0  501 -0.00000000000E+00 -0.00000000000E+00 -0.61886210018E+02  0.61886210018E+02  0.00000000000E+00 0.  1.
         23    2    1    2    0    0 -0.63429013825E+02  0.68361155251E+01  0.52965560639E+02  0.12409360546E+03  0.92324969717E+02 0.  0.
         23    2    1    2    0    0  0.63429013825E+02 -0.68361155251E+01  0.16093326340E+03  0.21357763861E+03  0.12508365271E+03 0.  0.
          5    1    4    4  502    0  0.50728047385E+02 -0.60445934153E+02  0.12427296794E+03  0.14726944255E+03  0.41800000000E+01 0. -1.
         -5    1    4    4    0  502  0.12700966441E+02  0.53609818628E+02  0.36660295452E+02  0.66308196058E+02  0.41800000000E+01 0. -1.
        -11    1    3    3    0    0 -0.86735484683E+02 -0.28347421442E+01  0.44133083756E+02  0.97359175982E+02  0.00000000000E+00 0. -1.
         11    1    3    3    0    0  0.23306470857E+02  0.96708576693E+01  0.88324768828E+01  0.26734429483E+02  0.00000000000E+00 0.  1.
</event>
<event>
 8    1  0.8061721E-006  0.1344329E+03  0.7561462E-02  0.1221022E+00
         -2   -1    0    0    0  501 -0.00000000000E+00  0.00000000000E+00  0.41562858551E+02  0.41562858551E+02  0.00000000000E+00 0. -1.
          2   -1    0    0  501    0  0.00000000000E+00 -0.00000000000E+00 -0.67894290003E+03  0.67894290003E+03  0.00000000000E+00 0.  1.
         23    2    1    2    0    0  0.72295365004E+02  0.67889149250E+02 -0.12114054103E+03  0.18016593297E+03  0.89158153487E+02 0.  0.
         23    2    1    2    0    0 -0.72295365004E+02 -0.67889149250E+02 -0.51623950044E+03  0.54033982561E+03  0.12501339503E+03 0.  0.
          5    1    4    4  502    0  0.10843484399E+02 -0.54150775413E+02 -0.34529549607E+03  0.34970893560E+03  0.41800000000E+01 0. -1.
         -5    1    4    4    0  502 -0.83138849403E+02 -0.13738373837E+02 -0.17094400438E+03  0.19063089002E+03  0.41800000000E+01 0. -1.
        -11    1    3    3    0    0  0.79581791411E+02  0.21887207815E+02 -0.54665229116E+02  0.98997973031E+02  0.00000000000E+00 0. -1.
         11    1    3    3    0    0 -0.72864264066E+01  0.46001941435E+02 -0.66475311919E+02  0.81167959936E+02  0.00000000000E+00 0.  1.
</event>
<event>
 8    1  0.8061721E-006  0.1294654E+03  0.7561462E-02  0.1228251E+00
          2   -1    0    0  501    0  0.00000000000E+00  0.00000000000E+00  0.24881264862E+03  0.24881264862E+03  0.00000000000E+00 0. -1.
         -2   -1    0    0    0  501 -0.00000000000E+00 -0.00000000000E+00 -0.90041370720E+02  0.90041370720E+02  0.00000000000E+00 0.  1.
         23    2    1    2    0    0  0.74900273230E+02 -0.35183320307E+02  0.52832298756E+00  0.12082213787E+03  0.88032908139E+02 0.  0.
         23    2    1    2    0    0 -0.74900273230E+02  0.35183320307E+02  0.15824295492E+03  0.21803188148E+03  0.12509656911E+03 0.  0.
          5    1    4    4  502    0 -0.44404505896E+02 -0.38114240800E+02  0.11101321666E+03  0.12556218447E+03  0.41800000000E+01 0.  1.
         -5    1    4    4    0  502 -0.30495767334E+02  0.73297561107E+02  0.47229738259E+02  0.92469697012E+02  0.41800000000E+01 0.  1.
        -11    1    3    3    0    0  0.47282647452E+02 -0.64834101244E+02 -0.13940830960E+01  0.80256170491E+02  0.00000000000E+00 0.  1.
         11    1    3    3    0    0  0.27617625778E+02  0.29650780938E+02  0.19224060836E+01  0.40565967374E+02  0.00000000000E+00 0. -1.
</event>
<event>
 8    1  0.8061721E-006  0.1259094E+03  0.7561462E-02  0.1233655E+00
         -1   -1    0    0    0  501 -0.00000000000E+00  0.00000000000E+00  0.11618573464E+03  0.11618573464E+03  0.00000000000E+00 0.  1.
          1   -1    0    0  501    0  0.00000000000E+00 -0.00000000000E+00 -0.24139161893E+03  0.24139161893E+03  0.00000000000E+00 0. -1.
         23    2    1    2    0    0 -0.14988151274E+02 -0.12109036654E+03 -0.18010513385E+02  0.15256046577E+03  0.89793070869E+02 0.  0.
         23    2    1    2    0    0  0.14988151274E+02  0.12109036654E+03 -0.10719537090E+03  0.20501688780E+03  0.12511416864E+03 0.  0.
          5    1    4    4  502    0  0.84361919247E+00  0.12017691392E+02  0.27950369341E+02  0.30721851280E+02  0.41800000000E+01 0.  1.
         -5    1    4    4    0  502  0.14144532082E+02  0.10907267514E+03 -0.13514574024E+03  0.17429503652E+03  0.41800000000E+01 0.  1.
        -11    1    3    3    0    0  0.14653213618E+02 -0.45781552568E+02  0.31699801222E+02  0.57580766080E+02  0.00000000000E+00 0.  1.
         11    1    3    3    0    0 -0.29641364893E+02 -0.75308813968E+02 -0.49710314608E+02  0.94979699686E+02  0.00000000000E+00 0. -1.
</event>
<event>
 8    1  0.8061721E-006  0.2189130E+03  0.7561462E-02  0.1134696E+00
          1   -1    0    0  501    0  0.00000000000E+00  0.00000000000E+00  0.19957744373E+04  0.19957744373E+04  0.00000000000E+00 0.  1.
         -1   -1    0    0    0  501 -0.00000000000E+00 -0.00000000000E+00 -0.32853649806E+02  0.32853649806E+02  0.00000000000E+00 0. -1.
         23    2    1    2    0    0 -0.15402203530E+03  0.13498912402E+03  0.52502208785E+03  0.57083974378E+03  0.90911877058E+02 0.  0.
         23    2    1    2    0    0  0.15402203530E+03 -0.13498912402E+03  0.14378986996E+04  0.14577883433E+04  0.12509729225E+03 0.  0.
          5    1    4    4  502    0  0.99689217952E+02 -0.21399073315E+02  0.42473301104E+03  0.43681971520E+03  0.41800000000E+01 0.  1.
         -5    1    4    4    0  502  0.54332817345E+02 -0.11359005071E+03  0.10131656886E+04  0.10209686281E+04  0.41800000000E+01 0.  1.
        -11    1    3    3    0    0 -0.10847716185E+03  0.65524355773E+02  0.21206774329E+03  0.24704951647E+03  0.00000000000E+00 0. -1.
         11    1    3    3    0    0 -0.45544873443E+02  0.69464768248E+02  0.31295434456E+03  0.32379022732E+03  0.00000000000E+00 0.  1.
</event>
<event>
 8    1  0.8061721E-006  0.1444431E+03  0.7561462E-02  0.1207472E+00
         -1   -1    0    0    0  501 -0.00000000000E+00  0.00000000000E+00  0.87807659692E+02  0.87807659692E+02  0.00000000000E+00 0.  1.
          1   -1    0    0  501    0  0.00000000000E+00 -0.00000000000E+00 -0.32613217558E+03  0.32613217558E+03  0.00000000000E+00 0. -1.
         23    2    1    2    0    0 -0.45068017070E+02 -0.12007541712E+03 -0.12974337804E+03  0.20444890154E+03  0.92286387064E+02 0.  0.
         23    2    1    2    0    0  0.45068017070E+02  0.12007541712E+03 -0.10858113785E+03  0.20949093373E+03  0.12508939147E+03 0.  0.
          5    1    4    4  502    0  0.22851578398E+02  0.97132840806E+02 -0.38798850432E+01  0.99947532767E+02  0.41800000000E+01 0. -1.
         -5    1    4    4    0  502  0.22216438672E+02  0.22942576314E+02 -0.10470125280E+03  0.10954340096E+03  0.41800000000E+01 0. -1.
        -11    1    3    3    0    0 -0.54317276891E+02 -0.22500937066E+02 -0.36705521067E+02  0.69310562070E+02  0.00000000000E+00 0. -1.
         11    1    3    3    0    0  0.92492598206E+01 -0.97574480054E+02 -0.93037856971E+02  0.13513833947E+03  0.00000000000E+00 0.  1.
</event>
<event>
 7    1  0.8061721E-006  0.8197061E+02  0.7561462E-02  0.1323550E+00
          1   -1    0    0  501    0  0.00000000000E+00  0.00000000000E+00  0.55609310302E+02  0.55609310302E+02  0.00000000000E+00 0. -1.
         -1   -1    0    0    0  501 -0.00000000000E+00 -0.00000000000E+00 -0.17061345863E+03  0.17061345863E+03  0.00000000000E+00 0.  1.
         23    2    1    2    0    0  0.20526164669E+02  0.43293540567E+02 -0.55206905409E+02  0.14487874032E+03  0.12508554234E+03 0.  0.
          5    1    3    3  502    0  0.20438046704E+02  0.77070311938E+02 -0.71469579844E+02  0.10715838734E+03  0.41800000000E+01 0. -1.
         -5    1    3    3    0  502  0.88117964647E-01 -0.33776771371E+02  0.16262674435E+02  0.37720352978E+02  0.41800000000E+01 0. -1.
        -11    1    1    2    0    0 -0.32885509190E+01 -0.23862156277E+02 -0.11923078885E+02  0.26877069770E+02  0.00000000000E+00 0. -1.
         11    1    1    2    0    0 -0.17237613750E+02 -0.19431384290E+02 -0.47874164029E+02  0.54466958835E+02  0.00000000000E+00 0.  1.
</event>
<event>
 8    1  0.8061721E-006  0.1011953E+03  0.7561462E-02  0.1277802E+00
          1   -1    0    0  501    0  0.00000000000E+00  0.00000000000E+00  0.85433637820E+03  0.85433637820E+03  0.00000000000E+00 0. -1.
         -1   -1    0    0    0  501 -0.00000000000E+00 -0.00000000000E+00 -0.21966894743E+02  0.21966894743E+02  0.00000000000E+00 0.  1.
         23    2    1    2    0    0 -0.16663057517E+02  0.78162423680E+02  0.31244331823E+03  0.33560204048E+03  0.92848696848E+02 0.  0.
         23    2    1    2    0    0  0.16663057517E+02 -0.78162423680E+02  0.51992616522E+03  0.54070123246E+03  0.12509030154E+03 0.  0.
          5    1    4    4  502    0 -0.29334380015E+02 -0.15121988815E+02  0.37124712958E+03  0.37273460265E+03  0.41800000000E+01 0. -1.
         -5    1    4    4    0  502  0.45997437532E+02 -0.63040434865E+02  0.14867903565E+03  0.16796662981E+03  0.41800000000E+01 0. -1.
        -11    1    3    3    0    0  0.13829611194E+02  0.12775420057E+02  0.45509602024E+01  0.19369582912E+02  0.00000000000E+00 0.  1.
         11    1    3    3    0    0 -0.30492668711E+02  0.65387003623E+02  0.30789235803E+03  0.31623245757E+03  0.00000000000E+00 0. -1.
</event>
<event>
 8    1  0.8061721E-006  0.9713832E+02  0.7561462E-02  0.1286431E+00
         -2   -1    0    0    0  501 -0.00000000000E+00  0.00000000000E+00  0.14810853928E+02  0.14810853928E+02  0.00000000000E+00 0.  1.
          2   -1    0    0  501    0  0.00000000000E+00 -0.00000000000E+00 -0.10031806933E+04  0.10031806933E+04  0.00000000000E+00 0. -1.
         23    2    1    2    0    0  0.16104907314E+02 -0.16606371414E+02 -0.22423003880E+03  0.24333534729E+03  0.91639736612E+02 0.  0.
         23    2    1    2    0    0 -0.16104907314E+02  0.16606371414E+02 -0.76413980053E+03  0.77465619990E+03  0.12508978249E+03 0.  0.
          5    1    4    4  502    0 -0.27175164322E+02  0.68584012132E+02 -0.43836173144E+03  0.44454553902E+03  0.41800000000E+01 0.  1.
         -5    1    4    4    0  502  0.11070257008E+02 -0.51977640718E+02 -0.32577806909E+03  0.33011066088E+03  0.41800000000E+01 0.  1.
        -11    1    3    3    0    0  0.40092172668E+02 -0.15755022559E+02 -0.21212239552E+03  0.21645210492E+03  0.00000000000E+00 0. -1.
         11    1    3    3    0    0 -0.23987265354E+02 -0.85134885496E+00 -0.12107643284E+02  0.26883242363E+02  0.00000000000E+00 0.  1.
</event>
<event>
 8    1  0.8061721E-006  0.8410460E+02  0.7561462E-02  0.1317791E+00
         -2   -1    0    0    0  501 -0.00000000000E+00  0.00000000000E+00  0.18752267005E+02  0.18752267005E+02  0.00000000000E+00 0.  1.
          2   -1    0    0  501    0  0.00000000000E+00 -0.00000000000E+00 -0.83113814367E+03  0.83113814367E+03  0.00000000000E+00 0. -1.
         23    2    1    2    0    0  0.52917547036E+02 -0.39465137798E+02 -0.30776186808E+03  0.32819588641E+03  0.92937659368E+02 0.  0.
         23    2    1    2    0    0 -0.52917547036E+02  0.39465137798E+02 -0.50462400859E+03  0.52169452427E+03  0.11472585898E+03 0.  0.
          5    1    4    4  502    0 -0.18890095886E+02  0.48091154167E+01 -0.44144528352E+03  0.44189520710E+03  0.41800000000E+01 0. -1.
         -5    1    4    4    0  502 -0.34027451150E+02  0.34656022381E+02 -0.63178725069E+02  0.79799317167E+02  0.41800000000E+01 0.  1.
        -11    1    3    3    0    0  0.66593726427E+02 -0.10396797061E+02 -0.27154363222E+03  0.27978341979E+03  0.00000000000E+00 0.  1.
         11    1    3    3    0    0 -0.13676179391E+02 -0.29068340737E+02 -0.36218235856E+02  0.48412466622E+02  0.00000000000E+00 0. -1.
</event>
<event>
 8    1  0.8061721E-006  0.6475130E+02  0.7561462E-02  0.1378909E+00
          1   -1    0    0  501    0  0.00000000000E+00  0.00000000000E+00  0.75960569332E+03  0.75960569332E+03  0.00000000000E+00 0. -1.
         -1   -1    0    0    0  501 -0.00000000000E+00 -0.00000000000E+00 -0.18804548319E+02  0.18804548319E+02  0.00000000000E+00 0.  1.
         23    2    1    2    0    0 -0.11319772730E+02 -0.17768523448E+02  0.19889985915E+03  0.22185942833E+03  0.96003095200E+02 0.  0.
         23    2    1    2    0    0  0.11319772730E+02  0.17768523448E+02  0.54190128585E+03  0.55655081331E+03  0.12509175237E+03 0.  0.
          5    1    4    4  502    0  0.66805808494E+01 -0.97450511659E+01  0.52170095100E+03  0.52185146436E+03  0.41800000000E+01 0.  1.
         -5    1    4    4    0  502  0.46391918804E+01  0.27513574614E+02  0.20200334848E+02  0.34699348946E+02  0.41800000000E+01 0.  1.
        -11    1    3    3    0    0  0.37569992584E+02 -0.12446396601E+02  0.13810296492E+03  0.14366226383E+03  0.00000000000E+00 0. -1.
         11    1    3    3    0    0 -0.48889765314E+02 -0.53221268463E+01  0.60796894237E+02  0.78197164498E+02  0.00000000000E+00 0.  1.
</event>
<event>
 8    1  0.8061721E-006  0.1204095E+03  0.7561462E-02  0.1242423E+00
          1   -1    0    0  501    0  0.00000000000E+00  0.00000000000E+00  0.17086990109E+03  0.17086990109E+03  0.00000000000E+00 0. -1.
         -1   -1    0    0    0  501 -0.00000000000E+00 -0.00000000000E+00 -0.19191331415E+03  0.19191331415E+03  0.00000000000E+00 0.  1.
         23    2    1    2    0    0  0.22443574775E+02  0.65897693428E+02 -0.14167214986E+03  0.18162426629E+03  0.89834047056E+02 0.  0.
         23    2    1    2    0    0 -0.22443574775E+02 -0.65897693428E+02  0.12062873681E+03  0.18115894895E+03  0.11584926669E+03 0.  0.
          5    1    4    4  502    0 -0.31726846780E+02 -0.96127630905E+02  0.77712095732E+02  0.12768616391E+03  0.41800000000E+01 0. -1.
         -5    1    4    4    0  502  0.92832720054E+01  0.30229937476E+02  0.42916641079E+02  0.53472785045E+02  0.41800000000E+01 0.  1.
        -11    1    3    3    0    0  0.52330824578E+02  0.54671951287E+02 -0.69689700789E+02  0.10287950162E+03  0.00000000000E+00 0.  1.
         11    1    3    3    0    0 -0.29887249803E+02  0.11225742142E+02 -0.71982449073E+02  0.78744764664E+02  0.00000000000E+00 0. -1.
</event>
<event>
 8    1  0.8061721E-006  0.9608331E+02  0.7561462E-02  0.1288755E+00
         -1   -1    0    0    0  501 -0.00000000000E+00  0.00000000000E+00  0.31636490246E+02  0.31636490246E+02  0.00000000000E+00 0.  1.
          1   -1    0    0  501    0  0.00000000000E+00 -0.00000000000E+00 -0.43370515991E+03  0.43370515991E+03  0.00000000000E+00 0. -1.
         23    2    1    2    0    0 -0.10272422053E+02 -0.39889109428E+02 -0.13245228400E+03  0.16528310440E+03  0.89878992860E+02 0.  0.
         23    2    1    2    0    0  0.10272422053E+02  0.39889109428E+02 -0.26961638567E+03  0.30005854576E+03  0.12508186022E+03 0.  0.
          5    1    4    4  502    0  0.36388345796E+02 -0.24602624826E+02 -0.18618080789E+03  0.19133783338E+03  0.41800000000E+01 0. -1.
         -5    1    4    4    0  502 -0.26115923743E+02  0.64491734254E+02 -0.83435577783E+02  0.10872071238E+03  0.41800000000E+01 0. -1.
        -11    1    3    3    0    0 -0.34412539877E+02 -0.41776781570E+02 -0.13015514295E+03  0.14096057469E+03  0.00000000000E+00 0. -1.
         11    1    3    3    0    0  0.24140117824E+02  0.18876721424E+01 -0.22971410478E+01  0.24322529714E+02  0.00000000000E+00 0.  1.
</event>
<event>
 8    1  0.8061721E-006  0.6952096E+02  0.7561462E-02  0.1361730E+00
         -2   -1    0    0    0  501 -0.00000000000E+00  0.00000000000E+00  0.76865912045E+02  0.76865912045E+02  0.00000000000E+00 0. -1.
          2   -1    0    0  501    0  0.00000000000E+00 -0.00000000000E+00 -0.19987484073E+03  0.19987484073E+03  0.00000000000E+00 0.  1.
         23    2    1    2    0    0  0.47930582054E+02  0.34060020976E+02 -0.72593064173E+02  0.12961208061E+03  0.89844937250E+02 0.  0.
         23    2    1    2    0    0 -0.47930582054E+02 -0.34060020976E+02 -0.50415864510E+02  0.14712867216E+03  0.12509061137E+03 0.  0.
          5    1    4    4  502    0 -0.43512143452E+02 -0.30686735423E+02 -0.91236789376E+02  0.10571947074E+03  0.41800000000E+01 0.  1.
         -5    1    4    4    0  502 -0.44184386019E+01 -0.33732855536E+01  0.40820924866E+02  0.41409201418E+02  0.41800000000E+01 0.  1.
        -11    1    3    3    0    0  0.26416346860E+02 -0.11101413648E+02  0.12215481656E+02  0.31149362088E+02  0.00000000000E+00 0. -1.
         11    1    3    3    0    0  0.21514235195E+02  0.45161434625E+02 -0.84808545830E+02  0.98462718524E+02  0.00000000000E+00 0.  1.
</event>
<event>
 7    1  0.8061721E-006  0.1966949E+03  0.7561462E-02  0.1152558E+00
          1   -1    0    0  501    0  0.00000000000E+00  0.00000000000E+00  0.11252934575E+04  0.11252934575E+04  0.00000000000E+00 0. -1.
         -1   -1    0    0    0  501 -0.00000000000E+00 -0.00000000000E+00 -0.38249023930E+02  0.38249023930E+02  0.00000000000E+00 0.  1.
         23    2    1    2    0    0 -0.13196700788E+03 -0.80528369666E+02  0.39344219880E+03  0.43355432023E+03  0.96293692966E+02 0.  0.
          5    1    1    2  502    0  0.16208324109E+03  0.10039338152E+03  0.56245360989E+03  0.59390348018E+03  0.41800000000E+01 0. -1.
         -5    1    1    2    0  502 -0.30116233207E+02 -0.19865011853E+02  0.13114862484E+03  0.13608468098E+03  0.41800000000E+01 0.  1.
        -11    1    3    3    0    0 -0.27769592601E+02 -0.50996419510E+02  0.23195816056E+03  0.23911581572E+03  0.00000000000E+00 0. -1.
         11    1    3    3    0    0 -0.10419741528E+03 -0.29531950156E+02  0.16148403824E+03  0.19443850451E+03  0.00000000000E+00 0.  1.
</event>
<event>
 8    1  0.8061721E-006  0.8571525E+02  0.7561462E-02  0.1313573E+00
          4   -1    0    0  501    0  0.00000000000E+00  0.00000000000E+00  0.58231722609E+02  0.58231722609E+02  0.00000000000E+00 0.  1.
         -4   -1    0    0    0  501 -0.00000000000E+00 -0.00000000000E+00 -0.21717689903E+03  0.21717689903E+03  0.00000000000E+00 0. -1.
         23    2    1    2    0    0 -0.11742241058E+02 -0.74400231765E+01 -0.77576576857E+02  0.12553797227E+03  0.97716032643E+02 0.  0.
         23    2    1    2    0    0  0.11742241058E+02  0.74400231765E+01 -0.81368599568E+02  0.14987064937E+03  0.12508848219E+03 0.  0.
          5    1    4    4  502    0  0.19277553815E+02 -0.41979382144E+02  0.83036796591E+01  0.47120230285E+02  0.41800000000E+01 0. -1.
         -5    1    4    4    0  502 -0.75353127566E+01  0.49419405320E+02 -0.89672279228E+02  0.10275041909E+03  0.41800000000E+01 0. -1.
        -11    1    3    3    0    0 -0.26067345735E+02 -0.35107328440E+02 -0.19785279607E+01  0.43771515816E+02  0.00000000000E+00 0.  1.
         11    1    3    3    0    0  0.14325104677E+02  0.27667305264E+02 -0.75598048896E+02  0.81766456457E+02  0.00000000000E+00 0. -1.
</event>
<event>
 8    1  0.8061721E-006  0.1246636E+03  0.7561462E-02  0.1235596E+00
          1   -1    0    0  501    0  0.00000000000E+00  0.00000000000E+00  0.24232002967E+04  0.24232002967E+04  0.00000000000E+00 0.  1.
         -1   -1    0    0    0  501 -0.00000000000E+00 -0.00000000000E+00 -0.24724580075E+02  0.24724580075E+02  0.00000000000E+00 0. -1.
         23    2    1    2    0    0  0.92044087951E+02 -0.38012569301E+02  0.18222136175E+03  0.22591050270E+03  0.88959884208E+02 0.  0.
         23    2    1    2    0    0 -0.92044087951E+02  0.38012569301E+02  0.22162543549E+04  0.22220143741E+04  0.12508974204E+03 0.  0.
          5    1    4    4  502    0 -0.12495471458E+02 -0.17095801211E+02  0.13800238865E+04  0.13801926687E+04  0.41800000000E+01 0. -1.
         -5    1    4    4    0  502 -0.79548616493E+02  0.55108370512E+02  0.83623046840E+03  0.84182170533E+03  0.41800000000E+01 0. -1.
        -11    1    3    3    0    0  0.57506882770E+02  0.22055347009E+02  0.63599047401E+02  0.88534279959E+02  0.00000000000E+00 0.  1.
         11    1    3    3    0    0  0.34537205180E+02 -0.60067916310E+02  0.11862231435E+03  0.13737622274E+03  0.00000000000E+00 0. -1.
</event>
<event>
 8    1  0.8061721E-006  0.8734592E+02  0.7561462E-02  0.1309409E+00
          1   -1    0    0  501    0  0.00000000000E+00  0.00000000000E+00  0.60029240650E+03  0.60029240650E+03  0.00000000000E+00 0. -1.
         -1   -1    0    0    0  501 -0.00000000000E+00 -0.00000000000E+00 -0.28129158201E+02  0.28129158201E+02  0.00000000000E+00 0.  1.
         23    2    1    2    0    0 -0.36234359403E+02 -0.38457690495E+02  0.13941629762E+03  0.17486942885E+03  0.91381017428E+02 0.  0.
         23    2    1    2    0    0  0.36234359403E+02  0.38457690495E+02  0.43274695068E+03  0.45355213585E+03  0.12509074246E+03 0.  0.
          5    1    4    4  502    0  0.26200820336E+02  0.52497462863E+02  0.74765078578E+02  0.95130205340E+02  0.41800000000E+01 0.  1.
         -5    1    4    4    0  502  0.10033539068E+02 -0.14039772368E+02  0.35798187210E+03  0.35842193051E+03  0.41800000000E+01 0.  1.
        -11    1    3    3    0    0 -0.50467709297E+02 -0.56091523762E+02  0.74186475998E+02  0.10581531997E+03  0.00000000000E+00 0.  1.
         11    1    3    3    0    0  0.14233349894E+02  0.17633833266E+02  0.65229821619E+02  0.69054108881E+02  0.00000000000E+00 0. -1.
</event>
<event>
 8    1  0.8061721E-006  0.1262611E+03  0.7561462E-02  0.1233111E+00
         -1   -1    0    0    0  501 -0.00000000000E+00  0.00000000000E+00  0.55639127108E+02  0.55639127108E+02  0.00000000000E+00 0.  1.
          1   -1    0    0  501    0  0.00000000000E+00 -0.00000000000E+00 -0.34024505247E+03  0.34024505247E+03  0.00000000000E+00 0. -1.
         23    2    1    2    0    0  0.35702267493E+02 -0.65570170778E+02 -0.73043486327E+02  0.13902497752E+03  0.91752352990E+02 0.  0.
         23    2    1    2    0    0 -0.35702267493E+02  0.65570170778E+02 -0.21156243904E+03  0.25685920206E+03  0.12507551668E+03 0.  0.
          5    1    4    4  502    0 -0.69495005795E+02  0.71438786945E+02 -0.10497472642E+03  0.14481098611E+03  0.41800000000E+01 0.  1.
         -5    1    4    4    0  502  0.33792738302E+02 -0.58686161668E+01 -0.10658771261E+03  0.11204821595E+03  0.41800000000E+01 0.  1.
        -11    1    3    3    0    0  0.45428486879E+02  0.61482636173E+01 -0.25960480417E+02  0.52682967922E+02  0.00000000000E+00 0.  1.
         11    1    3    3    0    0 -0.97262193856E+01 -0.71718434395E+02 -0.47083005910E+02  0.86342009596E+02  0.00000000000E+00 0. -1.
</event>
<event>
 8    1  0.8061721E-006  0.1143915E+03  0.7561462E-02  0.1252647E+00
         -1   -1    0    0    0  501 -0.00000000000E+00  0.00000000000E+00  0.98711482827E+02  0.98711482827E+02  0.00000000000E+00 0.  1.
          1   -1    0    0  501    0  0.00000000000E+00 -0.00000000000E+00 -0.22347264187E+03  0.22347264187E+03  0.00000000000E+00 0. -1.
         23    2    1    2    0    0 -0.71316432565E+02 -0.66758969058E+02 -0.85668126620E+02  0.15872620198E+03  0.91171189388E+02 0.  0.
         23    2    1    2    0    0  0.71316432565E+02  0.66758969058E+02 -0.39093032421E+02  0.16345792271E+03  0.12508970305E+03 0.  0.
          5    1    4    4  502    0  0.40368111434E+02  0.20545805556E+02  0.44061936543E+02  0.63329623389E+02  0.41800000000E+01 0.  1.
         -5    1    4    4    0  502  0.30948321131E+02  0.46213163502E+02 -0.83154968963E+02  0.10012829932E+03  0.41800000000E+01 0.  1.
        -11    1    3    3    0    0 -0.76518245108E+02 -0.81557296770E+02 -0.55780495572E+02  0.12497238966E+03  0.00000000000E+00 0.  1.
         11    1    3    3    0    0  0.52018125434E+01  0.14798327712E+02 -0.29887631048E+02  0.33753812325E+02  0.00000000000E+00 0. -1.
</event>
<event>
 8    1  0.8061721E-006  0.7152312E+02  0.7561462E-02  0.1354989E+00
          2   -1    0    0  501    0  0.00000000000E+00  0.00000000000E+00  0.62901835714E+03  0.62901835714E+03  0.00000000000E+00 0.  1.
         -2   -1    0    0    0  501 -0.00000000000E+00 -0.00000000000E+00 -0.38141869572E+02  0.38141869572E+02  0.00000000000E+00 0. -1.
         23    2    1    2    0    0 -0.36838208103E+02  0.11391386798E+02  0.51028929952E+02  0.11166985672E+03  0.91538996819E+02 0.  0.
         23    2    1    2    0    0  0.36838208103E+02 -0.11391386798E+02  0.53984755762E+03  0.55549036999E+03  0.12508936174E+03 0.  0.
          5    1    4    4  502    0 -0.18305440014E+02  0.26096177731E+02  0.40576182773E+02  0.51768703236E+02  0.41800000000E+01 0. -1.
         -5    1    4    4    0  502  0.55143648118E+02 -0.37487564529E+02  0.49927137484E+03  0.50372166676E+03  0.41800000000E+01 0. -1.
        -11    1    3    3    0    0 -0.25269584020E+02  0.17754891785E+02 -0.21704658238E+02  0.37747585991E+02  0.00000000000E+00 0. -1.
         11    1    3    3    0    0 -0.11568624083E+02 -0.63635049867E+01  0.72733588190E+02  0.73922270730E+02  0.00000000000E+00 0.  1.
</event>
<event>
 8    1  0.8061721E-006  0.1392435E+03  0.7561462E-02  0.1214351E+00
         -2   -1    0    0    0  501 -0.00000000000E+00  0.00000000000E+00  0.66702730781E+02  0.66702730781E+02  0.00000000000E+00 0.  1.
          2   -1    0    0  501    0  0.00000000000E+00 -0.00000000000E+00 -0.40485283750E+03  0.40485283750E+03  0.00000000000E+00 0. -1.
         23    2    1    2    0    0 -0.73664325291E+02 -0.85675599139E+02 -0.10718326345E+03  0.18562010131E+03  0.10099420249E+03 0.  0.
         23    2    1    2    0    0  0.73664325291E+02  0.85675599139E+02 -0.23096684327E+03  0.28593546697E+03  0.12508663987E+03 0.  0.
          5    1    4    4  502    0  0.69616417576E+01  0.90970681394E+02 -0.82680609206E+02  0.12319774701E+03  0.41800000000E+01 0.  1.
         -5    1    4    4    0  502  0.66702683533E+02 -0.52950822554E+01 -0.14828623406E+03  0.16273771997E+03  0.41800000000E+01 0.  1.
        -11    1    3    3    0    0 -0.35811968603E+02 -0.70987665182E+02 -0.11919347159E+03  0.14327885180E+03  0.00000000000E+00 0. -1.
         11    1    3    3    0    0 -0.37852356688E+02 -0.14687933956E+02  0.12010208136E+02  0.42341249512E+02  0.00000000000E+00 0.  1.
</event>
<event>
 8    1  0.8061721E-006  0.8323001E+02  0.7561462E-02  0.1320127E+00
          1   -1    0    0  501    0  0.00000000000E+00  0.00000000000E+00  0.19337990014E+03  0.19337990014E+03  0.00000000000E+00 0. -1.
         -1   -1    0    0    0  501 -0.00000000000E+00 -0.00000000000E+00 -0.69804363485E+02  0.69804363485E+02  0.00000000000E+00 0.  1.
         23    2    1    2    0    0 -0.19115336418E+02 -0.29780984272E+02  0.25462623319E+02  0.10032006854E+03  0.90351911191E+02 0.  0.
         23    2    1    2    0    0  0.19115336418E+02  0.29780984272E+02  0.98112913340E+02  0.16286419508E+03  0.12508516765E+03 0.  0.
          5    1    4    4  502    0 -0.17944452606E+02  0.70470106591E+02  0.69573287413E+02  0.10072712655E+03  0.41800000000E+01 0.  1.
         -5    1    4    4    0  502  0.37059789025E+02 -0.40689122319E+02  0.28539625928E+02  0.62137068532E+02  0.41800000000E+01 0.  1.
        -11    1    3    3    0    0  0.61200354233E+00 -0.11544642192E+02 -0.33546822023E+02  0.35482990002E+02  0.00000000000E+00 0.  1.
         11    1    3    3    0    0 -0.19727339960E+02 -0.18236342080E+02  0.59009445341E+02  0.64837078542E+02  0.00000000000E+00 0. -1.
</event>
<event>
 8    1  0.8061721E-006  0.7691601E+02  0.7561462E-02  0.1338038E+00
          2   -1    0    0  501    0  0.00000000000E+00  0.00000000000E+00  0.13342056930E+03  0.13342056930E+03  0.00000000000E+00 0. -1.
         -2   -1    0    0    0  501 -0.00000000000E+00 -0.00000000000E+00 -0.93064973851E+02  0.93064973851E+02  0.00000000000E+00 0.  1.
         23    2    1    2    0    0  0.17833073182E+01 -0.32004322689E+02  0.20226517832E+02  0.95794445717E+02  0.87977309296E+02 0.  0.
         23    2    1    2    0    0 -0.17833073182E+01  0.32004322689E+02  0.20129077614E+02  0.13069109743E+03  0.12509007285E+03 0.  0.
          5    1    4    4  502    0 -0.57749268195E+02  0.17774686371E+02  0.36255704770E+02  0.70589418336E+02  0.41800000000E+01 0. -1.
         -5    1    4    4    0  502  0.55965960877E+02  0.14229636318E+02 -0.16126627156E+02  0.60101679095E+02  0.41800000000E+01 0. -1.
        -11    1    3    3    0    0  0.71841557104E+01 -0.79554150922E+01 -0.34310667109E+02  0.35946106883E+02  0.00000000000E+00 0.  1.
         11    1    3    3    0    0 -0.54008483922E+01 -0.24048907597E+02  0.54537184941E+02  0.59848338835E+02  0.00000000000E+00 0. -1.
</event>
<event>
 8    1  0.8061721E-006  0.1532388E+03  0.7561462E-02  0.1196549E+00
         -2   -1    0    0    0  501 -0.00000000000E+00  0.00000000000E+00  0.60141107033E+02  0.60141107033E+02  0.00000000000E+00 0.  1.
          2   -1    0    0  501    0  0.00000000000E+00 -0.00000000000E+00 -0.43810268096E+03  0.43810268096E+03  0.00000000000E+00 0. -1.
         23    2    1    2    0    0 -0.11646290115E+03 -0.21734162820E+02 -0.14471423848E+03  0.20826292554E+03  0.91625619543E+02 0.  0.
         23    2    1    2    0    0  0.11646290115E+03  0.21734162820E+02 -0.23324733545E+03  0.28998086246E+03  0.12509436406E+03 0.  0.
          5    1    4    4  502    0  0.13735078937E+03  0.41165621219E+02 -0.19298362248E+03  0.24045789372E+03  0.41800000000E+01 0.  1.
         -5    1    4    4    0  502 -0.20887888219E+02 -0.19431458399E+02 -0.40263712974E+02  0.49522968734E+02  0.41800000000E+01 0.  1.
        -11    1    3    3    0    0 -0.51154722316E+02 -0.41598857682E+02 -0.11758093222E+03  0.13480558667E+03  0.00000000000E+00 0. -1.
         11    1    3    3    0    0 -0.65308178835E+02  0.19864694862E+02 -0.27133306257E+02  0.73457338865E+02  0.00000000000E+00 0.  1.
</event>
<event>
 8    1  0.8061721E-006  0.8010929E+02  0.7561462E-02  0.1328742E+00
         -2   -1    0    0    0  501 -0.00000000000E+00  0.00000000000E+00  0.32262990835E+03  0.32262990835E+03  0.00000000000E+00 0.  1.
          2   -1    0    0  501    0  0.00000000000E+00 -0.00000000000E+00 -0.45290117750E+02  0.45290117750E+02  0.00000000000E+00 0. -1.
         23    2    1    2    0    0  0.90924492256E+01  0.32759889228E+02  0.17715787434E+03  0.20409275956E+03  0.95462343844E+02 0.  0.
         23    2    1    2    0    0 -0.90924492256E+01 -0.32759889228E+02  0.10018191627E+03  0.16382726654E+03  0.12508826460E+03 0.  0.
          5    1    4    4  502    0  0.19467446313E+02 -0.60880946404E+02  0.97095491408E+01  0.64785946358E+02  0.41800000000E+01 0. -1.
         -5    1    4    4    0  502 -0.28559895538E+02  0.28121057176E+02  0.90472367126E+02  0.99041320181E+02  0.41800000000E+01 0. -1.
        -11    1    3    3    0    0  0.19400025471E+02 -0.21010113530E+01 -0.34902909868E+01  0.19823152326E+02  0.00000000000E+00 0. -1.
         11    1    3    3    0    0 -0.10307576245E+02  0.34860900581E+02  0.18064816532E+03  0.18426960724E+03  0.00000000000E+00 0.  1.
</event>
<event>
 8    1  0.8061721E-006  0.6714306E+02  0.7561462E-02  0.1370087E+00
         -1   -1    0    0    0  501 -0.00000000000E+00  0.00000000000E+00  0.62668340295E+02  0.62668340295E+02  0.00000000000E+00 0.  1.
          1   -1    0    0  501    0  0.00000000000E+00 -0.00000000000E+00 -0.33166485834E+03  0.33166485834E+03  0.00000000000E+00 0. -1.
         23    2    1    2    0    0 -0.37928769456E+02  0.22142783592E+02 -0.11557157755E+02  0.10476251026E+03  0.94407209702E+02 0.  0.
         23    2    1    2    0    0  0.37928769456E+02 -0.22142783592E+02 -0.25743936029E+03  0.28957068837E+03  0.12508902797E+03 0.  0.
          5    1    4    4  502    0  0.20382263145E+02 -0.39160775970E+02 -0.26080206729E+03  0.26454525837E+03  0.41800000000E+01 0.  1.
         -5    1    4    4    0  502  0.17546506312E+02  0.17017992379E+02  0.33627069959E+01  0.25025430000E+02  0.41800000000E+01 0.  1.
        -11    1    3    3    0    0 -0.25645347905E+02 -0.12396409561E+02  0.35242713231E+02  0.45314497405E+02  0.00000000000E+00 0.  1.
         11    1    3    3    0    0 -0.12283421551E+02  0.34539193153E+02 -0.46799870986E+02  0.59448012859E+02  0.00000000000E+00 0. -1.
</event>
<event>
 8    1  0.8061721E-006  0.9315658E+02  0.7561462E-02  0.1295383E+00
          2   -1    0    0  501    0  0.00000000000E+00  0.00000000000E+00  0.13522510279E+04  0.13522510279E+04  0.00000000000E+00 0. -1.
         -2   -1    0    0    0  501 -0.00000000000E+00 -0.00000000000E+00 -0.11558531423E+02  0.11558531423E+02  0.00000000000E+00 0.  1.
         23    2    1    2    0    0 -0.31138340929E+02 -0.45464848778E+02  0.39557957768E+03  0.40886307400E+03  0.87459489242E+02 0.  0.
         23    2    1    2    0    0  0.31138340929E+02  0.45464848778E+02  0.94511291876E+03  0.95494648528E+03  0.12509081417E+03 0.  0.
          5    1    4    4  502    0  0.19069610870E+02 -0.14673999297E+02  0.34548815820E+02  0.42309211629E+02  0.41800000000E+01 0. -1.
         -5    1    4    4    0  502  0.12068730058E+02  0.60138848075E+02  0.91056410294E+03  0.91263727365E+03  0.41800000000E+01 0. -1.
        -11    1    3    3    0    0  0.25347197673E+02  0.35868558144E+01  0.14905198261E+03  0.15123438592E+03  0.00000000000E+00 0.  1.
         11    1    3    3    0    0 -0.56485538601E+02 -0.49051704592E+02  0.24652759507E+03  0.25762868808E+03  0.00000000000E+00 0. -1.
</event>
<event>
 8    1  0.8061721E-006  0.1189109E+03  0.7561462E-02  0.1244905E+00
         -1   -1    0    0    0  501 -0.00000000000E+00  0.00000000000E+00  0.57699268489E+02  0.57699268489E+02  0.00000000000E+00 0.  1.
          1   -1    0    0  501    0  0.00000000000E+00 -0.00000000000E+00 -0.27907857653E+03  0.27907857653E+03  0.00000000000E+00 0. -1.
         23    2    1    2    0    0  0.55480661116E+02 -0.23159666441E+02 -0.64527976687E+02  0.12734448539E+03  0.91860134309E+02 0.  0.
         23    2    1    2    0    0 -0.55480661116E+02  0.23159666441E+02 -0.15685133135E+03  0.20943335963E+03  0.12508204536E+03 0.  0.
          5    1    4    4  502    0 -0.44803870190E+02  0.69502592877E+02 -0.13145782138E+03  0.15535967431E+03  0.41800000000E+01 0. -1.
         -5    1    4    4    0  502 -0.10676790925E+02 -0.46342926435E+02 -0.25393509969E+02  0.54073685316E+02  0.41800000000E+01 0. -1.
        -11    1    3    3    0    0  0.21112363492E+02  0.34331207230E+02 -0.11493799469E+02  0.41910274496E+02  0.00000000000E+00 0.  1.
         11    1    3    3    0    0  0.34368297624E+02 -0.57490873672E+02 -0.53034177218E+02  0.85434210889E+02  0.00000000000E+00 0. -1.
</event>
<event>
 8    1  0.8061721E-006  0.1225337E+03  0.7561462E-02  0.1238975E+00
         -1   -1    0    0    0  501 -0.00000000000E+00  0.00000000000E+00  0.11863507800E+03  0.11863507800E+03  0.00000000000E+00 0.  1.
          1   -1    0    0  501    0  0.00000000000E+00 -0.00000000000E+00 -0.14619041199E+03  0.14619041199E+03  0.00000000000E+00 0. -1.
         23    2    1    2    0    0  0.57206799458E+02 -0.58844161137E+01  0.34896591658E+02  0.11364953865E+03  0.91603500314E+02 0.  0.
         23    2    1    2    0    0 -0.57206799458E+02  0.58844161137E+01 -0.62451925652E+02  0.15117595133E+03  0.12508669388E+03 0.  0.
          5    1    4    4  502    0 -0.50263307175E+02  0.62549554121E+02 -0.39008173828E+02  0.89319408833E+02  0.41800000000E+01 0. -1.
         -5    1    4    4    0  502 -0.69434922824E+01 -0.56665138007E+02 -0.23443751823E+02  0.61856542500E+02  0.41800000000E+01 0. -1.
        -11    1    3    3    0    0  0.37114050849E+02  0.41698478258E+02  0.11736370298E+02  0.57043476816E+02  0.00000000000E+00 0.  1.
         11    1    3    3    0    0  0.20092748608E+02 -0.47582894371E+02  0.23160221360E+02  0.56606061838E+02  0.00000000000E+00 0. -1.
</event>
<event>
 8    1  0.8061721E-006  0.1253650E+03  0.7561462E-02  0.1234500E+00
          2   -1    0    0  501    0  0.00000000000E+00  0.00000000000E+00  0.99070140837E+03  0.99070140837E+03  0.00000000000E+00 0. -1.
         -2   -1    0    0    0  501 -0.00000000000E+00 -0.00000000000E+00 -0.48839382721E+02  0.48839382721E+02  0.00000000000E+00 0.  1.
         23    2    1    2    0    0  0.65670384143E+02  0.60346970183E+02  0.49810111237E+02  0.13435713438E+03  0.87272196107E+02 0.  0.
         23    2    1    2    0    0 -0.65670384143E+02 -0.60346970183E+02  0.89205191441E+03  0.90518365671E+03  0.12508588333E+03 0.  0.
          5    1    4    4  502    0 -0.93216308734E+02 -0.57105722867E+02  0.48583325037E+03  0.49799775438E+03  0.41800000000E+01 0. -1.
         -5    1    4    4    0  502  0.27545924592E+02 -0.32412473160E+01  0.40621866403E+03  0.40718590233E+03  0.41800000000E+01 0. -1.
        -11    1    3    3    0    0  0.60128964245E+02  0.80172694890E+01  0.54471752417E+02  0.81528772606E+02  0.00000000000E+00 0. -1.
         11    1    3    3    0    0  0.55414198980E+01  0.52329700694E+02 -0.46616411799E+01  0.52828361774E+02  0.00000000000E+00 0.  1.
</event>
<event>
 8    1  0.8061721E-006  0.9911392E+02  0.7561462E-02  0.1282170E+00
         -2   -1    0    0    0  501 -0.00000000000E+00  0.00000000000E+00  0.14227934632E+02  0.14227934632E+02  0.00000000000E+00 0.  1.
          2   -1    0    0  501    0  0.00000000000E+00 -0.00000000000E+00 -0.12651114284E+04  0.12651114284E+04  0.00000000000E+00 0. -1.
         23    2    1    2    0    0  0.54877200400E+02 -0.20874945670E+02 -0.30080044166E+03  0.31925986530E+03  0.89435369982E+02 0.  0.
         23    2    1    2    0    0 -0.54877200400E+02  0.20874945670E+02 -0.95008305209E+03  0.96007949772E+03  0.12509022981E+03 0.  0.
          5    1    4    4  502    0 -0.58551310195E+02  0.41060580134E+02 -0.26026247808E+03  0.26994121038E+03  0.41800000000E+01 0.  1.
         -5    1    4    4    0  502  0.36741097950E+01 -0.20185634464E+02 -0.68982057401E+03  0.69013828734E+03  0.41800000000E+01 0.  1.
        -11    1    3    3    0    0  0.33047872345E+02 -0.55574572296E+02 -0.20774583373E+03  0.21757533496E+03  0.00000000000E+00 0. -1.
         11    1    3    3    0    0  0.21829328056E+02  0.34699626626E+02 -0.93054607936E+02  0.10168453033E+03  0.00000000000E+00 0.  1.
</event>
<event>
 8    1  0.8061721E-006  0.9418571E+02  0.7561462E-02  0.1293021E+00
         -1   -1    0    0    0  501 -0.00000000000E+00  0.00000000000E+00  0.11163089159E+03  0.11163089159E+03  0.00000000000E+00 0.  1.
          1   -1    0    0  501    0  0.00000000000E+00 -0.00000000000E+00 -0.97537335462E+02  0.97537335462E+02  0.00000000000E+00 0. -1.
         23    2    1    2    0    0 -0.17232753047E+02 -0.26770996258E+02  0.36620351645E+02  0.79465082418E+02  0.62928492360E+02 0.  0.
         23    2    1    2    0    0  0.17232753047E+02  0.26770996258E+02 -0.22526795515E+02  0.12970314464E+03  0.12370042520E+03 0.  0.
          5    1    4    4  502    0  0.49680213641E+02  0.60980142341E+02 -0.39879050283E+01  0.78867465877E+02  0.41800000000E+01 0. -1.
         -5    1    4    4    0  502 -0.32447460593E+02 -0.34209146083E+02 -0.18538890486E+02  0.50835678761E+02  0.41800000000E+01 0.  1.
        -11    1    3    3    0    0  0.14835677162E+02  0.63775844422E+01 -0.54447943303E+01  0.17041616281E+02  0.00000000000E+00 0. -1.
         11    1    3    3    0    0 -0.32068430209E+02 -0.33148580701E+02  0.42065145976E+02  0.62423466137E+02  0.00000000000E+00 0.  1.
</event>
<event>
 8    1  0.8061721E-006  0.1059589E+03  0.7561462E-02  0.1268242E+00
         -1   -1    0    0    0  501 -0.00000000000E+00  0.00000000000E+00  0.28051359601E+03  0.28051359601E+03  0.00000000000E+00 0.  1.
          1   -1    0    0  501    0  0.00000000000E+00 -0.00000000000E+00 -0.59358855541E+02  0.59358855541E+02  0.00000000000E+00 0. -1.
         23    2    1    2    0    0  0.67412069101E+02  0.20871549305E+02  0.86171122869E+02  0.14277416239E+03  0.89325194650E+02 0.  0.
         23    2    1    2    0    0 -0.67412069101E+02 -0.20871549305E+02  0.13498361760E+03  0.19709828916E+03  0.12508856838E+03 0.  0.
          5    1    4    4  502    0 -0.97347778832E+02  0.92349378338E+01  0.74123044977E+02  0.12277447747E+03  0.41800000000E+01 0.  1.
         -5    1    4    4    0  502  0.29935709731E+02 -0.30106487139E+02  0.60860572626E+02  0.74323811698E+02  0.41800000000E+01 0.  1.
        -11    1    3    3    0    0  0.53391985728E+02  0.11792003075E+02  0.10452172923E+03  0.11795993963E+03  0.00000000000E+00 0.  1.
         11    1    3    3    0    0  0.14020083374E+02  0.90795462301E+01 -0.18350606359E+02  0.24814222762E+02  0.00000000000E+00 0. -1.
</event>
<event>
 8    1  0.8061721E-006  0.9864364E+02  0.7561462E-02  0.1283174E+00
         -4   -1    0    0    0  501 -0.00000000000E+00  0.00000000000E+00  0.11699243489E+03  0.11699243489E+03  0.00000000000E+00 0.  1.
          4   -1    0    0  501    0  0.00000000000E+00 -0.00000000000E+00 -0.14688594650E+03  0.14688594650E+03  0.00000000000E+00 0. -1.
         23    2    1    2    0    0  0.12008040781E+02 -0.22054289213E+02  0.53097197990E+02  0.11167530572E+03  0.94981454805E+02 0.  0.
         23    2    1    2    0    0 -0.12008040781E+02  0.22054289213E+02 -0.82990709603E+02  0.15220307567E+03  0.12509090154E+03 0.  0.
          5    1    4    4  502    0  0.36852091129E+02  0.53865858592E+02 -0.25438904617E+02  0.70172769723E+02  0.41800000000E+01 0.  1.
         -5    1    4    4    0  502 -0.48860131910E+02 -0.31811569379E+02 -0.57551804986E+02  0.82030305947E+02  0.41800000000E+01 0.  1.
        -11    1    3    3    0    0  0.35064825909E+02  0.75926689730E+01  0.63296739074E+02  0.72757596274E+02  0.00000000000E+00 0.  1.
         11    1    3    3    0    0 -0.23056785128E+02 -0.29646958186E+02 -0.10199541084E+02  0.38917709445E+02  0.00000000000E+00 0. -1.
</event>
<event>
 8    1  0.8061721E-006  0.8901502E+02  0.7561462E-02  0.1305255E+00
          1   -1    0    0  501    0  0.00000000000E+00  0.00000000000E+00  0.22435892665E+03  0.22435892665E+03  0.00000000000E+00 0. -1.
         -1   -1    0    0    0  501 -0.00000000000E+00 -0.00000000000E+00 -0.79436031483E+02  0.79436031483E+02  0.00000000000E+00 0.  1.
         23    2    1    2    0    0  0.56441526495E+02  0.40567184351E+02  0.38719095135E+02  0.12562934492E+03  0.97222536575E+02 0.  0.
         23    2    1    2    0    0 -0.56441526495E+02 -0.40567184351E+02  0.10620380004E+03  0.17816561322E+03  0.12502958142E+03 0.  0.
          5    1    4    4  502    0 -0.17998780623E+02 -0.18345514686E+02 -0.27110158238E+02  0.37589188508E+02  0.41800000000E+01 0. -1.
         -5    1    4    4    0  502 -0.38442745873E+02 -0.22221669665E+02  0.13331395827E+03  0.14057642471E+03  0.41800000000E+01 0. -1.
        -11    1    3    3    0    0 -0.16547940399E+02  0.29144137594E+02  0.39428937350E+02  0.51748006610E+02  0.00000000000E+00 0. -1.
         11    1    3    3    0    0  0.72989466894E+02  0.11423046757E+02 -0.70984221506E+00  0.73881338311E+02  0.00000000000E+00 0.  1.
</event>
<event>
 8    1  0.8061721E-006  0.9099705E+02  0.7561462E-02  0.1300455E+00
          1   -1    0    0  501    0  0.00000000000E+00  0.00000000000E+00  0.39463593218E+02  0.39463593218E+02  0.00000000000E+00 0. -1.
         -1   -1    0    0    0  501 -0.00000000000E+00 -0.00000000000E+00 -0.34802209884E+03  0.34802209884E+03  0.00000000000E+00 0.  1.
         23    2    1    2    0    0  0.20391391230E+01  0.24886770226E+02 -0.19651331379E+03  0.21770964039E+03  0.90313319082E+02 0.  0.
         23    2    1    2    0    0 -0.20391391230E+01 -0.24886770226E+02 -0.11204519184E+03  0.16977605167E+03  0.12508506420E+03 0.  0.
          5    1    4    4  502    0 -0.40600163614E+02 -0.46219009227E+02 -0.10921551525E+03  0.12541958089E+03  0.41800000000E+01 0.  1.
         -5    1    4    4    0  502  0.38561024491E+02  0.21332239001E+02 -0.28296765902E+01  0.44356470781E+02  0.41800000000E+01 0.  1.
        -11    1    3    3    0    0 -0.29017509684E+02  0.33024940749E+02 -0.45297126866E+02  0.63122834870E+02  0.00000000000E+00 0. -1.
         11    1    3    3    0    0  0.31056648807E+02 -0.81381705237E+01 -0.15121618692E+03  0.15458680552E+03  0.00000000000E+00 0.  1.
</event>
<event>
 8    1  0.8061721E-006  0.1300952E+03  0.7561462E-02  0.1227315E+00
          1   -1    0    0  501    0  0.00000000000E+00  0.00000000000E+00  0.32911807338E+03  0.32911807338E+03  0.00000000000E+00 0. -1.
         -1   -1    0    0    0  501 -0.00000000000E+00 -0.00000000000E+00 -0.52894089233E+02  0.52894089233E+02  0.00000000000E+00 0.  1.
         23    2    1    2    0    0 -0.63965466864E+02  0.40864212184E+02  0.11604395190E+03  0.16506365179E+03  0.89545215290E+02 0.  0.
         23    2    1    2    0    0  0.63965466864E+02 -0.40864212184E+02  0.16018003224E+03  0.21694851082E+03  0.12509016280E+03 0.  0.
          5    1    4    4  502    0 -0.15194756240E+02 -0.60807547323E+02  0.86493835301E+02  0.10689758825E+03  0.41800000000E+01 0.  1.
         -5    1    4    4    0  502  0.79160223104E+02  0.19943335139E+02  0.73686196939E+02  0.11005092257E+03  0.41800000000E+01 0.  1.
        -11    1    3    3    0    0  0.14345101406E+02 -0.13977594833E+02  0.10347738446E+02  0.22543974419E+02  0.00000000000E+00 0.  1.
         11    1    3    3    0    0 -0.78310568270E+02  0.54841807017E+02  0.10569621346E+03  0.14251967737E+03  0.00000000000E+00 0. -1.
</event>
<event>
 8    1  0.8061721E-006  0.1313753E+03  0.7561462E-02  0.1225429E+00
          1   -1    0    0  501    0  0.00000000000E+00  0.00000000000E+00  0.20186806420E+02  0.20186806420E+02  0.00000000000E+00 0. -1.
         -1   -1    0    0    0  501 -0.00000000000E+00 -0.00000000000E+00 -0.87358666909E+03  0.87358666909E+03  0.00000000000E+00 0.  1.
         23    2    1    2    0    0  0.75490370603E+02  0.73677946952E+01 -0.42799733069E+03  0.44391944567E+03  0.90164730965E+02 0.  0.
         23    2    1    2    0    0 -0.75490370603E+02 -0.73677946952E+01 -0.42540253198E+03  0.44985402984E+03  0.12509297941E+03 0.  0.
          5    1    4    4  502    0  0.32405298677E+02 -0.18034230168E+02 -0.12526785800E+03  0.13070901074E+03  0.41800000000E+01 0. -1.
         -5    1    4    4    0  502 -0.10789566928E+03  0.10666435473E+02 -0.30013467398E+03  0.31914501910E+03  0.41800000000E+01 0. -1.
        -11    1    3    3    0    0 -0.16200563529E+02  0.18469016726E+02 -0.11416703946E+03  0.11678045956E+03  0.00000000000E+00 0. -1.
         11    1    3    3    0    0  0.91690934132E+02 -0.11101222031E+02 -0.31383029123E+03  0.32713898610E+03  0.00000000000E+00 0.  1.
</event>
<event>
 8    1  0.8061721E-006  0.1116465E+03  0.7561462E-02  0.1257551E+00
          1   -1    0    0  501    0  0.00000000000E+00  0.00000000000E+00  0.61873780679E+03  0.61873780679E+03  0.00000000000E+00 0. -1.
         -1   -1    0    0    0  501 -0.00000000000E+00 -0.00000000000E+00 -0.28856110801E+02  0.28856110801E+02  0.00000000000E+00 0.  1.
         23    2    1    2    0    0 -0.48421689129E+02 -0.60433310638E+02  0.24931589327E+03  0.27660969953E+03  0.91420272482E+02 0.  0.
         23    2    1    2    0    0  0.48421689129E+02  0.60433310638E+02  0.34056580272E+03  0.37098421807E+03  0.12508948421E+03 0.  0.
          5    1    4    4  502    0 -0.23940043459E+02  0.22857413028E+02  0.23587134562E+03  0.23821912412E+03  0.41800000000E+01 0.  1.
         -5    1    4    4    0  502  0.72361732588E+02  0.37575897610E+02  0.10469445710E+03  0.13276509395E+03  0.41800000000E+01 0.  1.
        -11    1    3    3    0    0  0.93997444099E+01 -0.48300159066E+02  0.56391234635E+02  0.74841378290E+02  0.00000000000E+00 0.  1.
         11    1    3    3    0    0 -0.57821433539E+02 -0.12133151572E+02  0.19292465864E+03  0.20176832123E+03  0.00000000000E+00 0. -1.
</event>
<event>
 8    1  0.8061721E-006  0.1359886E+03  0.7561462E-02  0.1218831E+00
         -4   -1    0    0    0  501 -0.00000000000E+00  0.00000000000E+00  0.52547774449E+02  0.52547774449E+02  0.00000000000E+00 0.  1.
          4   -1    0    0  501    0  0.00000000000E+00 -0.00000000000E+00 -0.47397756766E+03  0.47397756766E+03  0.00000000000E+00 0. -1.
         23    2    1    2    0    0  0.15244102096E+02  0.87238460675E+02 -0.77977062866E+02  0.15042700316E+03  0.93300210492E+02 0.  0.
         23    2    1    2    0    0 -0.15244102096E+02 -0.87238460675E+02 -0.34345273035E+03  0.37609833895E+03  0.12508897196E+03 0.  0.
          5    1    4    4  502    0  0.38865474044E+01  0.31189989046E+02 -0.95335046658E+02  0.10046971777E+03  0.41800000000E+01 0. -1.
         -5    1    4    4    0  502 -0.19130649500E+02 -0.11842844972E+03 -0.24811768369E+03  0.27562862118E+03  0.41800000000E+01 0. -1.
        -11    1    3    3    0    0  0.48072137102E+02  0.39096754265E+02 -0.13303832280E+02  0.63375693392E+02  0.00000000000E+00 0.  1.
         11    1    3    3    0    0 -0.32828035006E+02  0.48141706409E+02 -0.64673230586E+02  0.87051309771E+02  0.00000000000E+00 0. -1.
</event>
<event>
 8    1  0.8061721E-006  0.3228312E+03  0.7561462E-02  0.1074354E+00
          1   -1    0    0  501    0  0.00000000000E+00  0.00000000000E+00  0.49241197738E+03  0.49241197738E+03  0.00000000000E+00 0. -1.
         -1   -1    0    0    0  501 -0.00000000000E+00 -0.00000000000E+00 -0.22992170282E+03  0.22992170282E+03  0.00000000000E+00 0.  1.
         23    2    1    2    0    0  0.30198360273E+03  0.61977057923E+02  0.48675497328E+02  0.32685993011E+03  0.97122900731E+02 0.  0.
         23    2    1    2    0    0 -0.30198360273E+03 -0.61977057923E+02  0.21381477723E+03  0.39547375010E+03  0.12508987182E+03 0.  0.
          5    1    4    4  502    0 -0.12255884506E+03 -0.88338285755E+02  0.91156781584E+02  0.17649746305E+03  0.41800000000E+01 0. -1.
         -5    1    4    4    0  502 -0.17942475766E+03  0.26361227832E+02  0.12265799565E+03  0.21897628705E+03  0.41800000000E+01 0. -1.
        -11    1    3    3    0    0  0.42314298250E+02  0.29170471694E+02 -0.21764881158E+02  0.55813316574E+02  0.00000000000E+00 0.  1.
         11    1    3    3    0    0  0.25966930448E+03  0.32806586229E+02  0.70440378485E+02  0.27104661353E+03  0.00000000000E+00 0. -1.
</event>
<event>
 8    1  0.8061721E-006  0.1146880E+03  0.7561462E-02  0.1252127E+00
          1   -1    0    0  501    0  0.00000000000E+00  0.00000000000E+00  0.44181755671E+02  0.44181755671E+02  0.00000000000E+00 0. -1.
         -1   -1    0    0    0  501 -0.00000000000E+00 -0.00000000000E+00 -0.33772161638E+03  0.33772161638E+03  0.00000000000E+00 0.  1.
         23    2    1    2    0    0 -0.37617592767E+02 -0.37658931971E+02 -0.11770925158E+03  0.15964796118E+03  0.93801520030E+02 0.  0.
         23    2    1    2    0    0  0.37617592767E+02  0.37658931971E+02 -0.17583060913E+03  0.22225541087E+03  0.12509111123E+03 0.  0.
          5    1    4    4  502    0  0.12084184255E+02  0.78348966576E+02 -0.69529900306E+02  0.10552946275E+03  0.41800000000E+01 0. -1.
         -5    1    4    4    0  502  0.25533408512E+02 -0.40690034605E+02 -0.10630070882E+03  0.11672594811E+03  0.41800000000E+01 0. -1.
        -11    1    3    3    0    0  0.28262527264E+02 -0.70555155105E+01 -0.12271052215E+02  0.31609009300E+02  0.00000000000E+00 0.  1.
         11    1    3    3    0    0 -0.65880120031E+02 -0.30603416461E+02 -0.10543819936E+03  0.12803895188E+03  0.00000000000E+00 0. -1.
</event>
<event>
 8    1  0.8061721E-006  0.1043579E+03  0.7561462E-02  0.1271390E+00
          2   -1    0    0  501    0  0.00000000000E+00  0.00000000000E+00  0.52814269148E+03  0.52814269148E+03  0.00000000000E+00 0. -1.
         -2   -1    0    0    0  501 -0.00000000000E+00 -0.00000000000E+00 -0.66683801500E+02  0.66683801500E+02  0.00000000000E+00 0.  1.
         23    2    1    2    0    0  0.22871406001E+01 -0.76335608880E+02  0.94368207056E+01  0.11963867247E+03  0.91607871776E+02 0.  0.
         23    2    1    2    0    0 -0.22871406001E+01  0.76335608880E+02  0.45202206928E+03  0.47518782051E+03  0.12508859840E+03 0.  0.
          5    1    4    4  502    0  0.41798314152E+01 -0.51255214813E+01  0.31844829513E+03  0.31854439413E+03  0.41800000000E+01 0. -1.
         -5    1    4    4    0  502 -0.64669720153E+01  0.81461130361E+02  0.13357377414E+03  0.15664342637E+03  0.41800000000E+01 0. -1.
        -11    1    3    3    0    0  0.46630742240E+02 -0.33529762829E+02  0.79984823445E+01  0.57988333629E+02  0.00000000000E+00 0.  1.
         11    1    3    3    0    0 -0.44343601640E+02 -0.42805846050E+02  0.14383383611E+01  0.61650338845E+02  0.00000000000E+00 0. -1.
</event>
<event>
 8    1  0.8061721E-006  0.8158356E+02  0.7561462E-02  0.1324617E+00
          2   -1    0    0  501    0  0.00000000000E+00  0.00000000000E+00  0.17437607620E+03  0.17437607620E+03  0.00000000000E+00 0. -1.
         -2   -1    0    0    0  501 -0.00000000000E+00 -0.00000000000E+00 -0.12189023389E+03  0.12189023389E+03  0.00000000000E+00 0.  1.
         23    2    1    2    0    0  0.13705872417E+02  0.38252973024E+02 -0.68384754321E+02  0.12681562714E+03  0.98765316682E+02 0.  0.
         23    2    1    2    0    0 -0.13705872417E+02 -0.38252973024E+02  0.12087059663E+03  0.16945068295E+03  0.11159163024E+03 0.  0.
          5    1    4    4  502    0 -0.23946058713E+02 -0.19058256430E+01  0.12842075585E+03  0.13071499085E+03  0.41800000000E+01 0. -1.
         -5    1    4    4    0  502  0.10240186296E+02 -0.36347147381E+02 -0.75501592291E+01  0.38735692100E+02  0.41800000000E+01 0.  1.
        -11    1    3    3    0    0  0.37986524037E+02  0.58110547262E+02 -0.65279634953E+02  0.95295553155E+02  0.00000000000E+00 0.  1.
         11    1    3    3    0    0 -0.24280651620E+02 -0.19857574238E+02 -0.31051193680E+01  0.31520073985E+02  0.00000000000E+00 0. -1.
</event>
<event>
 8    1  0.8061721E-006  0.7235956E+02  0.7561462E-02  0.1352248E+00
          2   -1    0    0  501    0  0.00000000000E+00  0.00000000000E+00  0.39609521845E+03  0.39609521845E+03  0.00000000000E+00 0. -1.
         -2   -1    0    0    0  501 -0.00000000000E+00 -0.00000000000E+00 -0.73444873675E+02  0.73444873675E+02  0.00000000000E+00 0.  1.
         23    2    1    2    0    0 -0.39386204449E+02  0.21232903921E+02 -0.18974977539E+02  0.10299758249E+03  0.90809376811E+02 0.  0.
         23    2    1    2    0    0  0.39386204449E+02 -0.21232903921E+02  0.34162532231E+03  0.36654250963E+03  0.12507374309E+03 0.  0.
          5    1    4    4  502    0  0.82450305508E+00  0.25201864698E+02  0.70129275168E+01  0.26504100473E+02  0.41800000000E+01 0.  1.
         -5    1    4    4    0  502  0.38561701394E+02 -0.46434768619E+02  0.33461239480E+03  0.34003840916E+03  0.41800000000E+01 0.  1.
        -11    1    3    3    0    0 -0.61428634130E+01  0.24494732254E+02 -0.50882146344E+02  0.56804220756E+02  0.00000000000E+00 0.  1.
         11    1    3    3    0    0 -0.33243341036E+02 -0.32618283338E+01  0.31907168805E+02  0.46193361736E+02  0.00000000000E+00 0. -1.
</event>
<event>
 8    1  0.8061721E-006  0.1176598E+03  0.7561462E-02  0.1247008E+00
         -2   -1    0    0    0  501 -0.00000000000E+00  0.00000000000E+00  0.27669397288E+02  0.27669397288E+02  0.00000000000E+00 0.  1.
          2   -1    0    0  501    0  0.00000000000E+00 -0.00000000000E+00 -0.64327594530E+03  0.64327594530E+03  0.00000000000E+00 0. -1.
         23    2    1    2    0    0 -0.34758130560E+02  0.65482618619E+02 -0.23504171180E+03  0.26354768932E+03  0.93363147342E+02 0.  0.
         23    2    1    2    0    0  0.34758130560E+02 -0.65482618619E+02 -0.38056483622E+03  0.40739765327E+03  0.12508857798E+03 0.  0.
          5    1    4    4  502    0  0.77247999211E+02 -0.41913581174E+02 -0.17189290475E+03  0.19310267935E+03  0.41800000000E+01 0.  1.
         -5    1    4    4    0  502 -0.42489868651E+02 -0.23569037445E+02 -0.20867193147E+03  0.21429497392E+03  0.41800000000E+01 0.  1.
        -11    1    3    3    0    0 -0.25421213785E+02 -0.62903147504E+01 -0.14821367040E+03  0.15050946237E+03  0.00000000000E+00 0. -1.
         11    1    3    3    0    0 -0.93369167754E+01  0.71772933369E+02 -0.86828041395E+02  0.11303822695E+03  0.00000000000E+00 0.  1.
</event>
<event>
 8    1  0.8061721E-006  0.1405582E+03  0.7561462E-02  0.1212580E+00
         -2   -1    0    0    0  501 -0.00000000000E+00  0.00000000000E+00  0.46355098028E+02  0.46355098028E+02  0.00000000000E+00 0.  1.
          2   -1    0    0  501    0  0.00000000000E+00 -0.00000000000E+00 -0.61743891331E+03  0.61743891331E+03  0.00000000000E+00 0. -1.
         23    2    1    2    0    0 -0.11187434651E+03  0.31555809206E+02 -0.15588038922E+03  0.21484682179E+03  0.91371891665E+02 0.  0.
         23    2    1    2    0    0  0.11187434651E+03 -0.31555809206E+02 -0.41520342606E+03  0.44894718955E+03  0.12509218798E+03 0.  0.
          5    1    4    4  502    0  0.11794841727E+03  0.13594830254E+02 -0.23896518513E+03  0.26686790861E+03  0.41800000000E+01 0.  1.
         -5    1    4    4    0  502 -0.60740707620E+01 -0.45150639461E+02 -0.17623824094E+03  0.18207928094E+03  0.41800000000E+01 0.  1.
        -11    1    3    3    0    0 -0.50290784390E+02  0.18691038909E+02 -0.81359441811E+01  0.54265196192E+02  0.00000000000E+00 0.  1.
         11    1    3    3    0    0 -0.61583562117E+02  0.12864770298E+02 -0.14774444504E+03  0.16058162559E+03  0.00000000000E+00 0. -1.
</event>
<event>
 8    1  0.8061721E-006  0.1447339E+03  0.7561462E-02  0.1207097E+00
          2   -1    0    0  501    0  0.00000000000E+00  0.00000000000E+00  0.27028242285E+03  0.27028242285E+03  0.00000000000E+00 0. -1.
         -2   -1    0    0    0  501 -0.00000000000E+00 -0.00000000000E+00 -0.11564900377E+03  0.11564900377E+03  0.00000000000E+00 0.  1.
         23    2    1    2    0    0 -0.11173802733E+03 -0.71908685053E+02  0.51483102684E+02  0.17630712671E+03  0.10381448516E+03 0.  0.
         23    2    1    2    0    0  0.11173802733E+03  0.71908685053E+02  0.10315031639E+03  0.20962429991E+03  0.12508442590E+03 0.  0.
          5    1    4    4  502    0  0.99054025632E+02  0.81792302359E+02  0.12691463327E+03  0.18062800795E+03  0.41800000000E+01 0. -1.
         -5    1    4    4    0  502  0.12684001699E+02 -0.98836173058E+01 -0.23764316881E+02  0.28996291952E+02  0.41800000000E+01 0. -1.
        -11    1    3    3    0    0 -0.11538089017E+03 -0.56460373606E+02  0.65142799152E+01  0.12861943650E+03  0.00000000000E+00 0.  1.
         11    1    3    3    0    0  0.36428628377E+01 -0.15448311447E+02  0.44968822769E+02  0.47687690209E+02  0.00000000000E+00 0. -1.
</event>
<event>
 7    1  0.8061721E-006  0.6806423E+02  0.7561462E-02  0.1366802E+00
         -2   -1    0    0    0  501 -0.00000000000E+00  0.00000000000E+00  0.76185640917E+01  0.76185640917E+01  0.00000000000E+00 0.  1.
          2   -1    0    0  501    0  0.00000000000E+00 -0.00000000000E+00 -0.84258440639E+03  0.84258440639E+03  0.00000000000E+00 0. -1.
         23    2    1    2    0    0 -0.25246253033E+02  0.29220499420E+01 -0.78306509245E+03  0.79172464461E+03  0.11397834094E+03 0.  0.
          5    1    3    3  502    0 -0.30687755326E+02  0.52329471196E+02 -0.55185171808E+03  0.55519177140E+03  0.41800000000E+01 0. -1.
         -5    1    3    3    0  502  0.54415022925E+01 -0.49407421254E+02 -0.23121337437E+03  0.23653287321E+03  0.41800000000E+01 0.  1.
        -11    1    1    2    0    0  0.12974223168E+02 -0.94247276806E+00 -0.16840231523E+02  0.21279382497E+02  0.00000000000E+00 0. -1.
         11    1    1    2    0    0  0.12272029866E+02 -0.19795771739E+01 -0.35060518326E+02  0.37198943373E+02  0.00000000000E+00 0.  1.
</event>
<event>
 8    1  0.8061721E-006  0.8387890E+02  0.7561462E-02  0.1318391E+00
          2   -1    0    0  501    0  0.00000000000E+00  0.00000000000E+00  0.10583182191E+03  0.10583182191E+03  0.00000000000E+00 0. -1.
         -2   -1    0    0    0  501 -0.00000000000E+00 -0.00000000000E+00 -0.23007594233E+03  0.23007594233E+03  0.00000000000E+00 0.  1.
         23    2    1    2    0    0  0.79774229414E+01  0.51966097196E+02 -0.17438512384E+03  0.20404169191E+03  0.91971332960E+02 0.  0.
         23    2    1    2    0    0 -0.79774229414E+01 -0.51966097196E+02  0.50141003422E+02  0.13186607233E+03  0.11004738195E+03 0.  0.
          5    1    4    4  502    0 -0.17013238886E+02 -0.43238571720E+01  0.75051520698E+02  0.77190343938E+02  0.41800000000E+01 0. -1.
         -5    1    4    4    0  502  0.90358159447E+01 -0.47642240024E+02 -0.24910517275E+02  0.54675728392E+02  0.41800000000E+01 0.  1.
        -11    1    3    3    0    0  0.39605089957E+02 -0.69673659920E+00 -0.10006463661E+03  0.10761960831E+03  0.00000000000E+00 0.  1.
         11    1    3    3    0    0 -0.31627667015E+02  0.52662833795E+02 -0.74320487231E+02  0.96422083604E+02  0.00000000000E+00 0. -1.
</event>
<event>
 8    1  0.8061721E-006  0.2686814E+03  0.7561462E-02  0.1102037E+00
          2   -1    0    0  501    0  0.00000000000E+00  0.00000000000E+00  0.38400741454E+04  0.38400741454E+04  0.00000000000E+00 0. -1.
         -2   -1    0    0    0  501 -0.00000000000E+00 -0.00000000000E+00 -0.23851264459E+02  0.23851264459E+02  0.00000000000E+00 0.  1.
         23    2    1    2    0    0 -0.16920312846E+03  0.18874622563E+03  0.10756386175E+04  0.11088020473E+04  0.90491481733E+02 0.  0.
         23    2    1    2    0    0  0.16920312846E+03 -0.18874622563E+03  0.27405842635E+04  0.27551233626E+04  0.12509117286E+03 0.  0.
          5    1    4    4  502    0  0.79143844283E+02 -0.15125588697E+03  0.21242948999E+04  0.21311471994E+04  0.41800000000E+01 0.  1.
         -5    1    4    4    0  502  0.90059284179E+02 -0.37490338663E+02  0.61628936361E+03  0.62397616321E+03  0.41800000000E+01 0.  1.
        -11    1    3    3    0    0 -0.98569670269E+02  0.16895609303E+03  0.76323963691E+03  0.78790664715E+03  0.00000000000E+00 0. -1.
         11    1    3    3    0    0 -0.70633458193E+02  0.19790132599E+02  0.31239898054E+03  0.32089540010E+03  0.00000000000E+00 0.  1.
</event>
<event>
 8    1  0.8061721E-006  0.1022785E+03  0.7561462E-02  0.1275576E+00
          4   -1    0    0  501    0  0.00000000000E+00  0.00000000000E+00  0.39958884605E+02  0.39958884605E+02  0.00000000000E+00 0.  1.
         -4   -1    0    0    0  501 -0.00000000000E+00 -0.00000000000E+00 -0.38213875345E+03  0.38213875345E+03  0.00000000000E+00 0. -1.
         23    2    1    2    0    0  0.13840520537E+01  0.28476097077E+02 -0.23875534561E+03  0.25729967404E+03  0.91576216897E+02 0.  0.
         23    2    1    2    0    0 -0.13840520537E+01 -0.28476097077E+02 -0.10342452323E+03  0.16479796401E+03  0.12509569629E+03 0.  0.
          5    1    4    4  502    0  0.46981176176E+02  0.86593076150E+01 -0.90360228005E+02  0.10229690967E+03  0.41800000000E+01 0. -1.
         -5    1    4    4    0  502 -0.48365228230E+02 -0.37135404692E+02 -0.13064295228E+02  0.62501054337E+02  0.41800000000E+01 0. -1.
        -11    1    3    3    0    0  0.46236933857E+02  0.12928379225E+02 -0.13221258505E+03  0.14065974793E+03  0.00000000000E+00 0. -1.
         11    1    3    3    0    0 -0.44852881803E+02  0.15547717852E+02 -0.10654276056E+03  0.11663992612E+03  0.00000000000E+00 0.  1.
</event>
<event>
 8    1  0.8061721E-006  0.9763142E+02  0.7561462E-02  0.1285357E+00
          2   -1    0    0  501    0  0.00000000000E+00  0.00000000000E+00  0.91932009699E+03  0.91932009699E+03  0.00000000000E+00 0. -1.
         -2   -1    0    0    0  501 -0.00000000000E+00 -0.00000000000E+00 -0.18175121112E+02  0.18175121112E+02  0.00000000000E+00 0.  1.
         23    2    1    2    0    0 -0.34062426354E+00  0.36200520242E+02  0.17507327249E+03  0.19983852863E+03  0.89298337583E+02 0.  0.
         23    2    1    2    0    0  0.34062426354E+00 -0.36200520242E+02  0.72607170339E+03  0.73765668947E+03  0.12508668741E+03 0.  0.
          5    1    4    4  502    0  0.37880364780E+02 -0.56240923877E+02  0.23211821674E+03  0.24185595403E+03  0.41800000000E+01 0.  1.
         -5    1    4    4    0  502 -0.37539740516E+02  0.20040403635E+02  0.49395348664E+03  0.49580073544E+03  0.41800000000E+01 0.  1.
        -11    1    3    3    0    0 -0.38317879621E+02  0.20663876211E+02  0.41653740093E+02  0.60251885800E+02  0.00000000000E+00 0.  1.
         11    1    3    3    0    0  0.37977255358E+02  0.15536644031E+02  0.13341953240E+03  0.13958664283E+03  0.00000000000E+00 0. -1.
</event>
<event>
 8    1  0.8061721E-006  0.1207771E+03  0.7561462E-02  0.1241821E+00
         -2   -1    0    0    0  501 -0.00000000000E+00  0.00000000000E+00  0.93621228067E+02  0.93621228067E+02  0.00000000000E+00 0.  1.
          2   -1    0    0  501    0  0.00000000000E+00 -0.00000000000E+00 -0.16625718249E+03  0.16625718249E+03  0.00000000000E+00 0. -1.
         23    2    1    2    0    0 -0.11989749791E+02  0.54975822151E+02 -0.33163578163E+01  0.10619018114E+03  0.89995895571E+02 0.  0.
         23    2    1    2    0    0  0.11989749791E+02 -0.54975822151E+02 -0.69319596610E+02  0.15368822942E+03  0.12509504494E+03 0.  0.
          5    1    4    4  502    0  0.18595066308E+02 -0.94027058775E+02 -0.38693321884E+02  0.10344810212E+03  0.41800000000E+01 0.  1.
         -5    1    4    4    0  502 -0.66053165180E+01  0.39051236625E+02 -0.30626274726E+02  0.50240127307E+02  0.41800000000E+01 0.  1.
        -11    1    3    3    0    0 -0.48867831599E+02  0.14371174051E+02  0.27039677203E+01  0.51008891874E+02  0.00000000000E+00 0.  1.
         11    1    3    3    0    0  0.36878081808E+02  0.40604648100E+02 -0.60203255366E+01  0.55181289263E+02  0.00000000000E+00 0. -1.
</event>
<event>
 8    1  0.8061721E-006  0.2666828E+03  0.7561462E-02  0.1103193E+00
         -1   -1    0    0    0  501 -0.00000000000E+00  0.00000000000E+00  0.29682362235E+03  0.29682362235E+03  0.00000000000E+00 0.  1.
          1   -1    0    0  501    0  0.00000000000E+00 -0.00000000000E+00 -0.33129354775E+03  0.33129354775E+03  0.00000000000E+00 0. -1.
         23    2    1    2    0    0  0.23424220333E+03 -0.91758505649E+02  0.13494971747E+03  0.30003238637E+03  0.92298285159E+02 0.  0.
         23    2    1    2    0    0 -0.23424220333E+03  0.91758505649E+02 -0.16941964287E+03  0.32808478374E+03  0.12509027439E+03 0.  0.
          5    1    4    4  502    0 -0.39221103412E+02 -0.29448085536E+02 -0.45973615187E+02  0.67353770407E+02  0.41800000000E+01 0.  1.
         -5    1    4    4    0  502 -0.19502109992E+03  0.12120659119E+03 -0.12344602768E+03  0.26073101333E+03  0.41800000000E+01 0.  1.
        -11    1    3    3    0    0  0.37441216082E+02 -0.30737556099E+02  0.67789525099E+02  0.83319035819E+02  0.00000000000E+00 0.  1.
         11    1    3    3    0    0  0.19680098725E+03 -0.61020949550E+02  0.67160192371E+02  0.21671335055E+03  0.00000000000E+00 0. -1.
</event>
<event>
 8    1  0.8061721E-006  0.9241610E+02  0.7561462E-02  0.1297104E+00
          1   -1    0    0  501    0  0.00000000000E+00  0.00000000000E+00  0.13538270499E+03  0.13538270499E+03  0.00000000000E+00 0. -1.
         -1   -1    0    0    0  501 -0.00000000000E+00 -0.00000000000E+00 -0.11672742830E+03  0.11672742830E+03  0.00000000000E+00 0.  1.
         23    2    1    2    0    0 -0.83571091593E+01 -0.43847212233E+02 -0.48334477542E+02  0.10334156576E+03  0.79692146413E+02 0.  0.
         23    2    1    2    0    0  0.83571091593E+01  0.43847212233E+02  0.66989754233E+02  0.14876856753E+03  0.12510811412E+03 0.  0.
          5    1    4    4  502    0  0.20126379341E+02 -0.41598360173E+02  0.25869887399E+02  0.53124553537E+02  0.41800000000E+01 0.  1.
         -5    1    4    4    0  502 -0.11769270182E+02  0.85445572406E+02  0.41119866834E+02  0.95644013994E+02  0.41800000000E+01 0.  1.
        -11    1    3    3    0    0  0.90215051811E+01 -0.24313055410E+02 -0.66584552962E+02  0.71456384685E+02  0.00000000000E+00 0.  1.
         11    1    3    3    0    0 -0.17378614340E+02 -0.19534156823E+02  0.18250075420E+02  0.31885181072E+02  0.00000000000E+00 0. -1.
</event>
<event>
 8    1  0.8061721E-006  0.8509635E+02  0.7561462E-02  0.1315181E+00
         -3   -1    0    0    0  501 -0.00000000000E+00  0.00000000000E+00  0.71295529367E+03  0.71295529367E+03  0.00000000000E+00 0.  1.
          3   -1    0    0  501    0  0.00000000000E+00 -0.00000000000E+00 -0.26589638628E+02  0.26589638628E+02  0.00000000000E+00 0. -1.
         23    2    1    2    0    0  0.36001052629E+02  0.45064477798E+02  0.52060951725E+03  0.53236640753E+03  0.95146410642E+02 0.  0.
         23    2    1    2    0    0 -0.36001052629E+02 -0.45064477798E+02  0.16575613778E+03  0.20717852477E+03  0.11009523587E+03 0.  0.
          5    1    4    4  502    0 -0.32732912969E+02 -0.40119083740E+02  0.12081876672E+02  0.53333184937E+02  0.41800000000E+01 0. -1.
         -5    1    4    4    0  502 -0.32681396593E+01 -0.49453940576E+01  0.15367426111E+03  0.15384533983E+03  0.41800000000E+01 0.  1.
        -11    1    3    3    0    0 -0.17385898222E+02  0.54119294763E+02  0.24801508703E+03  0.25444577206E+03  0.00000000000E+00 0.  1.
         11    1    3    3    0    0  0.53386950850E+02 -0.90548169656E+01  0.27259443022E+03  0.27792063547E+03  0.00000000000E+00 0. -1.
</event>
<event>
 8    1  0.8061721E-006  0.1156184E+03  0.7561462E-02  0.1250506E+00
         -1   -1    0    0    0  501 -0.00000000000E+00  0.00000000000E+00  0.84900693263E+03  0.84900693263E+03  0.00000000000E+00 0.  1.
          1   -1    0    0  501    0  0.00000000000E+00 -0.00000000000E+00 -0.17511762287E+02  0.17511762287E+02  0.00000000000E+00 0. -1.
         23    2    1    2    0    0 -0.50844455059E+02  0.39789281277E+01  0.43848330841E+03  0.45093691673E+03  0.92062482257E+02 0.  0.
         23    2    1    2    0    0  0.50844455059E+02 -0.39789281277E+01  0.39301186193E+03  0.41558177818E+03  0.12509556451E+03 0.  0.
          5    1    4    4  502    0  0.67422082019E+02  0.41008893510E+02  0.30713729967E+03  0.31714075699E+03  0.41800000000E+01 0.  1.
         -5    1    4    4    0  502 -0.16577626960E+02 -0.44987821638E+02  0.85874562259E+02  0.98441021199E+02  0.41800000000E+01 0.  1.
        -11    1    3    3    0    0 -0.70376143036E+02  0.25655670546E+02  0.28338400789E+03  0.29311688943E+03  0.00000000000E+00 0.  1.
         11    1    3    3    0    0  0.19531687976E+02 -0.21676742418E+02  0.15509930051E+03  0.15782002730E+03  0.00000000000E+00 0. -1.
</event>
<event>
 8    1  0.8061721E-006  0.1351237E+03  0.7561462E-02  0.1220045E+00
         -2   -1    0    0    0  501 -0.00000000000E+00  0.00000000000E+00  0.67247889963E+02  0.67247889963E+02  0.00000000000E+00 0.  1.
          2   -1    0    0  501    0  0.00000000000E+00 -0.00000000000E+00 -0.54513391476E+03  0.54513391476E+03  0.00000000000E+00 0. -1.
         23    2    1    2    0    0  0.10128787340E+03 -0.21111704384E+02 -0.36517629822E+02  0.14210512955E+03  0.90307215643E+02 0.  0.
         23    2    1    2    0    0 -0.10128787340E+03  0.21111704384E+02 -0.44136839497E+03  0.47027667517E+03  0.12509657777E+03 0.  0.
          5    1    4    4  502    0 -0.21171785395E+02  0.65495225181E+02 -0.15654387921E+03  0.17105942691E+03  0.41800000000E+01 0. -1.
         -5    1    4    4    0  502 -0.80116088001E+02 -0.44383520797E+02 -0.28482451577E+03  0.29921724826E+03  0.41800000000E+01 0. -1.
        -11    1    3    3    0    0  0.31525906284E+02 -0.24247327420E+02 -0.56842578982E+02  0.69375027491E+02  0.00000000000E+00 0. -1.
         11    1    3    3    0    0  0.69761967111E+02  0.31356230359E+01  0.20324949159E+02  0.72730102058E+02  0.00000000000E+00 0.  1.
</event>
<event>
 8    1  0.8061721E-006  0.8464317E+02  0.7561462E-02  0.1316368E+00
         -4   -1    0    0    0  501 -0.00000000000E+00  0.00000000000E+00  0.25226413024E+03  0.25226413024E+03  0.00000000000E+00 0.  1.
          4   -1    0    0  501    0  0.00000000000E+00 -0.00000000000E+00 -0.53969874527E+02  0.53969874527E+02  0.00000000000E+00 0. -1.
         23    2    1    2    0    0  0.12586458091E+02  0.18062999925E+02  0.13375278476E+03  0.16376407054E+03  0.91892178530E+02 0.  0.
         23    2    1    2    0    0 -0.12586458091E+02 -0.18062999925E+02  0.64541470954E+02  0.14246993423E+03  0.12508952711E+03 0.  0.
          5    1    4    4  502    0 -0.50483232176E+02 -0.33273550395E+02 -0.59496289172E+01  0.60897917626E+02  0.41800000000E+01 0. -1.
         -5    1    4    4    0  502  0.37896774086E+02  0.15210550470E+02  0.70491099872E+02  0.81572016604E+02  0.41800000000E+01 0. -1.
        -11    1    3    3    0    0  0.26929489453E+02  0.35814380912E+02  0.22399070535E+02  0.50095764723E+02  0.00000000000E+00 0. -1.
         11    1    3    3    0    0 -0.14343031362E+02 -0.17751380987E+02  0.11135371422E+03  0.11366830582E+03  0.00000000000E+00 0.  1.
</event>
<event>
 8    1  0.8061721E-006  0.1327209E+03  0.7561462E-02  0.1223473E+00
          3   -1    0    0  501    0  0.00000000000E+00  0.00000000000E+00  0.16160207101E+03  0.16160207101E+03  0.00000000000E+00 0. -1.
         -3   -1    0    0    0  501 -0.00000000000E+00 -0.00000000000E+00 -0.12400706909E+03  0.12400706909E+03  0.00000000000E+00 0.  1.
         23    2    1    2    0    0 -0.80878424370E+02 -0.47953656240E+01 -0.82694443223E+01  0.13111789895E+03  0.10275799071E+03 0.  0.
         23    2    1    2    0    0  0.80878424370E+02  0.47953656240E+01  0.45864446240E+02  0.15449124115E+03  0.12328698676E+03 0.  0.
          5    1    4    4  502    0 -0.13599662332E+02 -0.30531796162E+02  0.41491682055E+02  0.53443179847E+02  0.41800000000E+01 0. -1.
         -5    1    4    4    0  502  0.94478086702E+02  0.35327161786E+02  0.43727641845E+01  0.10104806130E+03  0.41800000000E+01 0.  1.
        -11    1    3    3    0    0  0.22302740108E+02  0.13418118882E+02 -0.31303608647E+01  0.26215592494E+02  0.00000000000E+00 0.  1.
         11    1    3    3    0    0 -0.10318116448E+03 -0.18213484506E+02 -0.51390834576E+01  0.10490230646E+03  0.00000000000E+00 0. -1.
</event>
<event>
 8    1  0.8961646E-006  0.9944462E+02  0.7561462E-02  0.1281468E+00
         -1   -1    0    0    0  501 -0.00000000000E+00  0.00000000000E+00  0.32383091132E+02  0.32383091132E+02  0.00000000000E+00 0.  1.
          1   -1    0    0  501    0  0.00000000000E+00 -0.00000000000E+00 -0.44254995933E+03  0.44254995933E+03  0.00000000000E+00 0. -1.
         23    2    1    2    0    0 -0.49813719694E+02 -0.49916214866E+01 -0.16825484953E+03  0.19803006636E+03  0.91650912918E+02 0.  0.
         23    2    1    2    0    0  0.49813719694E+02  0.49916214866E+01 -0.24191201866E+03  0.27690298409E+03  0.12509002707E+03 0.  0.
          5    1    4    4  502    0  0.49638173771E+02  0.51961479632E+02 -0.20421961328E+03  0.21653421556E+03  0.41800000000E+01 0.  1.
         -5    1    4    4    0  502  0.17554592304E+00 -0.46969858145E+02 -0.37692405386E+02  0.60368768534E+02  0.41800000000E+01 0.  1.
        -11    1    3    3    0    0 -0.54944276716E+02  0.16727760290E+02 -0.45527582864E+02  0.73290192452E+02  0.00000000000E+00 0.  1.
         11    1    3    3    0    0  0.51305570227E+01 -0.21719381776E+02 -0.12272726667E+03  0.12473987391E+03  0.00000000000E+00 0. -1.
</event>
<event>
 8    1  0.8061721E-006  0.7924942E+02  0.7561462E-02  0.1331195E+00
         -1   -1    0    0    0  501 -0.00000000000E+00  0.00000000000E+00  0.19303778779E+02  0.19303778779E+02  0.00000000000E+00 0. -1.
          1   -1    0    0  501    0  0.00000000000E+00 -0.00000000000E+00 -0.11004474019E+04  0.11004474019E+04  0.00000000000E+00 0.  1.
         23    2    1    2    0    0  0.45004357981E+02  0.25812646261E+02 -0.18227415660E+03  0.21073781746E+03  0.92167644001E+02 0.  0.
         23    2    1    2    0    0 -0.45004357981E+02 -0.25812646261E+02 -0.89886946648E+03  0.90901336317E+03  0.12508913508E+03 0.  0.
          5    1    4    4  502    0 -0.37311152183E+02 -0.22455786405E+02 -0.89856727245E+03  0.89963159123E+03  0.41800000000E+01 0.  1.
         -5    1    4    4    0  502 -0.76932057980E+01 -0.33568598563E+01 -0.30219402773E+00  0.93817719422E+01  0.41800000000E+01 0.  1.
        -11    1    3    3    0    0  0.53078715331E+02  0.54199580143E+02 -0.12277709444E+03  0.14432310774E+03  0.00000000000E+00 0.  1.
         11    1    3    3    0    0 -0.80743573493E+01 -0.28386933882E+02 -0.59497062162E+02  0.66414709724E+02  0.00000000000E+00 0. -1.
</event>
<event>
 8    1  0.8061721E-006  0.9731885E+02  0.7561462E-02  0.1286037E+00
          1   -1    0    0  501    0  0.00000000000E+00  0.00000000000E+00  0.59210966389E+03  0.59210966389E+03  0.00000000000E+00 0. -1.
         -1   -1    0    0    0  501 -0.00000000000E+00 -0.00000000000E+00 -0.22788972008E+02  0.22788972008E+02  0.00000000000E+00 0.  1.
         23    2    1    2    0    0 -0.20038030549E+02 -0.34908710275E+02  0.20356083764E+03  0.22624941999E+03  0.90175632556E+02 0.  0.
         23    2    1    2    0    0  0.20038030549E+02  0.34908710275E+02  0.36575985424E+03  0.38864921590E+03  0.12509117205E+03 0.  0.
          5    1    4    4  502    0 -0.33724778860E+02  0.28714857848E+02  0.30045729855E+03  0.30373337719E+03  0.41800000000E+01 0.  1.
         -5    1    4    4    0  502  0.53762809409E+02  0.61938524276E+01  0.65302555697E+02  0.84915838711E+02  0.41800000000E+01 0.  1.
        -11    1    3    3    0    0  0.33368101172E+02 -0.26451467605E+01  0.98787300666E+02  0.10430415979E+03  0.00000000000E+00 0.  1.
         11    1    3    3    0    0 -0.53406131721E+02 -0.32263563515E+02  0.10477353697E+03  0.12194526020E+03  0.00000000000E+00 0. -1.
</event>
<event>
 8    1  0.8061721E-006  0.9561449E+02  0.7561462E-02  0.1289798E+00
         -1   -1    0    0    0  501 -0.00000000000E+00  0.00000000000E+00  0.33359982566E+03  0.33359982566E+03  0.00000000000E+00 0.  1.
          1   -1    0    0  501    0  0.00000000000E+00 -0.00000000000E+00 -0.44452018385E+02  0.44452018385E+02  0.00000000000E+00 0. -1.
         23    2    1    2    0    0  0.35245825856E+02 -0.10262076310E+02  0.18938244214E+03  0.21386032835E+03  0.92319836426E+02 0.  0.
         23    2    1    2    0    0 -0.35245825856E+02  0.10262076310E+02  0.99765365134E+02  0.16419151570E+03  0.12513251894E+03 0.  0.
          5    1    4    4  502    0 -0.58597189145E+02 -0.12497034169E+02  0.96819219133E+00  0.60068429602E+02  0.41800000000E+01 0. -1.
         -5    1    4    4    0  502  0.23351363289E+02  0.22759110479E+02  0.98797172942E+02  0.10412308610E+03  0.41800000000E+01 0. -1.
        -11    1    3    3    0    0 -0.28930387810E+02  0.10601088027E+02  0.74568135862E+02  0.80683066948E+02  0.00000000000E+00 0. -1.
         11    1    3    3    0    0  0.64176213666E+02 -0.20863164337E+02  0.11481430628E+03  0.13317726140E+03  0.00000000000E+00 0.  1.
</event>
<event>
 8    1  0.8061721E-006  0.8043852E+02  0.7561462E-02  0.1327812E+00
         -1   -1    0    0    0  501 -0.00000000000E+00  0.00000000000E+00  0.14780374397E+02  0.14780374397E+02  0.00000000000E+00 0.  1.
          1   -1    0    0  501    0  0.00000000000E+00 -0.00000000000E+00 -0.85757669479E+03  0.85757669479E+03  0.00000000000E+00 0. -1.
         23    2    1    2    0    0 -0.19753663777E+02 -0.96488859247E+01 -0.28085810876E+03  0.29624465187E+03  0.91631371656E+02 0.  0.
         23    2    1    2    0    0  0.19753663777E+02  0.96488859247E+01 -0.56193821163E+03  0.57611241732E+03  0.12509058903E+03 0.  0.
          5    1    4    4  502    0  0.37019105301E+02 -0.11534787835E+02 -0.53837859627E+03  0.53978926518E+03  0.41800000000E+01 0.  1.
         -5    1    4    4    0  502 -0.17265441524E+02  0.21183673760E+02 -0.23559615366E+02  0.36323152137E+02  0.41800000000E+01 0.  1.
        -11    1    3    3    0    0 -0.52368191086E+02  0.13688252289E+02 -0.16158685970E+03  0.17041158680E+03  0.00000000000E+00 0. -1.
         11    1    3    3    0    0  0.32614527310E+02 -0.23337138214E+02 -0.11927124906E+03  0.12583306507E+03  0.00000000000E+00 0.  1.
</event>
<event>
 8    1  0.8061721E-006  0.1317983E+03  0.7561462E-02  0.1224812E+00
         -1   -1    0    0    0  501 -0.00000000000E+00  0.00000000000E+00  0.39173645576E+03  0.39173645576E+03  0.00000000000E+00 0.  1.
          1   -1    0    0  501    0  0.00000000000E+00 -0.00000000000E+00 -0.57794455636E+02  0.57794455636E+02  0.00000000000E+00 0. -1.
         23    2    1    2    0    0  0.92713057378E+02  0.31833120242E+02  0.20447965730E+03  0.24455752601E+03  0.91582720680E+02 0.  0.
         23    2    1    2    0    0 -0.92713057378E+02 -0.31833120242E+02  0.12946234282E+03  0.20497338538E+03  0.12507810341E+03 0.  0.
          5    1    4    4  502    0 -0.21657294910E+01 -0.62347735197E+02  0.61008169056E+02  0.87357882071E+02  0.41800000000E+01 0. -1.
         -5    1    4    4    0  502 -0.90547327886E+02  0.30514614955E+02  0.68454173768E+02  0.11761550331E+03  0.41800000000E+01 0. -1.
        -11    1    3    3    0    0  0.39730961155E+02 -0.61966615524E+01  0.16154833011E+03  0.16647765871E+03  0.00000000000E+00 0.  1.
         11    1    3    3    0    0  0.52982096223E+02  0.38029781794E+02  0.42931327190E+02  0.78079867301E+02  0.00000000000E+00 0. -1.
</event>
<event>
 8    1  0.8061721E-006  0.9417278E+02  0.7561462E-02  0.1293050E+00
          2   -1    0    0  501    0  0.00000000000E+00  0.00000000000E+00  0.11193006571E+04  0.11193006571E+04  0.00000000000E+00 0. -1.
         -2   -1    0    0    0  501 -0.00000000000E+00 -0.00000000000E+00 -0.19648659562E+02  0.19648659562E+02  0.00000000000E+00 0.  1.
         23    2    1    2    0    0  0.64729312655E+02 -0.65958930353E+02  0.32956047125E+03  0.35331062979E+03  0.87623241808E+02 0.  0.
         23    2    1    2    0    0 -0.64729312655E+02  0.65958930353E+02  0.77009152631E+03  0.78563868689E+03  0.12508686196E+03 0.  0.
          5    1    4    4  502    0 -0.64112086617E+02  0.63927899407E+02  0.77415024175E+03  0.77943774939E+03  0.41800000000E+01 0. -1.
         -5    1    4    4    0  502 -0.61722603862E+00  0.20310309461E+01 -0.40587154484E+01  0.62009374919E+01  0.41800000000E+01 0. -1.
        -11    1    3    3    0    0  0.27155405514E+02 -0.20374969089E+02  0.22755219983E+02  0.40869982267E+02  0.00000000000E+00 0.  1.
         11    1    3    3    0    0  0.37573907141E+02 -0.45583961264E+02  0.30680525127E+03  0.31244064753E+03  0.00000000000E+00 0. -1.
</event>
<event>
 8    1  0.8061721E-006  0.7679603E+02  0.7561462E-02  0.1338398E+00
         -1   -1    0    0    0  501 -0.00000000000E+00  0.00000000000E+00  0.74514449296E+02  0.74514449296E+02  0.00000000000E+00 0.  1.
          1   -1    0    0  501    0  0.00000000000E+00 -0.00000000000E+00 -0.30839548999E+03  0.30839548999E+03  0.00000000000E+00 0. -1.
         23    2    1    2    0    0 -0.21468728358E+01 -0.58419615829E+02  0.41191009058E+01  0.10775692426E+03  0.90427469042E+02 0.  0.
         23    2    1    2    0    0  0.21468728358E+01  0.58419615829E+02 -0.23800014159E+03  0.27515301502E+03  0.12509058198E+03 0.  0.
          5    1    4    4  502    0 -0.18947822087E+02  0.58652228157E+02 -0.34974481271E+02  0.70991482374E+02  0.41800000000E+01 0.  1.
         -5    1    4    4    0  502  0.21094694923E+02 -0.23261232742E+00 -0.20302566032E+03  0.20416153265E+03  0.41800000000E+01 0.  1.
        -11    1    3    3    0    0  0.14953770943E+02 -0.48016368101E+02  0.41599525215E+02  0.65266433709E+02  0.00000000000E+00 0.  1.
         11    1    3    3    0    0 -0.17100643779E+02 -0.10403247728E+02 -0.37480424309E+02  0.42490490552E+02  0.00000000000E+00 0. -1.
</event>
<event>
 7    1  0.8061721E-006  0.1318364E+03  0.7561462E-02  0.1224756E+00
         -4   -1    0    0    0  501 -0.00000000000E+00  0.00000000000E+00  0.93024607664E+02  0.93024607664E+02  0.00000000000E+00 0.  1.
          4   -1    0    0  501    0  0.00000000000E+00 -0.00000000000E+00 -0.35742847555E+03  0.35742847555E+03  0.00000000000E+00 0. -1.
         23    2    1    2    0    0  0.40465233870E+02 -0.10998500146E+03 -0.19307470133E+03  0.25818478934E+03  0.12508960569E+03 0.  0.
          5    1    3    3  502    0  0.60231533194E+02 -0.59609809349E+02 -0.36305796770E+02  0.92286240798E+02  0.41800000000E+01 0.  1.
         -5    1    3    3    0  502 -0.19766299325E+02 -0.50375192116E+02 -0.15676890456E+03  0.16589854854E+03  0.41800000000E+01 0.  1.
        -11    1    1    2    0    0 -0.38736453775E+02  0.44310630320E+02  0.34118346634E+02  0.68029452353E+02  0.00000000000E+00 0.  1.
         11    1    1    2    0    0 -0.17287800943E+01  0.65674371144E+02 -0.10544751319E+03  0.12423884152E+03  0.00000000000E+00 0. -1.
</event>
<event>
 8    1  0.8061721E-006  0.1019671E+03  0.7561462E-02  0.1276213E+00
         -1   -1    0    0    0  501 -0.00000000000E+00  0.00000000000E+00  0.47658496397E+03  0.47658496397E+03  0.00000000000E+00 0.  1.
          1   -1    0    0  501    0  0.00000000000E+00 -0.00000000000E+00 -0.41964116263E+02  0.41964116263E+02  0.00000000000E+00 0. -1.
         23    2    1    2    0    0 -0.15053941718E+02 -0.69733006641E+02  0.33185052247E+03  0.35125319285E+03  0.90358855968E+02 0.  0.
         23    2    1    2    0    0  0.15053941718E+02  0.69733006641E+02  0.10277032524E+03  0.16729588738E+03  0.11107142210E+03 0.  0.
          5    1    4    4  502    0 -0.21306270526E+02  0.54332525676E+02  0.15115013933E+01  0.58529800499E+02  0.41800000000E+01 0. -1.
         -5    1    4    4    0  502  0.36360212243E+02  0.15400480965E+02  0.10125882385E+03  0.10876608688E+03  0.41800000000E+01 0.  1.
        -11    1    3    3    0    0 -0.43879066061E+02 -0.61847183110E+02  0.16296935519E+03  0.17974831634E+03  0.00000000000E+00 0. -1.
         11    1    3    3    0    0  0.28825124343E+02 -0.78858235310E+01  0.16888116728E+03  0.17150487651E+03  0.00000000000E+00 0.  1.
</event>
<event>
 7    1  0.8061721E-006  0.1069837E+03  0.7561462E-02  0.1266260E+00
         -1   -1    0    0    0  501 -0.00000000000E+00  0.00000000000E+00  0.14023244891E+02  0.14023244891E+02  0.00000000000E+00 0.  1.
          1   -1    0    0  501    0  0.00000000000E+00 -0.00000000000E+00 -0.12302711935E+04  0.12302711935E+04  0.00000000000E+00 0. -1.
         23    2    1    2    0    0  0.14684351115E+00  0.48105481095E+01 -0.23930350620E+03  0.25601755254E+03  0.90860641622E+02 0.  0.
          5    1    1    2  502    0  0.45346043965E+02 -0.44781394013E+02 -0.22508108269E+03  0.23396709841E+03  0.41800000000E+01 0. -1.
         -5    1    1    2    0  502 -0.45492887476E+02  0.39970845904E+02 -0.75186335974E+03  0.75430978746E+03  0.41800000000E+01 0.  1.
        -11    1    3    3    0    0  0.23184400531E+02  0.40647354695E+02 -0.14887320755E+03  0.15605433604E+03  0.00000000000E+00 0. -1.
         11    1    3    3    0    0 -0.23037557020E+02 -0.35836806585E+02 -0.90430298646E+02  0.99963216499E+02  0.00000000000E+00 0.  1.
</event>
<event>
 8    1  0.8061721E-006  0.1137554E+03  0.7561462E-02  0.1253769E+00
         -2   -1    0    0    0  501 -0.00000000000E+00  0.00000000000E+00  0.13596056664E+02  0.13596056664E+02  0.00000000000E+00 0.  1.
          2   -1    0    0  501    0  0.00000000000E+00 -0.00000000000E+00 -0.10667185109E+04  0.10667185109E+04  0.00000000000E+00 0. -1.
         23    2    1    2    0    0  0.75996244426E+01 -0.50582628115E+02 -0.39673719783E+03  0.41016142098E+03  0.90640115625E+02 0.  0.
         23    2    1    2    0    0 -0.75996244426E+01  0.50582628115E+02 -0.65638525638E+03  0.67015314656E+03  0.12508908221E+03 0.  0.
          5    1    4    4  502    0  0.51132151117E+02  0.36767760540E+02 -0.46954538418E+03  0.47376862001E+03  0.41800000000E+01 0. -1.
         -5    1    4    4    0  502 -0.58731775560E+02  0.13814867575E+02 -0.18683987220E+03  0.19638452655E+03  0.41800000000E+01 0. -1.
        -11    1    3    3    0    0  0.49126927057E+02 -0.24774678657E+02 -0.19857302399E+03  0.20605456928E+03  0.00000000000E+00 0. -1.
         11    1    3    3    0    0 -0.41527302614E+02 -0.25807949459E+02 -0.19816417384E+03  0.20410685170E+03  0.00000000000E+00 0.  1.
</event>
<event>
 8    1  0.8061721E-006  0.1079251E+03  0.7561462E-02  0.1264461E+00
         -3   -1    0    0    0  501 -0.00000000000E+00  0.00000000000E+00  0.42676199506E+02  0.42676199506E+02  0.00000000000E+00 0.  1.
          3   -1    0    0  501    0  0.00000000000E+00 -0.00000000000E+00 -0.32339191086E+03  0.32339191086E+03  0.00000000000E+00 0. -1.
         23    2    1    2    0    0  0.31340960503E+02 -0.23261538033E+01 -0.71259737716E+02  0.12008609274E+03  0.91405977116E+02 0.  0.
         23    2    1    2    0    0 -0.31340960503E+02  0.23261538033E+01 -0.20945597364E+03  0.24598201763E+03  0.12509069233E+03 0.  0.
          5    1    4    4  502    0  0.17401483687E+01 -0.58192178129E+02 -0.11484172288E+03  0.12882333417E+03  0.41800000000E+01 0. -1.
         -5    1    4    4    0  502 -0.33081108872E+02  0.60518331933E+02 -0.94614250756E+02  0.11715868346E+03  0.41800000000E+01 0. -1.
        -11    1    3    3    0    0  0.96456217583E+01  0.39826391559E+02 -0.92129332485E+01  0.42000685979E+02  0.00000000000E+00 0.  1.
         11    1    3    3    0    0  0.21695338745E+02 -0.42152545362E+02 -0.62046804467E+02  0.78085406757E+02  0.00000000000E+00 0. -1.
</event>
<event>
 8    1  0.8061721E-006  0.1766612E+03  0.7561462E-02  0.1171074E+00
         -2   -1    0    0    0  501 -0.00000000000E+00  0.00000000000E+00  0.15918526423E+03  0.15918526423E+03  0.00000000000E+00 0. -1.
          2   -1    0    0  501    0  0.00000000000E+00 -0.00000000000E+00 -0.25244730528E+03  0.25244730528E+03  0.00000000000E+00 0.  1.
         23    2    1    2    0    0  0.15664805668E+03  0.54284650627E+02 -0.15970083662E+02  0.19003279055E+03  0.91498529795E+02 0.  0.
         23    2    1    2    0    0 -0.15664805668E+03 -0.54284650627E+02 -0.77291957388E+02  0.22159977896E+03  0.12508788271E+03 0.  0.
          5    1    4    4  502    0 -0.13230166663E+02  0.15955446520E+02 -0.56717952586E+02  0.60531083991E+02  0.41800000000E+01 0.  1.
         -5    1    4    4    0  502 -0.14341789002E+03 -0.70240097147E+02 -0.20574004801E+02  0.16106869497E+03  0.41800000000E+01 0.  1.
        -11    1    3    3    0    0  0.11788487939E+03  0.61557328289E+02  0.22568058356E+02  0.13489057310E+03  0.00000000000E+00 0. -1.
         11    1    3    3    0    0  0.38763177296E+02 -0.72726776618E+01 -0.38538142018E+02  0.55142217444E+02  0.00000000000E+00 0.  1.
</event>
<event>
 8    1  0.8061721E-006  0.1012576E+03  0.7561462E-02  0.1277673E+00
         -1   -1    0    0    0  501 -0.00000000000E+00  0.00000000000E+00  0.13151132145E+03  0.13151132145E+03  0.00000000000E+00 0.  1.
          1   -1    0    0  501    0  0.00000000000E+00 -0.00000000000E+00 -0.10253272062E+03  0.10253272062E+03  0.00000000000E+00 0. -1.
         23    2    1    2    0    0 -0.42393951069E+01  0.42144538194E+02  0.87905747109E+01  0.10041612567E+03  0.90620028249E+02 0.  0.
         23    2    1    2    0    0  0.42393951069E+01 -0.42144538194E+02  0.20188026122E+02  0.13362791640E+03  0.12511885978E+03 0.  0.
          5    1    4    4  502    0 -0.51597237058E+02  0.11886271247E+02  0.16939636970E+02  0.55749278174E+02  0.41800000000E+01 0. -1.
         -5    1    4    4    0  502  0.55836632165E+02 -0.54030809441E+02  0.32483891516E+01  0.77878638229E+02  0.41800000000E+01 0. -1.
        -11    1    3    3    0    0 -0.31051916740E+02  0.23173417454E+02 -0.30424275632E+02  0.49263225203E+02  0.00000000000E+00 0.  1.
         11    1    3    3    0    0  0.26812521633E+02  0.18971120740E+02  0.39214850343E+02  0.51152900464E+02  0.00000000000E+00 0. -1.
</event>
<event>
 8    1  0.8061721E-006  0.1121390E+03  0.7561462E-02  0.1256659E+00
          2   -1    0    0  501    0  0.00000000000E+00  0.00000000000E+00  0.77839050852E+03  0.77839050852E+03  0.00000000000E+00 0. -1.
         -2   -1    0    0    0  501 -0.00000000000E+00 -0.00000000000E+00 -0.18700138067E+02  0.18700138067E+02  0.00000000000E+00 0.  1.
         23    2    1    2    0    0 -0.49269685842E+02 -0.34367274186E+02  0.31841602901E+03  0.33684227382E+03  0.92007273738E+02 0.  0.
         23    2    1    2    0    0  0.49269685842E+02  0.34367274186E+02  0.44127434145E+03  0.46024837277E+03  0.11617619698E+03 0.  0.
          5    1    4    4  502    0  0.80092600882E+02  0.31536943176E+02  0.39584852231E+03  0.40512088136E+03  0.41800000000E+01 0. -1.
         -5    1    4    4    0  502 -0.30822915040E+02  0.28303310099E+01  0.45425819138E+02  0.55127491414E+02  0.41800000000E+01 0.  1.
        -11    1    3    3    0    0 -0.17369578683E+02 -0.62169183329E+02  0.22892101418E+03  0.23784772514E+03  0.00000000000E+00 0.  1.
         11    1    3    3    0    0 -0.31900107159E+02  0.27801909143E+02  0.89495014832E+02  0.98994548680E+02  0.00000000000E+00 0. -1.
</event>
<event>
 8    1  0.8061721E-006  0.6971130E+02  0.7561462E-02  0.1361078E+00
          1   -1    0    0  501    0  0.00000000000E+00  0.00000000000E+00  0.26373103602E+03  0.26373103602E+03  0.00000000000E+00 0. -1.
         -1   -1    0    0    0  501 -0.00000000000E+00 -0.00000000000E+00 -0.54563869624E+02  0.54563869624E+02  0.00000000000E+00 0.  1.
         23    2    1    2    0    0 -0.39242779941E+02 -0.19469714111E+02  0.55846749656E+02  0.11562637510E+03  0.91277234983E+02 0.  0.
         23    2    1    2    0    0  0.39242779941E+02  0.19469714111E+02  0.15332041674E+03  0.20266853054E+03  0.12509323538E+03 0.  0.
          5    1    4    4  502    0 -0.15521134819E+02 -0.10514158378E+01 -0.16471183169E+02  0.23038736430E+02  0.41800000000E+01 0. -1.
         -5    1    4    4    0  502  0.54763914759E+02  0.20521129949E+02  0.16979159991E+03  0.17962979411E+03  0.41800000000E+01 0. -1.
        -11    1    3    3    0    0 -0.42582247117E+02 -0.31004614653E+02  0.75819921987E+02  0.92321148549E+02  0.00000000000E+00 0. -1.
         11    1    3    3    0    0  0.33394671768E+01  0.11534900541E+02 -0.19973172331E+02  0.23305226549E+02  0.00000000000E+00 0.  1.
</event>
<event>
 8    1  0.8061721E-006  0.1198635E+03  0.7561462E-02  0.1243322E+00
          1   -1    0    0  501    0  0.00000000000E+00  0.00000000000E+00  0.24263834450E+03  0.24263834450E+03  0.00000000000E+00 0. -1.
         -1   -1    0    0    0  501 -0.00000000000E+00 -0.00000000000E+00 -0.66423438461E+02  0.66423438461E+02  0.00000000000E+00 0.  1.
         23    2    1    2    0    0  0.13793951434E+02 -0.60366339068E+02  0.51973508743E+02  0.12219344790E+03  0.91627643815E+02 0.  0.
         23    2    1    2    0    0 -0.13793951434E+02  0.60366339068E+02  0.12424139729E+03  0.18686833505E+03  0.12509788909E+03 0.  0.
          5    1    4    4  502    0 -0.25325934028E+01 -0.36705710753E+02  0.57727399040E+02  0.68583148303E+02  0.41800000000E+01 0. -1.
         -5    1    4    4    0  502 -0.11261358031E+02  0.97072049821E+02  0.66513998252E+02  0.11828518675E+03  0.41800000000E+01 0. -1.
        -11    1    3    3    0    0  0.11249615681E+02  0.20816726829E+02  0.29697035627E+02  0.37971092871E+02  0.00000000000E+00 0. -1.
         11    1    3    3    0    0  0.25443357536E+01 -0.81183065896E+02  0.22276473116E+02  0.84222355033E+02  0.00000000000E+00 0.  1.
</event>
<event>
 8    1  0.8061721E-006  0.2224057E+03  0.7561462E-02  0.1132102E+00
         -2   -1    0    0    0  501 -0.00000000000E+00  0.00000000000E+00  0.15474391287E+04  0.15474391287E+04  0.00000000000E+00 0.  1.
          2   -1    0    0  501    0  0.00000000000E+00 -0.00000000000E+00 -0.36141786998E+02  0.36141786998E+02  0.00000000000E+00 0. -1.
         23    2    1    2    0    0 -0.14006760364E+03  0.14586702781E+03  0.91740853687E+03  0.94385607258E+03  0.91267402869E+02 0.  0.
         23    2    1    2    0    0  0.14006760364E+03 -0.14586702781E+03  0.59388880482E+03  0.63972484311E+03  0.12509132268E+03 0.  0.
          5    1    4    4  502    0  0.40879010267E+02  0.99065815668E+01  0.50824882248E+02  0.66105029266E+02  0.41800000000E+01 0.  1.
         -5    1    4    4    0  502  0.99188593370E+02 -0.15577360938E+03  0.54306392257E+03  0.57361981384E+03  0.41800000000E+01 0.  1.
        -11    1    3    3    0    0 -0.10784756938E+03  0.54287471330E+02  0.59593394139E+03  0.60804234250E+03  0.00000000000E+00 0.  1.
         11    1    3    3    0    0 -0.32220034255E+02  0.91579556483E+02  0.32147459548E+03  0.33581373008E+03  0.00000000000E+00 0. -1.
</event>
<event>
 8    1  0.8061721E-006  0.1393985E+03  0.7561462E-02  0.1214141E+00
         -2   -1    0    0    0  501 -0.00000000000E+00  0.00000000000E+00  0.37631371521E+03  0.37631371521E+03  0.00000000000E+00 0. -1.
          2   -1    0    0  501    0  0.00000000000E+00 -0.00000000000E+00 -0.12391944108E+03  0.12391944108E+03  0.00000000000E+00 0.  1.
         23    2    1    2    0    0 -0.34380668737E+01  0.13372059722E+03  0.27133393414E+03  0.31611289921E+03  0.91718279577E+02 0.  0.
         23    2    1    2    0    0  0.34380668737E+01 -0.13372059722E+03 -0.18939659998E+02  0.18412025708E+03  0.12509412426E+03 0.  0.
          5    1    4    4  502    0  0.10431353645E+02 -0.84051142760E+02 -0.71811979083E+02  0.11112083728E+03  0.41800000000E+01 0. -1.
         -5    1    4    4    0  502 -0.69932867710E+01 -0.49669454457E+02  0.52872319085E+02  0.72999419802E+02  0.41800000000E+01 0. -1.
        -11    1    3    3    0    0  0.23881616774E+02  0.46632532393E+02  0.35644652933E+02  0.63367704550E+02  0.00000000000E+00 0.  1.
         11    1    3    3    0    0 -0.27319683648E+02  0.87088064824E+02  0.23568928120E+03  0.25274519466E+03  0.00000000000E+00 0. -1.
</event>
<event>
 8    1  0.8061721E-006  0.1228944E+03  0.7561462E-02  0.1238397E+00
         -4   -1    0    0    0  501 -0.00000000000E+00  0.00000000000E+00  0.20498304414E+03  0.20498304414E+03  0.00000000000E+00 0.  1.
          4   -1    0    0  501    0  0.00000000000E+00 -0.00000000000E+00 -0.80919665015E+02  0.80919665015E+02  0.00000000000E+00 0. -1.
         23    2    1    2    0    0  0.59047421324E+02  0.30727379013E+02  0.74196134109E+02  0.13568694504E+03  0.92060365804E+02 0.  0.
         23    2    1    2    0    0 -0.59047421324E+02 -0.30727379013E+02  0.49867245018E+02  0.15021576412E+03  0.12508902381E+03 0.  0.
          5    1    4    4  502    0  0.39356059592E+02 -0.57602916133E+01  0.11621303303E+02  0.41648619144E+02  0.41800000000E+01 0. -1.
         -5    1    4    4    0  502 -0.98403480916E+02 -0.24967087400E+02  0.38245941715E+02  0.10856714497E+03  0.41800000000E+01 0. -1.
        -11    1    3    3    0    0 -0.42003551570E+01 -0.21658329940E+02  0.42066025705E+02  0.47500281660E+02  0.00000000000E+00 0.  1.
         11    1    3    3    0    0  0.63247776481E+02  0.52385708953E+02  0.32130108404E+02  0.88186663381E+02  0.00000000000E+00 0. -1.
</event>
<event>
 8    1  0.8061721E-006  0.9608460E+02  0.7561462E-02  0.1288752E+00
         -1   -1    0    0    0  501 -0.00000000000E+00  0.00000000000E+00  0.10658191848E+03  0.10658191848E+03  0.00000000000E+00 0.  1.
          1   -1    0    0  501    0  0.00000000000E+00 -0.00000000000E+00 -0.19439586296E+03  0.19439586296E+03  0.00000000000E+00 0. -1.
         23    2    1    2    0    0 -0.78876062991E+02 -0.12278738949E+02  0.10779206438E+02  0.12281823388E+03  0.92714219728E+02 0.  0.
         23    2    1    2    0    0  0.78876062991E+02  0.12278738949E+02 -0.98593150916E+02  0.17815954755E+03  0.12509202306E+03 0.  0.
          5    1    4    4  502    0  0.51089031665E+02  0.39548930778E+02 -0.11789608953E+03  0.13450341040E+03  0.41800000000E+01 0.  1.
         -5    1    4    4    0  502  0.27787031326E+02 -0.27270191829E+02  0.19302938612E+02  0.43656137156E+02  0.41800000000E+01 0.  1.
        -11    1    3    3    0    0 -0.55749928472E+02 -0.25853962223E+02  0.47272507908E+02  0.77531747633E+02  0.00000000000E+00 0.  1.
         11    1    3    3    0    0 -0.23126134520E+02  0.13575223274E+02 -0.36493301469E+02  0.45286486250E+02  0.00000000000E+00 0. -1.
</event>
<event>
 8    1  0.8061721E-006  0.6691975E+02  0.7561462E-02  0.1370892E+00
          1   -1    0    0  501    0  0.00000000000E+00  0.00000000000E+00  0.16025781012E+03  0.16025781012E+03  0.00000000000E+00 0. -1.
         -1   -1    0    0    0  501 -0.00000000000E+00 -0.00000000000E+00 -0.11908743859E+03  0.11908743859E+03  0.00000000000E+00 0.  1.
         23    2    1    2    0    0  0.19034420005E+02  0.51591394949E+02 -0.47106817541E+02  0.11666223171E+03  0.91471541315E+02 0.  0.
         23    2    1    2    0    0 -0.19034420005E+02 -0.51591394949E+02  0.88277189073E+02  0.16268301701E+03  0.12509564635E+03 0.  0.
          5    1    4    4  502    0  0.12164419733E+02 -0.25931335239E+02 -0.27538711637E+02  0.39953226319E+02  0.41800000000E+01 0. -1.
         -5    1    4    4    0  502 -0.31198839738E+02 -0.25660059711E+02  0.11581590071E+03  0.12272979069E+03  0.41800000000E+01 0. -1.
        -11    1    3    3    0    0  0.23757856370E+02  0.16622516983E+02 -0.69200543047E+02  0.75029720566E+02  0.00000000000E+00 0.  1.
         11    1    3    3    0    0 -0.47234363649E+01  0.34968877966E+02  0.22093725506E+02  0.41632511143E+02  0.00000000000E+00 0. -1.
</event>
<event>
 8    1  0.8061721E-006  0.1652750E+03  0.7561462E-02  0.1182867E+00
         -1   -1    0    0    0  501 -0.00000000000E+00  0.00000000000E+00  0.11415317849E+03  0.11415317849E+03  0.00000000000E+00 0.  1.
          1   -1    0    0  501    0  0.00000000000E+00 -0.00000000000E+00 -0.30213288623E+03  0.30213288623E+03  0.00000000000E+00 0. -1.
         23    2    1    2    0    0  0.11500084458E+03 -0.82002086298E+02 -0.14161479591E+03  0.22201335097E+03  0.96362031837E+02 0.  0.
         23    2    1    2    0    0 -0.11500084458E+03  0.82002086298E+02 -0.46364911831E+02  0.19427271375E+03  0.12507056348E+03 0.  0.
          5    1    4    4  502    0 -0.74336657750E+02 -0.21393282492E+02 -0.19987646224E+02  0.80003685058E+02  0.41800000000E+01 0.  1.
         -5    1    4    4    0  502 -0.40664186825E+02  0.10339536879E+03 -0.26377265607E+02  0.11426902869E+03  0.41800000000E+01 0.  1.
        -11    1    3    3    0    0  0.63903060974E+02 -0.37194745297E+02 -0.10969596160E+02  0.74748794769E+02  0.00000000000E+00 0.  1.
         11    1    3    3    0    0  0.51097783602E+02 -0.44807341001E+02 -0.13064519975E+03  0.14726455620E+03  0.00000000000E+00 0. -1.
</event>
<event>
 8    1  0.8061721E-006  0.9516365E+02  0.7561462E-02  0.1290808E+00
          3   -1    0    0  501    0  0.00000000000E+00  0.00000000000E+00  0.10200638345E+04  0.10200638345E+04  0.00000000000E+00 0. -1.
         -3   -1    0    0    0  501 -0.00000000000E+00 -0.00000000000E+00 -0.17736661618E+02  0.17736661618E+02  0.00000000000E+00 0.  1.
         23    2    1    2    0    0 -0.87955150213E+01 -0.53120966531E+02  0.22168866502E+03  0.24537185652E+03  0.90345368480E+02 0.  0.
         23    2    1    2    0    0  0.87955150213E+01  0.53120966531E+02  0.78063850786E+03  0.79242863959E+03  0.12508985060E+03 0.  0.
          5    1    4    4  502    0 -0.23515560480E+02  0.46650670446E+00  0.61707566142E+03  0.61753788834E+03  0.41800000000E+01 0.  1.
         -5    1    4    4    0  502  0.32311075501E+02  0.52654459826E+02  0.16356284644E+03  0.17489075126E+03  0.41800000000E+01 0.  1.
        -11    1    3    3    0    0 -0.19052060636E+02  0.21770007242E+02  0.49730450270E+02  0.57532876808E+02  0.00000000000E+00 0.  1.
         11    1    3    3    0    0  0.10256545614E+02 -0.74890973773E+02  0.17195821475E+03  0.18783897971E+03  0.00000000000E+00 0. -1.
</event>
<event>
 7    1  0.8061721E-006  0.1028986E+03  0.7561462E-02  0.1274316E+00
         -1   -1    0    0    0  501 -0.00000000000E+00  0.00000000000E+00  0.24010251581E+02  0.24010251581E+02  0.00000000000E+00 0.  1.
          1   -1    0    0  501    0  0.00000000000E+00 -0.00000000000E+00 -0.62002073466E+03  0.62002073466E+03  0.00000000000E+00 0. -1.
         23    2    1    2    0    0  0.34863200088E+02  0.57861494244E+01 -0.16623614251E+03  0.19237442283E+03  0.90136237105E+02 0.  0.
          5    1    1    2  502    0 -0.26497268312E+02 -0.57792241756E+02 -0.10659050494E+03  0.12418154686E+03  0.41800000000E+01 0. -1.
         -5    1    1    2    0  502 -0.83659317759E+01  0.52006092332E+02 -0.32318383563E+03  0.32747501655E+03  0.41800000000E+01 0.  1.
        -11    1    3    3    0    0  0.48490073376E+02 -0.25739298229E+02 -0.62937636556E+02  0.83516134876E+02  0.00000000000E+00 0.  1.
         11    1    3    3    0    0 -0.13626873288E+02  0.31525447654E+02 -0.10329850595E+03  0.10885828796E+03  0.00000000000E+00 0. -1.
</event>
<event>
 8    1  0.8061721E-006  0.1015667E+03  0.7561462E-02  0.1277036E+00
         -1   -1    0    0    0  501 -0.00000000000E+00  0.00000000000E+00  0.28916448930E+02  0.28916448930E+02  0.00000000000E+00 0.  1.
          1   -1    0    0  501    0  0.00000000000E+00 -0.00000000000E+00 -0.77439856718E+03  0.77439856718E+03  0.00000000000E+00 0. -1.
         23    2    1    2    0    0  0.11093453785E+02  0.37085575453E+02 -0.95467352568E+02  0.14024147958E+03  0.95159090818E+02 0.  0.
         23    2    1    2    0    0 -0.11093453785E+02 -0.37085575453E+02 -0.65001476569E+03  0.66307353653E+03  0.12509562189E+03 0.  0.
          5    1    4    4  502    0 -0.15485763801E+02 -0.78528810849E+02 -0.29854002915E+03  0.30911196097E+03  0.41800000000E+01 0. -1.
         -5    1    4    4    0  502  0.43923100163E+01  0.41443235396E+02 -0.35147473654E+03  0.35396157556E+03  0.41800000000E+01 0. -1.
        -11    1    3    3    0    0  0.13460196912E+02 -0.19921474590E+02  0.51359574749E+01  0.24584956984E+02  0.00000000000E+00 0. -1.
         11    1    3    3    0    0 -0.23667431272E+01  0.57007050043E+02 -0.10060331004E+03  0.11565652260E+03  0.00000000000E+00 0.  1.
</event>
<event>
 8    1  0.8061721E-006  0.1202010E+03  0.7561462E-02  0.1242766E+00
          1   -1    0    0  501    0  0.00000000000E+00  0.00000000000E+00  0.12284140531E+03  0.12284140531E+03  0.00000000000E+00 0. -1.
         -1   -1    0    0    0  501 -0.00000000000E+00 -0.00000000000E+00 -0.12235280003E+03  0.12235280003E+03  0.00000000000E+00 0.  1.
         23    2    1    2    0    0 -0.56934249934E+02 -0.47655521615E+01 -0.11647139211E+02  0.10713266401E+03  0.89875094124E+02 0.  0.
         23    2    1    2    0    0  0.56934249934E+02  0.47655521615E+01  0.12135744489E+02  0.13806154132E+03  0.12509793601E+03 0.  0.
          5    1    4    4  502    0  0.12301686089E+02 -0.58390885475E+02  0.94969842647E+01  0.60568078204E+02  0.41800000000E+01 0. -1.
         -5    1    4    4    0  502  0.44632563845E+02  0.63156437637E+02  0.26387602241E+01  0.77493463117E+02  0.41800000000E+01 0. -1.
        -11    1    3    3    0    0 -0.58027592549E+02  0.32058484347E+02  0.54507339255E+01  0.66518105926E+02  0.00000000000E+00 0.  1.
         11    1    3    3    0    0  0.10933426151E+01 -0.36824036508E+02 -0.17097873137E+02  0.40614558087E+02  0.00000000000E+00 0. -1.
</event>
<event>
 8    1  0.8061721E-006  0.1447165E+03  0.7561462E-02  0.1207120E+00
          1   -1    0    0  501    0  0.00000000000E+00  0.00000000000E+00  0.14005221434E+04  0.14005221434E+04  0.00000000000E+00 0.  1.
         -1   -1    0    0    0  501 -0.00000000000E+00 -0.00000000000E+00 -0.18854948753E+02  0.18854948753E+02  0.00000000000E+00 0. -1.
         23    2    1    2    0    0 -0.10934707325E+03  0.41919246239E+02  0.51239329212E+03  0.53337619391E+03  0.90715339333E+02 0.  0.
         23    2    1    2    0    0  0.10934707325E+03 -0.41919246239E+02  0.86927390249E+03  0.88600089821E+03  0.12508584425E+03 0.  0.
          5    1    4    4  502    0  0.82602711799E+02  0.34931323289E+02  0.46987746940E+03  0.47837821229E+03  0.41800000000E+01 0.  1.
         -5    1    4    4    0  502  0.26744361448E+02 -0.76850569528E+02  0.39939643309E+03  0.40762268591E+03  0.41800000000E+01 0.  1.
        -11    1    3    3    0    0 -0.40732794017E+02  0.75324256997E+01  0.51286081526E+02  0.65925413185E+02  0.00000000000E+00 0. -1.
         11    1    3    3    0    0 -0.68614279230E+02  0.34386820539E+02  0.46110721060E+03  0.46745078073E+03  0.00000000000E+00 0.  1.
</event>
<event>
 8    1  0.8061721E-006  0.1933884E+03  0.7561462E-02  0.1155440E+00
         -2   -1    0    0    0  501 -0.00000000000E+00  0.00000000000E+00  0.55500636833E+02  0.55500636833E+02  0.00000000000E+00 0.  1.
          2   -1    0    0  501    0  0.00000000000E+00 -0.00000000000E+00 -0.68124649904E+03  0.68124649904E+03  0.00000000000E+00 0. -1.
         23    2    1    2    0    0 -0.48079110505E+02 -0.15229919349E+03 -0.32955948170E+03  0.37775270445E+03  0.92633733266E+02 0.  0.
         23    2    1    2    0    0  0.48079110505E+02  0.15229919349E+03 -0.29618638050E+03  0.35899443142E+03  0.12507591531E+03 0.  0.
          5    1    4    4  502    0  0.20607504091E+02 -0.19209084961E+02 -0.32499459121E+02  0.43212792239E+02  0.41800000000E+01 0.  1.
         -5    1    4    4    0  502  0.27471606414E+02  0.17150827845E+03 -0.26368692138E+03  0.31578163918E+03  0.41800000000E+01 0.  1.
        -11    1    3    3    0    0 -0.67942510316E+01 -0.14178680204E+03 -0.25799804975E+03  0.29447012201E+03  0.00000000000E+00 0. -1.
         11    1    3    3    0    0 -0.41284859474E+02 -0.10512391441E+02 -0.71561431951E+02  0.83282582443E+02  0.00000000000E+00 0.  1.
</event>
<event>
 8    1  0.8061721E-006  0.1376461E+03  0.7561462E-02  0.1216532E+00
          2   -1    0    0  501    0  0.00000000000E+00  0.00000000000E+00  0.13963542716E+03  0.13963542716E+03  0.00000000000E+00 0. -1.
         -2   -1    0    0    0  501 -0.00000000000E+00 -0.00000000000E+00 -0.15626297216E+03  0.15626297216E+03  0.00000000000E+00 0.  1.
         23    2    1    2    0    0  0.17917103836E+02  0.88688308551E+02 -0.56418932654E+02  0.13647036962E+03  0.85172924909E+02 0.  0.
         23    2    1    2    0    0 -0.17917103836E+02 -0.88688308551E+02  0.39791387654E+02  0.15942802970E+03  0.12508918194E+03 0.  0.
          5    1    4    4  502    0  0.29499480022E+02 -0.98370275049E+02  0.41445357375E+02  0.11082472821E+03  0.41800000000E+01 0.  1.
         -5    1    4    4    0  502 -0.47416583858E+02  0.96819664978E+01 -0.16539697211E+01  0.48603301491E+02  0.41800000000E+01 0.  1.
        -11    1    3    3    0    0  0.32716311581E+02 -0.12946635542E+01 -0.10601071512E+02  0.34415344171E+02  0.00000000000E+00 0.  1.
         11    1    3    3    0    0 -0.14799207745E+02  0.89982972105E+02 -0.45817861143E+02  0.10205502544E+03  0.00000000000E+00 0. -1.
</event>
<event>
 8    1  0.8061721E-006  0.1171786E+03  0.7561462E-02  0.1247825E+00
         -2   -1    0    0    0  501 -0.00000000000E+00  0.00000000000E+00  0.25625537178E+02  0.25625537178E+02  0.00000000000E+00 0.  1.
          2   -1    0    0  501    0  0.00000000000E+00 -0.00000000000E+00 -0.76708315082E+03  0.76708315082E+03  0.00000000000E+00 0. -1.
         23    2    1    2    0    0 -0.20548134854E+02 -0.74919323893E+02 -0.40116437518E+03  0.42192163940E+03  0.10511842343E+03 0.  0.
         23    2    1    2    0    0  0.20548134854E+02  0.74919323893E+02 -0.34029323846E+03  0.37078704860E+03  0.12509363023E+03 0.  0.
          5    1    4    4  502    0  0.67004552243E+02  0.22514813527E+02 -0.11727426607E+03  0.13699362296E+03  0.41800000000E+01 0. -1.
         -5    1    4    4    0  502 -0.46456417390E+02  0.52404510365E+02 -0.22301897239E+03  0.23379342563E+03  0.41800000000E+01 0. -1.
        -11    1    3    3    0    0 -0.35593484499E+02 -0.68167209328E+02 -0.39770522342E+03  0.40507173353E+03  0.00000000000E+00 0. -1.
         11    1    3    3    0    0  0.15045349645E+02 -0.67521145647E+01 -0.34591517538E+01  0.16849905872E+02  0.00000000000E+00 0.  1.
</event>
<event>
 8    1  0.8061721E-006  0.1213273E+03  0.7561462E-02  0.1240923E+00
         -1   -1    0    0    0  501 -0.00000000000E+00  0.00000000000E+00  0.19210718194E+03  0.19210718194E+03  0.00000000000E+00 0.  1.
          1   -1    0    0  501    0  0.00000000000E+00 -0.00000000000E+00 -0.11524662381E+03  0.11524662381E+03  0.00000000000E+00 0. -1.
         23    2    1    2    0    0 -0.89695228910E+01  0.86959131784E+02  0.86459031659E+02  0.15444455554E+03  0.93464504694E+02 0.  0.
         23    2    1    2    0    0  0.89695228910E+01 -0.86959131784E+02 -0.95984735314E+01  0.15290925021E+03  0.12508703037E+03 0.  0.
          5    1    4    4  502    0  0.59666254989E+02 -0.69873574919E+02 -0.28057507780E+02  0.96161710671E+02  0.41800000000E+01 0.  1.
         -5    1    4    4    0  502 -0.50696732098E+02 -0.17085556865E+02  0.18459034248E+02  0.56747539543E+02  0.41800000000E+01 0.  1.
        -11    1    3    3    0    0  0.11802439792E+02  0.67595216126E+02  0.57186541543E+01  0.68855746554E+02  0.00000000000E+00 0. -1.
         11    1    3    3    0    0 -0.20771962683E+02  0.19363915658E+02  0.80740377504E+02  0.85588808981E+02  0.00000000000E+00 0.  1.
</event>
<event>
 8    1  0.8061721E-006  0.9894999E+02  0.7561462E-02  0.1282520E+00
          2   -1    0    0  501    0  0.00000000000E+00  0.00000000000E+00  0.68327366807E+03  0.68327366807E+03  0.00000000000E+00 0. -1.
         -2   -1    0    0    0  501 -0.00000000000E+00 -0.00000000000E+00 -0.18126468552E+02  0.18126468552E+02  0.00000000000E+00 0.  1.
         23    2    1    2    0    0  0.24595355897E+02  0.16301630579E+02  0.29721046324E+03  0.31166245970E+03  0.89043554704E+02 0.  0.
         23    2    1    2    0    0 -0.24595355897E+02 -0.16301630579E+02  0.36793673628E+03  0.38973767692E+03  0.12508932896E+03 0.  0.
          5    1    4    4  502    0 -0.58747609483E+02  0.11347154546E+02  0.88963237430E+02  0.10729384675E+03  0.41800000000E+01 0. -1.
         -5    1    4    4    0  502  0.34152253586E+02 -0.27648785125E+02  0.27897349885E+03  0.28244383017E+03  0.41800000000E+01 0. -1.
        -11    1    3    3    0    0  0.53084413765E+02  0.31259059465E+02  0.19185444036E+03  0.20150238229E+03  0.00000000000E+00 0.  1.
         11    1    3    3    0    0 -0.28489057868E+02 -0.14957428886E+02  0.10535602288E+03  0.11016007741E+03  0.00000000000E+00 0. -1.
</event>
<event>
 8    1  0.8061721E-006  0.1688244E+03  0.7561462E-02  0.1179079E+00
         -2   -1    0    0    0  501 -0.00000000000E+00  0.00000000000E+00  0.69328461908E+03  0.69328461908E+03  0.00000000000E+00 0.  1.
          2   -1    0    0  501    0  0.00000000000E+00 -0.00000000000E+00 -0.44613972347E+02  0.44613972347E+02  0.00000000000E+00 0. -1.
         23    2    1    2    0    0 -0.20787618499E+02  0.13101875424E+03  0.38337293246E+03  0.41599013921E+03  0.92059499928E+02 0.  0.
         23    2    1    2    0    0  0.20787618499E+02 -0.13101875424E+03  0.26529771427E+03  0.32190845222E+03  0.12507651804E+03 0.  0.
          5    1    4    4  502    0  0.69200207352E+02 -0.69374260491E+02  0.10656033278E+03  0.14482414729E+03  0.41800000000E+01 0.  1.
         -5    1    4    4    0  502 -0.48412588853E+02 -0.61644493752E+02  0.15873738149E+03  0.17708430493E+03  0.41800000000E+01 0.  1.
        -11    1    3    3    0    0  0.33870153694E+02  0.26039764299E+02  0.89311605152E+02  0.99004138555E+02  0.00000000000E+00 0.  1.
         11    1    3    3    0    0 -0.54657772193E+02  0.10497898994E+03  0.29406132731E+03  0.31698600065E+03  0.00000000000E+00 0. -1.
</event>
<event>
 8    1  0.8061721E-006  0.1099067E+03  0.7561462E-02  0.1260743E+00
          3   -1    0    0  501    0  0.00000000000E+00  0.00000000000E+00  0.11317563817E+03  0.11317563817E+03  0.00000000000E+00 0. -1.
         -3   -1    0    0    0  501 -0.00000000000E+00 -0.00000000000E+00 -0.13779117400E+03  0.13779117400E+03  0.00000000000E+00 0.  1.
         23    2    1    2    0    0  0.49266946827E+02  0.21357073542E+02 -0.40126461440E+02  0.11395576319E+03  0.92154361897E+02 0.  0.
         23    2    1    2    0    0 -0.49266946827E+02 -0.21357073542E+02  0.15510925615E+02  0.13701104898E+03  0.12509229428E+03 0.  0.
          5    1    4    4  502    0 -0.37312536015E+02  0.42845435325E+02 -0.22594183722E+02  0.61285611771E+02  0.41800000000E+01 0. -1.
         -5    1    4    4    0  502 -0.11954410811E+02 -0.64202508867E+02  0.38105109337E+02  0.75725437208E+02  0.41800000000E+01 0. -1.
        -11    1    3    3    0    0  0.68732678764E+02  0.31326391345E+02 -0.49342552349E+02  0.90223120081E+02  0.00000000000E+00 0.  1.
         11    1    3    3    0    0 -0.19465731938E+02 -0.99693178026E+01  0.92160909088E+01  0.23732643109E+02  0.00000000000E+00 0. -1.
</event>
<event>
 8    1  0.8061721E-006  0.1044486E+03  0.7561462E-02  0.1271210E+00
          2   -1    0    0  501    0  0.00000000000E+00  0.00000000000E+00  0.44120728971E+03  0.44120728971E+03  0.00000000000E+00 0. -1.
         -2   -1    0    0    0  501 -0.00000000000E+00 -0.00000000000E+00 -0.35278417539E+02  0.35278417539E+02  0.00000000000E+00 0.  1.
         23    2    1    2    0    0  0.57739030060E+02 -0.10385052701E+02  0.14706660713E+03  0.18305826686E+03  0.91870001735E+02 0.  0.
         23    2    1    2    0    0 -0.57739030060E+02  0.10385052701E+02  0.25886226503E+03  0.29342744039E+03  0.12509334756E+03 0.  0.
          5    1    4    4  502    0 -0.16063365747E+02  0.59387960364E+02  0.18692043020E+03  0.19682906590E+03  0.41800000000E+01 0.  1.
         -5    1    4    4    0  502 -0.41675664312E+02 -0.49002907664E+02  0.71941834829E+02  0.96598374489E+02  0.41800000000E+01 0.  1.
        -11    1    3    3    0    0  0.46734982534E+02  0.19713230039E+02  0.24421579534E+02  0.56295502289E+02  0.00000000000E+00 0.  1.
         11    1    3    3    0    0  0.11004047526E+02 -0.30098282740E+02  0.12264502760E+03  0.12676276457E+03  0.00000000000E+00 0. -1.
</event>
<event>
 8    1  0.8061721E-006  0.8998516E+02  0.7561462E-02  0.1302888E+00
         -1   -1    0    0    0  501 -0.00000000000E+00  0.00000000000E+00  0.54058582283E+02  0.54058582283E+02  0.00000000000E+00 0.  1.
          1   -1    0    0  501    0  0.00000000000E+00 -0.00000000000E+00 -0.52814878599E+03  0.52814878599E+03  0.00000000000E+00 0. -1.
         23    2    1    2    0    0  0.22629077644E+02 -0.10800046548E+02 -0.12436965026E+01  0.95400980285E+02  0.92038492479E+02 0.  0.
         23    2    1    2    0    0 -0.22629077644E+02  0.10800046548E+02 -0.47284650721E+03  0.48680638799E+03  0.11299523817E+03 0.  0.
          5    1    4    4  502    0 -0.35086016064E+02  0.55400498201E+02 -0.33336921184E+03  0.33978338324E+03  0.41800000000E+01 0. -1.
         -5    1    4    4    0  502  0.12456938420E+02 -0.44600451654E+02 -0.13947729537E+03  0.14702300475E+03  0.41800000000E+01 0.  1.
        -11    1    3    3    0    0  0.43625350749E+02  0.10845507230E+01 -0.33574792863E+02  0.55060096204E+02  0.00000000000E+00 0. -1.
         11    1    3    3    0    0 -0.20996273105E+02 -0.11884597271E+02  0.32331096360E+02  0.40340884081E+02  0.00000000000E+00 0.  1.
</event>
<event>
 8    1  0.8061721E-006  0.1266342E+03  0.7561462E-02  0.1232537E+00
          2   -1    0    0  501    0  0.00000000000E+00  0.00000000000E+00  0.25655790395E+03  0.25655790395E+03  0.00000000000E+00 0. -1.
         -2   -1    0    0    0  501 -0.00000000000E+00 -0.00000000000E+00 -0.94068778736E+02  0.94068778736E+02  0.00000000000E+00 0.  1.
         23    2    1    2    0    0  0.21289368935E+02 -0.87539315478E+02  0.11836782553E+01  0.12750547207E+03  0.90221257643E+02 0.  0.
         23    2    1    2    0    0 -0.21289368935E+02  0.87539315478E+02  0.16130544696E+03  0.22312121061E+03  0.12508900201E+03 0.  0.
          5    1    4    4  502    0  0.29095034343E+02  0.37345144591E+01  0.10734215772E+03  0.11135653930E+03  0.41800000000E+01 0. -1.
         -5    1    4    4    0  502 -0.50384403278E+02  0.83804801019E+02  0.53963289241E+02  0.11176467131E+03  0.41800000000E+01 0. -1.
        -11    1    3    3    0    0 -0.33532151328E+02 -0.21061912207E+02 -0.93802133526E+01  0.40693951897E+02  0.00000000000E+00 0. -1.
         11    1    3    3    0    0  0.54821520263E+02 -0.66477403271E+02  0.10563891608E+02  0.86811520177E+02  0.00000000000E+00 0.  1.
</event>
<event>
 8    1  0.8061721E-006  0.1956226E+03  0.7561462E-02  0.1153486E+00
         -2   -1    0    0    0  501 -0.00000000000E+00  0.00000000000E+00  0.26265234918E+02  0.26265234918E+02  0.00000000000E+00 0.  1.
          2   -1    0    0  501    0  0.00000000000E+00 -0.00000000000E+00 -0.17598190649E+04  0.17598190649E+04  0.00000000000E+00 0. -1.
         23    2    1    2    0    0 -0.56172853453E+02 -0.17641775659E+03 -0.84788383231E+03  0.87266395837E+03  0.91415408116E+02 0.  0.
         23    2    1    2    0    0  0.56172853453E+02  0.17641775659E+03 -0.88566999770E+03  0.91342034148E+03  0.12508701407E+03 0.  0.
          5    1    4    4  502    0  0.65161688508E+02  0.16138286225E+03 -0.54187870556E+03  0.56915769152E+03  0.41800000000E+01 0. -1.
         -5    1    4    4    0  502 -0.89888350549E+01  0.15034894347E+02 -0.34379129214E+03  0.34426264996E+03  0.41800000000E+01 0. -1.
        -11    1    3    3    0    0 -0.34585506523E+02 -0.17488149107E+02 -0.89918371416E+02  0.97914790194E+02  0.00000000000E+00 0.  1.
         11    1    3    3    0    0 -0.21587346930E+02 -0.15892960749E+03 -0.75796546089E+03  0.77474916818E+03  0.00000000000E+00 0. -1.
</event>
<event>
 8    1  0.8061721E-006  0.1084094E+03  0.7561462E-02  0.1263544E+00
          2   -1    0    0  501    0  0.00000000000E+00  0.00000000000E+00  0.18034981013E+03  0.18034981013E+03  0.00000000000E+00 0. -1.
         -2   -1    0    0    0  501 -0.00000000000E+00 -0.00000000000E+00 -0.10848607606E+03  0.10848607606E+03  0.00000000000E+00 0.  1.
         23    2    1    2    0    0  0.39618067743E+02 -0.49313887943E+02 -0.36730380086E+02  0.11681166699E+03  0.91073563063E+02 0.  0.
         23    2    1    2    0    0 -0.39618067743E+02  0.49313887943E+02  0.10859411416E+03  0.17202421919E+03  0.11746573765E+03 0.  0.
          5    1    4    4  502    0  0.18652296396E+02 -0.10941295737E+02  0.80595832989E+02  0.83551067069E+02  0.41800000000E+01 0. -1.
         -5    1    4    4    0  502 -0.58270364139E+02  0.60255183680E+02  0.27998281168E+02  0.88473152118E+02  0.41800000000E+01 0.  1.
        -11    1    3    3    0    0 -0.27427008820E+02 -0.30948616331E+02 -0.14743496870E+02  0.43902487009E+02  0.00000000000E+00 0.  1.
         11    1    3    3    0    0  0.67045076563E+02 -0.18365271612E+02 -0.21986883216E+02  0.72909179986E+02  0.00000000000E+00 0. -1.
</event>
<event>
 8    1  0.8061721E-006  0.3127483E+03  0.7561462E-02  0.1079036E+00
         -2   -1    0    0    0  501 -0.00000000000E+00  0.00000000000E+00  0.53611249646E+03  0.53611249646E+03  0.00000000000E+00 0.  1.
          2   -1    0    0  501    0  0.00000000000E+00 -0.00000000000E+00 -0.25753296823E+03  0.25753296823E+03  0.00000000000E+00 0. -1.
         23    2    1    2    0    0  0.26049828821E+03 -0.15637454723E+03  0.33422972417E+03  0.46039365612E+03  0.89109218915E+02 0.  0.
         23    2    1    2    0    0 -0.26049828821E+03  0.15637454723E+03 -0.55650195940E+02  0.33325180857E+03  0.12508983343E+03 0.  0.
          5    1    4    4  502    0 -0.93430202513E+02  0.11699878140E+03  0.83451916227E+01  0.15001677311E+03  0.41800000000E+01 0. -1.
         -5    1    4    4    0  502 -0.16706808569E+03  0.39375765837E+02 -0.63995387562E+02  0.18323503547E+03  0.41800000000E+01 0. -1.
        -11    1    3    3    0    0  0.23948366883E+03 -0.14026599110E+03  0.33353820547E+03  0.43390633828E+03  0.00000000000E+00 0.  1.
         11    1    3    3    0    0  0.21014619377E+02 -0.16108556133E+02  0.69151870673E+00  0.26487317840E+02  0.00000000000E+00 0. -1.
</event>
<event>
 8    1  0.8061721E-006  0.1348997E+03  0.7561462E-02  0.1220361E+00
          3   -1    0    0  501    0  0.00000000000E+00  0.00000000000E+00  0.48447172201E+02  0.48447172201E+02  0.00000000000E+00 0. -1.
         -3   -1    0    0    0  501 -0.00000000000E+00 -0.00000000000E+00 -0.52803043951E+03  0.52803043951E+03  0.00000000000E+00 0.  1.
         23    2    1    2    0    0  0.83817171527E+02  0.21387756727E+02 -0.36521846976E+03  0.38619029695E+03  0.90970656908E+02 0.  0.
         23    2    1    2    0    0 -0.83817171527E+02 -0.21387756727E+02 -0.11436479754E+03  0.19028731476E+03  0.12508877193E+03 0.  0.
          5    1    4    4  502    0 -0.28681049743E+02  0.48359609984E+02 -0.18179732875E+02  0.59238750658E+02  0.41800000000E+01 0.  1.
         -5    1    4    4    0  502 -0.55136121784E+02 -0.69747366712E+02 -0.96185064667E+02  0.13104856410E+03  0.41800000000E+01 0.  1.
        -11    1    3    3    0    0  0.94572176155E+02 -0.62276231051E+01 -0.29852092733E+03  0.31320508273E+03  0.00000000000E+00 0. -1.
         11    1    3    3    0    0 -0.10755004629E+02  0.27615379832E+02 -0.66697542435E+02  0.72985214220E+02  0.00000000000E+00 0.  1.
</event>
<event>
 8    1  0.8061721E-006  0.1146623E+03  0.7561462E-02  0.1252172E+00
         -1   -1    0    0    0  501 -0.00000000000E+00  0.00000000000E+00  0.30690748912E+02  0.30690748912E+02  0.00000000000E+00 0.  1.
          1   -1    0    0  501    0  0.00000000000E+00 -0.00000000000E+00 -0.44977114348E+03  0.44977114348E+03  0.00000000000E+00 0. -1.
         23    2    1    2    0    0 -0.24082327717E+02 -0.35957252359E+02 -0.15216098318E+03  0.18252476700E+03  0.91046379730E+02 0.  0.
         23    2    1    2    0    0  0.24082327717E+02  0.35957252359E+02 -0.26691941139E+03  0.29793712539E+03  0.12509067113E+03 0.  0.
          5    1    4    4  502    0 -0.19904780627E+02  0.69905329555E+02 -0.18551002824E+03  0.19928471685E+03  0.41800000000E+01 0.  1.
         -5    1    4    4    0  502  0.43987108345E+02 -0.33948077196E+02 -0.81409383148E+02  0.98652408538E+02  0.41800000000E+01 0.  1.
        -11    1    3    3    0    0 -0.82386154256E+01  0.30957460840E+02 -0.47254989662E+02  0.57090044787E+02  0.00000000000E+00 0. -1.
         11    1    3    3    0    0 -0.15843712292E+02 -0.66914713199E+02 -0.10490599352E+03  0.12543472222E+03  0.00000000000E+00 0.  1.
</event>
<event>
 8    1  0.8061721E-006  0.9713574E+02  0.7561462E-02  0.1286437E+00
          2   -1    0    0  501    0  0.00000000000E+00  0.00000000000E+00  0.53563271890E+03  0.53563271890E+03  0.00000000000E+00 0. -1.
         -2   -1    0    0    0  501 -0.00000000000E+00 -0.00000000000E+00 -0.38381857987E+02  0.38381857987E+02  0.00000000000E+00 0.  1.
         23    2    1    2    0    0 -0.37812431313E+02 -0.20072161228E+02  0.60020858186E+02  0.11723212548E+03  0.91149307229E+02 0.  0.
         23    2    1    2    0    0  0.37812431313E+02  0.20072161228E+02  0.43723000272E+03  0.45678245141E+03  0.12508981178E+03 0.  0.
          5    1    4    4  502    0  0.42494041053E+02  0.57442300009E+02  0.14087414082E+03  0.15801378834E+03  0.41800000000E+01 0. -1.
         -5    1    4    4    0  502 -0.46816097406E+01 -0.37370138781E+02  0.29635586190E+03  0.29876866306E+03  0.41800000000E+01 0. -1.
        -11    1    3    3    0    0 -0.25248382952E+02 -0.47969252051E+02  0.66665279155E+02  0.85923160026E+02  0.00000000000E+00 0. -1.
         11    1    3    3    0    0 -0.12564048361E+02  0.27897090823E+02 -0.66444209691E+01  0.31308965451E+02  0.00000000000E+00 0.  1.
</event>
<event>
 8    1  0.8061721E-006  0.1067958E+03  0.7561462E-02  0.1266621E+00
         -1   -1    0    0    0  501 -0.00000000000E+00  0.00000000000E+00  0.31764886687E+02  0.31764886687E+02  0.00000000000E+00 0.  1.
          1   -1    0    0  501    0  0.00000000000E+00 -0.00000000000E+00 -0.48618362700E+03  0.48618362700E+03  0.00000000000E+00 0. -1.
         23    2    1    2    0    0  0.35896372001E+02  0.46760237811E+02 -0.15921047729E+03  0.19195774437E+03  0.89580858337E+02 0.  0.
         23    2    1    2    0    0 -0.35896372001E+02 -0.46760237811E+02 -0.29520826302E+03  0.32599076932E+03  0.12508794411E+03 0.  0.
          5    1    4    4  502    0 -0.46682615737E+02  0.33211689557E+02 -0.12627967267E+03  0.13873107462E+03  0.41800000000E+01 0. -1.
         -5    1    4    4    0  502  0.10786243736E+02 -0.79971927369E+02 -0.16892859036E+03  0.18725969470E+03  0.41800000000E+01 0. -1.
        -11    1    3    3    0    0 -0.10500131483E+02  0.17753377663E+02  0.29301595987E+01  0.20833171023E+02  0.00000000000E+00 0.  1.
         11    1    3    3    0    0  0.46396503484E+02  0.29006860148E+02 -0.16214063689E+03  0.17112457334E+03  0.00000000000E+00 0. -1.
</event>
<event>
 8    1  0.8061721E-006  0.1078444E+03  0.7561462E-02  0.1264615E+00
         -2   -1    0    0    0  501 -0.00000000000E+00  0.00000000000E+00  0.13748881979E+03  0.13748881979E+03  0.00000000000E+00 0.  1.
          2   -1    0    0  501    0  0.00000000000E+00 -0.00000000000E+00 -0.86137577870E+02  0.86137577870E+02  0.00000000000E+00 0. -1.
         23    2    1    2    0    0  0.66659625659E+00  0.15787684574E+02  0.24066705155E+02  0.94625690537E+02  0.90139445737E+02 0.  0.
         23    2    1    2    0    0 -0.66659625659E+00 -0.15787684574E+02  0.27284536766E+02  0.12900070712E+03  0.12508813356E+03 0.  0.
          5    1    4    4  502    0  0.60680624386E+02  0.49913077896E+01  0.10101409621E+02  0.61859212780E+02  0.41800000000E+01 0.  1.
         -5    1    4    4    0  502 -0.61347220643E+02 -0.20778992364E+02  0.17183127144E+02  0.67141494344E+02  0.41800000000E+01 0.  1.
        -11    1    3    3    0    0 -0.17542270843E+02 -0.33168466533E+02  0.10231654369E+01  0.37535653797E+02  0.00000000000E+00 0.  1.
         11    1    3    3    0    0  0.18208867100E+02  0.48956151107E+02  0.23043539718E+02  0.57090036740E+02  0.00000000000E+00 0. -1.
</event>
<event>
 8    1  0.8061721E-006  0.1079192E+03  0.7561462E-02  0.1264472E+00
          2   -1    0    0  501    0  0.00000000000E+00  0.00000000000E+00  0.35719441493E+03  0.35719441493E+03  0.00000000000E+00 0. -1.
         -2   -1    0    0    0  501 -0.00000000000E+00 -0.00000000000E+00 -0.58504802815E+02  0.58504802815E+02  0.00000000000E+00 0.  1.
         23    2    1    2    0    0  0.67808425960E+02  0.50459488300E+02  0.78001779350E+02  0.14831459710E+03  0.93641868529E+02 0.  0.
         23    2    1    2    0    0 -0.67808425960E+02 -0.50459488300E+02  0.22068783276E+03  0.26738462064E+03  0.12508906121E+03 0.  0.
          5    1    4    4  502    0 -0.30414539688E+02 -0.67734801409E+02  0.21255664369E+03  0.22519068969E+03  0.41800000000E+01 0. -1.
         -5    1    4    4    0  502 -0.37393886272E+02  0.17275313109E+02  0.81311890780E+01  0.42193930954E+02  0.41800000000E+01 0. -1.
        -11    1    3    3    0    0  0.37987721847E+02  0.57977456132E+02  0.91449197957E+02  0.11474932783E+03  0.00000000000E+00 0. -1.
         11    1    3    3    0    0  0.29820704112E+02 -0.75179678327E+01 -0.13447418607E+02  0.33565269272E+02  0.00000000000E+00 0.  1.
</event>
<event>
 8    1  0.8061721E-006  0.1065440E+03  0.7561462E-02  0.1267107E+00
          1   -1    0    0  501    0  0.00000000000E+00  0.00000000000E+00  0.54154076569E+02  0.54154076569E+02  0.00000000000E+00 0. -1.
         -1   -1    0    0    0  501 -0.00000000000E+00 -0.00000000000E+00 -0.33572153320E+03  0.33572153320E+03  0.00000000000E+00 0.  1.
         23    2    1    2    0    0  0.33132585678E+02  0.71613708400E+02 -0.14726457505E+03  0.19009476978E+03  0.90680069305E+02 0.  0.
         23    2    1    2    0    0 -0.33132585678E+02 -0.71613708400E+02 -0.13430288159E+03  0.19978083999E+03  0.12509527793E+03 0.  0.
          5    1    4    4  502    0 -0.63834647442E+02 -0.55637041604E+02 -0.30205524505E+02  0.90001048456E+02  0.41800000000E+01 0. -1.
         -5    1    4    4    0  502  0.30702061764E+02 -0.15976666795E+02 -0.10409735708E+03  0.10977979154E+03  0.41800000000E+01 0. -1.
        -11    1    3    3    0    0 -0.98677072333E+01  0.36855521804E+02 -0.62948167732E+01  0.38669443385E+02  0.00000000000E+00 0. -1.
         11    1    3    3    0    0  0.43000292911E+02  0.34758186596E+02 -0.14096975827E+03  0.15142532639E+03  0.00000000000E+00 0.  1.
</event>
<event>
 8    1  0.8061721E-006  0.9376710E+02  0.7561462E-02  0.1293977E+00
         -2   -1    0    0    0  501 -0.00000000000E+00  0.00000000000E+00  0.13978974657E+02  0.13978974657E+02  0.00000000000E+00 0.  1.
          2   -1    0    0  501    0  0.00000000000E+00 -0.00000000000E+00 -0.19399558316E+04  0.19399558316E+04  0.00000000000E+00 0. -1.
         23    2    1    2    0    0  0.18112314121E+02  0.69691985928E+02 -0.31093013716E+03  0.33245134913E+03  0.93066215784E+02 0.  0.
         23    2    1    2    0    0 -0.18112314121E+02 -0.69691985928E+02 -0.16150467198E+04  0.16214834571E+04  0.12509063042E+03 0.  0.
          5    1    4    4  502    0 -0.47909646286E+01 -0.35458397201E+02 -0.15042469565E+04  0.15046782480E+04  0.41800000000E+01 0.  1.
         -5    1    4    4    0  502 -0.13321349492E+02 -0.34233588727E+02 -0.11079976326E+03  0.11680520916E+03  0.41800000000E+01 0.  1.
        -11    1    3    3    0    0  0.54199856779E+02  0.35255273489E+02 -0.21225791269E+03  0.22188731438E+03  0.00000000000E+00 0. -1.
         11    1    3    3    0    0 -0.36087542658E+02  0.34436712439E+02 -0.98672224469E+02  0.11056403475E+03  0.00000000000E+00 0.  1.
</event>
<event>
 8    1  0.8061721E-006  0.2052336E+03  0.7561462E-02  0.1145397E+00
          1   -1    0    0  501    0  0.00000000000E+00  0.00000000000E+00  0.69736016729E+03  0.69736016729E+03  0.00000000000E+00 0. -1.
         -1   -1    0    0    0  501 -0.00000000000E+00 -0.00000000000E+00 -0.12154291196E+03  0.12154291196E+03  0.00000000000E+00 0.  1.
         23    2    1    2    0    0  0.12638650987E+03 -0.11988907754E+03 -0.84353301792E+01  0.19652994334E+03  0.90586550015E+02 0.  0.
         23    2    1    2    0    0 -0.12638650987E+03  0.11988907754E+03  0.58425258551E+03  0.62237313591E+03  0.12510114243E+03 0.  0.
          5    1    4    4  502    0 -0.23680965003E+02  0.10815957885E+03  0.28830930123E+03  0.30886729866E+03  0.41800000000E+01 0.  1.
         -5    1    4    4    0  502 -0.10270554487E+03  0.11729498692E+02  0.29594328428E+03  0.31350583726E+03  0.41800000000E+01 0.  1.
        -11    1    3    3    0    0  0.46101872225E+02  0.64173190459E+01  0.11501560508E+01  0.46560578447E+02  0.00000000000E+00 0.  1.
         11    1    3    3    0    0  0.80284637644E+02 -0.12630639659E+03 -0.95854862300E+01  0.14996936489E+03  0.00000000000E+00 0. -1.
</event>
<event>
 8    1  0.8061721E-006  0.1099131E+03  0.7561462E-02  0.1260731E+00
         -1   -1    0    0    0  501 -0.00000000000E+00  0.00000000000E+00  0.17252732771E+02  0.17252732771E+02  0.00000000000E+00 0.  1.
          1   -1    0    0  501    0  0.00000000000E+00 -0.00000000000E+00 -0.10620007538E+04  0.10620007538E+04  0.00000000000E+00 0. -1.
         23    2    1    2    0    0  0.39586033710E+02 -0.70480893969E+02 -0.46046696279E+03  0.47628597409E+03  0.91015904217E+02 0.  0.
         23    2    1    2    0    0 -0.39586033710E+02  0.70480893969E+02 -0.58428105825E+03  0.60296751249E+03  0.12510337967E+03 0.  0.
          5    1    4    4  502    0  0.87576183692E+01 -0.14033940965E+02 -0.33320338612E+03  0.33363995009E+03  0.41800000000E+01 0. -1.
         -5    1    4    4    0  502 -0.48343652079E+02  0.84514834935E+02 -0.25107767213E+03  0.26932756239E+03  0.41800000000E+01 0. -1.
        -11    1    3    3    0    0 -0.16864067908E+01 -0.63414186403E+02 -0.38307898599E+03  0.38829590844E+03  0.00000000000E+00 0. -1.
         11    1    3    3    0    0  0.41272440501E+02 -0.70667075665E+01 -0.77387976794E+02  0.87990065649E+02  0.00000000000E+00 0.  1.
</event>
<event>
 7    1  0.8061721E-006  0.1248114E+03  0.7561462E-02  0.1235364E+00
         -1   -1    0    0    0  501 -0.00000000000E+00  0.00000000000E+00  0.66264981989E+03  0.66264981989E+03  0.00000000000E+00 0.  1.
          1   -1    0    0  501    0  0.00000000000E+00 -0.00000000000E+00 -0.55095261267E+02  0.55095261267E+02  0.00000000000E+00 0. -1.
         23    2    1    2    0    0 -0.17643811808E+02 -0.65699076108E+02  0.16389013519E+03  0.21710496414E+03  0.12508763466E+03 0.  0.
          5    1    3    3  502    0 -0.23983908457E+02 -0.29341156310E+02  0.17438824682E+03  0.17850732295E+03  0.41800000000E+01 0.  1.
         -5    1    3    3    0  502  0.63400966491E+01 -0.36357919798E+02 -0.10498111628E+02  0.38597641189E+02  0.41800000000E+01 0.  1.
        -11    1    1    2    0    0  0.82869216408E+02  0.70709741706E+02  0.90954958413E+02  0.14191539402E+03  0.00000000000E+00 0. -1.
         11    1    1    2    0    0 -0.65225404600E+02 -0.50106655986E+01  0.35270946502E+03  0.35872472300E+03  0.00000000000E+00 0.  1.
</event>
<event>
 8    1  0.8061721E-006  0.1578702E+03  0.7561462E-02  0.1191122E+00
          1   -1    0    0  501    0  0.00000000000E+00  0.00000000000E+00  0.12646997152E+04  0.12646997152E+04  0.00000000000E+00 0. -1.
         -1   -1    0    0    0  501 -0.00000000000E+00 -0.00000000000E+00 -0.21764470164E+02  0.21764470164E+02  0.00000000000E+00 0.  1.
         23    2    1    2    0    0 -0.12180804059E+03 -0.16229489797E+02  0.49461244813E+03  0.51787162752E+03  0.91918189996E+02 0.  0.
         23    2    1    2    0    0  0.12180804059E+03  0.16229489797E+02  0.74832279695E+03  0.76859255789E+03  0.12508763534E+03 0.  0.
          5    1    4    4  502    0  0.61423090314E+02 -0.54429497475E+02  0.36596988129E+03  0.37508238112E+03  0.41800000000E+01 0. -1.
         -5    1    4    4    0  502  0.60384950281E+02  0.70658987272E+02  0.38235291566E+03  0.39351017677E+03  0.41800000000E+01 0. -1.
        -11    1    3    3    0    0 -0.71269194776E+02 -0.43098198955E+02  0.18321116647E+03  0.20125378107E+03  0.00000000000E+00 0.  1.
         11    1    3    3    0    0 -0.50538845819E+02  0.26868709158E+02  0.31140128166E+03  0.31661784645E+03  0.00000000000E+00 0. -1.
</event>
<event>
 8    1  0.8061721E-006  0.9582863E+02  0.7561462E-02  0.1289321E+00
          2   -1    0    0  501    0  0.00000000000E+00  0.00000000000E+00  0.67763994742E+03  0.67763994742E+03  0.00000000000E+00 0. -1.
         -2   -1    0    0    0  501 -0.00000000000E+00 -0.00000000000E+00 -0.19813780208E+02  0.19813780208E+02  0.00000000000E+00 0.  1.
         23    2    1    2    0    0  0.36419211820E+02  0.41037075553E+02  0.22385965620E+03  0.24248480388E+03  0.75334811884E+02 0.  0.
         23    2    1    2    0    0 -0.36419211820E+02 -0.41037075553E+02  0.43396651102E+03  0.45496892375E+03  0.12513747773E+03 0.  0.
          5    1    4    4  502    0 -0.52388620689E+02 -0.67523930440E+02  0.18238782472E+03  0.20146175757E+03  0.41800000000E+01 0. -1.
         -5    1    4    4    0  502  0.15969408868E+02  0.26486854888E+02  0.25157868630E+03  0.25350716617E+03  0.41800000000E+01 0. -1.
        -11    1    3    3    0    0  0.42789887186E+02  0.11006537906E+02  0.53520525545E+02  0.69401476762E+02  0.00000000000E+00 0.  1.
         11    1    3    3    0    0 -0.63706753654E+01  0.30030537646E+02  0.17033913065E+03  0.17308332712E+03  0.00000000000E+00 0. -1.
</event>
<event>
 8    1  0.8061721E-006  0.9119462E+02  0.7561462E-02  0.1299984E+00
         -2   -1    0    0    0  501 -0.00000000000E+00  0.00000000000E+00  0.57080876421E+02  0.57080876421E+02  0.00000000000E+00 0. -1.
          2   -1    0    0  501    0  0.00000000000E+00 -0.00000000000E+00 -0.25735716425E+03  0.25735716425E+03  0.00000000000E+00 0.  1.
         23    2    1    2    0    0  0.31990850033E+02  0.44657047076E+02 -0.85959792551E+02  0.13630373194E+03  0.90398866510E+02 0.  0.
         23    2    1    2    0    0 -0.31990850033E+02 -0.44657047076E+02 -0.11431649528E+03  0.17813430873E+03  0.12508359011E+03 0.  0.
          5    1    4    4  502    0  0.19082044948E+02 -0.25410256334E+02 -0.11895681471E+03  0.12319903300E+03  0.41800000000E+01 0. -1.
         -5    1    4    4    0  502 -0.51072894981E+02 -0.19246790743E+02  0.46403194260E+01  0.54935275734E+02  0.41800000000E+01 0. -1.
        -11    1    3    3    0    0  0.15216664995E+01 -0.22134127048E+02  0.13551792122E+01  0.22227720527E+02  0.00000000000E+00 0. -1.
         11    1    3    3    0    0  0.30469183534E+02  0.66791174125E+02 -0.87314971763E+02  0.11407601141E+03  0.00000000000E+00 0.  1.
</event>
<event>
 8    1  0.8061721E-006  0.8365216E+02  0.7561462E-02  0.1318995E+00
          1   -1    0    0  501    0  0.00000000000E+00  0.00000000000E+00  0.68459469858E+02  0.68459469858E+02  0.00000000000E+00 0. -1.
         -1   -1    0    0    0  501 -0.00000000000E+00 -0.00000000000E+00 -0.17419367511E+03  0.17419367511E+03  0.00000000000E+00 0.  1.
         23    2    1    2    0    0  0.59504417021E+01 -0.17377560699E+02 -0.51476663213E+02  0.10683319560E+03  0.91793776767E+02 0.  0.
         23    2    1    2    0    0 -0.59504417021E+01  0.17377560699E+02 -0.54257542034E+02  0.13581994937E+03  0.12314946369E+03 0.  0.
          5    1    4    4  502    0  0.20323671217E+02 -0.46076654010E+02 -0.42474276928E+02  0.66012470466E+02  0.41800000000E+01 0. -1.
         -5    1    4    4    0  502 -0.26274112919E+02  0.63454214710E+02 -0.11783265107E+02  0.69807478902E+02  0.41800000000E+01 0.  1.
        -11    1    3    3    0    0  0.48292448028E+01 -0.32472189552E+02 -0.73276102841E+02  0.80294158861E+02  0.00000000000E+00 0.  1.
         11    1    3    3    0    0  0.11211968993E+01  0.15094628853E+02  0.21799439628E+02  0.26539036734E+02  0.00000000000E+00 0. -1.
</event>
<event>
 8    1  0.8061721E-006  0.1210816E+03  0.7561462E-02  0.1241323E+00
         -1   -1    0    0    0  501 -0.00000000000E+00  0.00000000000E+00  0.54350947350E+02  0.54350947350E+02  0.00000000000E+00 0.  1.
          1   -1    0    0  501    0  0.00000000000E+00 -0.00000000000E+00 -0.41465705520E+03  0.41465705520E+03  0.00000000000E+00 0. -1.
         23    2    1    2    0    0 -0.42015337977E+02  0.75709389901E+02 -0.77893583238E+02  0.14822260626E+03  0.91680588737E+02 0.  0.
         23    2    1    2    0    0  0.42015337977E+02 -0.75709389901E+02 -0.28241252462E+03  0.32078539630E+03  0.12509690673E+03 0.  0.
          5    1    4    4  502    0 -0.32935398802E+02 -0.32933324810E+02 -0.34114003667E+02  0.57884212213E+02  0.41800000000E+01 0. -1.
         -5    1    4    4    0  502  0.74950736779E+02 -0.42776065090E+02 -0.24829852095E+03  0.26290118408E+03  0.41800000000E+01 0. -1.
        -11    1    3    3    0    0  0.16731377504E+02  0.30811375357E+02  0.68850565708E+01  0.35730712958E+02  0.00000000000E+00 0.  1.
         11    1    3    3    0    0 -0.58746715480E+02  0.44898014544E+02 -0.84778639809E+02  0.11249189330E+03  0.00000000000E+00 0. -1.
</event>
<event>
 8    1  0.8061721E-006  0.1106769E+03  0.7561462E-02  0.1259321E+00
         -1   -1    0    0    0  501 -0.00000000000E+00  0.00000000000E+00  0.14869014076E+02  0.14869014076E+02  0.00000000000E+00 0.  1.
          1   -1    0    0  501    0  0.00000000000E+00 -0.00000000000E+00 -0.84060778683E+03  0.84060778683E+03  0.00000000000E+00 0. -1.
         23    2    1    2    0    0  0.24556943148E+02 -0.47216845436E+01 -0.36756862022E+03  0.38004111285E+03  0.93269604521E+02 0.  0.
         23    2    1    2    0    0 -0.24556943148E+02  0.47216845436E+01 -0.45817015254E+03  0.47543568805E+03  0.12447436298E+03 0.  0.
          5    1    4    4  502    0  0.50770188342E+02 -0.17069845779E+00 -0.20363704040E+03  0.20991226211E+03  0.41800000000E+01 0. -1.
         -5    1    4    4    0  502 -0.75327131490E+02  0.48923830014E+01 -0.25453311214E+03  0.26552342595E+03  0.41800000000E+01 0.  1.
        -11    1    3    3    0    0 -0.23770004571E+01  0.41363314026E+02 -0.12568639904E+03  0.13233912794E+03  0.00000000000E+00 0.  1.
         11    1    3    3    0    0  0.26933943605E+02 -0.46084998569E+02 -0.24188222118E+03  0.24770198492E+03  0.00000000000E+00 0. -1.
</event>
<event>
 8    1  0.8061721E-006  0.1106075E+03  0.7561462E-02  0.1259449E+00
         -1   -1    0    0    0  501 -0.00000000000E+00  0.00000000000E+00  0.12425771497E+03  0.12425771497E+03  0.00000000000E+00 0.  1.
          1   -1    0    0  501    0  0.00000000000E+00 -0.00000000000E+00 -0.12851531180E+03  0.12851531180E+03  0.00000000000E+00 0. -1.
         23    2    1    2    0    0 -0.31634939554E+02  0.41463841604E+02  0.37041412054E+02  0.11109433401E+03  0.90828769012E+02 0.  0.
         23    2    1    2    0    0  0.31634939554E+02 -0.41463841604E+02 -0.41299008880E+02  0.14167869276E+03  0.12508886556E+03 0.  0.
          5    1    4    4  502    0 -0.15411555747E+02  0.36781419901E+02  0.28087087639E+01  0.40196394682E+02  0.41800000000E+01 0.  1.
         -5    1    4    4    0  502  0.47046495302E+02 -0.78245261506E+02 -0.44107717644E+02  0.10148229808E+03  0.41800000000E+01 0.  1.
        -11    1    3    3    0    0  0.11165976850E+01  0.54470238273E+02  0.49605982237E+02  0.73681796406E+02  0.00000000000E+00 0.  1.
         11    1    3    3    0    0 -0.32751537239E+02 -0.13006396669E+02 -0.12564570183E+02  0.37412537601E+02  0.00000000000E+00 0. -1.
</event>
<event>
 8    1  0.8061721E-006  0.1309850E+03  0.7561462E-02  0.1226001E+00
         -1   -1    0    0    0  501 -0.00000000000E+00  0.00000000000E+00  0.23978683638E+02  0.23978683638E+02  0.00000000000E+00 0.  1.
          1   -1    0    0  501    0  0.00000000000E+00 -0.00000000000E+00 -0.77691341183E+03  0.77691341183E+03  0.00000000000E+00 0. -1.
         23    2    1    2    0    0  0.64516219167E+02 -0.45484594665E+02 -0.26264275597E+03  0.28877346486E+03  0.90430668774E+02 0.  0.
         23    2    1    2    0    0 -0.64516219167E+02  0.45484594665E+02 -0.49029197222E+03  0.51211863061E+03  0.12509229755E+03 0.  0.
          5    1    4    4  502    0 -0.76062472675E+02 -0.21988354846E+02 -0.26938898317E+03  0.28081467938E+03  0.41800000000E+01 0.  1.
         -5    1    4    4    0  502  0.11546253508E+02  0.67472949511E+02 -0.22090298904E+03  0.23130395123E+03  0.41800000000E+01 0.  1.
        -11    1    3    3    0    0 -0.14094217651E+02 -0.31156367383E+02 -0.12525032545E+03  0.12983454943E+03  0.00000000000E+00 0. -1.
         11    1    3    3    0    0  0.78610436818E+02 -0.14328227282E+02 -0.13739243052E+03  0.15893891543E+03  0.00000000000E+00 0.  1.
</event>
<event>
 8    1  0.8061721E-006  0.6444042E+02  0.7561462E-02  0.1380089E+00
          2   -1    0    0  501    0  0.00000000000E+00  0.00000000000E+00  0.54238367640E+02  0.54238367640E+02  0.00000000000E+00 0. -1.
         -2   -1    0    0    0  501 -0.00000000000E+00 -0.00000000000E+00 -0.23999776053E+03  0.23999776053E+03  0.00000000000E+00 0.  1.
         23    2    1    2    0    0 -0.23804804956E+02  0.14928694296E+01 -0.11417044723E+03  0.14815307969E+03  0.91353963258E+02 0.  0.
         23    2    1    2    0    0  0.23804804956E+02 -0.14928694296E+01 -0.71588945660E+02  0.14608304848E+03  0.12508550082E+03 0.  0.
          5    1    4    4  502    0  0.32513265575E+02 -0.29684249146E+02  0.20898562583E+02  0.48913080088E+02  0.41800000000E+01 0. -1.
         -5    1    4    4    0  502 -0.87084606192E+01  0.28191379716E+02 -0.92487508243E+02  0.97169968394E+02  0.41800000000E+01 0. -1.
        -11    1    3    3    0    0 -0.23144934823E+02  0.23415726616E+02 -0.12082703184E+03  0.12523240749E+03  0.00000000000E+00 0.  1.
         11    1    3    3    0    0 -0.65987013310E+00 -0.21922857186E+02  0.66565846080E+01  0.22920672208E+02  0.00000000000E+00 0. -1.
</event>
<event>
 8    1  0.8061721E-006  0.1094378E+03  0.7561462E-02  0.1261615E+00
          1   -1    0    0  501    0  0.00000000000E+00  0.00000000000E+00  0.38794979387E+03  0.38794979387E+03  0.00000000000E+00 0. -1.
         -1   -1    0    0    0  501 -0.00000000000E+00 -0.00000000000E+00 -0.50253848993E+02  0.50253848993E+02  0.00000000000E+00 0.  1.
         23    2    1    2    0    0  0.72302314980E+02 -0.94945482277E+01  0.74105711265E+02  0.13866943418E+03  0.91759382826E+02 0.  0.
         23    2    1    2    0    0 -0.72302314980E+02  0.94945482277E+01  0.26359023362E+03  0.29953420869E+03  0.12216038522E+03 0.  0.
          5    1    4    4  502    0 -0.50111049957E+02 -0.54277977980E+02  0.12360995516E+03  0.14406286695E+03  0.41800000000E+01 0. -1.
         -5    1    4    4    0  502 -0.22191265023E+02  0.63772526208E+02  0.13998027846E+03  0.15547134173E+03  0.41800000000E+01 0.  1.
        -11    1    3    3    0    0  0.45587717951E+02  0.65707580919E+01 -0.11577585472E+02  0.47491634793E+02  0.00000000000E+00 0.  1.
         11    1    3    3    0    0  0.26714597029E+02 -0.16065306320E+02  0.85683296738E+02  0.91177799389E+02  0.00000000000E+00 0. -1.
</event>
<event>
 8    1  0.8061721E-006  0.7782734E+02  0.7561462E-02  0.1335333E+00
          2   -1    0    0  501    0  0.00000000000E+00  0.00000000000E+00  0.42835482034E+03  0.42835482034E+03  0.00000000000E+00 0. -1.
         -2   -1    0    0    0  501 -0.00000000000E+00 -0.00000000000E+00 -0.31895429945E+02  0.31895429945E+02  0.00000000000E+00 0.  1.
         23    2    1    2    0    0  0.33829544375E+02  0.24816879379E+02  0.16145053974E+03  0.19073852186E+03  0.92491033960E+02 0.  0.
         23    2    1    2    0    0 -0.33829544375E+02 -0.24816879379E+02  0.23500885065E+03  0.26951172843E+03  0.12508835397E+03 0.  0.
          5    1    4    4  502    0  0.12459811523E+02 -0.25180936866E+02  0.21826987464E+03  0.22011028386E+03  0.41800000000E+01 0. -1.
         -5    1    4    4    0  502 -0.46289355898E+02  0.36405748742E+00  0.16738976010E+02  0.49401444566E+02  0.41800000000E+01 0. -1.
        -11    1    3    3    0    0 -0.11816012955E+02  0.32411612318E+02  0.13070810933E+03  0.13518409899E+03  0.00000000000E+00 0.  1.
         11    1    3    3    0    0  0.45645557330E+02 -0.75947329394E+01  0.30742430409E+02  0.55554422865E+02  0.00000000000E+00 0. -1.
</event>
<event>
 8    1  0.8061721E-006  0.9073054E+02  0.7561462E-02  0.1301092E+00
         -1   -1    0    0    0  501 -0.00000000000E+00  0.00000000000E+00  0.38348783523E+02  0.38348783523E+02  0.00000000000E+00 0.  1.
          1   -1    0    0  501    0  0.00000000000E+00 -0.00000000000E+00 -0.40833708155E+03  0.40833708155E+03  0.00000000000E+00 0. -1.
         23    2    1    2    0    0 -0.26882214537E+02  0.47139850087E+02 -0.12924470100E+03  0.17001069897E+03  0.96200967266E+02 0.  0.
         23    2    1    2    0    0  0.26882214537E+02 -0.47139850087E+02 -0.24074359702E+03  0.27667516610E+03  0.12508736589E+03 0.  0.
          5    1    4    4  502    0  0.10786416104E+01  0.97501749235E+01 -0.20359800119E+03  0.20387704105E+03  0.41800000000E+01 0. -1.
         -5    1    4    4    0  502  0.25803572926E+02 -0.56890025011E+02 -0.37145595838E+02  0.72798125056E+02  0.41800000000E+01 0. -1.
        -11    1    3    3    0    0  0.22846249264E+02 -0.15946061905E+02 -0.19494545646E+02  0.34003901330E+02  0.00000000000E+00 0.  1.
         11    1    3    3    0    0 -0.49728463800E+02  0.63085911992E+02 -0.10975015536E+03  0.13600679764E+03  0.00000000000E+00 0. -1.
</event>
<event>
 8    1  0.8061721E-006  0.1158616E+03  0.7561462E-02  0.1250085E+00
         -3   -1    0    0    0  501 -0.00000000000E+00  0.00000000000E+00  0.93243513517E+02  0.93243513517E+02  0.00000000000E+00 0.  1.
          3   -1    0    0  501    0  0.00000000000E+00 -0.00000000000E+00 -0.17514010316E+03  0.17514010316E+03  0.00000000000E+00 0. -1.
         23    2    1    2    0    0  0.61987486914E+02 -0.14711592903E+02 -0.14556542724E+02  0.11268679405E+03  0.91801640055E+02 0.  0.
         23    2    1    2    0    0 -0.61987486914E+02  0.14711592903E+02 -0.67340046917E+02  0.15569682263E+03  0.12509172298E+03 0.  0.
          5    1    4    4  502    0  0.14894930952E+02  0.38141668693E+02  0.11805418345E+02  0.42819226535E+02  0.41800000000E+01 0.  1.
         -5    1    4    4    0  502 -0.76882417866E+02 -0.23430075790E+02 -0.79145465261E+02  0.11287759609E+03  0.41800000000E+01 0.  1.
        -11    1    3    3    0    0 -0.12006830995E+02 -0.31927756442E+02 -0.13566440567E+02  0.36709589096E+02  0.00000000000E+00 0. -1.
         11    1    3    3    0    0  0.73994317909E+02  0.17216163539E+02 -0.99010215703E+00  0.75977204950E+02  0.00000000000E+00 0.  1.
</event>
<event>
 8    1  0.8061721E-006  0.1111878E+03  0.7561462E-02  0.1258386E+00
         -1   -1    0    0    0  501 -0.00000000000E+00  0.00000000000E+00  0.57462005499E+02  0.57462005499E+02  0.00000000000E+00 0.  1.
          1   -1    0    0  501    0  0.00000000000E+00 -0.00000000000E+00 -0.28041990867E+03  0.28041990867E+03  0.00000000000E+00 0. -1.
         23    2    1    2    0    0  0.52232548368E+02  0.28413215159E+02 -0.62220156820E+02  0.12570468678E+03  0.91622979969E+02 0.  0.
         23    2    1    2    0    0 -0.52232548368E+02 -0.28413215159E+02 -0.16073774636E+03  0.21217722740E+03  0.12508798031E+03 0.  0.
          5    1    4    4  502    0 -0.35576706728E+02 -0.71706326778E+02 -0.13972074845E+03  0.16108028840E+03  0.41800000000E+01 0.  1.
         -5    1    4    4    0  502 -0.16655841640E+02  0.43293111619E+02 -0.21016997903E+02  0.51096939001E+02  0.41800000000E+01 0.  1.
        -11    1    3    3    0    0  0.40378567967E+01  0.44617112648E+02  0.70413795539E+00  0.44804986763E+02  0.00000000000E+00 0.  1.
         11    1    3    3    0    0  0.48194691572E+02 -0.16203897489E+02 -0.62924294775E+02  0.80899700015E+02  0.00000000000E+00 0. -1.
</event>
<event>
 8    1  0.8061721E-006  0.3373101E+03  0.7561462E-02  0.1067947E+00
          2   -1    0    0  501    0  0.00000000000E+00  0.00000000000E+00  0.44230219437E+03  0.44230219437E+03  0.00000000000E+00 0.  1.
         -2   -1    0    0    0  501 -0.00000000000E+00 -0.00000000000E+00 -0.26653709973E+03  0.26653709973E+03  0.00000000000E+00 0. -1.
         23    2    1    2    0    0  0.15669808426E+03  0.28511300839E+03  0.75192573769E+02  0.34606316038E+03  0.90895933098E+02 0.  0.
         23    2    1    2    0    0 -0.15669808426E+03 -0.28511300839E+03  0.10057252087E+03  0.36277613372E+03  0.12509186256E+03 0.  0.
          5    1    4    4  502    0 -0.13645858958E+03 -0.11905820219E+03  0.48485305914E+02  0.18752093075E+03  0.41800000000E+01 0.  1.
         -5    1    4    4    0  502 -0.20239494686E+02 -0.16605480620E+03  0.52087214961E+02  0.17525520298E+03  0.41800000000E+01 0.  1.
        -11    1    3    3    0    0  0.15558755251E+03  0.27497260798E+03  0.51290406799E+02  0.32007519033E+03  0.00000000000E+00 0. -1.
         11    1    3    3    0    0  0.11105317537E+01  0.10140400413E+02  0.23902166970E+02  0.25987970047E+02  0.00000000000E+00 0.  1.
</event>
<event>
 8    1  0.8061721E-006  0.2078249E+03  0.7561462E-02  0.1143300E+00
         -4   -1    0    0    0  501 -0.00000000000E+00  0.00000000000E+00  0.17372888990E+03  0.17372888990E+03  0.00000000000E+00 0.  1.
          4   -1    0    0  501    0  0.00000000000E+00 -0.00000000000E+00 -0.28772907169E+03  0.28772907169E+03  0.00000000000E+00 0. -1.
         23    2    1    2    0    0 -0.53035601059E+02  0.18301021558E+03 -0.17382006596E+02  0.21389322205E+03  0.95617269897E+02 0.  0.
         23    2    1    2    0    0  0.53035601059E+02 -0.18301021558E+03 -0.96618175191E+02  0.24756473953E+03  0.12509082500E+03 0.  0.
          5    1    4    4  502    0  0.28657395290E+02  0.78317877465E+01 -0.33660591131E+02  0.45089810372E+02  0.41800000000E+01 0. -1.
         -5    1    4    4    0  502  0.24378205770E+02 -0.19084200332E+03 -0.62957584059E+02  0.20247492916E+03  0.41800000000E+01 0. -1.
        -11    1    3    3    0    0 -0.44372277232E+02  0.95868410604E+02 -0.54394929654E+02  0.11882112401E+03  0.00000000000E+00 0.  1.
         11    1    3    3    0    0 -0.86633238271E+01  0.87141804972E+02  0.37012923059E+02  0.95072098045E+02  0.00000000000E+00 0. -1.
</event>
<event>
 8    1  0.8061721E-006  0.1260685E+03  0.7561462E-02  0.1233409E+00
          2   -1    0    0  501    0  0.00000000000E+00  0.00000000000E+00  0.23309696079E+03  0.23309696079E+03  0.00000000000E+00 0. -1.
         -2   -1    0    0    0  501 -0.00000000000E+00 -0.00000000000E+00 -0.11643527281E+03  0.11643527281E+03  0.00000000000E+00 0.  1.
         23    2    1    2    0    0 -0.96759881640E+02 -0.27468926940E+02 -0.21663020651E+02  0.13763993598E+03  0.91424552885E+02 0.  0.
         23    2    1    2    0    0  0.96759881640E+02  0.27468926940E+02  0.13832470863E+03  0.21189229762E+03  0.12509038385E+03 0.  0.
          5    1    4    4  502    0  0.54249206145E+02 -0.16063626520E+02  0.13981309035E+03  0.15088468808E+03  0.41800000000E+01 0.  1.
         -5    1    4    4    0  502  0.42510675495E+02  0.43532553461E+02 -0.14883817200E+01  0.61007609542E+02  0.41800000000E+01 0.  1.
        -11    1    3    3    0    0 -0.72575425769E+01 -0.42972111318E+02  0.24797488247E+01  0.43651156108E+02  0.00000000000E+00 0.  1.
         11    1    3    3    0    0 -0.89502339063E+02  0.15503184377E+02 -0.24142769475E+02  0.93988779870E+02  0.00000000000E+00 0. -1.
</event>
<event>
 8    1  0.8061721E-006  0.2699189E+03  0.7561462E-02  0.1101326E+00
          2   -1    0    0  501    0  0.00000000000E+00  0.00000000000E+00  0.15825722957E+04  0.15825722957E+04  0.00000000000E+00 0. -1.
         -2   -1    0    0    0  501 -0.00000000000E+00 -0.00000000000E+00 -0.58646831211E+02  0.58646831211E+02  0.00000000000E+00 0.  1.
         23    2    1    2    0    0 -0.15596641338E+03 -0.19860878512E+03  0.11005237397E+04  0.11326046613E+04  0.88712149320E+02 0.  0.
         23    2    1    2    0    0  0.15596641338E+03  0.19860878512E+03  0.42340172483E+03  0.50861446569E+03  0.12509469411E+03 0.  0.
          5    1    4    4  502    0  0.57361461962E+02  0.16485587443E+03  0.22866850517E+03  0.28770567305E+03  0.41800000000E+01 0. -1.
         -5    1    4    4    0  502  0.98604951420E+02  0.33752910687E+02  0.19473321966E+03  0.22090879264E+03  0.41800000000E+01 0. -1.
        -11    1    3    3    0    0 -0.10653906407E+03 -0.82522754195E+02  0.44138653384E+03  0.46150043271E+03  0.00000000000E+00 0. -1.
         11    1    3    3    0    0 -0.49427349316E+02 -0.11608603092E+03  0.65913720585E+03  0.67110422855E+03  0.00000000000E+00 0.  1.
</event>
<event>
 8    1  0.8061721E-006  0.1048835E+03  0.7561462E-02  0.1270349E+00
          1   -1    0    0  501    0  0.00000000000E+00  0.00000000000E+00  0.23409383445E+03  0.23409383445E+03  0.00000000000E+00 0. -1.
         -1   -1    0    0    0  501 -0.00000000000E+00 -0.00000000000E+00 -0.72199020473E+02  0.72199020473E+02  0.00000000000E+00 0.  1.
         23    2    1    2    0    0 -0.68008003295E+02  0.11701137571E+01  0.52998525920E+02  0.12704406957E+03  0.93300022428E+02 0.  0.
         23    2    1    2    0    0  0.68008003295E+02 -0.11701137571E+01  0.10889628805E+03  0.17924878535E+03  0.12508104500E+03 0.  0.
          5    1    4    4  502    0  0.56564746689E+02  0.27673052454E+02 -0.28746012486E+01  0.63175186050E+02  0.41800000000E+01 0. -1.
         -5    1    4    4    0  502  0.11443256606E+02 -0.28843166211E+02  0.11177088930E+03  0.11607359930E+03  0.41800000000E+01 0. -1.
        -11    1    3    3    0    0 -0.19473110108E+02 -0.44580363534E+02  0.19563920280E+02  0.52434318979E+02  0.00000000000E+00 0.  1.
         11    1    3    3    0    0 -0.48534893188E+02  0.45750477291E+02  0.33434605640E+02  0.74609750592E+02  0.00000000000E+00 0. -1.
</event>
<event>
 8    1  0.8061721E-006  0.1136512E+03  0.7561462E-02  0.1253954E+00
          2   -1    0    0  501    0  0.00000000000E+00  0.00000000000E+00  0.31702448237E+02  0.31702448237E+02  0.00000000000E+00 0. -1.
         -2   -1    0    0    0  501 -0.00000000000E+00 -0.00000000000E+00 -0.65247477000E+03  0.65247477000E+03  0.00000000000E+00 0.  1.
         23    2    1    2    0    0 -0.13477046582E+02  0.49369871039E+02 -0.48941218372E+03  0.50029257722E+03  0.90273818451E+02 0.  0.
         23    2    1    2    0    0  0.13477046582E+02 -0.49369871039E+02 -0.13136013805E+03  0.18388464102E+03  0.11806379794E+03 0.  0.
          5    1    4    4  502    0  0.33286359116E+02 -0.80328757473E+02 -0.67785562375E+02  0.11033152699E+03  0.41800000000E+01 0. -1.
         -5    1    4    4    0  502 -0.19809312534E+02  0.30958886435E+02 -0.63574575674E+02  0.73553114037E+02  0.41800000000E+01 0.  1.
        -11    1    3    3    0    0 -0.37914638822E+02  0.64282177499E+02 -0.37489850672E+03  0.38225463832E+03  0.00000000000E+00 0.  1.
         11    1    3    3    0    0  0.24437592239E+02 -0.14912306461E+02 -0.11451367700E+03  0.11803793889E+03  0.00000000000E+00 0. -1.
</event>
<event>
 8    1  0.8061721E-006  0.1472162E+03  0.7561462E-02  0.1203936E+00
         -2   -1    0    0    0  501 -0.00000000000E+00  0.00000000000E+00  0.19618822569E+03  0.19618822569E+03  0.00000000000E+00 0.  1.
          2   -1    0    0  501    0  0.00000000000E+00 -0.00000000000E+00 -0.18150381501E+03  0.18150381501E+03  0.00000000000E+00 0. -1.
         23    2    1    2    0    0 -0.53277289693E+02 -0.11411891075E+03  0.91849134996E+02  0.18414794433E+03  0.98043900448E+02 0.  0.
         23    2    1    2    0    0  0.53277289693E+02  0.11411891075E+03 -0.77164724320E+02  0.19354409636E+03  0.12507328719E+03 0.  0.
          5    1    4    4  502    0 -0.13669947652E+01 -0.21551202006E+02 -0.34879427359E+02  0.41235540927E+02  0.41800000000E+01 0.  1.
         -5    1    4    4    0  502  0.54644284458E+02  0.13567011276E+03 -0.42285296961E+02  0.15230855544E+03  0.41800000000E+01 0.  1.
        -11    1    3    3    0    0 -0.33229999475E+02 -0.78485780049E+02  0.17975767355E+01  0.85249526785E+02  0.00000000000E+00 0.  1.
         11    1    3    3    0    0 -0.20047290219E+02 -0.35633130703E+02  0.90051558260E+02  0.98898417550E+02  0.00000000000E+00 0. -1.
</event>
<event>
 8    1  0.8061721E-006  0.1024578E+03  0.7561462E-02  0.1275211E+00
         -2   -1    0    0    0  501 -0.00000000000E+00  0.00000000000E+00  0.14787243654E+02  0.14787243654E+02  0.00000000000E+00 0. -1.
          2   -1    0    0  501    0  0.00000000000E+00 -0.00000000000E+00 -0.13846949330E+04  0.13846949330E+04  0.00000000000E+00 0.  1.
         23    2    1    2    0    0  0.19630898895E+02  0.66506148261E+02 -0.32744436625E+03  0.34725300414E+03  0.92500788914E+02 0.  0.
         23    2    1    2    0    0 -0.19630898895E+02 -0.66506148261E+02 -0.10424633231E+04  0.10522291725E+04  0.12509201228E+03 0.  0.
          5    1    4    4  502    0 -0.21319411148E+02 -0.76755353738E+02 -0.10364585411E+04  0.10395237763E+04  0.41800000000E+01 0.  1.
         -5    1    4    4    0  502  0.16885122530E+01  0.10249205477E+02 -0.60047819815E+01  0.12705396223E+02  0.41800000000E+01 0.  1.
        -11    1    3    3    0    0  0.40001099490E+02 -0.43358639402E+01 -0.88943299734E+02  0.97620685534E+02  0.00000000000E+00 0.  1.
         11    1    3    3    0    0 -0.20370200595E+02  0.70842012201E+02 -0.23850106651E+03  0.24963231861E+03  0.00000000000E+00 0. -1.
</event>
<event>
 8    1  0.8061721E-006  0.9007201E+02  0.7561462E-02  0.1302677E+00
          3   -1    0    0  501    0  0.00000000000E+00  0.00000000000E+00  0.20484606665E+03  0.20484606665E+03  0.00000000000E+00 0. -1.
         -3   -1    0    0    0  501 -0.00000000000E+00 -0.00000000000E+00 -0.99708346940E+02  0.99708346940E+02  0.00000000000E+00 0.  1.
         23    2    1    2    0    0  0.38494041627E+02  0.23673285039E+02 -0.33993139797E+02  0.11207616603E+03  0.96764238091E+02 0.  0.
         23    2    1    2    0    0 -0.38494041627E+02 -0.23673285039E+02  0.13913085951E+03  0.19247824756E+03  0.12509302159E+03 0.  0.
          5    1    4    4  502    0  0.41575439211E+02 -0.31011679142E+02  0.46942177161E+02  0.70080537850E+02  0.41800000000E+01 0. -1.
         -5    1    4    4    0  502 -0.80069480837E+02  0.73383941028E+01  0.92188682344E+02  0.12239770971E+03  0.41800000000E+01 0. -1.
        -11    1    3    3    0    0  0.10261419620E+02  0.14783005125E+02  0.33694955286E+02  0.38199266810E+02  0.00000000000E+00 0. -1.
         11    1    3    3    0    0  0.28232622006E+02  0.88902799136E+01 -0.67688095083E+02  0.73876899219E+02  0.00000000000E+00 0.  1.
</event>
<event>
 8    1  0.8061721E-006  0.1181124E+03  0.7561462E-02  0.1246244E+00
         -4   -1    0    0    0  501 -0.00000000000E+00  0.00000000000E+00  0.44352458747E+03  0.44352458747E+03  0.00000000000E+00 0.  1.
          4   -1    0    0  501    0  0.00000000000E+00 -0.00000000000E+00 -0.39126959580E+02  0.39126959580E+02  0.00000000000E+00 0. -1.
         23    2    1    2    0    0 -0.40578627063E+02 -0.59019511702E+02  0.22405169382E+03  0.25178051194E+03  0.89801653391E+02 0.  0.
         23    2    1    2    0    0  0.40578627063E+02  0.59019511702E+02  0.18034593407E+03  0.23087103512E+03  0.12508737420E+03 0.  0.
          5    1    4    4  502    0  0.55138384468E+02  0.78926148128E+02  0.18185457449E+03  0.20581092527E+03  0.41800000000E+01 0. -1.
         -5    1    4    4    0  502 -0.14559757404E+02 -0.19906636426E+02 -0.15086404135E+01  0.25060109843E+02  0.41800000000E+01 0. -1.
        -11    1    3    3    0    0  0.28785386024E+02 -0.12898901839E+02  0.63928970188E+02  0.71287399633E+02  0.00000000000E+00 0.  1.
         11    1    3    3    0    0 -0.69364013087E+02 -0.46120609863E+02  0.16012272363E+03  0.18049311230E+03  0.00000000000E+00 0. -1.
</event>
<event>
 8    1  0.8061721E-006  0.9734178E+02  0.7561462E-02  0.1285987E+00
          2   -1    0    0  501    0  0.00000000000E+00  0.00000000000E+00  0.69221353460E+02  0.69221353460E+02  0.00000000000E+00 0. -1.
         -2   -1    0    0    0  501 -0.00000000000E+00 -0.00000000000E+00 -0.17720620192E+03  0.17720620192E+03  0.00000000000E+00 0.  1.
         23    2    1    2    0    0 -0.58118257759E+01 -0.13523097937E+02 -0.64101493503E+02  0.11304813393E+03  0.91946873897E+02 0.  0.
         23    2    1    2    0    0  0.58118257759E+01  0.13523097937E+02 -0.43883354961E+02  0.13337942145E+03  0.12509064605E+03 0.  0.
          5    1    4    4  502    0 -0.28216445800E+02  0.54433710703E+02  0.41195971461E+01  0.61592533275E+02  0.41800000000E+01 0.  1.
         -5    1    4    4    0  502  0.34028271576E+02 -0.40910612766E+02 -0.48002952108E+02  0.71786888179E+02  0.41800000000E+01 0.  1.
        -11    1    3    3    0    0 -0.23067061755E+02 -0.41211090529E+02 -0.65077975406E+02  0.80408868936E+02  0.00000000000E+00 0.  1.
         11    1    3    3    0    0  0.17255235979E+02  0.27687992592E+02  0.97648190373E+00  0.32639264995E+02  0.00000000000E+00 0. -1.
</event>
<event>
 8    1  0.8061721E-006  0.1405392E+03  0.7561462E-02  0.1212605E+00
          2   -1    0    0  501    0  0.00000000000E+00  0.00000000000E+00  0.22616765138E+03  0.22616765138E+03  0.00000000000E+00 0. -1.
         -2   -1    0    0    0  501 -0.00000000000E+00 -0.00000000000E+00 -0.11215948950E+03  0.11215948950E+03  0.00000000000E+00 0.  1.
         23    2    1    2    0    0  0.10008779859E+03 -0.37683349263E+02  0.88620728891E+00  0.13862423595E+03  0.88194621100E+02 0.  0.
         23    2    1    2    0    0 -0.10008779859E+03  0.37683349263E+02  0.11312195459E+03  0.19970290493E+03  0.12508825440E+03 0.  0.
          5    1    4    4  502    0  0.15700474494E+02  0.20142969466E+02 -0.11781334688E+02  0.28434422190E+02  0.41800000000E+01 0. -1.
         -5    1    4    4    0  502 -0.11578827309E+03  0.17540379797E+02  0.12490328928E+03  0.17126848274E+03  0.41800000000E+01 0. -1.
        -11    1    3    3    0    0  0.79944861131E+02 -0.65721872178E+02 -0.49522235455E+01  0.10361018204E+03  0.00000000000E+00 0.  1.
         11    1    3    3    0    0  0.20142937462E+02  0.28038522916E+02  0.58384308344E+01  0.35014053914E+02  0.00000000000E+00 0. -1.
</event>
<event>
 8    1  0.8061721E-006  0.1831700E+03  0.7561462E-02  0.1164770E+00
         -2   -1    0    0    0  501 -0.00000000000E+00  0.00000000000E+00  0.60409753727E+02  0.60409753727E+02  0.00000000000E+00 0.  1.
          2   -1    0    0  501    0  0.00000000000E+00 -0.00000000000E+00 -0.72374318136E+03  0.72374318136E+03  0.00000000000E+00 0. -1.
         23    2    1    2    0    0 -0.15722183426E+03 -0.38769196799E+02 -0.17825053091E+03  0.25767815559E+03  0.91668011387E+02 0.  0.
         23    2    1    2    0    0  0.15722183426E+03  0.38769196799E+02 -0.48508289672E+03  0.52647477950E+03  0.12509404848E+03 0.  0.
          5    1    4    4  502    0  0.49102991788E+01  0.50042857375E+02 -0.14850069377E+03  0.15683853819E+03  0.41800000000E+01 0.  1.
         -5    1    4    4    0  502  0.15231153508E+03 -0.11273660577E+02 -0.33658220296E+03  0.36963624131E+03  0.41800000000E+01 0.  1.
        -11    1    3    3    0    0 -0.33839426046E+02 -0.16780430958E+02 -0.10709509227E+03  0.11356076966E+03  0.00000000000E+00 0. -1.
         11    1    3    3    0    0 -0.12338240821E+03 -0.21988765841E+02 -0.71155438645E+02  0.14411738593E+03  0.00000000000E+00 0.  1.
</event>
<event>
 8    1  0.8061721E-006  0.1099112E+03  0.7561462E-02  0.1260734E+00
          1   -1    0    0  501    0  0.00000000000E+00  0.00000000000E+00  0.16318682194E+04  0.16318682194E+04  0.00000000000E+00 0. -1.
         -1   -1    0    0    0  501 -0.00000000000E+00 -0.00000000000E+00 -0.14226821942E+02  0.14226821942E+02  0.00000000000E+00 0.  1.
         23    2    1    2    0    0  0.26032084703E+02 -0.66897924095E+02  0.31448476413E+03  0.33486840016E+03  0.89906489605E+02 0.  0.
         23    2    1    2    0    0 -0.26032084703E+02  0.66897924095E+02  0.13031566333E+04  0.13112266411E+04  0.12627387646E+03 0.  0.
          5    1    4    4  502    0 -0.57832303919E+02  0.72443738765E+02  0.11862395854E+04  0.11898632262E+04  0.41800000000E+01 0. -1.
         -5    1    4    4    0  502  0.31800219216E+02 -0.55458146699E+01  0.11691704787E+03  0.12136341494E+03  0.41800000000E+01 0.  1.
        -11    1    3    3    0    0 -0.12937864394E+02 -0.50622919131E+02  0.26366035132E+03  0.26878773993E+03  0.00000000000E+00 0.  1.
         11    1    3    3    0    0  0.38969949097E+02 -0.16275004965E+02  0.50824412805E+02  0.66080660229E+02  0.00000000000E+00 0. -1.
</event>
<event>
 8    1  0.8061721E-006  0.9793494E+02  0.7561462E-02  0.1284699E+00
          2   -1    0    0  501    0  0.00000000000E+00  0.00000000000E+00  0.73622251324E+03  0.73622251324E+03  0.00000000000E+00 0. -1.
         -2   -1    0    0    0  501 -0.00000000000E+00 -0.00000000000E+00 -0.27726936372E+02  0.27726936372E+02  0.00000000000E+00 0.  1.
         23    2    1    2    0    0 -0.94354403293E+02  0.14061498368E+01  0.28483997329E+03  0.31224612497E+03  0.86366089972E+02 0.  0.
         23    2    1    2    0    0  0.94354403293E+02 -0.14061498368E+01  0.42365560358E+03  0.45170332464E+03  0.12508833827E+03 0.  0.
          5    1    4    4  502    0  0.62910762634E+02  0.34064641060E+01  0.41314518990E+03  0.41794232663E+03  0.41800000000E+01 0. -1.
         -5    1    4    4    0  502  0.31443640659E+02 -0.48126139428E+01  0.10510413676E+02  0.33760998008E+02  0.41800000000E+01 0. -1.
        -11    1    3    3    0    0 -0.46014091797E+02 -0.16807196310E+02  0.43736682007E+02  0.65670966528E+02  0.00000000000E+00 0.  1.
         11    1    3    3    0    0 -0.48340311496E+02  0.18213346147E+02  0.24110329128E+03  0.24657515844E+03  0.00000000000E+00 0. -1.
</event>
<event>
 8    1  0.8061721E-006  0.1176932E+03  0.7561462E-02  0.1246952E+00
          1   -1    0    0  501    0  0.00000000000E+00  0.00000000000E+00  0.15572962897E+04  0.15572962897E+04  0.00000000000E+00 0. -1.
         -1   -1    0    0    0  501 -0.00000000000E+00 -0.00000000000E+00 -0.94768618784E+01  0.94768618784E+01  0.00000000000E+00 0.  1.
         23    2    1    2    0    0  0.42973688362E+02 -0.89402981417E+01  0.49655984092E+03  0.50718772128E+03  0.93493540851E+02 0.  0.
         23    2    1    2    0    0 -0.42973688362E+02  0.89402981417E+01  0.10512595869E+04  0.10595854303E+04  0.12509155936E+03 0.  0.
          5    1    4    4  502    0 -0.29429770991E+02  0.66737470435E+02  0.58160863882E+03  0.58617922390E+03  0.41800000000E+01 0. -1.
         -5    1    4    4    0  502 -0.13543917371E+02 -0.57797172293E+02  0.46965094804E+03  0.47340620636E+03  0.41800000000E+01 0. -1.
        -11    1    3    3    0    0  0.29965924982E+01  0.39725420746E+02  0.21635178543E+03  0.21998905354E+03  0.00000000000E+00 0.  1.
         11    1    3    3    0    0  0.39977095864E+02 -0.48665718888E+02  0.28020805549E+03  0.28719866774E+03  0.00000000000E+00 0. -1.
</event>
<event>
 8    1  0.8061721E-006  0.1770196E+03  0.7561462E-02  0.1170719E+00
          1   -1    0    0  501    0  0.00000000000E+00  0.00000000000E+00  0.58885550028E+03  0.58885550028E+03  0.00000000000E+00 0. -1.
         -1   -1    0    0    0  501 -0.00000000000E+00 -0.00000000000E+00 -0.61295570919E+02  0.61295570919E+02  0.00000000000E+00 0.  1.
         23    2    1    2    0    0 -0.69487652041E+02 -0.13940110752E+03  0.23674102247E+03  0.29732665780E+03  0.89975703137E+02 0.  0.
         23    2    1    2    0    0  0.69487652041E+02  0.13940110752E+03  0.29081890689E+03  0.35282441340E+03  0.12509287559E+03 0.  0.
          5    1    4    4  502    0  0.42556925009E+02  0.14744664267E+03  0.28514605733E+03  0.32384772766E+03  0.41800000000E+01 0. -1.
         -5    1    4    4    0  502  0.26930727032E+02 -0.80455351517E+01  0.56728495605E+01  0.28976685740E+02  0.41800000000E+01 0. -1.
        -11    1    3    3    0    0  0.11939939044E+02 -0.16093593805E+01  0.60936931562E+00  0.12063312685E+02  0.00000000000E+00 0.  1.
         11    1    3    3    0    0 -0.81427591084E+02 -0.13779174813E+03  0.23613165315E+03  0.28526334511E+03  0.00000000000E+00 0. -1.
</event>
<event>
 8    1  0.8061721E-006  0.8461277E+02  0.7561462E-02  0.1316448E+00
          2   -1    0    0  501    0  0.00000000000E+00  0.00000000000E+00  0.46732359506E+03  0.46732359506E+03  0.00000000000E+00 0. -1.
         -2   -1    0    0    0  501 -0.00000000000E+00 -0.00000000000E+00 -0.30705284102E+02  0.30705284102E+02  0.00000000000E+00 0.  1.
         23    2    1    2    0    0 -0.14820045102E+02  0.24351885297E+02  0.10422717726E+03  0.14173681291E+03  0.91724432949E+02 0.  0.
         23    2    1    2    0    0  0.14820045102E+02 -0.24351885297E+02  0.33239113370E+03  0.35629206625E+03  0.12509005820E+03 0.  0.
          5    1    4    4  502    0  0.15332987802E+02  0.27967909450E+02  0.16657156542E+02  0.36224822125E+02  0.41800000000E+01 0. -1.
         -5    1    4    4    0  502 -0.51294269966E+00 -0.52319794747E+02  0.31573397716E+03  0.32006724413E+03  0.41800000000E+01 0. -1.
        -11    1    3    3    0    0  0.24950323824E+02  0.35384383005E+02  0.19485714529E+02  0.47479114253E+02  0.00000000000E+00 0.  1.
         11    1    3    3    0    0 -0.39770368926E+02 -0.11032497708E+02  0.84741462732E+02  0.94257698657E+02  0.00000000000E+00 0. -1.
</event>
<event>
 8    1  0.8061721E-006  0.7613147E+02  0.7561462E-02  0.1340403E+00
         -1   -1    0    0    0  501 -0.00000000000E+00  0.00000000000E+00  0.83403639822E+02  0.83403639822E+02  0.00000000000E+00 0.  1.
          1   -1    0    0  501    0  0.00000000000E+00 -0.00000000000E+00 -0.92788493126E+03  0.92788493126E+03  0.00000000000E+00 0. -1.
         23    2    1    2    0    0 -0.17466513629E+02 -0.36049514374E+02  0.48099335574E+02  0.10942729869E+03  0.89756008331E+02 0.  0.
         23    2    1    2    0    0  0.17466513629E+02  0.36049514374E+02 -0.89258062701E+03  0.90186127239E+03  0.12267408991E+03 0.  0.
          5    1    4    4  502    0 -0.19697142078E+02  0.61359565963E+02 -0.26881910645E+03  0.27646728221E+03  0.41800000000E+01 0. -1.
         -5    1    4    4    0  502  0.37163655707E+02 -0.25310051588E+02 -0.62376152056E+03  0.62539399017E+03  0.41800000000E+01 0. -1.
        -11    1    3    3    0    0 -0.18155237521E+02 -0.22283538435E+02  0.74386059615E+02  0.79746188622E+02  0.00000000000E+00 0.  1.
         11    1    3    3    0    0  0.68872389219E+00 -0.13765975940E+02 -0.26286724042E+02  0.29681110070E+02  0.00000000000E+00 0. -1.
</event>
<event>
 7    1  0.8061721E-006  0.1473508E+03  0.7561462E-02  0.1203767E+00
         -2   -1    0    0    0  501 -0.00000000000E+00  0.00000000000E+00  0.25213693594E+02  0.25213693594E+02  0.00000000000E+00 0.  1.
          2   -1    0    0  501    0  0.00000000000E+00 -0.00000000000E+00 -0.18846603318E+04  0.18846603318E+04  0.00000000000E+00 0. -1.
         23    2    1    2    0    0  0.36339095035E+01 -0.13076547207E+03 -0.41899166334E+03  0.44935369997E+03  0.96186900060E+02 0.  0.
          5    1    1    2  502    0  0.42166144201E+01  0.10352547225E+03 -0.14234033371E+04  0.14271754748E+04  0.41800000000E+01 0. -1.
         -5    1    1    2    0  502 -0.78505239236E+01  0.27239999819E+02 -0.17051637754E+02  0.33344850668E+02  0.41800000000E+01 0.  1.
        -11    1    3    3    0    0  0.48896465300E+02 -0.84495922365E+02 -0.25550836451E+03  0.27352321574E+03  0.00000000000E+00 0.  1.
         11    1    3    3    0    0 -0.45262555796E+02 -0.46269549706E+02 -0.16348329882E+03  0.17583048422E+03  0.00000000000E+00 0. -1.
</event>
<event>
 8    1  0.8061721E-006  0.1219664E+03  0.7561462E-02  0.1239888E+00
         -1   -1    0    0    0  501 -0.00000000000E+00  0.00000000000E+00  0.39262572605E+03  0.39262572605E+03  0.00000000000E+00 0.  1.
          1   -1    0    0  501    0  0.00000000000E+00 -0.00000000000E+00 -0.64771822654E+02  0.64771822654E+02  0.00000000000E+00 0. -1.
         23    2    1    2    0    0 -0.64614641904E+02 -0.60612526637E+02  0.26021259440E+03  0.28984905454E+03  0.91939924957E+02 0.  0.
         23    2    1    2    0    0  0.64614641904E+02  0.60612526637E+02  0.67641308994E+02  0.16754849416E+03  0.12509284903E+03 0.  0.
          5    1    4    4  502    0 -0.26908004090E+02  0.14107228061E+02  0.56388564733E+02  0.64188762258E+02  0.41800000000E+01 0.  1.
         -5    1    4    4    0  502  0.91522645993E+02  0.46505298576E+02  0.11252744262E+02  0.10335973190E+03  0.41800000000E+01 0.  1.
        -11    1    3    3    0    0 -0.67633549959E+02 -0.21038079534E+02  0.22795036726E+03  0.23870121031E+03  0.00000000000E+00 0.  1.
         11    1    3    3    0    0  0.30189080556E+01 -0.39574447103E+02  0.32262227141E+02  0.51147844231E+02  0.00000000000E+00 0. -1.
</event>
<event>
 8    1  0.8061721E-006  0.1741107E+03  0.7561462E-02  0.1173628E+00
          2   -1    0    0  501    0  0.00000000000E+00  0.00000000000E+00  0.19386053777E+04  0.19386053777E+04  0.00000000000E+00 0. -1.
         -2   -1    0    0    0  501 -0.00000000000E+00 -0.00000000000E+00 -0.20442688962E+02  0.20442688962E+02  0.00000000000E+00 0.  1.
         23    2    1    2    0    0  0.56900549590E+02 -0.15163053788E+03  0.71515309075E+03  0.73875780489E+03  0.89942528987E+02 0.  0.
         23    2    1    2    0    0 -0.56900549590E+02  0.15163053788E+03  0.12030095980E+04  0.12202902618E+04  0.12508692002E+03 0.  0.
          5    1    4    4  502    0 -0.14986067990E+02  0.12624338009E+02  0.19695861736E+02  0.28095471406E+02  0.41800000000E+01 0.  1.
         -5    1    4    4    0  502 -0.41914481599E+02  0.13900619987E+03  0.11833137363E+04  0.11921947904E+04  0.41800000000E+01 0.  1.
        -11    1    3    3    0    0  0.59440947038E+02 -0.40842026102E+02  0.34076514219E+03  0.34831333510E+03  0.00000000000E+00 0.  1.
         11    1    3    3    0    0 -0.25403974480E+01 -0.11078851177E+03  0.37438794856E+03  0.39044446979E+03  0.00000000000E+00 0. -1.
</event>
<event>
 8    1  0.8061721E-006  0.9002738E+02  0.7561462E-02  0.1302785E+00
         -2   -1    0    0    0  501 -0.00000000000E+00  0.00000000000E+00  0.25976128598E+02  0.25976128598E+02  0.00000000000E+00 0.  1.
          2   -1    0    0  501    0  0.00000000000E+00 -0.00000000000E+00 -0.49966098421E+03  0.49966098421E+03  0.00000000000E+00 0. -1.
         23    2    1    2    0    0 -0.24584398643E+02 -0.24302537023E+02 -0.17434295838E+03  0.19939486185E+03  0.90376091055E+02 0.  0.
         23    2    1    2    0    0  0.24584398643E+02  0.24302537023E+02 -0.29934189723E+03  0.32624225095E+03  0.12503371108E+03 0.  0.
          5    1    4    4  502    0  0.74598302945E+02  0.23439859735E+02 -0.15998318328E+03  0.17811913193E+03  0.41800000000E+01 0.  1.
         -5    1    4    4    0  502 -0.50013904302E+02  0.86267728815E+00 -0.13935871395E+03  0.14812311902E+03  0.41800000000E+01 0.  1.
        -11    1    3    3    0    0 -0.12654290001E+02 -0.33936444099E+02 -0.17957610514E+03  0.18319222371E+03  0.00000000000E+00 0. -1.
         11    1    3    3    0    0 -0.11930108642E+02  0.96339070759E+01  0.52331467545E+01  0.16202638140E+02  0.00000000000E+00 0.  1.
</event>
<event>
 8    1  0.8061721E-006  0.1374185E+03  0.7561462E-02  0.1216845E+00
          3   -1    0    0  501    0  0.00000000000E+00  0.00000000000E+00  0.18452291493E+03  0.18452291493E+03  0.00000000000E+00 0. -1.
         -3   -1    0    0    0  501 -0.00000000000E+00 -0.00000000000E+00 -0.11436444860E+03  0.11436444860E+03  0.00000000000E+00 0.  1.
         23    2    1    2    0    0 -0.74766595176E+02  0.65484313333E+02  0.29103630870E+02  0.13392029590E+03  0.84908099010E+02 0.  0.
         23    2    1    2    0    0  0.74766595176E+02 -0.65484313333E+02  0.41054835459E+02  0.16496706762E+03  0.12510153811E+03 0.  0.
          5    1    4    4  502    0  0.10177251394E+03 -0.49349617666E+02  0.59901612756E+02  0.12805742840E+03  0.41800000000E+01 0. -1.
         -5    1    4    4    0  502 -0.27005918769E+02 -0.16134695667E+02 -0.18846777297E+02  0.36909639219E+02  0.41800000000E+01 0. -1.
        -11    1    3    3    0    0 -0.91317791781E+02  0.67054702553E+02  0.20263907081E+02  0.11509082570E+03  0.00000000000E+00 0.  1.
         11    1    3    3    0    0  0.16551196605E+02 -0.15703892201E+01  0.88397237882E+01  0.18829470200E+02  0.00000000000E+00 0. -1.
</event>
<event>
 8    1  0.8061721E-006  0.1057628E+03  0.7561462E-02  0.1268624E+00
         -1   -1    0    0    0  501 -0.00000000000E+00  0.00000000000E+00  0.39177892514E+02  0.39177892514E+02  0.00000000000E+00 0.  1.
          1   -1    0    0  501    0  0.00000000000E+00 -0.00000000000E+00 -0.38517078369E+03  0.38517078369E+03  0.00000000000E+00 0. -1.
         23    2    1    2    0    0 -0.11417599090E+02 -0.36225577524E+01 -0.55158697210E+02  0.10752807088E+03  0.91522235856E+02 0.  0.
         23    2    1    2    0    0  0.11417599090E+02  0.36225577524E+01 -0.29083419396E+03  0.31682060532E+03  0.12508910058E+03 0.  0.
          5    1    4    4  502    0  0.58101460974E+02  0.32462943168E+02 -0.19767557070E+03  0.20862101068E+03  0.41800000000E+01 0. -1.
         -5    1    4    4    0  502 -0.46683861884E+02 -0.28840385415E+02 -0.93158623264E+02  0.10819959464E+03  0.41800000000E+01 0. -1.
        -11    1    3    3    0    0 -0.23756561577E+02  0.38871916750E+02 -0.15540683158E+02  0.48134322087E+02  0.00000000000E+00 0.  1.
         11    1    3    3    0    0  0.12338962487E+02 -0.42494474502E+02 -0.39618014053E+02  0.59393748795E+02  0.00000000000E+00 0. -1.
</event>
<event>
 8    1  0.8061721E-006  0.1547712E+03  0.7561462E-02  0.1194730E+00
         -2   -1    0    0    0  501 -0.00000000000E+00  0.00000000000E+00  0.23905579482E+02  0.23905579482E+02  0.00000000000E+00 0.  1.
          2   -1    0    0  501    0  0.00000000000E+00 -0.00000000000E+00 -0.13985307717E+04  0.13985307717E+04  0.00000000000E+00 0. -1.
         23    2    1    2    0    0  0.12996940055E+03  0.53705489980E+02 -0.48572017323E+03  0.51382419611E+03  0.91186035621E+02 0.  0.
         23    2    1    2    0    0 -0.12996940055E+03 -0.53705489980E+02 -0.88890501898E+03  0.90861215507E+03  0.12509033068E+03 0.  0.
          5    1    4    4  502    0 -0.50491164308E+02 -0.52594540344E+02 -0.16618994299E+03  0.18152716849E+03  0.41800000000E+01 0. -1.
         -5    1    4    4    0  502 -0.79478236242E+02 -0.11109496358E+01 -0.72271507599E+03  0.72708498658E+03  0.41800000000E+01 0. -1.
        -11    1    3    3    0    0  0.65725568041E+02  0.64137349434E+02 -0.19004085280E+03  0.21106628252E+03  0.00000000000E+00 0.  1.
         11    1    3    3    0    0  0.64243832509E+02 -0.10431859454E+02 -0.29567932043E+03  0.30275791358E+03  0.00000000000E+00 0. -1.
</event>
<event>
 8    1  0.8061721E-006  0.1327259E+03  0.7561462E-02  0.1223466E+00
         -1   -1    0    0    0  501 -0.00000000000E+00  0.00000000000E+00  0.10475102722E+03  0.10475102722E+03  0.00000000000E+00 0.  1.
          1   -1    0    0  501    0  0.00000000000E+00 -0.00000000000E+00 -0.19897340691E+03  0.19897340691E+03  0.00000000000E+00 0. -1.
         23    2    1    2    0    0  0.86403149225E+02  0.40087071246E+02 -0.50123897619E+02  0.14043792648E+03  0.90210468379E+02 0.  0.
         23    2    1    2    0    0 -0.86403149225E+02 -0.40087071246E+02 -0.44098482070E+02  0.16328650765E+03  0.12508129349E+03 0.  0.
          5    1    4    4  502    0 -0.21783961820E+02 -0.78413136479E+02 -0.16534896322E+02  0.83150683469E+02  0.41800000000E+01 0. -1.
         -5    1    4    4    0  502 -0.64619187404E+02  0.38326065233E+02 -0.27563585748E+02  0.80135824176E+02  0.41800000000E+01 0. -1.
        -11    1    3    3    0    0  0.66205540847E+02  0.27465980008E+01  0.98173991822E+01  0.66985810185E+02  0.00000000000E+00 0.  1.
         11    1    3    3    0    0  0.20197608377E+02  0.37340473246E+02 -0.59941296802E+02  0.73452116298E+02  0.00000000000E+00 0. -1.
</event>
<event>
 8    1  0.8061721E-006  0.3122970E+03  0.7561462E-02  0.1079250E+00
         -2   -1    0    0    0  501 -0.00000000000E+00  0.00000000000E+00  0.51904769292E+02  0.51904769292E+02  0.00000000000E+00 0.  1.
          2   -1    0    0  501    0  0.00000000000E+00 -0.00000000000E+00 -0.31659979235E+04  0.31659979235E+04  0.00000000000E+00 0. -1.
         23    2    1    2    0    0  0.25901729348E+03  0.14833385994E+03 -0.53883024078E+03  0.62238362107E+03  0.89053080034E+02 0.  0.
         23    2    1    2    0    0 -0.25901729348E+03 -0.14833385994E+03 -0.25752629134E+04  0.25955190717E+04  0.12508911260E+03 0.  0.
          5    1    4    4  502    0 -0.85886704066E+02 -0.85586020701E+00 -0.45206701433E+03  0.46017313729E+03  0.41800000000E+01 0.  1.
         -5    1    4    4    0  502 -0.17313058942E+03 -0.14747799973E+03 -0.21231958991E+04  0.21353459344E+04  0.41800000000E+01 0.  1.
        -11    1    3    3    0    0  0.15480090674E+03  0.38070237579E+02 -0.29084015705E+03  0.33166347503E+03  0.00000000000E+00 0. -1.
         11    1    3    3    0    0  0.10421638674E+03  0.11026362236E+03 -0.24799008373E+03  0.29072014604E+03  0.00000000000E+00 0.  1.
</event>
<event>
 8    1  0.8061721E-006  0.1400661E+03  0.7561462E-02  0.1213240E+00
          2   -1    0    0  501    0  0.00000000000E+00  0.00000000000E+00  0.15555303946E+04  0.15555303946E+04  0.00000000000E+00 0. -1.
         -2   -1    0    0    0  501 -0.00000000000E+00 -0.00000000000E+00 -0.17606063294E+02  0.17606063294E+02  0.00000000000E+00 0.  1.
         23    2    1    2    0    0  0.10594398591E+03  0.35239044578E+02  0.35479633194E+03  0.37818654988E+03  0.68401103349E+02 0.  0.
         23    2    1    2    0    0 -0.10594398591E+03 -0.35239044578E+02  0.11831279993E+04  0.11949499080E+04  0.12508997307E+03 0.  0.
          5    1    4    4  502    0 -0.16514598848E+02 -0.61345701614E+02  0.28669596009E+03  0.29368022237E+03  0.41800000000E+01 0. -1.
         -5    1    4    4    0  502 -0.89429387061E+02  0.26106657036E+02  0.89643203926E+03  0.90126968562E+03  0.41800000000E+01 0. -1.
        -11    1    3    3    0    0  0.48294121690E+02  0.43467843255E+02  0.24990888892E+03  0.25821740520E+03  0.00000000000E+00 0.  1.
         11    1    3    3    0    0  0.57649864219E+02 -0.82287986775E+01  0.10488744303E+03  0.11996914469E+03  0.00000000000E+00 0. -1.
</event>
<event>
 7    1  0.8061721E-006  0.7118068E+02  0.7561462E-02  0.1356124E+00
          1   -1    0    0  501    0  0.00000000000E+00  0.00000000000E+00  0.17901709047E+03  0.17901709047E+03  0.00000000000E+00 0. -1.
         -1   -1    0    0    0  501 -0.00000000000E+00 -0.00000000000E+00 -0.51576530068E+02  0.51576530068E+02  0.00000000000E+00 0.  1.
         23    2    1    2    0    0  0.41277640904E+02 -0.31717189912E+02  0.79926611818E+02  0.15730770425E+03  0.12509047432E+03 0.  0.
          5    1    3    3  502    0 -0.19613423729E+02 -0.68305413934E+01  0.88353678216E+02  0.90858062606E+02  0.41800000000E+01 0.  1.
         -5    1    3    3    0  502  0.60891064633E+02 -0.24886648519E+02 -0.84270663986E+01  0.66449641645E+02  0.41800000000E+01 0.  1.
        -11    1    1    2    0    0 -0.20959384794E+02  0.47373621222E+01  0.13644424400E+02  0.25454051309E+02  0.00000000000E+00 0.  1.
         11    1    1    2    0    0 -0.20318256110E+02  0.26979827790E+02  0.33869524187E+02  0.47831864982E+02  0.00000000000E+00 0. -1.
</event>
<event>
 8    1  0.8061721E-006  0.1081191E+03  0.7561462E-02  0.1264093E+00
          2   -1    0    0  501    0  0.00000000000E+00  0.00000000000E+00  0.32410223239E+03  0.32410223239E+03  0.00000000000E+00 0. -1.
         -2   -1    0    0    0  501 -0.00000000000E+00 -0.00000000000E+00 -0.59404611543E+02  0.59404611543E+02  0.00000000000E+00 0.  1.
         23    2    1    2    0    0 -0.63459463899E+02 -0.50097778064E+02  0.78269591050E+02  0.14488307891E+03  0.91258351651E+02 0.  0.
         23    2    1    2    0    0  0.63459463899E+02  0.50097778064E+02  0.18642802979E+03  0.23862376502E+03  0.12509596322E+03 0.  0.
          5    1    4    4  502    0  0.34100011448E+02  0.57698288275E+02  0.19548569878E+03  0.20669792954E+03  0.41800000000E+01 0.  1.
         -5    1    4    4    0  502  0.29359452451E+02 -0.76005102110E+01 -0.90576689819E+01  0.31925835479E+02  0.41800000000E+01 0.  1.
        -11    1    3    3    0    0 -0.41197984711E+02  0.19370229202E+02  0.47253478263E+02  0.65615325432E+02  0.00000000000E+00 0. -1.
         11    1    3    3    0    0 -0.22261479188E+02 -0.69468007265E+02  0.31016112787E+02  0.79267753478E+02  0.00000000000E+00 0.  1.
</event>
<event>
 8    1  0.8061721E-006  0.1200270E+03  0.7561462E-02  0.1243052E+00
          2   -1    0    0  501    0  0.00000000000E+00  0.00000000000E+00  0.17569463188E+03  0.17569463188E+03  0.00000000000E+00 0. -1.
         -2   -1    0    0    0  501 -0.00000000000E+00 -0.00000000000E+00 -0.14398892395E+03  0.14398892395E+03  0.00000000000E+00 0.  1.
         23    2    1    2    0    0 -0.99608472393E+02  0.57321967154E+02  0.11834616967E+02  0.14865703603E+03  0.93547851459E+02 0.  0.
         23    2    1    2    0    0  0.99608472393E+02 -0.57321967154E+02  0.19871090959E+02  0.17102651980E+03  0.12509018557E+03 0.  0.
          5    1    4    4  502    0  0.89594237719E+02 -0.53732590195E+02  0.65906159479E+02  0.12359374150E+03  0.41800000000E+01 0. -1.
         -5    1    4    4    0  502  0.10014234674E+02 -0.35893769587E+01 -0.46035068520E+02  0.47432778294E+02  0.41800000000E+01 0. -1.
        -11    1    3    3    0    0 -0.70385998594E+02  0.13924853833E+02 -0.33725685141E+02  0.79281222181E+02  0.00000000000E+00 0.  1.
         11    1    3    3    0    0 -0.29222473799E+02  0.43397113321E+02  0.45560302108E+02  0.69375813852E+02  0.00000000000E+00 0. -1.
</event>
<event>
 8    1  0.8061721E-006  0.9228923E+02  0.7561462E-02  0.1297401E+00
          3   -1    0    0  501    0  0.00000000000E+00  0.00000000000E+00  0.46552446678E+03  0.46552446678E+03  0.00000000000E+00 0. -1.
         -3   -1    0    0    0  501 -0.00000000000E+00 -0.00000000000E+00 -0.55840622447E+02  0.55840622447E+02  0.00000000000E+00 0.  1.
         23    2    1    2    0    0  0.19518057438E+02 -0.46533532758E+02  0.16691623209E+02  0.10586907759E+03  0.91560510411E+02 0.  0.
         23    2    1    2    0    0 -0.19518057438E+02  0.46533532758E+02  0.39299222112E+03  0.41549601164E+03  0.12509086932E+03 0.  0.
          5    1    4    4  502    0  0.15061396871E+02 -0.16829788357E+02  0.88605743099E+01  0.24618481451E+02  0.41800000000E+01 0.  1.
         -5    1    4    4    0  502 -0.34579454309E+02  0.63363321115E+02  0.38413164681E+03  0.39087753019E+03  0.41800000000E+01 0.  1.
        -11    1    3    3    0    0 -0.12531336405E+02  0.15228511366E+02  0.29135544601E+02  0.35182693327E+02  0.00000000000E+00 0.  1.
         11    1    3    3    0    0  0.32049393844E+02 -0.61762044125E+02 -0.12443921392E+02  0.70686384260E+02  0.00000000000E+00 0. -1.
</event>
<event>
 8    1  0.8061721E-006  0.1982922E+03  0.7561462E-02  0.1151188E+00
         -2   -1    0    0    0  501 -0.00000000000E+00  0.00000000000E+00  0.26448811943E+03  0.26448811943E+03  0.00000000000E+00 0.  1.
          2   -1    0    0  501    0  0.00000000000E+00 -0.00000000000E+00 -0.19069445421E+03  0.19069445421E+03  0.00000000000E+00 0. -1.
         23    2    1    2    0    0  0.15234781086E+03  0.96153542197E+02  0.11504933979E+03  0.23201282098E+03  0.90212190752E+02 0.  0.
         23    2    1    2    0    0 -0.15234781086E+03 -0.96153542197E+02 -0.41255674558E+02  0.22316975266E+03  0.12508936274E+03 0.  0.
          5    1    4    4  502    0 -0.11093874945E+03 -0.26445014324E+01 -0.47157033998E+02  0.12064683077E+03  0.41800000000E+01 0.  1.
         -5    1    4    4    0  502 -0.41409061408E+02 -0.93509040765E+02  0.59013594398E+01  0.10252292190E+03  0.41800000000E+01 0.  1.
        -11    1    3    3    0    0  0.11483946278E+03  0.54454534683E+02  0.30754422389E+02  0.13076403578E+03  0.00000000000E+00 0.  1.
         11    1    3    3    0    0  0.37508348087E+02  0.41699007514E+02  0.84294917396E+02  0.10124878519E+03  0.00000000000E+00 0. -1.
</event>
<event>
 8    1  0.8061721E-006  0.1365127E+03  0.7561462E-02  0.1218100E+00
         -1   -1    0    0    0  501 -0.00000000000E+00  0.00000000000E+00  0.12361295953E+02  0.12361295953E+02  0.00000000000E+00 0.  1.
          1   -1    0    0  501    0  0.00000000000E+00 -0.00000000000E+00 -0.15523873976E+04  0.15523873976E+04  0.00000000000E+00 0. -1.
         23    2    1    2    0    0 -0.23602225283E+02 -0.67980037576E+02 -0.60891326217E+03  0.62251922912E+03  0.10759404830E+03 0.  0.
         23    2    1    2    0    0  0.23602225283E+02  0.67980037576E+02 -0.93111283943E+03  0.94222946439E+03  0.12508754238E+03 0.  0.
          5    1    4    4  502    0  0.74896252179E+02  0.48033954068E+02 -0.56386240712E+03  0.57085461888E+03  0.41800000000E+01 0.  1.
         -5    1    4    4    0  502 -0.51294026895E+02  0.19946083508E+02 -0.36725043231E+03  0.37137484551E+03  0.41800000000E+01 0.  1.
        -11    1    3    3    0    0  0.39817390839E+02 -0.63422449163E+01 -0.16222557016E+03  0.16716095326E+03  0.00000000000E+00 0.  1.
         11    1    3    3    0    0 -0.63419616123E+02 -0.61637792660E+02 -0.44668769201E+03  0.45535827586E+03  0.00000000000E+00 0. -1.
</event>
<event>
 8    1  0.8061721E-006  0.2831515E+03  0.7561462E-02  0.1093980E+00
          2   -1    0    0  501    0  0.00000000000E+00  0.00000000000E+00  0.10610935111E+04  0.10610935111E+04  0.00000000000E+00 0.  1.
         -2   -1    0    0    0  501 -0.00000000000E+00 -0.00000000000E+00 -0.86160734461E+02  0.86160734461E+02  0.00000000000E+00 0. -1.
         23    2    1    2    0    0  0.22594941647E+03  0.15494935123E+03  0.35393322954E+03  0.45707474561E+03  0.92661490685E+02 0.  0.
         23    2    1    2    0    0 -0.22594941647E+03 -0.15494935123E+03  0.62099954707E+03  0.69017949992E+03  0.12507943236E+03 0.  0.
          5    1    4    4  502    0 -0.90254835788E+02 -0.10943926227E+03  0.42049886384E+03  0.44380136819E+03  0.41800000000E+01 0. -1.
         -5    1    4    4    0  502 -0.13569458068E+03 -0.45510088959E+02  0.20050068323E+03  0.24637813173E+03  0.41800000000E+01 0. -1.
        -11    1    3    3    0    0  0.20819518286E+03  0.11584134215E+03  0.33257051484E+03  0.40910585189E+03  0.00000000000E+00 0.  1.
         11    1    3    3    0    0  0.17754233612E+02  0.39108009077E+02  0.21362714706E+02  0.47968893720E+02  0.00000000000E+00 0. -1.
</event>
<event>
 8    1  0.8061721E-006  0.8444203E+02  0.7561462E-02  0.1316898E+00
          1   -1    0    0  501    0  0.00000000000E+00  0.00000000000E+00  0.12972191194E+04  0.12972191194E+04  0.00000000000E+00 0. -1.
         -1   -1    0    0    0  501 -0.00000000000E+00 -0.00000000000E+00 -0.10981069693E+02  0.10981069693E+02  0.00000000000E+00 0.  1.
         23    2    1    2    0    0  0.23105804574E+02 -0.13588570179E+02  0.33104732487E+03  0.34448014131E+03  0.91409567378E+02 0.  0.
         23    2    1    2    0    0 -0.23105804574E+02  0.13588570179E+02  0.95519072482E+03  0.96372004777E+03  0.12509389370E+03 0.  0.
          5    1    4    4  502    0 -0.50085854451E+02  0.91494998465E+01  0.90476502729E+03  0.90620612069E+03  0.41800000000E+01 0.  1.
         -5    1    4    4    0  502  0.26980049877E+02  0.44390703322E+01  0.50425697535E+02  0.57513927084E+02  0.41800000000E+01 0.  1.
        -11    1    3    3    0    0 -0.23782189127E+02 -0.31909730907E+02  0.92816968193E+02  0.10098917284E+03  0.00000000000E+00 0.  1.
         11    1    3    3    0    0  0.46887993701E+02  0.18321160728E+02  0.23823035668E+03  0.24349096847E+03  0.00000000000E+00 0. -1.
</event>
<event>
 7    1  0.8061721E-006  0.4007498E+02  0.7561462E-02  0.1507660E+00
          2   -1    0    0  501    0  0.00000000000E+00  0.00000000000E+00  0.68300189230E+02  0.68300189230E+02  0.00000000000E+00 0. -1.
         -2   -1    0    0    0  501 -0.00000000000E+00 -0.00000000000E+00 -0.69459452809E+02  0.69459452809E+02  0.00000000000E+00 0.  1.
         23    2    1    2    0    0  0.12353223381E+02  0.20239142241E+01  0.80422572869E+01  0.11458722758E+03  0.11361714865E+03 0.  0.
          5    1    3    3  502    0  0.87701136906E+01 -0.27494011658E+02  0.53018692830E+02  0.60508592453E+02  0.41800000000E+01 0. -1.
         -5    1    3    3    0  502  0.35831096907E+01  0.29517925882E+02 -0.44976435544E+02  0.54078635131E+02  0.41800000000E+01 0.  1.
        -11    1    1    2    0    0 -0.82633971651E+01  0.71444835980E+01 -0.67404310584E+01  0.12835917943E+02  0.00000000000E+00 0. -1.
         11    1    1    2    0    0 -0.40898262163E+01 -0.91683978221E+01 -0.24610898067E+01  0.10336496512E+02  0.00000000000E+00 0.  1.
</event>
<event>
 8    1  0.8061721E-006  0.1248539E+03  0.7561462E-02  0.1235298E+00
          3   -1    0    0  501    0  0.00000000000E+00  0.00000000000E+00  0.50018019748E+02  0.50018019748E+02  0.00000000000E+00 0. -1.
         -3   -1    0    0    0  501 -0.00000000000E+00 -0.00000000000E+00 -0.32217185331E+03  0.32217185331E+03  0.00000000000E+00 0.  1.
         23    2    1    2    0    0  0.12418866389E+02 -0.64890156624E+02 -0.12064397802E+03  0.16490310069E+03  0.90956596868E+02 0.  0.
         23    2    1    2    0    0 -0.12418866389E+02  0.64890156624E+02 -0.15150985554E+03  0.20728677237E+03  0.12509040333E+03 0.  0.
          5    1    4    4  502    0  0.54915380092E+02  0.37632873108E+02 -0.89905858825E+02  0.11194850584E+03  0.41800000000E+01 0.  1.
         -5    1    4    4    0  502 -0.67334246481E+02  0.27257283516E+02 -0.61603996716E+02  0.95338266531E+02  0.41800000000E+01 0.  1.
        -11    1    3    3    0    0  0.41068056135E+02 -0.69983407205E+02 -0.73393657498E+02  0.10941156922E+03  0.00000000000E+00 0.  1.
         11    1    3    3    0    0 -0.28649189746E+02  0.50932505804E+01 -0.47250320527E+02  0.55491531466E+02  0.00000000000E+00 0. -1.
</event>
<event>
 8    1  0.8061721E-006  0.9511884E+02  0.7561462E-02  0.1290909E+00
         -2   -1    0    0    0  501 -0.00000000000E+00  0.00000000000E+00  0.38014821545E+02  0.38014821545E+02  0.00000000000E+00 0.  1.
          2   -1    0    0  501    0  0.00000000000E+00 -0.00000000000E+00 -0.46439276526E+03  0.46439276526E+03  0.00000000000E+00 0. -1.
         23    2    1    2    0    0  0.15624556949E+01  0.65489288975E+02 -0.10588199586E+03  0.15218446188E+03  0.87509000406E+02 0.  0.
         23    2    1    2    0    0 -0.15624556949E+01 -0.65489288975E+02 -0.32049594786E+03  0.35022312493E+03  0.12508915381E+03 0.  0.
          5    1    4    4  502    0 -0.29059100311E+02 -0.11864921776E+02 -0.26896322065E+03  0.27082077864E+03  0.41800000000E+01 0.  1.
         -5    1    4    4    0  502  0.27496644616E+02 -0.53624367199E+02 -0.51532727206E+02  0.79402346288E+02  0.41800000000E+01 0.  1.
        -11    1    3    3    0    0 -0.32889900327E+02  0.12972824121E+02 -0.73404865613E+02  0.81475849212E+02  0.00000000000E+00 0. -1.
         11    1    3    3    0    0  0.34452356022E+02  0.52516464854E+02 -0.32477130245E+02  0.70708612667E+02  0.00000000000E+00 0.  1.
</event>
<event>
 8    1  0.8061721E-006  0.1223535E+03  0.7561462E-02  0.1239264E+00
         -1   -1    0    0    0  501 -0.00000000000E+00  0.00000000000E+00  0.28839645175E+02  0.28839645175E+02  0.00000000000E+00 0.  1.
          1   -1    0    0  501    0  0.00000000000E+00 -0.00000000000E+00 -0.83690515889E+03  0.83690515889E+03  0.00000000000E+00 0. -1.
         23    2    1    2    0    0 -0.33127810844E+02 -0.63953250298E+02 -0.14584626588E+03  0.18797762995E+03  0.94217758489E+02 0.  0.
         23    2    1    2    0    0  0.33127810844E+02  0.63953250298E+02 -0.66221924783E+03  0.67776717411E+03  0.12508613046E+03 0.  0.
          5    1    4    4  502    0  0.80748669993E+02  0.40105282491E+02 -0.44654100762E+03  0.45557120769E+03  0.41800000000E+01 0.  1.
         -5    1    4    4    0  502 -0.47620859149E+02  0.23847967807E+02 -0.21567824022E+03  0.22219596643E+03  0.41800000000E+01 0.  1.
        -11    1    3    3    0    0 -0.53135660937E+02 -0.28443626269E+02 -0.34589662595E+02  0.69490165469E+02  0.00000000000E+00 0.  1.
         11    1    3    3    0    0  0.20007850092E+02 -0.35509624029E+02 -0.11125660329E+03  0.11848746448E+03  0.00000000000E+00 0. -1.
</event>
<event>
 8    1  0.8061721E-006  0.2984180E+03  0.7561462E-02  0.1086034E+00
          1   -1    0    0  501    0  0.00000000000E+00  0.00000000000E+00  0.10918357995E+03  0.10918357995E+03  0.00000000000E+00 0. -1.
         -1   -1    0    0    0  501 -0.00000000000E+00 -0.00000000000E+00 -0.14233989184E+04  0.14233989184E+04  0.00000000000E+00 0.  1.
         23    2    1    2    0    0  0.17996005532E+03  0.22154870048E+03 -0.11335940978E+04  0.11723890961E+04  0.89393321482E+02 0.  0.
         23    2    1    2    0    0 -0.17996005532E+03 -0.22154870048E+03 -0.18062124064E+03  0.36019340222E+03  0.12508319727E+03 0.  0.
          5    1    4    4  502    0 -0.16773277868E+02  0.15281303756E+02 -0.65496032479E+01  0.23983969597E+02  0.41800000000E+01 0.  1.
         -5    1    4    4    0  502 -0.16318677745E+03 -0.23683000423E+03 -0.17407163739E+03  0.33620943262E+03  0.41800000000E+01 0.  1.
        -11    1    3    3    0    0  0.13318628740E+03  0.14946462069E+03 -0.93176369577E+03  0.95302772506E+03  0.00000000000E+00 0.  1.
         11    1    3    3    0    0  0.46773767920E+02  0.72084079782E+02 -0.20183040200E+03  0.21936137102E+03  0.00000000000E+00 0. -1.
</event>
<event>
 8    1  0.8061721E-006  0.1450910E+03  0.7561462E-02  0.1206638E+00
          4   -1    0    0  501    0  0.00000000000E+00  0.00000000000E+00  0.49745812318E+03  0.49745812318E+03  0.00000000000E+00 0. -1.
         -4   -1    0    0    0  501 -0.00000000000E+00 -0.00000000000E+00 -0.45012298233E+02  0.45012298233E+02  0.00000000000E+00 0.  1.
         23    2    1    2    0    0 -0.11029812749E+03  0.11578467804E+01  0.23300035626E+03  0.27241308994E+03  0.88049463463E+02 0.  0.
         23    2    1    2    0    0  0.11029812749E+03 -0.11578467804E+01  0.21944546868E+03  0.27005733147E+03  0.11228370772E+03 0.  0.
          5    1    4    4  502    0  0.13223782443E+03 -0.96850103407E+01  0.19517188337E+03  0.23598766513E+03  0.41800000000E+01 0. -1.
         -5    1    4    4    0  502 -0.21939696947E+02  0.85271635603E+01  0.24273585315E+02  0.34069666340E+02  0.41800000000E+01 0.  1.
        -11    1    3    3    0    0  0.11567781399E+02  0.20511446768E+01  0.30074978248E+01  0.12127069067E+02  0.00000000000E+00 0. -1.
         11    1    3    3    0    0 -0.12186590889E+03 -0.89329789643E+00  0.22999285844E+03  0.26028602088E+03  0.00000000000E+00 0.  1.
</event>
<event>
 8    1  0.8061721E-006  0.1388222E+03  0.7561462E-02  0.1214923E+00
          2   -1    0    0  501    0  0.00000000000E+00  0.00000000000E+00  0.77282693080E+03  0.77282693080E+03  0.00000000000E+00 0. -1.
         -2   -1    0    0    0  501 -0.00000000000E+00 -0.00000000000E+00 -0.50832555771E+02  0.50832555771E+02  0.00000000000E+00 0.  1.
         23    2    1    2    0    0 -0.71619237296E+02  0.51062241992E+02  0.51894881613E+02  0.13633386359E+03  0.90317085401E+02 0.  0.
         23    2    1    2    0    0  0.71619237296E+02 -0.51062241992E+02  0.67009949341E+03  0.68732562298E+03  0.12508602329E+03 0.  0.
          5    1    4    4  502    0 -0.20974577928E+02 -0.54988329857E+02  0.30252073202E+03  0.30822056233E+03  0.41800000000E+01 0.  1.
         -5    1    4    4    0  502  0.92593815224E+02  0.39260878649E+01  0.36757876139E+03  0.37910506065E+03  0.41800000000E+01 0.  1.
        -11    1    3    3    0    0 -0.19095568080E+02  0.68043054750E+02  0.25330598473E+02  0.75074211544E+02  0.00000000000E+00 0.  1.
         11    1    3    3    0    0 -0.52523669216E+02 -0.16980812758E+02  0.26564283140E+02  0.61259652044E+02  0.00000000000E+00 0. -1.
</event>
<event>
 7    1  0.8061721E-006  0.1275838E+03  0.7561462E-02  0.1231086E+00
         -1   -1    0    0    0  501 -0.00000000000E+00  0.00000000000E+00  0.11328932915E+02  0.11328932915E+02  0.00000000000E+00 0.  1.
          1   -1    0    0  501    0  0.00000000000E+00 -0.00000000000E+00 -0.16142342308E+04  0.16142342308E+04  0.00000000000E+00 0. -1.
         23    2    1    2    0    0 -0.45893278342E+02 -0.36322326831E+02 -0.44258554271E+03  0.45558305275E+03  0.90820982780E+02 0.  0.
          5    1    1    2  502    0  0.76931467141E+02  0.68147013158E+02 -0.90002530554E+03  0.90588381653E+03  0.41800000000E+01 0. -1.
         -5    1    1    2    0  502 -0.31038188800E+02 -0.31824686327E+02 -0.26029444961E+03  0.26409629441E+03  0.41800000000E+01 0.  1.
        -11    1    3    3    0    0 -0.67885616262E+02 -0.47631162988E+02 -0.32382094786E+03  0.33427113374E+03  0.00000000000E+00 0.  1.
         11    1    3    3    0    0  0.21992337920E+02  0.11308836157E+02 -0.11876459486E+03  0.12131191901E+03  0.00000000000E+00 0. -1.
</event>
<event>
 8    1  0.8061721E-006  0.1123414E+03  0.7561462E-02  0.1256294E+00
         -2   -1    0    0    0  501 -0.00000000000E+00  0.00000000000E+00  0.12074399908E+02  0.12074399908E+02  0.00000000000E+00 0.  1.
          2   -1    0    0  501    0  0.00000000000E+00 -0.00000000000E+00 -0.18587626603E+04  0.18587626603E+04  0.00000000000E+00 0. -1.
         23    2    1    2    0    0  0.26791241015E+02 -0.77685544682E+02 -0.60492841877E+03  0.62008997231E+03  0.10872151339E+03 0.  0.
         23    2    1    2    0    0 -0.26791241015E+02  0.77685544682E+02 -0.12417598416E+04  0.12507470879E+04  0.12509180301E+03 0.  0.
          5    1    4    4  502    0 -0.20762117539E+02  0.10604473020E+02 -0.98447574809E+03  0.98476062643E+03  0.41800000000E+01 0.  1.
         -5    1    4    4    0  502 -0.60291234759E+01  0.67081071662E+02 -0.25728409351E+03  0.26598646145E+03  0.41800000000E+01 0.  1.
        -11    1    3    3    0    0  0.22386912305E+02 -0.10423104915E+03 -0.52617819694E+03  0.53686942583E+03  0.00000000000E+00 0. -1.
         11    1    3    3    0    0  0.44043287098E+01  0.26545504468E+02 -0.78750221826E+02  0.83220546480E+02  0.00000000000E+00 0.  1.
</event>
<event>
 8    1  0.8061721E-006  0.1084048E+03  0.7561462E-02  0.1263553E+00
          2   -1    0    0  501    0  0.00000000000E+00  0.00000000000E+00  0.32071274592E+03  0.32071274592E+03  0.00000000000E+00 0.  1.
         -2   -1    0    0    0  501 -0.00000000000E+00 -0.00000000000E+00 -0.56475076540E+02  0.56475076540E+02  0.00000000000E+00 0. -1.
         23    2    1    2    0    0 -0.37106992821E+02 -0.11879615537E+02  0.26513702735E+02  0.10574295027E+03  0.94660133730E+02 0.  0.
         23    2    1    2    0    0  0.37106992821E+02  0.11879615537E+02  0.23772396665E+03  0.27144487219E+03  0.12510627538E+03 0.  0.
          5    1    4    4  502    0  0.58799059975E+02 -0.30886860700E+02  0.68483927107E+02  0.95492660922E+02  0.41800000000E+01 0. -1.
         -5    1    4    4    0  502 -0.21692067155E+02  0.42766476237E+02  0.16924003954E+03  0.17595221127E+03  0.41800000000E+01 0. -1.
        -11    1    3    3    0    0  0.27710521238E+02 -0.23428148093E+02  0.12900661963E+02  0.38512052522E+02  0.00000000000E+00 0.  1.
         11    1    3    3    0    0 -0.64817514059E+02  0.11548532556E+02  0.13613040772E+02  0.67230897749E+02  0.00000000000E+00 0. -1.
</event>
<event>
 8    1  0.8061721E-006  0.2142131E+03  0.7561462E-02  0.1138272E+00
          2   -1    0    0  501    0  0.00000000000E+00  0.00000000000E+00  0.18099154270E+04  0.18099154270E+04  0.00000000000E+00 0.  1.
         -2   -1    0    0    0  501 -0.00000000000E+00 -0.00000000000E+00 -0.27425093754E+02  0.27425093754E+02  0.00000000000E+00 0. -1.
         23    2    1    2    0    0 -0.17026151751E+03  0.91065387188E+02  0.94610709472E+03  0.96994086541E+03  0.91568327647E+02 0.  0.
         23    2    1    2    0    0  0.17026151751E+03 -0.91065387188E+02  0.83638323849E+03  0.86739965531E+03  0.12475316151E+03 0.  0.
          5    1    4    4  502    0  0.13408276199E+03 -0.12183409137E+03  0.69277321096E+03  0.71608234659E+03  0.41800000000E+01 0. -1.
         -5    1    4    4    0  502  0.36178755527E+02  0.30768704178E+02  0.14361002753E+03  0.15131730871E+03  0.41800000000E+01 0. -1.
        -11    1    3    3    0    0 -0.31020816401E+02  0.41330595901E+02  0.11921282714E+03  0.12993154875E+03  0.00000000000E+00 0. -1.
         11    1    3    3    0    0 -0.13924070111E+03  0.49734791287E+02  0.82689426758E+03  0.84000931666E+03  0.00000000000E+00 0.  1.
</event>
<event>
 8    1  0.8061721E-006  0.1806554E+03  0.7561462E-02  0.1167170E+00
          2   -1    0    0  501    0  0.00000000000E+00  0.00000000000E+00  0.11641323300E+04  0.11641323300E+04  0.00000000000E+00 0. -1.
         -2   -1    0    0    0  501 -0.00000000000E+00 -0.00000000000E+00 -0.31856120257E+02  0.31856120257E+02  0.00000000000E+00 0.  1.
         23    2    1    2    0    0  0.11801840214E+02 -0.15781102003E+03  0.52698668374E+03  0.55796956599E+03  0.92582235126E+02 0.  0.
         23    2    1    2    0    0 -0.11801840214E+02  0.15781102003E+03  0.60528952599E+03  0.63801888424E+03  0.12509630253E+03 0.  0.
          5    1    4    4  502    0  0.29194243882E+02  0.15273253727E+03  0.52595964287E+03  0.54848021855E+03  0.41800000000E+01 0.  1.
         -5    1    4    4    0  502 -0.40996084096E+02  0.50784827639E+01  0.79329883119E+02  0.89538665693E+02  0.41800000000E+01 0.  1.
        -11    1    3    3    0    0 -0.16654496477E+02 -0.48390779950E+02  0.30055556654E+03  0.30488143337E+03  0.00000000000E+00 0. -1.
         11    1    3    3    0    0  0.28456336691E+02 -0.10942024008E+03  0.22643111720E+03  0.25308813262E+03  0.00000000000E+00 0.  1.
</event>
<event>
 8    1  0.8061721E-006  0.1875424E+03  0.7561462E-02  0.1160697E+00
         -1   -1    0    0    0  501 -0.00000000000E+00  0.00000000000E+00  0.57029677425E+02  0.57029677425E+02  0.00000000000E+00 0.  1.
          1   -1    0    0  501    0  0.00000000000E+00 -0.00000000000E+00 -0.71491520191E+03  0.71491520191E+03  0.00000000000E+00 0. -1.
         23    2    1    2    0    0 -0.16723342935E+03  0.37285537962E+02 -0.24664430599E+03  0.30921103638E+03  0.73626218892E+02 0.  0.
         23    2    1    2    0    0  0.16723342935E+03 -0.37285537962E+02 -0.41124121849E+03  0.46273384296E+03  0.12508412527E+03 0.  0.
          5    1    4    4  502    0  0.45657545411E+02  0.27198308069E+02 -0.22438947040E+03  0.23063491982E+03  0.41800000000E+01 0.  1.
         -5    1    4    4    0  502  0.12157588394E+03 -0.64483846031E+02 -0.18685174810E+03  0.23209892314E+03  0.41800000000E+01 0.  1.
        -11    1    3    3    0    0 -0.40224035679E+02  0.40449557441E+02 -0.54732635861E+02  0.79055683994E+02  0.00000000000E+00 0.  1.
         11    1    3    3    0    0 -0.12700939367E+03 -0.31640194794E+01 -0.19191167013E+03  0.23015535238E+03  0.00000000000E+00 0. -1.
</event>
<event>
 8    1  0.8061721E-006  0.8514604E+02  0.7561462E-02  0.1315051E+00
          2   -1    0    0  501    0  0.00000000000E+00  0.00000000000E+00  0.19803560892E+04  0.19803560892E+04  0.00000000000E+00 0. -1.
         -2   -1    0    0    0  501 -0.00000000000E+00 -0.00000000000E+00 -0.13800601694E+02  0.13800601694E+02  0.00000000000E+00 0.  1.
         23    2    1    2    0    0 -0.41595127284E+01 -0.50634446231E+02  0.21680442429E+03  0.24020931166E+03  0.90084439975E+02 0.  0.
         23    2    1    2    0    0  0.41595127284E+01  0.50634446231E+02  0.17497510632E+04  0.17539473792E+04  0.11009758036E+03 0.  0.
          5    1    4    4  502    0 -0.17354433816E+02  0.44408798912E+02  0.16776429227E+04  0.16783255245E+04  0.41800000000E+01 0. -1.
         -5    1    4    4    0  502  0.21513946545E+02  0.62256473199E+01  0.72108140514E+02  0.75621854704E+02  0.41800000000E+01 0.  1.
        -11    1    3    3    0    0 -0.43927710322E+02 -0.15503041344E+02  0.13395492110E+03  0.14182351326E+03  0.00000000000E+00 0. -1.
         11    1    3    3    0    0  0.39768197593E+02 -0.35131404887E+02  0.82849503188E+02  0.98385798404E+02  0.00000000000E+00 0.  1.
</event>
<event>
 8    1  0.8061721E-006  0.9697980E+02  0.7561462E-02  0.1286778E+00
          2   -1    0    0  501    0  0.00000000000E+00  0.00000000000E+00  0.24830492994E+03  0.24830492994E+03  0.00000000000E+00 0.  1.
         -2   -1    0    0    0  501 -0.00000000000E+00 -0.00000000000E+00 -0.58939245985E+02  0.58939245985E+02  0.00000000000E+00 0. -1.
         23    2    1    2    0    0 -0.53386094528E+02 -0.45270427162E+01  0.64931958520E+02  0.12284811099E+03  0.89470274015E+02 0.  0.
         23    2    1    2    0    0  0.53386094528E+02  0.45270427162E+01  0.12443372543E+03  0.18439606493E+03  0.12509031750E+03 0.  0.
          5    1    4    4  502    0  0.96070404904E+01 -0.50330588165E+02  0.13660652812E+02  0.53193506815E+02  0.41800000000E+01 0. -1.
         -5    1    4    4    0  502  0.43779054037E+02  0.54857630881E+02  0.11077307262E+03  0.13120255812E+03  0.41800000000E+01 0. -1.
        -11    1    3    3    0    0 -0.33155928751E+02  0.21319118057E+02 -0.10322300210E+02  0.40747641499E+02  0.00000000000E+00 0.  1.
         11    1    3    3    0    0 -0.20230165776E+02 -0.25846160773E+02  0.75254258730E+02  0.82100469494E+02  0.00000000000E+00 0. -1.
</event>
<event>
 8    1  0.8061721E-006  0.1424682E+03  0.7561462E-02  0.1210046E+00
         -2   -1    0    0    0  501 -0.00000000000E+00  0.00000000000E+00  0.15947662324E+02  0.15947662324E+02  0.00000000000E+00 0. -1.
          2   -1    0    0  501    0  0.00000000000E+00 -0.00000000000E+00 -0.14331276191E+04  0.14331276191E+04  0.00000000000E+00 0.  1.
         23    2    1    2    0    0  0.68219966929E+02 -0.68064208470E+02 -0.45087762964E+03  0.46996040737E+03  0.91024432009E+02 0.  0.
         23    2    1    2    0    0 -0.68219966929E+02  0.68064208470E+02 -0.96630232714E+03  0.97911487405E+03  0.12505618260E+03 0.  0.
          5    1    4    4  502    0 -0.85336277275E+02  0.93387096083E+02 -0.74568774001E+03  0.75635382457E+03  0.41800000000E+01 0. -1.
         -5    1    4    4    0  502  0.17116310346E+02 -0.25322887613E+02 -0.22061458712E+03  0.22276104949E+03  0.41800000000E+01 0. -1.
        -11    1    3    3    0    0  0.70561432007E+02 -0.12210196501E+02 -0.18736569091E+03  0.20058391440E+03  0.00000000000E+00 0. -1.
         11    1    3    3    0    0 -0.23414650784E+01 -0.55854011969E+02 -0.26351193873E+03  0.26937649297E+03  0.00000000000E+00 0.  1.
</event>
<event>
 8    1  0.8061721E-006  0.1066075E+03  0.7561462E-02  0.1266984E+00
         -1   -1    0    0    0  501 -0.00000000000E+00  0.00000000000E+00  0.27158867250E+03  0.27158867250E+03  0.00000000000E+00 0.  1.
          1   -1    0    0  501    0  0.00000000000E+00 -0.00000000000E+00 -0.61988597567E+02  0.61988597567E+02  0.00000000000E+00 0. -1.
         23    2    1    2    0    0 -0.46456728593E+02 -0.13166727481E+02  0.15760867975E+03  0.18974352252E+03  0.93970836224E+02 0.  0.
         23    2    1    2    0    0  0.46456728593E+02  0.13166727481E+02  0.51991395187E+02  0.14383374755E+03  0.12511375391E+03 0.  0.
          5    1    4    4  502    0  0.44697064857E+02  0.55140726191E+02 -0.68281311861E+01  0.71431247135E+02  0.41800000000E+01 0. -1.
         -5    1    4    4    0  502  0.17596637357E+01 -0.41973998710E+02  0.58819526373E+02  0.72402500419E+02  0.41800000000E+01 0. -1.
        -11    1    3    3    0    0 -0.62810018038E+02 -0.35549298453E+02  0.13817946242E+03  0.15589231803E+03  0.00000000000E+00 0.  1.
         11    1    3    3    0    0  0.16353289445E+02  0.22382570973E+02  0.19429217325E+02  0.33851204482E+02  0.00000000000E+00 0. -1.
</event>
<event>
 8    1  0.8061721E-006  0.1118803E+03  0.7561462E-02  0.1257127E+00
          1   -1    0    0  501    0  0.00000000000E+00  0.00000000000E+00  0.88119275493E+02  0.88119275493E+02  0.00000000000E+00 0. -1.
         -1   -1    0    0    0  501 -0.00000000000E+00 -0.00000000000E+00 -0.22110619926E+03  0.22110619926E+03  0.00000000000E+00 0.  1.
         23    2    1    2    0    0 -0.33675340219E+02  0.30987431137E+01 -0.14941346213E+03  0.17859657315E+03  0.91808074419E+02 0.  0.
         23    2    1    2    0    0  0.33675340219E+02 -0.30987431137E+01  0.16426538364E+02  0.13062890160E+03  0.12510175068E+03 0.  0.
          5    1    4    4  502    0  0.72158336695E+02  0.29445120527E+02  0.17749417283E+02  0.80039708216E+02  0.41800000000E+01 0.  1.
         -5    1    4    4    0  502 -0.38482996476E+02 -0.32543863641E+02 -0.13228789191E+01  0.50589193383E+02  0.41800000000E+01 0.  1.
        -11    1    3    3    0    0  0.29846348444E+02  0.94419785129E+01 -0.70185649851E+02  0.76850380082E+02  0.00000000000E+00 0. -1.
         11    1    3    3    0    0 -0.63521688663E+02 -0.63432353992E+01 -0.79227812275E+02  0.10174619307E+03  0.00000000000E+00 0.  1.
</event>
<event>
 8    1  0.8061721E-006  0.2414182E+03  0.7561462E-02  0.1118852E+00
         -2   -1    0    0    0  501 -0.00000000000E+00  0.00000000000E+00  0.28064532584E+03  0.28064532584E+03  0.00000000000E+00 0.  1.
          2   -1    0    0  501    0  0.00000000000E+00 -0.00000000000E+00 -0.33671460618E+03  0.33671460618E+03  0.00000000000E+00 0. -1.
         23    2    1    2    0    0 -0.84283804277E+02 -0.20815411672E+03  0.15276755322E+03  0.28616117704E+03  0.90102152913E+02 0.  0.
         23    2    1    2    0    0  0.84283804277E+02  0.20815411672E+03 -0.20883683355E+03  0.33119875498E+03  0.12509155161E+03 0.  0.
          5    1    4    4  502    0 -0.17791137194E+02  0.62263154075E+02 -0.10945342177E+03  0.12724287349E+03  0.41800000000E+01 0. -1.
         -5    1    4    4    0  502  0.10207494147E+03  0.14589096264E+03 -0.99383411786E+02  0.20395588149E+03  0.41800000000E+01 0. -1.
        -11    1    3    3    0    0 -0.99790458927E+02 -0.19669719806E+03  0.12885323069E+03  0.25544290649E+03  0.00000000000E+00 0. -1.
         11    1    3    3    0    0  0.15506654651E+02 -0.11456918657E+02  0.23914322528E+02  0.30718270549E+02  0.00000000000E+00 0.  1.
</event>
<event>
 8    1  0.8061721E-006  0.9472783E+02  0.7561462E-02  0.1291790E+00
          1   -1    0    0  501    0  0.00000000000E+00  0.00000000000E+00  0.85694221522E+03  0.85694221522E+03  0.00000000000E+00 0. -1.
         -1   -1    0    0    0  501 -0.00000000000E+00 -0.00000000000E+00 -0.18528094481E+02  0.18528094481E+02  0.00000000000E+00 0.  1.
         23    2    1    2    0    0 -0.21748819327E+02 -0.40668264802E+02  0.28145006918E+03  0.30277160047E+03  0.10163454977E+03 0.  0.
         23    2    1    2    0    0  0.21748819327E+02  0.40668264802E+02  0.55696405156E+03  0.57269870923E+03  0.12509171802E+03 0.  0.
          5    1    4    4  502    0 -0.27065870340E+02  0.99030854960E+00  0.43069110941E+03  0.43156210002E+03  0.41800000000E+01 0.  1.
         -5    1    4    4    0  502  0.48814689667E+02  0.39677956253E+02  0.12627294215E+03  0.14113660921E+03  0.41800000000E+01 0.  1.
        -11    1    3    3    0    0  0.18399965529E+02 -0.53724099197E+02  0.22630488895E+03  0.23332110991E+03  0.00000000000E+00 0. -1.
         11    1    3    3    0    0 -0.40148784856E+02  0.13055834395E+02  0.55145180227E+02  0.69450490563E+02  0.00000000000E+00 0.  1.
</event>
<event>
 8    1  0.8061721E-006  0.1167316E+03  0.7561462E-02  0.1248588E+00
         -1   -1    0    0    0  501 -0.00000000000E+00  0.00000000000E+00  0.13282421367E+02  0.13282421367E+02  0.00000000000E+00 0.  1.
          1   -1    0    0  501    0  0.00000000000E+00 -0.00000000000E+00 -0.15188929132E+04  0.15188929132E+04  0.00000000000E+00 0. -1.
         23    2    1    2    0    0 -0.29299122981E+02 -0.44807880515E+02 -0.26276142951E+03  0.28190114606E+03  0.86939648885E+02 0.  0.
         23    2    1    2    0    0  0.29299122981E+02  0.44807880515E+02 -0.12428490623E+04  0.12502741885E+04  0.12508225280E+03 0.  0.
          5    1    4    4  502    0 -0.64655316327E+01 -0.39330486611E+02 -0.24718743873E+03  0.25041524024E+03  0.41800000000E+01 0. -1.
         -5    1    4    4    0  502  0.35764654613E+02  0.84138367125E+02 -0.99566162359E+03  0.99985894827E+03  0.41800000000E+01 0. -1.
        -11    1    3    3    0    0 -0.14158501216E+02  0.25920801566E+02 -0.67767640558E+02  0.73924314114E+02  0.00000000000E+00 0.  1.
         11    1    3    3    0    0 -0.15140621764E+02 -0.70728682080E+02 -0.19499378896E+03  0.20797683195E+03  0.00000000000E+00 0. -1.
</event>
<event>
 8    1  0.8061721E-006  0.9715025E+02  0.7561462E-02  0.1286405E+00
          1   -1    0    0  501    0  0.00000000000E+00  0.00000000000E+00  0.62300004935E+03  0.62300004935E+03  0.00000000000E+00 0. -1.
         -1   -1    0    0    0  501 -0.00000000000E+00 -0.00000000000E+00 -0.20452146708E+02  0.20452146708E+02  0.00000000000E+00 0.  1.
         23    2    1    2    0    0  0.92360741793E+01 -0.99619428493E+01  0.16493866035E+03  0.18811356516E+03  0.89428218960E+02 0.  0.
         23    2    1    2    0    0 -0.92360741793E+01  0.99619428493E+01  0.43760924229E+03  0.45533863090E+03  0.12508746732E+03 0.  0.
          5    1    4    4  502    0 -0.35947513771E+02  0.55556441849E+02  0.31261483495E+03  0.31956884925E+03  0.41800000000E+01 0. -1.
         -5    1    4    4    0  502  0.26711439591E+02 -0.45594499000E+02  0.12499440734E+03  0.13576978165E+03  0.41800000000E+01 0. -1.
        -11    1    3    3    0    0  0.25578755134E+02  0.25390881014E+02  0.27702095599E+02  0.45457404825E+02  0.00000000000E+00 0.  1.
         11    1    3    3    0    0 -0.16342680955E+02 -0.35352823863E+02  0.13723656475E+03  0.14265616033E+03  0.00000000000E+00 0. -1.
</event>
<event>
 8    1  0.8061721E-006  0.2204740E+03  0.7561462E-02  0.1133530E+00
         -2   -1    0    0    0  501 -0.00000000000E+00  0.00000000000E+00  0.35983527863E+02  0.35983527863E+02  0.00000000000E+00 0.  1.
          2   -1    0    0  501    0  0.00000000000E+00 -0.00000000000E+00 -0.16206233894E+04  0.16206233894E+04  0.00000000000E+00 0. -1.
         23    2    1    2    0    0 -0.94644192346E+02  0.16918639350E+03 -0.44705793586E+03  0.49586455623E+03  0.91865669432E+02 0.  0.
         23    2    1    2    0    0  0.94644192346E+02 -0.16918639350E+03 -0.11375819257E+04  0.11607423611E+04  0.12509449302E+03 0.  0.
          5    1    4    4  502    0  0.48904011232E+02  0.36361727123E+01 -0.18003809501E+03  0.18664407872E+03  0.41800000000E+01 0.  1.
         -5    1    4    4    0  502  0.45740181114E+02 -0.17282256621E+03 -0.95754383070E+03  0.97409828235E+03  0.41800000000E+01 0.  1.
        -11    1    3    3    0    0  0.17265401974E+02  0.20169045137E+02 -0.78524940691E+02  0.82891801752E+02  0.00000000000E+00 0. -1.
         11    1    3    3    0    0 -0.11190959432E+03  0.14901734836E+03 -0.36853299517E+03  0.41297275448E+03  0.00000000000E+00 0.  1.
</event>
<event>
 8    1  0.8061721E-006  0.7911396E+02  0.7561462E-02  0.1331585E+00
         -1   -1    0    0    0  501 -0.00000000000E+00  0.00000000000E+00  0.55077749649E+02  0.55077749649E+02  0.00000000000E+00 0.  1.
          1   -1    0    0  501    0  0.00000000000E+00 -0.00000000000E+00 -0.38402246973E+03  0.38402246973E+03  0.00000000000E+00 0. -1.
         23    2    1    2    0    0  0.49830830469E+02 -0.23612867533E+02 -0.29441588356E+02  0.10987423719E+03  0.90359624249E+02 0.  0.
         23    2    1    2    0    0 -0.49830830469E+02  0.23612867533E+02 -0.29950313173E+03  0.32922598219E+03  0.12508773824E+03 0.  0.
          5    1    4    4  502    0 -0.23830645802E+01  0.24826665630E+02 -0.27403521828E+03  0.27519959226E+03  0.41800000000E+01 0.  1.
         -5    1    4    4    0  502 -0.47447765888E+02 -0.12137980972E+01 -0.25467913446E+02  0.54026389931E+02  0.41800000000E+01 0.  1.
        -11    1    3    3    0    0  0.52793759280E+02 -0.41505683543E+02  0.86255102436E+01  0.67707475305E+02  0.00000000000E+00 0.  1.
         11    1    3    3    0    0 -0.29629288113E+01  0.17892816010E+02 -0.38067098600E+02  0.42166761883E+02  0.00000000000E+00 0. -1.
</event>
<event>
 7    1  0.8061721E-006  0.1001779E+03  0.7561462E-02  0.1279922E+00
          1   -1    0    0  501    0  0.00000000000E+00  0.00000000000E+00  0.44734219636E+03  0.44734219636E+03  0.00000000000E+00 0. -1.
         -1   -1    0    0    0  501 -0.00000000000E+00 -0.00000000000E+00 -0.18898848185E+03  0.18898848185E+03  0.00000000000E+00 0.  1.
         23    2    1    2    0    0  0.12362352756E+02  0.53794436331E+02 -0.15860050723E+03  0.19182621130E+03  0.92717340893E+02 0.  0.
          5    1    1    2  502    0 -0.44545567819E+02 -0.38906793473E+02  0.40106365398E+03  0.40542270920E+03  0.41800000000E+01 0. -1.
         -5    1    1    2    0  502  0.32183215064E+02 -0.14887642857E+02  0.15890567767E+02  0.39081757709E+02  0.41800000000E+01 0.  1.
        -11    1    3    3    0    0  0.41030806277E+01 -0.25402677693E+02 -0.58566472771E+02  0.63970016707E+02  0.00000000000E+00 0. -1.
         11    1    3    3    0    0  0.82592721278E+01  0.79197114024E+02 -0.10003403446E+03  0.12785619459E+03  0.00000000000E+00 0.  1.
</event>
<event>
 8    1  0.8061721E-006  0.7542845E+02  0.7561462E-02  0.1342549E+00
         -1   -1    0    0    0  501 -0.00000000000E+00  0.00000000000E+00  0.54549152694E+02  0.54549152694E+02  0.00000000000E+00 0.  1.
          1   -1    0    0  501    0  0.00000000000E+00 -0.00000000000E+00 -0.39628118987E+03  0.39628118987E+03  0.00000000000E+00 0. -1.
         23    2    1    2    0    0 -0.18775649259E+02  0.44722772984E+02 -0.23915438270E+02  0.10585728220E+03  0.91000904274E+02 0.  0.
         23    2    1    2    0    0  0.18775649259E+02 -0.44722772984E+02 -0.31781659891E+03  0.34497306037E+03  0.12508545242E+03 0.  0.
          5    1    4    4  502    0  0.36362749948E+02 -0.26804513076E+02 -0.26486518816E+02  0.52533223621E+02  0.41800000000E+01 0. -1.
         -5    1    4    4    0  502 -0.17587100690E+02 -0.17918259909E+02 -0.29133008009E+03  0.29243983674E+03  0.41800000000E+01 0. -1.
        -11    1    3    3    0    0  0.20179165082E+02  0.34160398375E+02 -0.45269416690E+02  0.60195112825E+02  0.00000000000E+00 0. -1.
         11    1    3    3    0    0 -0.38954814341E+02  0.10562374609E+02  0.21353978420E+02  0.45662169375E+02  0.00000000000E+00 0.  1.
</event>
<event>
 8    1  0.8061721E-006  0.1104295E+03  0.7561462E-02  0.1259776E+00
          2   -1    0    0  501    0  0.00000000000E+00  0.00000000000E+00  0.32951874435E+03  0.32951874435E+03  0.00000000000E+00 0. -1.
         -2   -1    0    0    0  501 -0.00000000000E+00 -0.00000000000E+00 -0.54780793573E+02  0.54780793573E+02  0.00000000000E+00 0.  1.
         23    2    1    2    0    0  0.63952385330E+01  0.69371503189E+02  0.56752249077E+02  0.12349629633E+03  0.84718433067E+02 0.  0.
         23    2    1    2    0    0 -0.63952385330E+01 -0.69371503189E+02  0.21798570170E+03  0.26080324159E+03  0.12508900890E+03 0.  0.
          5    1    4    4  502    0 -0.47252015230E+02 -0.86304219316E+02  0.15754177792E+03  0.18579035337E+03  0.41800000000E+01 0.  1.
         -5    1    4    4    0  502  0.40856776697E+02  0.16932716128E+02  0.60443923782E+02  0.75012888224E+02  0.41800000000E+01 0.  1.
        -11    1    3    3    0    0 -0.62705972331E+01  0.63815504046E+02  0.76226504226E+02  0.99610335271E+02  0.00000000000E+00 0. -1.
         11    1    3    3    0    0  0.12665835766E+02  0.55559991425E+01 -0.19474255148E+02  0.23885961059E+02  0.00000000000E+00 0.  1.
</event>
<event>
 8    1  0.8061721E-006  0.9254088E+02  0.7561462E-02  0.1296813E+00
         -1   -1    0    0    0  501 -0.00000000000E+00  0.00000000000E+00  0.12215041697E+02  0.12215041697E+02  0.00000000000E+00 0.  1.
          1   -1    0    0  501    0  0.00000000000E+00 -0.00000000000E+00 -0.12333591682E+04  0.12333591682E+04  0.00000000000E+00 0. -1.
         23    2    1    2    0    0  0.15213126995E+02  0.12570999464E+02 -0.25355641796E+03  0.26973464203E+03  0.89869075674E+02 0.  0.
         23    2    1    2    0    0 -0.15213126995E+02 -0.12570999464E+02 -0.96758770856E+03  0.97583956788E+03  0.12508964477E+03 0.  0.
          5    1    4    4  502    0 -0.20159601904E+02  0.38918696931E+02 -0.14310004628E+03  0.14972030645E+03  0.41800000000E+01 0. -1.
         -5    1    4    4    0  502  0.49464749087E+01 -0.51489696395E+02 -0.82448766229E+03  0.82611926143E+03  0.41800000000E+01 0. -1.
        -11    1    3    3    0    0 -0.27481174627E+01 -0.36654566082E+02 -0.73054083754E+02  0.81780245276E+02  0.00000000000E+00 0. -1.
         11    1    3    3    0    0  0.17961244458E+02  0.49225565546E+02 -0.18050233421E+03  0.18795439676E+03  0.00000000000E+00 0.  1.
</event>
<event>
 8    1  0.8061721E-006  0.1038100E+03  0.7561462E-02  0.1272482E+00
         -2   -1    0    0    0  501 -0.00000000000E+00  0.00000000000E+00  0.32840776386E+02  0.32840776386E+02  0.00000000000E+00 0.  1.
          2   -1    0    0  501    0  0.00000000000E+00 -0.00000000000E+00 -0.36870634842E+03  0.36870634842E+03  0.00000000000E+00 0. -1.
         23    2    1    2    0    0 -0.21164916439E+02 -0.16013241729E+02 -0.12632098868E+03  0.15606829105E+03  0.87726516467E+02 0.  0.
         23    2    1    2    0    0  0.21164916439E+02  0.16013241729E+02 -0.20954458335E+03  0.24547883376E+03  0.12508616155E+03 0.  0.
          5    1    4    4  502    0  0.69434583414E+02 -0.13868550083E+02 -0.11825227565E+03  0.13789333251E+03  0.41800000000E+01 0. -1.
         -5    1    4    4    0  502 -0.48269666975E+02  0.29881791812E+02 -0.91292307705E+02  0.10758550124E+03  0.41800000000E+01 0. -1.
        -11    1    3    3    0    0  0.16858535675E+02  0.20846182789E+02 -0.84314440216E+02  0.88474280958E+02  0.00000000000E+00 0. -1.
         11    1    3    3    0    0 -0.38023452115E+02 -0.36859424518E+02 -0.42006548464E+02  0.67594010092E+02  0.00000000000E+00 0.  1.
</event>
<event>
 8    1  0.8061721E-006  0.1357401E+03  0.7561462E-02  0.1219179E+00
         -2   -1    0    0    0  501 -0.00000000000E+00  0.00000000000E+00  0.14473457414E+02  0.14473457414E+02  0.00000000000E+00 0.  1.
          2   -1    0    0  501    0  0.00000000000E+00 -0.00000000000E+00 -0.17775096767E+04  0.17775096767E+04  0.00000000000E+00 0. -1.
         23    2    1    2    0    0 -0.88055768883E+01  0.11891641572E+03 -0.75027814844E+03  0.76458591705E+03  0.86346235687E+02 0.  0.
         23    2    1    2    0    0  0.88055768883E+01 -0.11891641572E+03 -0.10127580708E+04  0.10273972170E+04  0.12508988547E+03 0.  0.
          5    1    4    4  502    0  0.21887594310E+02 -0.75935689727E+02 -0.92807701434E+03  0.93144495956E+03  0.41800000000E+01 0.  1.
         -5    1    4    4    0  502 -0.13082017422E+02 -0.42980725992E+02 -0.84681056497E+02  0.95952257483E+02  0.41800000000E+01 0.  1.
        -11    1    3    3    0    0 -0.37101294904E+02  0.15857068189E+02 -0.20684977951E+03  0.21074815297E+03  0.00000000000E+00 0.  1.
         11    1    3    3    0    0  0.28295718015E+02  0.10305934753E+03 -0.54342836892E+03  0.55383776408E+03  0.00000000000E+00 0. -1.
</event>
<event>
 8    1  0.8061721E-006  0.2107842E+03  0.7561462E-02  0.1140946E+00
         -2   -1    0    0    0  501 -0.00000000000E+00  0.00000000000E+00  0.20533406638E+03  0.20533406638E+03  0.00000000000E+00 0.  1.
          2   -1    0    0  501    0  0.00000000000E+00 -0.00000000000E+00 -0.29496729384E+03  0.29496729384E+03  0.00000000000E+00 0. -1.
         23    2    1    2    0    0  0.20137276434E+03  0.21313888342E+02  0.44977057024E+02  0.22685451457E+03  0.91840966160E+02 0.  0.
         23    2    1    2    0    0 -0.20137276434E+03 -0.21313888342E+02 -0.13461028449E+03  0.27344684566E+03  0.12509187287E+03 0.  0.
          5    1    4    4  502    0 -0.12343954930E+03  0.19941689573E+01 -0.91492347561E+01  0.12386476471E+03  0.41800000000E+01 0. -1.
         -5    1    4    4    0  502 -0.77933215045E+02 -0.23308057299E+02 -0.12546104973E+03  0.14958208095E+03  0.41800000000E+01 0. -1.
        -11    1    3    3    0    0  0.13653573002E+03 -0.22445457515E+02  0.37188784480E+01  0.13841833040E+03  0.00000000000E+00 0. -1.
         11    1    3    3    0    0  0.64837034323E+02  0.43759345857E+02  0.41258178576E+02  0.88436184161E+02  0.00000000000E+00 0.  1.
</event>
<event>
 8    1  0.8061721E-006  0.2587201E+03  0.7561462E-02  0.1107915E+00
         -2   -1    0    0    0  501 -0.00000000000E+00  0.00000000000E+00  0.12577447482E+03  0.12577447482E+03  0.00000000000E+00 0.  1.
          2   -1    0    0  501    0  0.00000000000E+00 -0.00000000000E+00 -0.55996651634E+03  0.55996651634E+03  0.00000000000E+00 0. -1.
         23    2    1    2    0    0 -0.19291359019E+03  0.14531566646E+03 -0.20612494011E+03  0.33078490831E+03  0.92730083765E+02 0.  0.
         23    2    1    2    0    0  0.19291359019E+03 -0.14531566646E+03 -0.22806710141E+03  0.35495608284E+03  0.12508765649E+03 0.  0.
          5    1    4    4  502    0  0.70981057541E+02  0.12796572240E+02 -0.63072765336E+02  0.95904686632E+02  0.41800000000E+01 0. -1.
         -5    1    4    4    0  502  0.12193253264E+03 -0.15811223870E+03 -0.16499433608E+03  0.25905139621E+03  0.41800000000E+01 0. -1.
        -11    1    3    3    0    0 -0.10799140591E+03  0.53853173723E+02 -0.49297844495E+02  0.13035561185E+03  0.00000000000E+00 0.  1.
         11    1    3    3    0    0 -0.84922184279E+02  0.91462492732E+02 -0.15682709561E+03  0.20042929646E+03  0.00000000000E+00 0. -1.
</event>
<event>
 8    1  0.8061721E-006  0.9919606E+02  0.7561462E-02  0.1281996E+00
         -2   -1    0    0    0  501 -0.00000000000E+00  0.00000000000E+00  0.11513517135E+03  0.11513517135E+03  0.00000000000E+00 0. -1.
          2   -1    0    0  501    0  0.00000000000E+00 -0.00000000000E+00 -0.13307678339E+03  0.13307678339E+03  0.00000000000E+00 0.  1.
         23    2    1    2    0    0  0.11225323938E+01 -0.18379899168E+02  0.48989612672E+02  0.10515012703E+03  0.91200253795E+02 0.  0.
         23    2    1    2    0    0 -0.11225323938E+01  0.18379899168E+02 -0.66931224706E+02  0.14306182771E+03  0.12509123444E+03 0.  0.
          5    1    4    4  502    0 -0.49510822993E+02 -0.25530401014E+02 -0.10968048593E+02  0.56928845582E+02  0.41800000000E+01 0. -1.
         -5    1    4    4    0  502  0.48388290599E+02  0.43910300182E+02 -0.55963176113E+02  0.86132982126E+02  0.41800000000E+01 0. -1.
        -11    1    3    3    0    0 -0.23446429395E+02 -0.38648275658E+02 -0.17547142436E+01  0.45238294451E+02  0.00000000000E+00 0.  1.
         11    1    3    3    0    0  0.24568961789E+02  0.20268376490E+02  0.50744326916E+02  0.59911832580E+02  0.00000000000E+00 0. -1.
</event>
<event>
 8    1  0.8061721E-006  0.1007663E+03  0.7561462E-02  0.1278693E+00
          2   -1    0    0  501    0  0.00000000000E+00  0.00000000000E+00  0.30212870585E+03  0.30212870585E+03  0.00000000000E+00 0. -1.
         -2   -1    0    0    0  501 -0.00000000000E+00 -0.00000000000E+00 -0.42630725592E+02  0.42630725592E+02  0.00000000000E+00 0.  1.
         23    2    1    2    0    0 -0.14244863017E+02  0.22474189491E+02  0.75115960539E+02  0.12037094491E+03  0.90215029431E+02 0.  0.
         23    2    1    2    0    0  0.14244863017E+02 -0.22474189491E+02  0.18438201972E+03  0.22438848653E+03  0.12508180674E+03 0.  0.
          5    1    4    4  502    0  0.66284917032E+02 -0.41092797430E+01  0.66072363809E+02  0.93774229217E+02  0.41800000000E+01 0.  1.
         -5    1    4    4    0  502 -0.52040054015E+02 -0.18364909748E+02  0.11830965591E+03  0.13061425731E+03  0.41800000000E+01 0.  1.
        -11    1    3    3    0    0 -0.46431896905E+01 -0.27940958286E+02 -0.12618234929E+01  0.28352223175E+02  0.00000000000E+00 0.  1.
         11    1    3    3    0    0 -0.96016733265E+01  0.50415147778E+02  0.76377784032E+02  0.92018721735E+02  0.00000000000E+00 0. -1.
</event>
<event>
 8    1  0.8061721E-006  0.1271859E+03  0.7561462E-02  0.1231692E+00
         -2   -1    0    0    0  501 -0.00000000000E+00  0.00000000000E+00  0.20265728874E+02  0.20265728874E+02  0.00000000000E+00 0.  1.
          2   -1    0    0  501    0  0.00000000000E+00 -0.00000000000E+00 -0.12470076895E+04  0.12470076895E+04  0.00000000000E+00 0. -1.
         23    2    1    2    0    0  0.55271148653E+02  0.95703471505E+02 -0.44806791537E+03  0.47090881987E+03  0.93681404356E+02 0.  0.
         23    2    1    2    0    0 -0.55271148653E+02 -0.95703471505E+02 -0.77867404526E+03  0.79636459850E+03  0.12509696500E+03 0.  0.
          5    1    4    4  502    0 -0.50492002248E+02 -0.67412856571E+02 -0.75278636089E+03  0.75749502511E+03  0.41800000000E+01 0.  1.
         -5    1    4    4    0  502 -0.47791464053E+01 -0.28290614934E+02 -0.25887684372E+02  0.38869573394E+02  0.41800000000E+01 0.  1.
        -11    1    3    3    0    0 -0.23791990880E+02  0.29708917556E+02 -0.17438330288E+03  0.17848869695E+03  0.00000000000E+00 0. -1.
         11    1    3    3    0    0  0.79063139533E+02  0.65994553949E+02 -0.27368461248E+03  0.29242012293E+03  0.00000000000E+00 0.  1.
</event>
<event>
 8    1  0.8061721E-006  0.1472747E+03  0.7561462E-02  0.1203862E+00
         -2   -1    0    0    0  501 -0.00000000000E+00  0.00000000000E+00  0.47166750694E+02  0.47166750694E+02  0.00000000000E+00 0.  1.
          2   -1    0    0  501    0  0.00000000000E+00 -0.00000000000E+00 -0.67185992966E+03  0.67185992966E+03  0.00000000000E+00 0. -1.
         23    2    1    2    0    0 -0.46745564083E+02  0.12395230591E+03 -0.19675521663E+03  0.25391823430E+03  0.90623024298E+02 0.  0.
         23    2    1    2    0    0  0.46745564083E+02 -0.12395230591E+03 -0.42793796233E+03  0.46510844606E+03  0.12508255308E+03 0.  0.
          5    1    4    4  502    0  0.68117043294E+02 -0.90158750345E+02 -0.17074383888E+03  0.20479126634E+03  0.41800000000E+01 0. -1.
         -5    1    4    4    0  502 -0.21371479211E+02 -0.33793555568E+02 -0.25719412345E+03  0.26031717972E+03  0.41800000000E+01 0. -1.
        -11    1    3    3    0    0  0.43771348413E+01  0.56330562225E+02 -0.23806243187E+02  0.61310918804E+02  0.00000000000E+00 0.  1.
         11    1    3    3    0    0 -0.51122698924E+02  0.67621743689E+02 -0.17294897345E+03  0.19260731549E+03  0.00000000000E+00 0. -1.
</event>
<event>
 8    1  0.8061721E-006  0.3581353E+02  0.7561462E-02  0.1541493E+00
         -1   -1    0    0    0  501 -0.00000000000E+00  0.00000000000E+00  0.84332272192E+02  0.84332272192E+02  0.00000000000E+00 0.  1.
          1   -1    0    0  501    0  0.00000000000E+00 -0.00000000000E+00 -0.19934384717E+03  0.19934384717E+03  0.00000000000E+00 0. -1.
         23    2    1    2    0    0  0.82927573138E+01 -0.14698425478E+02  0.27024480001E+02  0.93656636990E+02  0.88070594398E+02 0.  0.
         23    2    1    2    0    0 -0.82927573138E+01  0.14698425478E+02 -0.14203605498E+03  0.19001948237E+03  0.12509336206E+03 0.  0.
          5    1    4    4  502    0 -0.16606387117E+02  0.96669432329E+01 -0.16424597675E+03  0.16541896857E+03  0.41800000000E+01 0.  1.
         -5    1    4    4    0  502  0.83136298033E+01  0.50314822450E+01  0.22209921772E+02  0.24600513799E+02  0.41800000000E+01 0.  1.
        -11    1    3    3    0    0  0.21797075020E+02 -0.51959371440E+00  0.55197333458E+02  0.59347519560E+02  0.00000000000E+00 0.  1.
         11    1    3    3    0    0 -0.13504317706E+02 -0.14178831763E+02 -0.28172853457E+02  0.34309117430E+02  0.00000000000E+00 0. -1.
</event>
<event>
 8    1  0.8061721E-006  0.1123504E+03  0.7561462E-02  0.1256278E+00
          2   -1    0    0  501    0  0.00000000000E+00  0.00000000000E+00  0.10441689210E+04  0.10441689210E+04  0.00000000000E+00 0. -1.
         -2   -1    0    0    0  501 -0.00000000000E+00 -0.00000000000E+00 -0.12615658885E+02  0.12615658885E+02  0.00000000000E+00 0.  1.
         23    2    1    2    0    0 -0.15413497078E+02  0.13165700334E+02  0.36179642973E+03  0.37514414082E+03  0.97085314388E+02 0.  0.
         23    2    1    2    0    0  0.15413497078E+02 -0.13165700334E+02  0.66975683239E+03  0.68164043907E+03  0.12509421282E+03 0.  0.
          5    1    4    4  502    0 -0.54530746516E+02  0.27723408331E+01  0.30355788056E+03  0.30845769149E+03  0.41800000000E+01 0.  1.
         -5    1    4    4    0  502  0.69944243594E+02 -0.15938041167E+02  0.36619895184E+03  0.37318274758E+03  0.41800000000E+01 0.  1.
        -11    1    3    3    0    0  0.39885894036E+02 -0.42312899970E+01  0.17605747757E+03  0.18056861235E+03  0.00000000000E+00 0. -1.
         11    1    3    3    0    0 -0.55299391113E+02  0.17396990331E+02  0.18573895216E+03  0.19457552847E+03  0.00000000000E+00 0.  1.
</event>
<event>
 8    1  0.8061721E-006  0.4901092E+02  0.7561462E-02  0.1450751E+00
          1   -1    0    0  501    0  0.00000000000E+00  0.00000000000E+00  0.12394822390E+03  0.12394822390E+03  0.00000000000E+00 0. -1.
         -1   -1    0    0    0  501 -0.00000000000E+00 -0.00000000000E+00 -0.10732000345E+03  0.10732000345E+03  0.00000000000E+00 0.  1.
         23    2    1    2    0    0  0.33193553954E+02 -0.42406320189E-01 -0.19600298127E+02  0.96872685817E+02  0.88872559029E+02 0.  0.
         23    2    1    2    0    0 -0.33193553954E+02  0.42406320189E-01  0.36228518579E+02  0.13439554154E+03  0.12509133545E+03 0.  0.
          5    1    4    4  502    0 -0.39361700734E+02 -0.77803358059E+01  0.79847101770E+02  0.89458980383E+02  0.41800000000E+01 0.  1.
         -5    1    4    4    0  502  0.61681467805E+01  0.78227421260E+01 -0.43618583191E+02  0.44936561158E+02  0.41800000000E+01 0.  1.
        -11    1    3    3    0    0  0.19099748872E+02 -0.16479103279E+02  0.32097376396E+02  0.40824047121E+02  0.00000000000E+00 0. -1.
         11    1    3    3    0    0  0.14093805082E+02  0.16436696958E+02 -0.51697674523E+02  0.56048638696E+02  0.00000000000E+00 0.  1.
</event>
<event>
 8    1  0.8061721E-006  0.1172905E+03  0.7561462E-02  0.1247635E+00
         -1   -1    0    0    0  501 -0.00000000000E+00  0.00000000000E+00  0.26018192651E+02  0.26018192651E+02  0.00000000000E+00 0.  1.
          1   -1    0    0  501    0  0.00000000000E+00 -0.00000000000E+00 -0.11311232978E+04  0.11311232978E+04  0.00000000000E+00 0. -1.
         23    2    1    2    0    0  0.69114898977E+02 -0.65626700254E+02 -0.22414678339E+03  0.26225636661E+03  0.97225965028E+02 0.  0.
         23    2    1    2    0    0 -0.69114898977E+02  0.65626700254E+02 -0.88095832172E+03  0.89488512380E+03  0.12509231451E+03 0.  0.
          5    1    4    4  502    0  0.21675576177E+01  0.32904077054E+02 -0.48898736729E+02  0.59126436105E+02  0.41800000000E+01 0. -1.
         -5    1    4    4    0  502 -0.71282456595E+02  0.32722623200E+02 -0.83205958499E+03  0.83575868770E+03  0.41800000000E+01 0. -1.
        -11    1    3    3    0    0  0.83194581396E+02 -0.37321465506E+02 -0.20722475843E+03  0.22639861013E+03  0.00000000000E+00 0. -1.
         11    1    3    3    0    0 -0.14079682419E+02 -0.28305234748E+02 -0.16922024962E+02  0.35857756483E+02  0.00000000000E+00 0.  1.
</event>
<event>
 7    1  0.8061721E-006  0.1080058E+03  0.7561462E-02  0.1264308E+00
         -4   -1    0    0    0  501 -0.00000000000E+00  0.00000000000E+00  0.19160273392E+03  0.19160273392E+03  0.00000000000E+00 0.  1.
          4   -1    0    0  501    0  0.00000000000E+00 -0.00000000000E+00 -0.13081180085E+03  0.13081180085E+03  0.00000000000E+00 0. -1.
         23    2    1    2    0    0  0.94744319319E+01 -0.12597624919E+02 -0.47402065920E+02  0.13469509313E+03  0.12508935705E+03 0.  0.
          5    1    3    3  502    0  0.26298999065E+02 -0.45340012900E+02  0.21226822972E+02  0.56704537164E+02  0.41800000000E+01 0.  1.
         -5    1    3    3    0  502 -0.16824567133E+02  0.32742387981E+02 -0.68628888892E+02  0.77990555970E+02  0.41800000000E+01 0.  1.
        -11    1    1    2    0    0  0.58094537916E+02  0.81857681037E+01 -0.16397215171E+01  0.58691318113E+02  0.00000000000E+00 0. -1.
         11    1    1    2    0    0 -0.67568969848E+02  0.44118568150E+01  0.10983272050E+03  0.12902812352E+03  0.00000000000E+00 0.  1.
</event>
<event>
 8    1  0.8061721E-006  0.2201833E+03  0.7561462E-02  0.1133746E+00
         -4   -1    0    0    0  501 -0.00000000000E+00  0.00000000000E+00  0.28300351691E+03  0.28300351691E+03  0.00000000000E+00 0.  1.
          4   -1    0    0  501    0  0.00000000000E+00 -0.00000000000E+00 -0.21325884825E+03  0.21325884825E+03  0.00000000000E+00 0. -1.
         23    2    1    2    0    0 -0.21750181369E+03  0.17796744098E+02  0.56412069634E+02  0.24437036617E+03  0.94396987263E+02 0.  0.
         23    2    1    2    0    0  0.21750181369E+03 -0.17796744098E+02  0.13332599028E+02  0.25189199899E+03  0.12509219759E+03 0.  0.
          5    1    4    4  502    0  0.16254110501E+03 -0.27373527269E+02  0.63558326663E+02  0.17670895309E+03  0.41800000000E+01 0.  1.
         -5    1    4    4    0  502  0.54960708680E+02  0.95767831709E+01 -0.50225727635E+02  0.75183045902E+02  0.41800000000E+01 0.  1.
        -11    1    3    3    0    0 -0.19525436914E+02  0.86365571829E+01  0.40202965100E+02  0.45520448257E+02  0.00000000000E+00 0.  1.
         11    1    3    3    0    0 -0.19797637677E+03  0.91601869150E+01  0.16209104534E+02  0.19884991791E+03  0.00000000000E+00 0. -1.
</event>
<event>
 8    1  0.8061721E-006  0.7676468E+02  0.7561462E-02  0.1338492E+00
         -3   -1    0    0    0  501 -0.00000000000E+00  0.00000000000E+00  0.14393378449E+03  0.14393378449E+03  0.00000000000E+00 0.  1.
          3   -1    0    0  501    0  0.00000000000E+00 -0.00000000000E+00 -0.11006247114E+03  0.11006247114E+03  0.00000000000E+00 0. -1.
         23    2    1    2    0    0 -0.15567054217E+02  0.51951905957E+02  0.42921123615E+02  0.11735955397E+03  0.94814072512E+02 0.  0.
         23    2    1    2    0    0  0.15567054217E+02 -0.51951905957E+02 -0.90498102582E+01  0.13663670166E+03  0.12508539269E+03 0.  0.
          5    1    4    4  502    0  0.47035639405E+02 -0.47560408542E+02  0.39996698686E+02  0.78048396144E+02  0.41800000000E+01 0. -1.
         -5    1    4    4    0  502 -0.31468585188E+02 -0.43914974152E+01 -0.49046508944E+02  0.58588305513E+02  0.41800000000E+01 0. -1.
        -11    1    3    3    0    0 -0.52591756258E+01  0.26202482808E+02  0.72225082360E+02  0.77010983343E+02  0.00000000000E+00 0.  1.
         11    1    3    3    0    0 -0.10307878591E+02  0.25749423149E+02 -0.29303958745E+02  0.40348570627E+02  0.00000000000E+00 0. -1.
</event>
<event>
 8    1  0.8061721E-006  0.8006569E+02  0.7561462E-02  0.1328865E+00
          1   -1    0    0  501    0  0.00000000000E+00  0.00000000000E+00  0.15683305566E+03  0.15683305566E+03  0.00000000000E+00 0.  1.
         -1   -1    0    0    0  501 -0.00000000000E+00 -0.00000000000E+00 -0.12260454378E+03  0.12260454378E+03  0.00000000000E+00 0. -1.
         23    2    1    2    0    0 -0.51938986560E+02  0.28960029600E+02 -0.47908998428E+02  0.11840874290E+03  0.90493185521E+02 0.  0.
         23    2    1    2    0    0  0.51938986560E+02 -0.28960029600E+02  0.82137510313E+02  0.16102885654E+03  0.12508948956E+03 0.  0.
          5    1    4    4  502    0  0.22030360306E+02 -0.55875818278E+02 -0.94134328051E+01  0.60938731203E+02  0.41800000000E+01 0. -1.
         -5    1    4    4    0  502  0.29908626253E+02  0.26915788678E+02  0.91550943118E+02  0.10009012534E+03  0.41800000000E+01 0. -1.
        -11    1    3    3    0    0 -0.24057195791E+02  0.13030014378E+02  0.26051232301E+02  0.37778256291E+02  0.00000000000E+00 0.  1.
         11    1    3    3    0    0 -0.27881790769E+02  0.15930015222E+02 -0.73960230729E+02  0.80630486610E+02  0.00000000000E+00 0. -1.
</event>
<event>
 8    1  0.8061721E-006  0.1378483E+03  0.7561462E-02  0.1216254E+00
          1   -1    0    0  501    0  0.00000000000E+00  0.00000000000E+00  0.92041337033E+03  0.92041337033E+03  0.00000000000E+00 0. -1.
         -1   -1    0    0    0  501 -0.00000000000E+00 -0.00000000000E+00 -0.27489675868E+02  0.27489675868E+02  0.00000000000E+00 0.  1.
         23    2    1    2    0    0  0.85382826695E+02 -0.17566538956E+02  0.18615077548E+03  0.22487176475E+03  0.91194237680E+02 0.  0.
         23    2    1    2    0    0 -0.85382826695E+02  0.17566538956E+02  0.70677291899E+03  0.72303128145E+03  0.12508982595E+03 0.  0.
          5    1    4    4  502    0 -0.46402687934E+02 -0.51980935728E+02  0.26142804058E+03  0.27058699143E+03  0.41800000000E+01 0. -1.
         -5    1    4    4    0  502 -0.38980138761E+02  0.69547474684E+02  0.44534487840E+03  0.45244429002E+03  0.41800000000E+01 0. -1.
        -11    1    3    3    0    0  0.90644230782E+02  0.16029310223E+02  0.13983047689E+03  0.16740931165E+03  0.00000000000E+00 0.  1.
         11    1    3    3    0    0 -0.52614040863E+01 -0.33595849180E+02  0.46320298593E+02  0.57462453104E+02  0.00000000000E+00 0. -1.
</event>
<event>
 8    1  0.8061721E-006  0.1956514E+03  0.7561462E-02  0.1153461E+00
         -1   -1    0    0    0  501 -0.00000000000E+00  0.00000000000E+00  0.17264580430E+03  0.17264580430E+03  0.00000000000E+00 0.  1.
          1   -1    0    0  501    0  0.00000000000E+00 -0.00000000000E+00 -0.30896727942E+03  0.30896727942E+03  0.00000000000E+00 0. -1.
         23    2    1    2    0    0 -0.32105365726E+02 -0.17048719379E+03  0.44201241305E+02  0.20173557852E+03  0.92988473230E+02 0.  0.
         23    2    1    2    0    0  0.32105365726E+02  0.17048719379E+03 -0.18052271643E+03  0.27987750521E+03  0.12508528698E+03 0.  0.
          5    1    4    4  502    0  0.70107746149E+02  0.64221633119E+02 -0.50780698993E+02  0.10786874441E+03  0.41800000000E+01 0. -1.
         -5    1    4    4    0  502 -0.38002380423E+02  0.10626556067E+03 -0.12974201743E+03  0.17200876079E+03  0.41800000000E+01 0. -1.
        -11    1    3    3    0    0  0.17474302003E+02 -0.45260285892E+02 -0.20067558600E+02  0.52502872471E+02  0.00000000000E+00 0. -1.
         11    1    3    3    0    0 -0.49579667730E+02 -0.12522690790E+03  0.64268799906E+02  0.14923270605E+03  0.00000000000E+00 0.  1.
</event>
<event>
 7    1  0.8061721E-006  0.1073293E+03  0.7561462E-02  0.1265597E+00
         -3   -1    0    0    0  501 -0.00000000000E+00  0.00000000000E+00  0.62670281716E+02  0.62670281716E+02  0.00000000000E+00 0.  1.
          3   -1    0    0  501    0  0.00000000000E+00 -0.00000000000E+00 -0.61069989809E+03  0.61069989809E+03  0.00000000000E+00 0. -1.
         23    2    1    2    0    0 -0.21654682048E+02  0.54624549981E+02 -0.44851449321E+01  0.10831387758E+03  0.90879111113E+02 0.  0.
          5    1    1    2  502    0  0.72789772099E+02 -0.85177706153E+01 -0.38829368988E+03  0.39517131138E+03  0.41800000000E+01 0. -1.
         -5    1    1    2    0  502 -0.51135090050E+02 -0.46106779365E+02 -0.15525078156E+03  0.16988499084E+03  0.41800000000E+01 0.  1.
        -11    1    3    3    0    0 -0.10341813077E+02  0.59181143700E+02 -0.39054495428E+02  0.71656224297E+02  0.00000000000E+00 0. -1.
         11    1    3    3    0    0 -0.11312868972E+02 -0.45565937190E+01  0.34569350496E+02  0.36657653286E+02  0.00000000000E+00 0.  1.
</event>
<event>
 8    1  0.8061721E-006  0.1288378E+03  0.7561462E-02  0.1229191E+00
          1   -1    0    0  501    0  0.00000000000E+00  0.00000000000E+00  0.65002414380E+03  0.65002414380E+03  0.00000000000E+00 0. -1.
         -1   -1    0    0    0  501 -0.00000000000E+00 -0.00000000000E+00 -0.40905809118E+02  0.40905809118E+02  0.00000000000E+00 0.  1.
         23    2    1    2    0    0 -0.31183014648E+02  0.62622767630E+02  0.75428438539E+02  0.13833045273E+03  0.92476339586E+02 0.  0.
         23    2    1    2    0    0  0.31183014648E+02 -0.62622767630E+02  0.53368989614E+03  0.55259950019E+03  0.12508921191E+03 0.  0.
          5    1    4    4  502    0  0.66612757214E+02 -0.78868286842E+02  0.35944298005E+03  0.37399758609E+03  0.41800000000E+01 0.  1.
         -5    1    4    4    0  502 -0.35429742566E+02  0.16245519212E+02  0.17424691609E+03  0.17860191410E+03  0.41800000000E+01 0.  1.
        -11    1    3    3    0    0 -0.63897876469E+02  0.42698438898E+02  0.42512576226E+02  0.87826046473E+02  0.00000000000E+00 0.  1.
         11    1    3    3    0    0  0.32714861821E+02  0.19924328732E+02  0.32915862314E+02  0.50504406256E+02  0.00000000000E+00 0. -1.
</event>
<event>
 8    1  0.8061721E-006  0.1435691E+03  0.7561462E-02  0.1208606E+00
         -1   -1    0    0    0  501 -0.00000000000E+00  0.00000000000E+00  0.68570071553E+02  0.68570071553E+02  0.00000000000E+00 0.  1.
          1   -1    0    0  501    0  0.00000000000E+00 -0.00000000000E+00 -0.61649184659E+03  0.61649184659E+03  0.00000000000E+00 0. -1.
         23    2    1    2    0    0  0.13654443828E+03 -0.38657919357E+02 -0.97305427456E+02  0.19636275701E+03  0.94610611331E+02 0.  0.
         23    2    1    2    0    0 -0.13654443828E+03  0.38657919357E+02 -0.45061634758E+03  0.48869916113E+03  0.12503183207E+03 0.  0.
          5    1    4    4  502    0 -0.88933297310E+02  0.38800955774E+02 -0.11874096797E+03  0.15339991986E+03  0.41800000000E+01 0.  1.
         -5    1    4    4    0  502 -0.47611140966E+02 -0.14303641718E+00 -0.33187537961E+03  0.33529924127E+03  0.41800000000E+01 0.  1.
        -11    1    3    3    0    0  0.39596014177E+02 -0.67974376905E+01  0.16564499429E+02  0.43456094385E+02  0.00000000000E+00 0.  1.
         11    1    3    3    0    0  0.96948424099E+02 -0.31860481666E+02 -0.11386992689E+03  0.15290666263E+03  0.00000000000E+00 0. -1.
</event>
<event>
 8    1  0.8061721E-006  0.1181107E+03  0.7561462E-02  0.1246247E+00
          2   -1    0    0  501    0  0.00000000000E+00  0.00000000000E+00  0.55395769899E+02  0.55395769899E+02  0.00000000000E+00 0. -1.
         -2   -1    0    0    0  501 -0.00000000000E+00 -0.00000000000E+00 -0.33315660955E+03  0.33315660955E+03  0.00000000000E+00 0.  1.
         23    2    1    2    0    0 -0.24821570756E+01  0.70993640599E+02 -0.18533210831E+03  0.21756110702E+03  0.89098747499E+02 0.  0.
         23    2    1    2    0    0  0.24821570756E+01 -0.70993640599E+02 -0.92428731338E+02  0.17099127243E+03  0.12509471116E+03 0.  0.
          5    1    4    4  502    0  0.55197398920E+02 -0.59114857309E+02 -0.25576436646E+02  0.84929062833E+02  0.41800000000E+01 0. -1.
         -5    1    4    4    0  502 -0.52715241845E+02 -0.11878783290E+02 -0.66852294692E+02  0.86062209597E+02  0.41800000000E+01 0. -1.
        -11    1    3    3    0    0 -0.49601060589E+01 -0.14593564648E+02 -0.24225797012E+01  0.15602681618E+02  0.00000000000E+00 0. -1.
         11    1    3    3    0    0  0.24779489832E+01  0.85587205247E+02 -0.18290952861E+03  0.20195842540E+03  0.00000000000E+00 0.  1.
</event>
<event>
 8    1  0.8061721E-006  0.1659548E+03  0.7561462E-02  0.1182133E+00
         -2   -1    0    0    0  501 -0.00000000000E+00  0.00000000000E+00  0.31193280511E+02  0.31193280511E+02  0.00000000000E+00 0.  1.
          2   -1    0    0  501    0  0.00000000000E+00 -0.00000000000E+00 -0.11615798506E+04  0.11615798506E+04  0.00000000000E+00 0. -1.
         23    2    1    2    0    0  0.61481179200E+02 -0.12462217313E+03 -0.31708091337E+03  0.35825341632E+03  0.92166063432E+02 0.  0.
         23    2    1    2    0    0 -0.61481179200E+02  0.12462217313E+03 -0.81330565672E+03  0.83451971479E+03  0.12508573738E+03 0.  0.
          5    1    4    4  502    0 -0.80190722959E+02  0.12245021703E+03 -0.51011806845E+03  0.53071887460E+03  0.41800000000E+01 0. -1.
         -5    1    4    4    0  502  0.18709543758E+02  0.21719560994E+01 -0.30318758826E+03  0.30380084019E+03  0.41800000000E+01 0. -1.
        -11    1    3    3    0    0  0.85548534772E+02 -0.91770912634E+02 -0.22615589146E+03  0.25862509439E+03  0.00000000000E+00 0. -1.
         11    1    3    3    0    0 -0.24067355572E+02 -0.32851260495E+02 -0.90925021913E+02  0.99628321928E+02  0.00000000000E+00 0.  1.
</event>
<event>
 8    1  0.8061721E-006  0.1780763E+03  0.7561462E-02  0.1169678E+00
         -1   -1    0    0    0  501 -0.00000000000E+00  0.00000000000E+00  0.87811186088E+02  0.87811186088E+02  0.00000000000E+00 0.  1.
          1   -1    0    0  501    0  0.00000000000E+00 -0.00000000000E+00 -0.42915987893E+03  0.42915987893E+03  0.00000000000E+00 0. -1.
         23    2    1    2    0    0  0.11340207579E+03 -0.96479079690E+02 -0.84114076900E+02  0.19450153927E+03  0.92668372343E+02 0.  0.
         23    2    1    2    0    0 -0.11340207579E+03  0.96479079690E+02 -0.25723461594E+03  0.32246952575E+03  0.12509477922E+03 0.  0.
          5    1    4    4  502    0  0.64186108014E+01  0.53196635241E+02 -0.13731919633E+03  0.14746224821E+03  0.41800000000E+01 0.  1.
         -5    1    4    4    0  502 -0.11982068659E+03  0.43282444449E+02 -0.11991541961E+03  0.17500727754E+03  0.41800000000E+01 0.  1.
        -11    1    3    3    0    0 -0.14153583145E+02 -0.24983701445E+02 -0.88775430042E+01  0.30055282789E+02  0.00000000000E+00 0.  1.
         11    1    3    3    0    0  0.12755565894E+03 -0.71495378245E+02 -0.75236533895E+02  0.16444625648E+03  0.00000000000E+00 0. -1.
</event>
<event>
 8    1  0.8061721E-006  0.1281504E+03  0.7561462E-02  0.1230226E+00
         -2   -1    0    0    0  501 -0.00000000000E+00  0.00000000000E+00  0.26509103514E+03  0.26509103514E+03  0.00000000000E+00 0.  1.
          2   -1    0    0  501    0  0.00000000000E+00 -0.00000000000E+00 -0.67599066493E+02  0.67599066493E+02  0.00000000000E+00 0. -1.
         23    2    1    2    0    0  0.39038990994E+02 -0.62743273380E+02  0.12119111616E+03  0.16858816119E+03  0.90961092157E+02 0.  0.
         23    2    1    2    0    0 -0.39038990994E+02  0.62743273380E+02  0.76300852491E+02  0.16410194044E+03  0.12508743180E+03 0.  0.
          5    1    4    4  502    0 -0.68175723905E+02 -0.78952552219E+01  0.35998779702E+02  0.77612169955E+02  0.41800000000E+01 0. -1.
         -5    1    4    4    0  502  0.29136732911E+02  0.70638528602E+02  0.40302072788E+02  0.86489770486E+02  0.41800000000E+01 0. -1.
        -11    1    3    3    0    0 -0.81239777992E+01 -0.63330761712E+02  0.42032961531E+02  0.76443143900E+02  0.00000000000E+00 0.  1.
         11    1    3    3    0    0  0.47162968793E+02  0.58748833190E+00  0.79158154626E+02  0.92145017292E+02  0.00000000000E+00 0. -1.
</event>
<event>
 8    1  0.8061721E-006  0.1306745E+03  0.7561462E-02  0.1226458E+00
          1   -1    0    0  501    0  0.00000000000E+00  0.00000000000E+00  0.19196518855E+03  0.19196518855E+03  0.00000000000E+00 0. -1.
         -1   -1    0    0    0  501 -0.00000000000E+00 -0.00000000000E+00 -0.12830197547E+03  0.12830197547E+03  0.00000000000E+00 0.  1.
         23    2    1    2    0    0 -0.59844925380E+02 -0.83821490376E+02 -0.29510015894E+02  0.13335522744E+03  0.79406034429E+02 0.  0.
         23    2    1    2    0    0  0.59844925380E+02  0.83821490376E+02  0.93173228966E+02  0.18691193659E+03  0.12508942441E+03 0.  0.
          5    1    4    4  502    0  0.87085989198E+02  0.30109990371E+02  0.24421574775E+02  0.95417329396E+02  0.41800000000E+01 0. -1.
         -5    1    4    4    0  502 -0.27241063817E+02  0.53711500005E+02  0.68751654191E+02  0.91494607189E+02  0.41800000000E+01 0. -1.
        -11    1    3    3    0    0  0.33154323172E+01 -0.14862987188E+02  0.21876096165E+02  0.26654531754E+02  0.00000000000E+00 0. -1.
         11    1    3    3    0    0 -0.63160357698E+02 -0.68958503188E+02 -0.51386112059E+02  0.10670069568E+03  0.00000000000E+00 0.  1.
</event>
<event>
 8    1  0.8061721E-006  0.8740595E+02  0.7561462E-02  0.1309258E+00
          1   -1    0    0  501    0  0.00000000000E+00  0.00000000000E+00  0.26522578472E+03  0.26522578472E+03  0.00000000000E+00 0. -1.
         -1   -1    0    0    0  501 -0.00000000000E+00 -0.00000000000E+00 -0.91380622562E+02  0.91380622562E+02  0.00000000000E+00 0.  1.
         23    2    1    2    0    0  0.19770456324E+02 -0.28522734982E+02 -0.41805538440E+02  0.10489679140E+03  0.89728570965E+02 0.  0.
         23    2    1    2    0    0 -0.19770456324E+02  0.28522734982E+02  0.21565070059E+03  0.25170961588E+03  0.12509232073E+03 0.  0.
          5    1    4    4  502    0 -0.48717437680E+01 -0.27668322022E+02  0.18242195314E+03  0.18461991041E+03  0.41800000000E+01 0. -1.
         -5    1    4    4    0  502 -0.14898712556E+02  0.56191057004E+02  0.33228747454E+02  0.67089705473E+02  0.41800000000E+01 0. -1.
        -11    1    3    3    0    0 -0.31796028099E+02 -0.99441590776E+01  0.38833821015E+01  0.33540339283E+02  0.00000000000E+00 0. -1.
         11    1    3    3    0    0  0.51566484423E+02 -0.18578575905E+02 -0.45688920542E+02  0.71356452117E+02  0.00000000000E+00 0.  1.
</event>
<event>
 8    1  0.8061721E-006  0.1590944E+03  0.7561462E-02  0.1189723E+00
          1   -1    0    0  501    0  0.00000000000E+00  0.00000000000E+00  0.19350268391E+03  0.19350268391E+03  0.00000000000E+00 0. -1.
         -1   -1    0    0    0  501 -0.00000000000E+00 -0.00000000000E+00 -0.25110287393E+03  0.25110287393E+03  0.00000000000E+00 0.  1.
         23    2    1    2    0    0  0.64978654546E+02 -0.13925966408E+03 -0.14206824636E+03  0.22920743393E+03  0.93472892090E+02 0.  0.
         23    2    1    2    0    0 -0.64978654546E+02  0.13925966408E+03  0.84468056342E+02  0.21539812392E+03  0.12508405037E+03 0.  0.
          5    1    4    4  502    0 -0.31741297326E+02  0.74554867871E+02 -0.24104490535E+02  0.84642998193E+02  0.41800000000E+01 0.  1.
         -5    1    4    4    0  502 -0.33237357220E+02  0.64704796213E+02  0.10857254688E+03  0.13075512572E+03  0.41800000000E+01 0.  1.
        -11    1    3    3    0    0  0.67925309531E+02 -0.80388256410E+02 -0.42502423549E+02  0.11350143370E+03  0.00000000000E+00 0. -1.
         11    1    3    3    0    0 -0.29466549853E+01 -0.58871407674E+02 -0.99565822810E+02  0.11570600023E+03  0.00000000000E+00 0.  1.
</event>
<event>
 8    1  0.8061721E-006  0.1218978E+03  0.7561462E-02  0.1239999E+00
         -2   -1    0    0    0  501 -0.00000000000E+00  0.00000000000E+00  0.13408146494E+02  0.13408146494E+02  0.00000000000E+00 0.  1.
          2   -1    0    0  501    0  0.00000000000E+00 -0.00000000000E+00 -0.13623081414E+04  0.13623081414E+04  0.00000000000E+00 0. -1.
         23    2    1    2    0    0 -0.15203529986E+02 -0.70105531384E+02 -0.41609104211E+03  0.43182850183E+03  0.90543728722E+02 0.  0.
         23    2    1    2    0    0  0.15203529986E+02  0.70105531384E+02 -0.93280895284E+03  0.94388778611E+03  0.12508268232E+03 0.  0.
          5    1    4    4  502    0 -0.50888402781E+02  0.12342902921E+02 -0.45925006889E+03  0.46224460513E+03  0.41800000000E+01 0. -1.
         -5    1    4    4    0  502  0.66091932767E+02  0.57762628464E+02 -0.47355888394E+03  0.48164318098E+03  0.41800000000E+01 0. -1.
        -11    1    3    3    0    0  0.10377595465E+02  0.12885750245E+02 -0.18309996263E+02  0.24677783737E+02  0.00000000000E+00 0.  1.
         11    1    3    3    0    0 -0.25581125451E+02 -0.82991281629E+02 -0.39778104585E+03  0.40715071809E+03  0.00000000000E+00 0. -1.
</event>
<event>
 8    1  0.8061721E-006  0.1468705E+03  0.7561462E-02  0.1204372E+00
          2   -1    0    0  501    0  0.00000000000E+00  0.00000000000E+00  0.15088206405E+03  0.15088206405E+03  0.00000000000E+00 0. -1.
         -2   -1    0    0    0  501 -0.00000000000E+00 -0.00000000000E+00 -0.22171057662E+03  0.22171057662E+03  0.00000000000E+00 0.  1.
         23    2    1    2    0    0 -0.84544347023E+02 -0.51560673320E+02 -0.14373632878E+03  0.19714684879E+03  0.91654231382E+02 0.  0.
         23    2    1    2    0    0  0.84544347023E+02  0.51560673320E+02  0.72907816204E+02  0.17544579188E+03  0.12513763054E+03 0.  0.
          5    1    4    4  502    0  0.76665139184E+02 -0.26047169731E+02  0.43209274133E+02  0.91872261255E+02  0.41800000000E+01 0.  1.
         -5    1    4    4    0  502  0.78792078391E+01  0.77607843051E+02  0.29698542072E+02  0.83573530621E+02  0.41800000000E+01 0.  1.
        -11    1    3    3    0    0 -0.18522219675E+02  0.26485474932E+02 -0.41122262040E+02  0.52302900869E+02  0.00000000000E+00 0.  1.
         11    1    3    3    0    0 -0.66022127348E+02 -0.78046148252E+02 -0.10261406674E+03  0.14484394792E+03  0.00000000000E+00 0. -1.
</event>
<event>
 8    1  0.8061721E-006  0.1162915E+03  0.7561462E-02  0.1249343E+00
          2   -1    0    0  501    0  0.00000000000E+00  0.00000000000E+00  0.60188542782E+03  0.60188542782E+03  0.00000000000E+00 0. -1.
         -2   -1    0    0    0  501 -0.00000000000E+00 -0.00000000000E+00 -0.28456073413E+02  0.28456073413E+02  0.00000000000E+00 0.  1.
         23    2    1    2    0    0  0.25303760499E+02 -0.66732091096E+02  0.20402485963E+03  0.23385594035E+03  0.89269284819E+02 0.  0.
         23    2    1    2    0    0 -0.25303760499E+02  0.66732091096E+02  0.36940449477E+03  0.39648556088E+03  0.12509063494E+03 0.  0.
          5    1    4    4  502    0  0.37806649039E+02  0.63789595415E+02  0.13971026294E+03  0.15822416113E+03  0.41800000000E+01 0. -1.
         -5    1    4    4    0  502 -0.63110409538E+02  0.29424956811E+01  0.22969423183E+03  0.23826139975E+03  0.41800000000E+01 0. -1.
        -11    1    3    3    0    0  0.14689718513E+01  0.12331359250E+02 -0.13590755247E+01  0.12492693286E+02  0.00000000000E+00 0.  1.
         11    1    3    3    0    0  0.23834788648E+02 -0.79063450347E+02  0.20538393516E+03  0.22136324707E+03  0.00000000000E+00 0. -1.
</event>
<event>
 8    1  0.8061721E-006  0.1117186E+03  0.7561462E-02  0.1257420E+00
          2   -1    0    0  501    0  0.00000000000E+00  0.00000000000E+00  0.59045575762E+03  0.59045575762E+03  0.00000000000E+00 0. -1.
         -2   -1    0    0    0  501 -0.00000000000E+00 -0.00000000000E+00 -0.54396055330E+02  0.54396055330E+02  0.00000000000E+00 0.  1.
         23    2    1    2    0    0 -0.32594287269E+02  0.52548006790E+02  0.22672125611E+02  0.11283896825E+03  0.91623833665E+02 0.  0.
         23    2    1    2    0    0  0.32594287269E+02 -0.52548006790E+02  0.51338757668E+03  0.53201284470E+03  0.12508869837E+03 0.  0.
          5    1    4    4  502    0  0.19665065851E+02 -0.87507084353E+02  0.44545586239E+03  0.45441457103E+03  0.41800000000E+01 0.  1.
         -5    1    4    4    0  502  0.12929221418E+02  0.34959077563E+02  0.67931714289E+02  0.77598273671E+02  0.41800000000E+01 0.  1.
        -11    1    3    3    0    0 -0.26309981447E+02  0.71494493313E+02 -0.76191539166E+01  0.76561930515E+02  0.00000000000E+00 0.  1.
         11    1    3    3    0    0 -0.62843058221E+01 -0.18946486523E+02  0.30291279527E+02  0.36277037733E+02  0.00000000000E+00 0. -1.
</event>
<event>
 8    1  0.8061721E-006  0.1336944E+03  0.7561462E-02  0.1222075E+00
         -2   -1    0    0    0  501 -0.00000000000E+00  0.00000000000E+00  0.57782399004E+02  0.57782399004E+02  0.00000000000E+00 0.  1.
          2   -1    0    0  501    0  0.00000000000E+00 -0.00000000000E+00 -0.45052261761E+03  0.45052261761E+03  0.00000000000E+00 0. -1.
         23    2    1    2    0    0  0.11372939235E+02 -0.10768391519E+03 -0.10570950054E+03  0.17700720840E+03  0.91825290536E+02 0.  0.
         23    2    1    2    0    0 -0.11372939235E+02  0.10768391519E+03 -0.28703071807E+03  0.33129780822E+03  0.12508571172E+03 0.  0.
          5    1    4    4  502    0  0.32657034235E+02  0.10973856448E+03 -0.24398449963E+03  0.26954580850E+03  0.41800000000E+01 0. -1.
         -5    1    4    4    0  502 -0.44029973470E+02 -0.20546492863E+01 -0.43046218445E+02  0.61751999723E+02  0.41800000000E+01 0. -1.
        -11    1    3    3    0    0  0.12448192109E+02 -0.94861221729E+02 -0.12276421126E+03  0.15564273334E+03  0.00000000000E+00 0. -1.
         11    1    3    3    0    0 -0.10752528736E+01 -0.12822693466E+02  0.17054710726E+02  0.21364475056E+02  0.00000000000E+00 0.  1.
</event>
<event>
 8    1  0.8061721E-006  0.1092632E+03  0.7561462E-02  0.1261940E+00
         -2   -1    0    0    0  501 -0.00000000000E+00  0.00000000000E+00  0.23534009190E+03  0.23534009190E+03  0.00000000000E+00 0.  1.
          2   -1    0    0  501    0  0.00000000000E+00 -0.00000000000E+00 -0.55442554531E+02  0.55442554531E+02  0.00000000000E+00 0. -1.
         23    2    1    2    0    0  0.60562536682E+01 -0.35523697498E+02  0.85949095949E+02  0.13024440201E+03  0.90982118397E+02 0.  0.
         23    2    1    2    0    0 -0.60562536682E+01  0.35523697498E+02  0.93948441424E+02  0.16053824443E+03  0.12509039525E+03 0.  0.
          5    1    4    4  502    0 -0.60970845614E+02  0.19580254251E+02  0.20515560875E+02  0.67373518607E+02  0.41800000000E+01 0.  1.
         -5    1    4    4    0  502  0.54914591946E+02  0.15943443246E+02  0.73432880549E+02  0.93164725819E+02  0.41800000000E+01 0.  1.
        -11    1    3    3    0    0  0.30003120887E+02  0.20333155402E+02  0.40543423944E+02  0.54381924356E+02  0.00000000000E+00 0.  1.
         11    1    3    3    0    0 -0.23946867219E+02 -0.55856852900E+02  0.45405672005E+02  0.75862477654E+02  0.00000000000E+00 0. -1.
</event>
<event>
 8    1  0.8061721E-006  0.2478510E+03  0.7561462E-02  0.1114671E+00
          2   -1    0    0  501    0  0.00000000000E+00  0.00000000000E+00  0.51469527166E+03  0.51469527166E+03  0.00000000000E+00 0. -1.
         -2   -1    0    0    0  501 -0.00000000000E+00 -0.00000000000E+00 -0.13557571880E+03  0.13557571880E+03  0.00000000000E+00 0.  1.
         23    2    1    2    0    0  0.14684784320E+02 -0.23449528093E+03  0.11813754987E+03  0.27749527627E+03  0.88563355798E+02 0.  0.
         23    2    1    2    0    0 -0.14684784320E+02  0.23449528093E+03  0.26098200300E+03  0.37277571419E+03  0.12508576070E+03 0.  0.
          5    1    4    4  502    0  0.40751299973E+02  0.14271549518E+03  0.98930999461E+02  0.17841859788E+03  0.41800000000E+01 0. -1.
         -5    1    4    4    0  502 -0.55436084292E+02  0.91779785754E+02  0.16205100353E+03  0.19435711631E+03  0.41800000000E+01 0. -1.
        -11    1    3    3    0    0 -0.14373001612E+02 -0.28856956801E+02  0.48911858390E+02  0.58580517430E+02  0.00000000000E+00 0. -1.
         11    1    3    3    0    0  0.29057785932E+02 -0.20563832413E+03  0.69225691477E+02  0.21891475884E+03  0.00000000000E+00 0.  1.
</event>
<event>
 8    1  0.8061721E-006  0.1152100E+03  0.7561462E-02  0.1251215E+00
          2   -1    0    0  501    0  0.00000000000E+00  0.00000000000E+00  0.18328583393E+03  0.18328583393E+03  0.00000000000E+00 0. -1.
         -2   -1    0    0    0  501 -0.00000000000E+00 -0.00000000000E+00 -0.12439042307E+03  0.12439042307E+03  0.00000000000E+00 0.  1.
         23    2    1    2    0    0 -0.28391206029E+01  0.10080428820E+03  0.12994795880E+02  0.14057123965E+03  0.97066181396E+02 0.  0.
         23    2    1    2    0    0  0.28391206029E+01 -0.10080428820E+03  0.45900614976E+02  0.16710501736E+03  0.12509058815E+03 0.  0.
          5    1    4    4  502    0  0.32838929240E+02 -0.89791896450E+02  0.76610547274E+02  0.12258722729E+03  0.41800000000E+01 0. -1.
         -5    1    4    4    0  502 -0.29999808637E+02 -0.11012391751E+02 -0.30709932298E+02  0.44517790063E+02  0.41800000000E+01 0. -1.
        -11    1    3    3    0    0  0.77920034040E+01  0.47783419033E+02  0.54133775101E+02  0.72625312793E+02  0.00000000000E+00 0. -1.
         11    1    3    3    0    0 -0.10631124007E+02  0.53020869168E+02 -0.41138979221E+02  0.67945926856E+02  0.00000000000E+00 0.  1.
</event>
<event>
 8    1  0.8061721E-006  0.1074910E+03  0.7561462E-02  0.1265288E+00
          3   -1    0    0  501    0  0.00000000000E+00  0.00000000000E+00  0.29472691663E+03  0.29472691663E+03  0.00000000000E+00 0. -1.
         -3   -1    0    0    0  501 -0.00000000000E+00 -0.00000000000E+00 -0.43235428542E+02  0.43235428542E+02  0.00000000000E+00 0.  1.
         23    2    1    2    0    0 -0.67110759924E+01  0.32886688783E+02  0.94124319178E+02  0.13415162884E+03  0.89502509574E+02 0.  0.
         23    2    1    2    0    0  0.67110759924E+01 -0.32886688783E+02  0.15736716891E+03  0.20381071633E+03  0.12509120433E+03 0.  0.
          5    1    4    4  502    0 -0.57873969896E+02 -0.13409834349E+02  0.54506192326E+02  0.80731762341E+02  0.41800000000E+01 0. -1.
         -5    1    4    4    0  502  0.64585045889E+02 -0.19476854434E+02  0.10286097658E+03  0.12307895399E+03  0.41800000000E+01 0. -1.
        -11    1    3    3    0    0 -0.41215402853E+02  0.33832701651E+02  0.81508238206E+02  0.97400996036E+02  0.00000000000E+00 0. -1.
         11    1    3    3    0    0  0.34504326861E+02 -0.94601286827E+00  0.12616080972E+02  0.36750632805E+02  0.00000000000E+00 0.  1.
</event>
<event>
 8    1  0.1293810E-005  0.1063305E+03  0.7561462E-02  0.1267520E+00
          1   -1    0    0  501    0  0.00000000000E+00  0.00000000000E+00  0.12824898920E+04  0.12824898920E+04  0.00000000000E+00 0. -1.
         -1   -1    0    0    0  501 -0.00000000000E+00 -0.00000000000E+00 -0.11141324825E+02  0.11141324825E+02  0.00000000000E+00 0.  1.
         23    2    1    2    0    0  0.39980763870E+01 -0.78380033979E+01  0.28933530103E+03  0.30364387803E+03  0.91691162797E+02 0.  0.
         23    2    1    2    0    0 -0.39980763870E+01  0.78380033979E+01  0.98201326611E+03  0.98998733875E+03  0.12508979640E+03 0.  0.
          5    1    4    4  502    0 -0.62748599410E+02  0.94599731258E+01  0.61433154502E+03  0.61761444075E+03  0.41800000000E+01 0. -1.
         -5    1    4    4    0  502  0.58750523023E+02 -0.16219697279E+01  0.36768172109E+03  0.37237289800E+03  0.41800000000E+01 0. -1.
        -11    1    3    3    0    0  0.34629978446E+02  0.26884977572E+02  0.10967883636E+03  0.11811640264E+03  0.00000000000E+00 0.  1.
         11    1    3    3    0    0 -0.30631902059E+02 -0.34722980970E+02  0.17965646466E+03  0.18552747539E+03  0.00000000000E+00 0. -1.
</event>
<event>
 8    1  0.8061721E-006  0.8188602E+02  0.7561462E-02  0.1323783E+00
          1   -1    0    0  501    0  0.00000000000E+00  0.00000000000E+00  0.98079341670E+03  0.98079341670E+03  0.00000000000E+00 0. -1.
         -1   -1    0    0    0  501 -0.00000000000E+00 -0.00000000000E+00 -0.14002549760E+02  0.14002549760E+02  0.00000000000E+00 0.  1.
         23    2    1    2    0    0  0.75628903416E+01 -0.49430769771E+01  0.31219800168E+03  0.32829870759E+03  0.10114750531E+03 0.  0.
         23    2    1    2    0    0 -0.75628903416E+01  0.49430769771E+01  0.65459286526E+03  0.66649725887E+03  0.12508055610E+03 0.  0.
          5    1    4    4  502    0 -0.23479267836E+02 -0.21781848694E+02  0.61558124821E+03  0.61642799295E+03  0.41800000000E+01 0.  1.
         -5    1    4    4    0  502  0.15916377495E+02  0.26724925671E+02  0.39011617050E+02  0.50069265918E+02  0.41800000000E+01 0.  1.
        -11    1    3    3    0    0  0.24489144746E+02  0.42867828854E+02  0.12630545957E+03  0.13561134938E+03  0.00000000000E+00 0. -1.
         11    1    3    3    0    0 -0.16926254405E+02 -0.47810905831E+02  0.18589254211E+03  0.19268735821E+03  0.00000000000E+00 0.  1.
</event>
<event>
 8    1  0.8061721E-006  0.7454903E+02  0.7561462E-02  0.1345273E+00
         -1   -1    0    0    0  501 -0.00000000000E+00  0.00000000000E+00  0.62341611341E+02  0.62341611341E+02  0.00000000000E+00 0.  1.
          1   -1    0    0  501    0  0.00000000000E+00 -0.00000000000E+00 -0.26380278380E+03  0.26380278380E+03  0.00000000000E+00 0. -1.
         23    2    1    2    0    0  0.63396090390E+02  0.10478746735E+02 -0.10796060672E+03  0.15727099645E+03  0.94603410668E+02 0.  0.
         23    2    1    2    0    0 -0.63396090390E+02 -0.10478746735E+02 -0.93500565733E+02  0.16887339869E+03  0.12508797138E+03 0.  0.
          5    1    4    4  502    0 -0.49594366035E+02 -0.19955571221E+02 -0.12329054049E+03  0.13444647909E+03  0.41800000000E+01 0.  1.
         -5    1    4    4    0  502 -0.13801724355E+02  0.94768244863E+01  0.29789974754E+02  0.34426919603E+02  0.41800000000E+01 0.  1.
        -11    1    3    3    0    0  0.15777842695E+02 -0.17039487956E+02  0.11384708398E+02  0.25863024866E+02  0.00000000000E+00 0.  1.
         11    1    3    3    0    0  0.47618247695E+02  0.27518234690E+02 -0.11934531512E+03  0.13140797158E+03  0.00000000000E+00 0. -1.
</event>
<event>
 8    1  0.8061721E-006  0.9583390E+02  0.7561462E-02  0.1289309E+00
          1   -1    0    0  501    0  0.00000000000E+00  0.00000000000E+00  0.77141012246E+03  0.77141012246E+03  0.00000000000E+00 0. -1.
         -1   -1    0    0    0  501 -0.00000000000E+00 -0.00000000000E+00 -0.21692622531E+02  0.21692622531E+02  0.00000000000E+00 0.  1.
         23    2    1    2    0    0  0.58634694276E+02  0.34814131952E+00  0.21396525330E+03  0.23982778124E+03  0.91093833258E+02 0.  0.
         23    2    1    2    0    0 -0.58634694276E+02 -0.34814131952E+00  0.53575224662E+03  0.55327496375E+03  0.12507824421E+03 0.  0.
          5    1    4    4  502    0 -0.96435697604E+01  0.46607956901E+02  0.85720957813E+02  0.98136920130E+02  0.41800000000E+01 0. -1.
         -5    1    4    4    0  502 -0.48991124515E+02 -0.46956098221E+02  0.45003128881E+03  0.45513804362E+03  0.41800000000E+01 0. -1.
        -11    1    3    3    0    0  0.61724398465E+02 -0.12250767303E+02  0.21746900505E+03  0.22639070392E+03  0.00000000000E+00 0. -1.
         11    1    3    3    0    0 -0.30897041889E+01  0.12598908622E+02 -0.35037517479E+01  0.13437077315E+02  0.00000000000E+00 0.  1.
</event>
<event>
 8    1  0.8061721E-006  0.1872882E+03  0.7561462E-02  0.1160930E+00
          2   -1    0    0  501    0  0.00000000000E+00  0.00000000000E+00  0.17069780680E+04  0.17069780680E+04  0.00000000000E+00 0. -1.
         -2   -1    0    0    0  501 -0.00000000000E+00 -0.00000000000E+00 -0.37943385689E+02  0.37943385689E+02  0.00000000000E+00 0.  1.
         23    2    1    2    0    0 -0.16977802963E+02  0.16939729921E+03  0.28413349704E+03  0.34399906114E+03  0.92842981168E+02 0.  0.
         23    2    1    2    0    0  0.16977802963E+02 -0.16939729921E+03  0.13849011853E+04  0.14009223926E+04  0.12509422934E+03 0.  0.
          5    1    4    4  502    0  0.53013087542E+02 -0.13380747417E+03  0.73077659657E+03  0.74482664701E+03  0.41800000000E+01 0. -1.
         -5    1    4    4    0  502 -0.36035284580E+02 -0.35589825040E+02  0.65412458875E+03  0.65609574559E+03  0.41800000000E+01 0. -1.
        -11    1    3    3    0    0 -0.37676367374E+02  0.86914457380E+02  0.84237534054E+02  0.12676590119E+03  0.00000000000E+00 0. -1.
         11    1    3    3    0    0  0.20698564411E+02  0.82482841827E+02  0.19989596299E+03  0.21723315996E+03  0.00000000000E+00 0.  1.
</event>
<event>
 8    1  0.8061721E-006  0.9901613E+02  0.7561462E-02  0.1282379E+00
         -1   -1    0    0    0  501 -0.00000000000E+00  0.00000000000E+00  0.30991629319E+03  0.30991629319E+03  0.00000000000E+00 0.  1.
          1   -1    0    0  501    0  0.00000000000E+00 -0.00000000000E+00 -0.50765888479E+02  0.50765888479E+02  0.00000000000E+00 0. -1.
         23    2    1    2    0    0  0.51217176052E+02  0.70332555764E+01  0.13978484531E+03  0.18021064614E+03  0.10130848039E+03 0.  0.
         23    2    1    2    0    0 -0.51217176052E+02 -0.70332555764E+01  0.11936555940E+03  0.18047153552E+03  0.12509665286E+03 0.  0.
          5    1    4    4  502    0 -0.36946489733E+02 -0.53366706525E+02  0.17152186330E+02  0.67266026825E+02  0.41800000000E+01 0.  1.
         -5    1    4    4    0  502 -0.14270686319E+02  0.46333450949E+02  0.10221337307E+03  0.11320550870E+03  0.41800000000E+01 0.  1.
        -11    1    3    3    0    0  0.58143887495E+02 -0.15976451465E+02  0.29111192743E+02  0.66958346734E+02  0.00000000000E+00 0. -1.
         11    1    3    3    0    0 -0.69267114433E+01  0.23009707041E+02  0.11067365257E+03  0.11325229941E+03  0.00000000000E+00 0.  1.
</event>
<event>
 8    1  0.8061721E-006  0.1432091E+03  0.7561462E-02  0.1209075E+00
          1   -1    0    0  501    0  0.00000000000E+00  0.00000000000E+00  0.52103972485E+02  0.52103972485E+02  0.00000000000E+00 0. -1.
         -1   -1    0    0    0  501 -0.00000000000E+00 -0.00000000000E+00 -0.52088045511E+03  0.52088045511E+03  0.00000000000E+00 0.  1.
         23    2    1    2    0    0 -0.90193660692E+02  0.24068129543E+02 -0.35851082968E+03  0.38188224832E+03  0.92681526207E+02 0.  0.
         23    2    1    2    0    0  0.90193660692E+02 -0.24068129543E+02 -0.11026565295E+03  0.19110217927E+03  0.12508939769E+03 0.  0.
          5    1    4    4  502    0 -0.31140655052E+02  0.25923494882E+00 -0.30654788607E+02  0.43897563308E+02  0.41800000000E+01 0.  1.
         -5    1    4    4    0  502  0.12133431574E+03 -0.24327364492E+02 -0.79610864341E+02  0.14720461596E+03  0.41800000000E+01 0.  1.
        -11    1    3    3    0    0 -0.62565347953E+01  0.44379091014E+02 -0.10927590241E+03  0.11810957113E+03  0.00000000000E+00 0.  1.
         11    1    3    3    0    0 -0.83937125896E+02 -0.20310961471E+02 -0.24923492727E+03  0.26377267719E+03  0.00000000000E+00 0. -1.
</event>
<event>
 7    1  0.8061721E-006  0.8083722E+02  0.7561462E-02  0.1326692E+00
         -2   -1    0    0    0  501 -0.00000000000E+00  0.00000000000E+00  0.28306031460E+03  0.28306031460E+03  0.00000000000E+00 0.  1.
          2   -1    0    0  501    0  0.00000000000E+00 -0.00000000000E+00 -0.23863200949E+02  0.23863200949E+02  0.00000000000E+00 0. -1.
         23    2    1    2    0    0  0.10946638467E+02  0.63477065480E+01  0.19548033339E+03  0.23242228916E+03  0.12508971775E+03 0.  0.
          5    1    3    3  502    0  0.32800376863E+02  0.58037699922E+02  0.12942643193E+03  0.14564653451E+03  0.41800000000E+01 0.  1.
         -5    1    3    3    0  502 -0.21853738396E+02 -0.51689993375E+02  0.66053901458E+02  0.86775754648E+02  0.41800000000E+01 0.  1.
        -11    1    1    2    0    0 -0.50543067709E+01 -0.21636031000E+02  0.36062608374E+02  0.42357709772E+02  0.00000000000E+00 0. -1.
         11    1    1    2    0    0 -0.58923316960E+01  0.15288324452E+02  0.27654171895E+02  0.32143516618E+02  0.00000000000E+00 0.  1.
</event>
<event>
 8    1  0.8061721E-006  0.1415003E+03  0.7561462E-02  0.1211324E+00
         -2   -1    0    0    0  501 -0.00000000000E+00  0.00000000000E+00  0.32162405856E+02  0.32162405856E+02  0.00000000000E+00 0.  1.
          2   -1    0    0  501    0  0.00000000000E+00 -0.00000000000E+00 -0.84596212298E+03  0.84596212298E+03  0.00000000000E+00 0. -1.
         23    2    1    2    0    0  0.66482523010E+02  0.67788230434E+02 -0.17197856596E+03  0.21736976881E+03  0.93047402943E+02 0.  0.
         23    2    1    2    0    0 -0.66482523010E+02 -0.67788230434E+02 -0.64182115117E+03  0.66075476002E+03  0.12508913924E+03 0.  0.
          5    1    4    4  502    0  0.37110977116E+01 -0.84281249683E+02 -0.32388358957E+03  0.33471652676E+03  0.41800000000E+01 0. -1.
         -5    1    4    4    0  502 -0.70193620722E+02  0.16493019250E+02 -0.31793756160E+03  0.32603823327E+03  0.41800000000E+01 0. -1.
        -11    1    3    3    0    0  0.65989344532E+02  0.79487223071E+01 -0.12391781209E+03  0.14061792180E+03  0.00000000000E+00 0. -1.
         11    1    3    3    0    0  0.49317847792E+00  0.59839508127E+02 -0.48060753868E+02  0.76751847015E+02  0.00000000000E+00 0.  1.
</event>
<event>
 8    1  0.8061721E-006  0.7635310E+02  0.7561462E-02  0.1339731E+00
         -1   -1    0    0    0  501 -0.00000000000E+00  0.00000000000E+00  0.20692413182E+02  0.20692413182E+02  0.00000000000E+00 0.  1.
          1   -1    0    0  501    0  0.00000000000E+00 -0.00000000000E+00 -0.62327785051E+03  0.62327785051E+03  0.00000000000E+00 0. -1.
         23    2    1    2    0    0 -0.59029568728E+01 -0.26459329502E+02 -0.20016928195E+03  0.22168768728E+03  0.91338645920E+02 0.  0.
         23    2    1    2    0    0  0.59029568728E+01  0.26459329502E+02 -0.40241615538E+03  0.42228257641E+03  0.12509544841E+03 0.  0.
          5    1    4    4  502    0 -0.18831013982E+02  0.27217233046E+02 -0.19695057455E+02  0.38739547628E+02  0.41800000000E+01 0.  1.
         -5    1    4    4    0  502  0.24733970854E+02 -0.75790354429E+00 -0.38272109792E+03  0.38354302878E+03  0.41800000000E+01 0.  1.
        -11    1    3    3    0    0 -0.33960233529E+02  0.20412567389E+02 -0.68468993474E+02  0.79107353868E+02  0.00000000000E+00 0.  1.
         11    1    3    3    0    0  0.28057276656E+02 -0.46871896891E+02 -0.13170028847E+03  0.14258033341E+03  0.00000000000E+00 0. -1.
</event>
<event>
 8    1  0.8061721E-006  0.1181935E+03  0.7561462E-02  0.1246107E+00
          2   -1    0    0  501    0  0.00000000000E+00  0.00000000000E+00  0.81853473536E+03  0.81853473536E+03  0.00000000000E+00 0. -1.
         -2   -1    0    0    0  501 -0.00000000000E+00 -0.00000000000E+00 -0.23778776114E+02  0.23778776114E+02  0.00000000000E+00 0.  1.
         23    2    1    2    0    0 -0.77259496635E+02 -0.39455457408E+02  0.39817214757E+03  0.41751636341E+03  0.90846528157E+02 0.  0.
         23    2    1    2    0    0  0.77259496635E+02  0.39455457408E+02  0.39658381168E+03  0.42479714806E+03  0.12509250328E+03 0.  0.
          5    1    4    4  502    0  0.88126151273E+02  0.51230491931E+02  0.39522735627E+03  0.40818245600E+03  0.41800000000E+01 0. -1.
         -5    1    4    4    0  502 -0.10866654638E+02 -0.11775034524E+02  0.13564554082E+01  0.16614692062E+02  0.41800000000E+01 0. -1.
        -11    1    3    3    0    0 -0.65111708909E+02  0.10890468414E+02  0.29221270141E+03  0.29957703484E+03  0.00000000000E+00 0. -1.
         11    1    3    3    0    0 -0.12147787727E+02 -0.50345925821E+02  0.10595944616E+03  0.11793932857E+03  0.00000000000E+00 0.  1.
</event>
<event>
 8    1  0.8061721E-006  0.7810889E+02  0.7561462E-02  0.1334505E+00
          2   -1    0    0  501    0  0.00000000000E+00  0.00000000000E+00  0.20882448623E+03  0.20882448623E+03  0.00000000000E+00 0. -1.
         -2   -1    0    0    0  501 -0.00000000000E+00 -0.00000000000E+00 -0.58131876899E+02  0.58131876899E+02  0.00000000000E+00 0.  1.
         23    2    1    2    0    0  0.11766348810E+02 -0.24304568627E+02  0.72026083760E+02  0.11674073985E+03  0.87815058947E+02 0.  0.
         23    2    1    2    0    0 -0.11766348810E+02  0.24304568627E+02  0.78666525572E+02  0.15021562328E+03  0.12508857747E+03 0.  0.
          5    1    4    4  502    0 -0.40093517177E+02  0.24163774971E+01 -0.20078039419E+02  0.45099102726E+02  0.41800000000E+01 0. -1.
         -5    1    4    4    0  502  0.28327168367E+02  0.21888191130E+02  0.98744564991E+02  0.10511652056E+03  0.41800000000E+01 0. -1.
        -11    1    3    3    0    0 -0.22069210750E+02  0.15933366202E+02 -0.42698476581E+00  0.27223235253E+02  0.00000000000E+00 0.  1.
         11    1    3    3    0    0  0.33835559560E+02 -0.40237934829E+02  0.72453068526E+02  0.89517504594E+02  0.00000000000E+00 0. -1.
</event>
<event>
 8    1  0.8061721E-006  0.1168236E+03  0.7561462E-02  0.1248431E+00
         -2   -1    0    0    0  501 -0.00000000000E+00  0.00000000000E+00  0.14548240703E+02  0.14548240703E+02  0.00000000000E+00 0. -1.
          2   -1    0    0  501    0  0.00000000000E+00 -0.00000000000E+00 -0.11023544379E+04  0.11023544379E+04  0.00000000000E+00 0.  1.
         23    2    1    2    0    0 -0.25011449639E+02  0.37133551345E+02 -0.26856164318E+03  0.28695531588E+03  0.90628493729E+02 0.  0.
         23    2    1    2    0    0  0.25011449639E+02 -0.37133551345E+02 -0.81924455399E+03  0.82994736270E+03  0.12508601982E+03 0.  0.
          5    1    4    4  502    0  0.46883434172E+02 -0.75108928659E+02 -0.56817291623E+03  0.57504551359E+03  0.41800000000E+01 0. -1.
         -5    1    4    4    0  502 -0.21871984534E+02  0.37975377313E+02 -0.25107163776E+03  0.25490184910E+03  0.41800000000E+01 0. -1.
        -11    1    3    3    0    0  0.28384151630E+02  0.38185951104E+02 -0.12022847308E+03  0.12930086104E+03  0.00000000000E+00 0.  1.
         11    1    3    3    0    0 -0.53395601269E+02 -0.10523997589E+01 -0.14833317010E+03  0.15765445484E+03  0.00000000000E+00 0. -1.
</event>
<event>
 8    1  0.8061721E-006  0.1201020E+03  0.7561462E-02  0.1242929E+00
         -1   -1    0    0    0  501 -0.00000000000E+00  0.00000000000E+00  0.27206511915E+03  0.27206511915E+03  0.00000000000E+00 0.  1.
          1   -1    0    0  501    0  0.00000000000E+00 -0.00000000000E+00 -0.77586871080E+02  0.77586871080E+02  0.00000000000E+00 0. -1.
         23    2    1    2    0    0 -0.75751995685E+02 -0.58519839639E+02  0.99654854854E+02  0.16579899472E+03  0.91625760959E+02 0.  0.
         23    2    1    2    0    0  0.75751995685E+02  0.58519839639E+02  0.94823393213E+02  0.18385299551E+03  0.12509001390E+03 0.  0.
          5    1    4    4  502    0 -0.83813057189E+01  0.22546487086E+02 -0.23723410255E+02  0.34042076311E+02  0.41800000000E+01 0.  1.
         -5    1    4    4    0  502  0.84133301404E+02  0.35973352554E+02  0.11854680347E+03  0.14981091920E+03  0.41800000000E+01 0.  1.
        -11    1    3    3    0    0 -0.49012266185E+02 -0.77291889604E+02  0.96464721563E+02  0.13297248189E+03  0.00000000000E+00 0.  1.
         11    1    3    3    0    0 -0.26739729500E+02  0.18772049964E+02  0.31901332912E+01  0.32826512821E+02  0.00000000000E+00 0. -1.
</event>
<event>
 8    1  0.8061721E-006  0.1394109E+03  0.7561462E-02  0.1214124E+00
          1   -1    0    0  501    0  0.00000000000E+00  0.00000000000E+00  0.56087339348E+03  0.56087339348E+03  0.00000000000E+00 0. -1.
         -1   -1    0    0    0  501 -0.00000000000E+00 -0.00000000000E+00 -0.42230418799E+02  0.42230418799E+02  0.00000000000E+00 0.  1.
         23    2    1    2    0    0 -0.96767616239E+01  0.10650757648E+03  0.19871360968E+03  0.24332726973E+03  0.91014053627E+02 0.  0.
         23    2    1    2    0    0  0.96767616239E+01 -0.10650757648E+03  0.31992936500E+03  0.35977654255E+03  0.12508740311E+03 0.  0.
          5    1    4    4  502    0  0.39789834744E+02 -0.99752318281E+02  0.30836061676E+03  0.32655397459E+03  0.41800000000E+01 0.  1.
         -5    1    4    4    0  502 -0.30113073120E+02 -0.67552581969E+01  0.11568748240E+02  0.33222567960E+02  0.41800000000E+01 0.  1.
        -11    1    3    3    0    0 -0.50395808770E+02  0.61413951176E+02  0.11945161004E+03  0.14345765257E+03  0.00000000000E+00 0. -1.
         11    1    3    3    0    0  0.40719047146E+02  0.45093625302E+02  0.79261999638E+02  0.99869617152E+02  0.00000000000E+00 0.  1.
</event>
<event>
 8    1  0.8061721E-006  0.9138223E+02  0.7561462E-02  0.1299539E+00
          2   -1    0    0  501    0  0.00000000000E+00  0.00000000000E+00  0.83735727763E+03  0.83735727763E+03  0.00000000000E+00 0. -1.
         -2   -1    0    0    0  501 -0.00000000000E+00 -0.00000000000E+00 -0.21296215066E+02  0.21296215066E+02  0.00000000000E+00 0.  1.
         23    2    1    2    0    0  0.61322582357E+02  0.24366671410E+02  0.23093053333E+03  0.25667397895E+03  0.90545162557E+02 0.  0.
         23    2    1    2    0    0 -0.61322582357E+02 -0.24366671410E+02  0.58513052924E+03  0.60197951375E+03  0.12508958769E+03 0.  0.
          5    1    4    4  502    0  0.14720815348E+01  0.25958394663E+02  0.25772106799E+02  0.36846698174E+02  0.41800000000E+01 0.  1.
         -5    1    4    4    0  502 -0.62794663892E+02 -0.50325066073E+02  0.55935842244E+03  0.56513281558E+03  0.41800000000E+01 0.  1.
        -11    1    3    3    0    0  0.31329939195E+02 -0.73679173355E+01  0.13498336475E+02  0.34900664512E+02  0.00000000000E+00 0.  1.
         11    1    3    3    0    0  0.29992643162E+02  0.31734588745E+02  0.21743219685E+03  0.22177331443E+03  0.00000000000E+00 0. -1.
</event>
<event>
 8    1  0.8061721E-006  0.1486167E+03  0.7561462E-02  0.1202183E+00
         -2   -1    0    0    0  501 -0.00000000000E+00  0.00000000000E+00  0.26681645912E+02  0.26681645912E+02  0.00000000000E+00 0.  1.
          2   -1    0    0  501    0  0.00000000000E+00 -0.00000000000E+00 -0.20686491394E+04  0.20686491394E+04  0.00000000000E+00 0. -1.
         23    2    1    2    0    0 -0.89749943687E+02 -0.10519139884E+03 -0.28999613578E+03  0.33425519913E+03  0.92241512313E+02 0.  0.
         23    2    1    2    0    0  0.89749943687E+02  0.10519139884E+03 -0.17519713577E+04  0.17610755862E+04  0.11341648578E+03 0.  0.
          5    1    4    4  502    0  0.59230969832E+02  0.10830200468E+03 -0.16472345017E+04  0.16518585315E+04  0.41800000000E+01 0. -1.
         -5    1    4    4    0  502  0.30518973855E+02 -0.31106058365E+01 -0.10473685599E+03  0.10921705470E+03  0.41800000000E+01 0.  1.
        -11    1    3    3    0    0 -0.43828379601E+02 -0.77785970120E+02 -0.88234046066E+02  0.12552621595E+03  0.00000000000E+00 0.  1.
         11    1    3    3    0    0 -0.45921564086E+02 -0.27405428723E+02 -0.20176208971E+03  0.20872898318E+03  0.00000000000E+00 0. -1.
</event>
<event>
 8    1  0.8061721E-006  0.7888535E+02  0.7561462E-02  0.1332245E+00
          2   -1    0    0  501    0  0.00000000000E+00  0.00000000000E+00  0.89622657254E+03  0.89622657254E+03  0.00000000000E+00 0. -1.
         -2   -1    0    0    0  501 -0.00000000000E+00 -0.00000000000E+00 -0.28754349190E+02  0.28754349190E+02  0.00000000000E+00 0.  1.
         23    2    1    2    0    0 -0.36074866995E+02 -0.59904888975E+01  0.76909279951E+02  0.12448058270E+03  0.90791498177E+02 0.  0.
         23    2    1    2    0    0  0.36074866995E+02  0.59904888975E+01  0.79056294340E+03  0.80050033903E+03  0.12030687148E+03 0.  0.
          5    1    4    4  502    0 -0.37816594141E+01  0.17941702506E+02  0.70513532543E+03  0.70538606820E+03  0.41800000000E+01 0. -1.
         -5    1    4    4    0  502  0.39856526409E+02 -0.11951213609E+02  0.85427617967E+02  0.95114270830E+02  0.41800000000E+01 0.  1.
        -11    1    3    3    0    0 -0.14983716997E+02  0.42070945584E+02  0.42987993696E+02  0.61987449048E+02  0.00000000000E+00 0. -1.
         11    1    3    3    0    0 -0.21091149998E+02 -0.48061434482E+02  0.33921286255E+02  0.62493133654E+02  0.00000000000E+00 0.  1.
</event>
<event>
 8    1  0.8061721E-006  0.1048664E+03  0.7561462E-02  0.1270383E+00
          1   -1    0    0  501    0  0.00000000000E+00  0.00000000000E+00  0.25276000733E+03  0.25276000733E+03  0.00000000000E+00 0. -1.
         -1   -1    0    0    0  501 -0.00000000000E+00 -0.00000000000E+00 -0.59578500004E+02  0.59578500004E+02  0.00000000000E+00 0.  1.
         23    2    1    2    0    0 -0.42691321632E+02  0.33754996590E+02  0.62349898318E+02  0.12332391799E+03  0.91429372685E+02 0.  0.
         23    2    1    2    0    0  0.42691321632E+02 -0.33754996590E+02  0.13083160901E+03  0.18901458935E+03  0.12509059251E+03 0.  0.
          5    1    4    4  502    0  0.62421433189E+02  0.20328217187E+01  0.13391284358E+03  0.14781978813E+03  0.41800000000E+01 0. -1.
         -5    1    4    4    0  502 -0.19730111557E+02 -0.35787818309E+02 -0.30812345724E+01  0.41194801224E+02  0.41800000000E+01 0. -1.
        -11    1    3    3    0    0  0.81684636116E+01 -0.26196419422E+02  0.11894499775E+02  0.29907445782E+02  0.00000000000E+00 0. -1.
         11    1    3    3    0    0 -0.50859785244E+02  0.59951416012E+02  0.50455398543E+02  0.93416472204E+02  0.00000000000E+00 0.  1.
</event>
<event>
 8    1  0.8061721E-006  0.7665042E+02  0.7561462E-02  0.1338835E+00
         -2   -1    0    0    0  501 -0.00000000000E+00  0.00000000000E+00  0.62962285243E+02  0.62962285243E+02  0.00000000000E+00 0.  1.
          2   -1    0    0  501    0  0.00000000000E+00 -0.00000000000E+00 -0.25882767541E+03  0.25882767541E+03  0.00000000000E+00 0. -1.
         23    2    1    2    0    0  0.10574693681E+02  0.65915204642E+02 -0.82358951857E+02  0.14016497957E+03  0.91687437516E+02 0.  0.
         23    2    1    2    0    0 -0.10574693681E+02 -0.65915204642E+02 -0.11350643831E+03  0.18162498108E+03  0.12508910370E+03 0.  0.
          5    1    4    4  502    0  0.11105177943E+02 -0.29933836917E+02  0.22457699331E+02  0.39257868370E+02  0.41800000000E+01 0.  1.
         -5    1    4    4    0  502 -0.21679871623E+02 -0.35981367725E+02 -0.13596413764E+03  0.14236711271E+03  0.41800000000E+01 0.  1.
        -11    1    3    3    0    0  0.18173950522E+02  0.69893106410E+01 -0.78219957190E+02  0.80607100454E+02  0.00000000000E+00 0. -1.
         11    1    3    3    0    0 -0.75992568411E+01  0.58925894001E+02 -0.41389946672E+01  0.59557879119E+02  0.00000000000E+00 0.  1.
</event>
<event>
 8    1  0.8061721E-006  0.1422387E+03  0.7561462E-02  0.1210348E+00
         -2   -1    0    0    0  501 -0.00000000000E+00  0.00000000000E+00  0.43600825616E+02  0.43600825616E+02  0.00000000000E+00 0.  1.
          2   -1    0    0  501    0  0.00000000000E+00 -0.00000000000E+00 -0.51698158998E+03  0.51698158998E+03  0.00000000000E+00 0. -1.
         23    2    1    2    0    0  0.52157511920E+02  0.85921063238E+02 -0.16154743021E+03  0.20988326244E+03  0.88603478968E+02 0.  0.
         23    2    1    2    0    0 -0.52157511920E+02 -0.85921063238E+02 -0.31183333415E+03  0.35069915316E+03  0.12508809928E+03 0.  0.
          5    1    4    4  502    0 -0.36885609302E+01  0.27792721590E+02 -0.11329067951E+03  0.11678309517E+03  0.41800000000E+01 0.  1.
         -5    1    4    4    0  502 -0.48468950990E+02 -0.11371378483E+03 -0.19854265464E+03  0.23391605798E+03  0.41800000000E+01 0.  1.
        -11    1    3    3    0    0  0.76099010400E+02  0.71952901554E+02 -0.11367116924E+03  0.15456200744E+03  0.00000000000E+00 0.  1.
         11    1    3    3    0    0 -0.23941498480E+02  0.13968161685E+02 -0.47876260973E+02  0.55321255003E+02  0.00000000000E+00 0. -1.
</event>
<event>
 8    1  0.8061721E-006  0.1351241E+03  0.7561462E-02  0.1220045E+00
          1   -1    0    0  501    0  0.00000000000E+00  0.00000000000E+00  0.31163691089E+03  0.31163691089E+03  0.00000000000E+00 0. -1.
         -1   -1    0    0    0  501 -0.00000000000E+00 -0.00000000000E+00 -0.63498559647E+02  0.63498559647E+02  0.00000000000E+00 0.  1.
         23    2    1    2    0    0  0.64063886028E+02 -0.23557295816E+02  0.96929987413E+02  0.16735729463E+03  0.11812668592E+03 0.  0.
         23    2    1    2    0    0 -0.64063886028E+02  0.23557295816E+02  0.15120836383E+03  0.20777817590E+03  0.12509465780E+03 0.  0.
          5    1    4    4  502    0  0.21210600937E+02  0.43097861829E+02  0.25434420586E+02  0.54513277620E+02  0.41800000000E+01 0. -1.
         -5    1    4    4    0  502 -0.85274486965E+02 -0.19540566012E+02  0.12577394324E+03  0.15326489828E+03  0.41800000000E+01 0. -1.
        -11    1    3    3    0    0  0.82978383810E+02  0.21383030641E+02  0.47712978389E+02  0.98077390289E+02  0.00000000000E+00 0.  1.
         11    1    3    3    0    0 -0.18914497783E+02 -0.44940326457E+02  0.49217009024E+02  0.69279904342E+02  0.00000000000E+00 0. -1.
</event>
<event>
 8    1  0.8061721E-006  0.1572996E+03  0.7561462E-02  0.1191780E+00
         -2   -1    0    0    0  501 -0.00000000000E+00  0.00000000000E+00  0.91942855864E+03  0.91942855864E+03  0.00000000000E+00 0. -1.
          2   -1    0    0  501    0  0.00000000000E+00 -0.00000000000E+00 -0.54262865480E+02  0.54262865480E+02  0.00000000000E+00 0.  1.
         23    2    1    2    0    0  0.16672363542E+02 -0.12677264804E+03  0.73657884052E+03  0.75339293151E+03  0.93291205089E+02 0.  0.
         23    2    1    2    0    0 -0.16672363542E+02  0.12677264804E+03  0.12858685264E+03  0.22029849262E+03  0.12509026813E+03 0.  0.
          5    1    4    4  502    0  0.58721285343E+01 -0.20591494417E+02 -0.22133835022E+01  0.21928588701E+02  0.41800000000E+01 0.  1.
         -5    1    4    4    0  502 -0.22544492077E+02  0.14736414245E+03  0.13080023614E+03  0.19836990392E+03  0.41800000000E+01 0.  1.
        -11    1    3    3    0    0  0.21020090978E+02 -0.47562608042E+01  0.33792881043E+02  0.40080232668E+02  0.00000000000E+00 0.  1.
         11    1    3    3    0    0 -0.43477274353E+01 -0.12201638723E+03  0.70278595948E+03  0.71331269884E+03  0.00000000000E+00 0. -1.
</event>
<event>
 7    1  0.8061721E-006  0.6255693E+02  0.7561462E-02  0.1387404E+00
          1   -1    0    0  501    0  0.00000000000E+00  0.00000000000E+00  0.10015378890E+03  0.10015378890E+03  0.00000000000E+00 0. -1.
         -1   -1    0    0    0  501 -0.00000000000E+00 -0.00000000000E+00 -0.82983573924E+02  0.82983573924E+02  0.00000000000E+00 0.  1.
         23    2    1    2    0    0  0.81593964760E+01 -0.11773330177E+02  0.22836339264E+02  0.12796756713E+03  0.12509601430E+03 0.  0.
          5    1    3    3  502    0  0.30705024161E+02 -0.31248510522E+02 -0.39254977691E+02  0.58971972937E+02  0.41800000000E+01 0. -1.
         -5    1    3    3    0  502 -0.22545627685E+02  0.19475180345E+02  0.62091316956E+02  0.68995594196E+02  0.41800000000E+01 0. -1.
        -11    1    1    2    0    0 -0.86820404119E+01 -0.18661318265E+02 -0.12353356293E+02  0.24004750296E+02  0.00000000000E+00 0.  1.
         11    1    1    2    0    0  0.52264393587E+00  0.30434648442E+02  0.66872320025E+01  0.31165045392E+02  0.00000000000E+00 0. -1.
</event>
<event>
 8    1  0.8061721E-006  0.1022306E+03  0.7561462E-02  0.1275674E+00
          2   -1    0    0  501    0  0.00000000000E+00  0.00000000000E+00  0.43936875491E+02  0.43936875491E+02  0.00000000000E+00 0. -1.
         -2   -1    0    0    0  501 -0.00000000000E+00 -0.00000000000E+00 -0.47117801065E+03  0.47117801065E+03  0.00000000000E+00 0.  1.
         23    2    1    2    0    0 -0.10962087095E+02  0.93517163235E+02 -0.17996505607E+03  0.22244353300E+03  0.90708747062E+02 0.  0.
         23    2    1    2    0    0  0.10962087095E+02 -0.93517163235E+02 -0.24727607909E+03  0.29267135314E+03  0.12508171124E+03 0.  0.
          5    1    4    4  502    0 -0.97891297348E+01 -0.45592789156E+02 -0.23398160319E+03  0.23861976556E+03  0.41800000000E+01 0. -1.
         -5    1    4    4    0  502  0.20751216829E+02 -0.47924374079E+02 -0.13294475897E+02  0.54051587582E+02  0.41800000000E+01 0. -1.
        -11    1    3    3    0    0  0.18617651230E+02  0.39418174088E+02 -0.14532269027E+03  0.15172044586E+03  0.00000000000E+00 0.  1.
         11    1    3    3    0    0 -0.29579738325E+02  0.54098989147E+02 -0.34642365808E+02  0.70723087142E+02  0.00000000000E+00 0. -1.
</event>
<event>
 8    1  0.8061721E-006  0.1345677E+03  0.7561462E-02  0.1220831E+00
          3   -1    0    0  501    0  0.00000000000E+00  0.00000000000E+00  0.14281596216E+04  0.14281596216E+04  0.00000000000E+00 0. -1.
         -3   -1    0    0    0  501 -0.00000000000E+00 -0.00000000000E+00 -0.15707900631E+02  0.15707900631E+02  0.00000000000E+00 0.  1.
         23    2    1    2    0    0 -0.80543875315E+02 -0.22754584596E+02  0.36270939404E+03  0.38339012370E+03  0.91786684524E+02 0.  0.
         23    2    1    2    0    0  0.80543875315E+02  0.22754584596E+02  0.10497423270E+04  0.10604773986E+04  0.12509305687E+03 0.  0.
          5    1    4    4  502    0  0.37981477180E+02 -0.48937558358E+02  0.58612662858E+03  0.58940595039E+03  0.41800000000E+01 0.  1.
         -5    1    4    4    0  502  0.42562398135E+02  0.71692142954E+02  0.46361569840E+03  0.47107144819E+03  0.41800000000E+01 0.  1.
        -11    1    3    3    0    0 -0.87765014576E+02  0.11540769500E+02  0.24135020962E+03  0.25707160642E+03  0.00000000000E+00 0.  1.
         11    1    3    3    0    0  0.72211392609E+01 -0.34295354096E+02  0.12135918441E+03  0.12631851728E+03  0.00000000000E+00 0. -1.
</event>
<event>
 8    1  0.8061721E-006  0.1470591E+03  0.7561462E-02  0.1204134E+00
          1   -1    0    0  501    0  0.00000000000E+00  0.00000000000E+00  0.46542617739E+03  0.46542617739E+03  0.00000000000E+00 0. -1.
         -1   -1    0    0    0  501 -0.00000000000E+00 -0.00000000000E+00 -0.58609781143E+02  0.58609781143E+02  0.00000000000E+00 0.  1.
         23    2    1    2    0    0  0.49469543320E+02 -0.96526021805E+02  0.92565916099E+02  0.16883718509E+03  0.90404854104E+02 0.  0.
         23    2    1    2    0    0 -0.49469543320E+02  0.96526021805E+02  0.31425048015E+03  0.35519877344E+03  0.12509314840E+03 0.  0.
          5    1    4    4  502    0 -0.54439170821E+01  0.10996182766E+03  0.26822596535E+03  0.28997220671E+03  0.41800000000E+01 0.  1.
         -5    1    4    4    0  502 -0.44025626238E+02 -0.13435805856E+02  0.46024514793E+02  0.65226566724E+02  0.41800000000E+01 0.  1.
        -11    1    3    3    0    0  0.70100275807E+02 -0.47904152433E+02  0.38408356575E+02  0.93188295098E+02  0.00000000000E+00 0. -1.
         11    1    3    3    0    0 -0.20630732486E+02 -0.48621869372E+02  0.54157559524E+02  0.75648889997E+02  0.00000000000E+00 0.  1.
</event>
<event>
 8    1  0.8061721E-006  0.9016681E+02  0.7561462E-02  0.1302448E+00
         -2   -1    0    0    0  501 -0.00000000000E+00  0.00000000000E+00  0.47898630726E+02  0.47898630726E+02  0.00000000000E+00 0.  1.
          2   -1    0    0  501    0  0.00000000000E+00 -0.00000000000E+00 -0.37998675053E+03  0.37998675053E+03  0.00000000000E+00 0. -1.
         23    2    1    2    0    0 -0.65894772781E+02 -0.34260817779E+02 -0.10965823257E+03  0.16210613941E+03  0.93474850892E+02 0.  0.
         23    2    1    2    0    0  0.65894772781E+02  0.34260817779E+02 -0.22242988723E+03  0.26577924184E+03  0.12509047105E+03 0.  0.
          5    1    4    4  502    0  0.49573076713E+02  0.64830675029E+01 -0.10350914172E+02  0.51226301089E+02  0.41800000000E+01 0.  1.
         -5    1    4    4    0  502  0.16321696068E+02  0.27777750276E+02 -0.21207897306E+03  0.21455294075E+03  0.41800000000E+01 0.  1.
        -11    1    3    3    0    0 -0.78558753648E+02 -0.31927218611E+02 -0.11905323647E+03  0.14616599528E+03  0.00000000000E+00 0. -1.
         11    1    3    3    0    0  0.12663980867E+02 -0.23335991677E+01  0.93950039011E+01  0.15940144126E+02  0.00000000000E+00 0.  1.
</event>
<event>
 8    1  0.8061721E-006  0.1135254E+03  0.7561462E-02  0.1254177E+00
         -1   -1    0    0    0  501 -0.00000000000E+00  0.00000000000E+00  0.18519059352E+02  0.18519059352E+02  0.00000000000E+00 0.  1.
          1   -1    0    0  501    0  0.00000000000E+00 -0.00000000000E+00 -0.10231376401E+04  0.10231376401E+04  0.00000000000E+00 0. -1.
         23    2    1    2    0    0 -0.61828929068E+02  0.85220170300E+01 -0.24242862127E+03  0.26675261961E+03  0.92140557922E+02 0.  0.
         23    2    1    2    0    0  0.61828929068E+02 -0.85220170300E+01 -0.76218995948E+03  0.77490407985E+03  0.12508939756E+03 0.  0.
          5    1    4    4  502    0 -0.24455897972E+02  0.11737912612E+02 -0.48567864193E+02  0.55786910386E+02  0.41800000000E+01 0. -1.
         -5    1    4    4    0  502  0.86284827041E+02 -0.20259929642E+02 -0.71362209529E+03  0.71911716946E+03  0.41800000000E+01 0. -1.
        -11    1    3    3    0    0 -0.13551818822E+02  0.47141190413E+02 -0.11879485516E+03  0.12852299888E+03  0.00000000000E+00 0.  1.
         11    1    3    3    0    0 -0.48277110246E+02 -0.38619173383E+02 -0.12363376610E+03  0.13822962073E+03  0.00000000000E+00 0. -1.
</event>
<event>
 8    1  0.8061721E-006  0.1064201E+03  0.7561462E-02  0.1267347E+00
          2   -1    0    0  501    0  0.00000000000E+00  0.00000000000E+00  0.46028133344E+03  0.46028133344E+03  0.00000000000E+00 0. -1.
         -2   -1    0    0    0  501 -0.00000000000E+00 -0.00000000000E+00 -0.28238443313E+02  0.28238443313E+02  0.00000000000E+00 0.  1.
         23    2    1    2    0    0 -0.15247294812E+02 -0.20084552633E+02  0.14615417171E+03  0.17544538741E+03  0.93723917990E+02 0.  0.
         23    2    1    2    0    0  0.15247294812E+02  0.20084552633E+02  0.28588871842E+03  0.31307438934E+03  0.12508934682E+03 0.  0.
          5    1    4    4  502    0  0.55918280459E+02  0.42585560009E+02  0.22851681434E+03  0.23911877979E+03  0.41800000000E+01 0.  1.
         -5    1    4    4    0  502 -0.40670985647E+02 -0.22501007376E+02  0.57371904075E+02  0.73955609548E+02  0.41800000000E+01 0.  1.
        -11    1    3    3    0    0  0.37644472567E+02  0.35831071579E+01  0.72102755641E+02  0.81417150176E+02  0.00000000000E+00 0. -1.
         11    1    3    3    0    0 -0.52891767379E+02 -0.23667659791E+02  0.74051416068E+02  0.94028237238E+02  0.00000000000E+00 0.  1.
</event>
<event>
 8    1  0.8061721E-006  0.1142064E+03  0.7561462E-02  0.1252973E+00
         -1   -1    0    0    0  501 -0.00000000000E+00  0.00000000000E+00  0.13264117009E+03  0.13264117009E+03  0.00000000000E+00 0.  1.
          1   -1    0    0  501    0  0.00000000000E+00 -0.00000000000E+00 -0.23071233584E+03  0.23071233584E+03  0.00000000000E+00 0. -1.
         23    2    1    2    0    0 -0.60167487035E+02 -0.89921007245E+02  0.47817969500E+02  0.14689251411E+03  0.87091552144E+02 0.  0.
         23    2    1    2    0    0  0.60167487035E+02  0.89921007245E+02 -0.14588913525E+03  0.21646099182E+03  0.11775316198E+03 0.  0.
          5    1    4    4  502    0  0.28856724006E+02  0.40452671758E+02 -0.14955857269E+03  0.15765268230E+03  0.41800000000E+01 0. -1.
         -5    1    4    4    0  502  0.31310763029E+02  0.49468335487E+02  0.36694374397E+01  0.58808309519E+02  0.41800000000E+01 0.  1.
        -11    1    3    3    0    0 -0.32872583081E+02 -0.86263193323E+02  0.66362062955E+02  0.11369199022E+03  0.00000000000E+00 0.  1.
         11    1    3    3    0    0 -0.27294903955E+02 -0.36578139214E+01 -0.18544093454E+02  0.33200523891E+02  0.00000000000E+00 0. -1.
</event>
<event>
 8    1  0.8061721E-006  0.1350837E+03  0.7561462E-02  0.1220102E+00
         -2   -1    0    0    0  501 -0.00000000000E+00  0.00000000000E+00  0.37721920768E+02  0.37721920768E+02  0.00000000000E+00 0.  1.
          2   -1    0    0  501    0  0.00000000000E+00 -0.00000000000E+00 -0.15763656370E+04  0.15763656370E+04  0.00000000000E+00 0. -1.
         23    2    1    2    0    0  0.19824938708E+02  0.98086246763E+02 -0.10626208677E+03  0.17277621279E+03  0.92444840968E+02 0.  0.
         23    2    1    2    0    0 -0.19824938708E+02 -0.98086246763E+02 -0.14323816295E+04  0.14413113450E+04  0.12508925113E+03 0.  0.
          5    1    4    4  502    0  0.49084495982E+02 -0.13810505673E+02 -0.48025494501E+03  0.48297236196E+03  0.41800000000E+01 0.  1.
         -5    1    4    4    0  502 -0.68909434690E+02 -0.84275741091E+02 -0.95212668447E+03  0.95833898304E+03  0.41800000000E+01 0.  1.
        -11    1    3    3    0    0  0.34829454790E+02  0.65323772579E+02 -0.11399271321E+03  0.13592139217E+03  0.00000000000E+00 0. -1.
         11    1    3    3    0    0 -0.15004516082E+02  0.32762474185E+02  0.77306264402E+01  0.36854820617E+02  0.00000000000E+00 0.  1.
</event>
<event>
 8    1  0.8061721E-006  0.1082074E+03  0.7561462E-02  0.1263926E+00
         -2   -1    0    0    0  501 -0.00000000000E+00  0.00000000000E+00  0.43314121707E+02  0.43314121707E+02  0.00000000000E+00 0.  1.
          2   -1    0    0  501    0  0.00000000000E+00 -0.00000000000E+00 -0.52526617338E+03  0.52526617338E+03  0.00000000000E+00 0. -1.
         23    2    1    2    0    0 -0.63110879456E+01  0.60664981022E+02 -0.73906543916E+02  0.13745565542E+03  0.98548517081E+02 0.  0.
         23    2    1    2    0    0  0.63110879456E+01 -0.60664981022E+02 -0.40804550775E+03  0.43112463967E+03  0.12508896345E+03 0.  0.
          5    1    4    4  502    0  0.43271657071E+02  0.14052915705E+02 -0.22990283987E+03  0.23439861118E+03  0.41800000000E+01 0. -1.
         -5    1    4    4    0  502 -0.36960569125E+02 -0.74717896727E+02 -0.17814266789E+03  0.19672602848E+03  0.41800000000E+01 0. -1.
        -11    1    3    3    0    0  0.16740714373E+02  0.61952680302E+02 -0.45254969028E+01  0.64334020833E+02  0.00000000000E+00 0.  1.
         11    1    3    3    0    0 -0.23051802318E+02 -0.12876992799E+01 -0.69381047013E+02  0.73121634584E+02  0.00000000000E+00 0. -1.
</event>
<event>
 8    1  0.8061721E-006  0.9629950E+02  0.7561462E-02  0.1288276E+00
          1   -1    0    0  501    0  0.00000000000E+00  0.00000000000E+00  0.94267475598E+03  0.94267475598E+03  0.00000000000E+00 0. -1.
         -1   -1    0    0    0  501 -0.00000000000E+00 -0.00000000000E+00 -0.19630269533E+02  0.19630269533E+02  0.00000000000E+00 0.  1.
         23    2    1    2    0    0 -0.36218825046E+01  0.83419756128E+02  0.39951769093E+03  0.41760351140E+03  0.88353458471E+02 0.  0.
         23    2    1    2    0    0  0.36218825046E+01 -0.83419756128E+02  0.52352679552E+03  0.54470151411E+03  0.12508980816E+03 0.  0.
          5    1    4    4  502    0 -0.73526746874E+01 -0.60264112763E+02  0.80494913892E+02  0.10090950736E+03  0.41800000000E+01 0. -1.
         -5    1    4    4    0  502  0.10974557192E+02 -0.23155643365E+02  0.44303188163E+03  0.44379200676E+03  0.41800000000E+01 0. -1.
        -11    1    3    3    0    0  0.27171369313E+02  0.15681312377E+02  0.41991729696E+02  0.52416526316E+02  0.00000000000E+00 0.  1.
         11    1    3    3    0    0 -0.30793251818E+02  0.67738443750E+02  0.35752596124E+03  0.36518698509E+03  0.00000000000E+00 0. -1.
</event>
<event>
 8    1  0.8061721E-006  0.1027975E+03  0.7561462E-02  0.1274521E+00
         -1   -1    0    0    0  501 -0.00000000000E+00  0.00000000000E+00  0.93664451432E+01  0.93664451432E+01  0.00000000000E+00 0.  1.
          1   -1    0    0  501    0  0.00000000000E+00 -0.00000000000E+00 -0.15026387545E+04  0.15026387545E+04  0.00000000000E+00 0. -1.
         23    2    1    2    0    0  0.13645613860E+02 -0.18180952742E+02 -0.36175994204E+03  0.37337240405E+03  0.89554154713E+02 0.  0.
         23    2    1    2    0    0 -0.13645613860E+02  0.18180952742E+02 -0.11315123674E+04  0.11386327956E+04  0.12509059107E+03 0.  0.
          5    1    4    4  502    0  0.33490187301E+02  0.50327303104E+02 -0.36567127485E+03  0.37065804151E+03  0.41800000000E+01 0.  1.
         -5    1    4    4    0  502 -0.47135801161E+02 -0.32146350362E+02 -0.76584109251E+03  0.76797475412E+03  0.41800000000E+01 0.  1.
        -11    1    3    3    0    0  0.29095257574E+02 -0.46893601533E+02 -0.16646277215E+03  0.17537217109E+03  0.00000000000E+00 0.  1.
         11    1    3    3    0    0 -0.15449643713E+02  0.28712648791E+02 -0.19529716988E+03  0.19800023297E+03  0.00000000000E+00 0. -1.
</event>
<event>
 8    1  0.8061721E-006  0.1738409E+03  0.7561462E-02  0.1173901E+00
          1   -1    0    0  501    0  0.00000000000E+00  0.00000000000E+00  0.90420217830E+02  0.90420217830E+02  0.00000000000E+00 0. -1.
         -1   -1    0    0    0  501 -0.00000000000E+00 -0.00000000000E+00 -0.63470254399E+03  0.63470254399E+03  0.00000000000E+00 0.  1.
         23    2    1    2    0    0  0.15328778958E+03  0.70940476641E+01 -0.48601434255E+03  0.51874373114E+03  0.96631493265E+02 0.  0.
         23    2    1    2    0    0 -0.15328778958E+03 -0.70940476641E+01 -0.58267983618E+02  0.20637903068E+03  0.12509865885E+03 0.  0.
          5    1    4    4  502    0 -0.85274966186E+02  0.31959764619E+02 -0.83766302792E+02  0.12380433068E+03  0.41800000000E+01 0. -1.
         -5    1    4    4    0  502 -0.68012823391E+02 -0.39053812283E+02  0.25498319174E+02  0.82574700000E+02  0.41800000000E+01 0. -1.
        -11    1    3    3    0    0  0.43128860126E+02  0.44184008256E+02 -0.12391747869E+03  0.13844806494E+03  0.00000000000E+00 0. -1.
         11    1    3    3    0    0  0.11015892945E+03 -0.37089960592E+02 -0.36209686385E+03  0.38029566619E+03  0.00000000000E+00 0.  1.
</event>
<event>
 8    1  0.8061721E-006  0.9806074E+02  0.7561462E-02  0.1284428E+00
         -1   -1    0    0    0  501 -0.00000000000E+00  0.00000000000E+00  0.14051365562E+03  0.14051365562E+03  0.00000000000E+00 0.  1.
          1   -1    0    0  501    0  0.00000000000E+00 -0.00000000000E+00 -0.10455868672E+03  0.10455868672E+03  0.00000000000E+00 0. -1.
         23    2    1    2    0    0 -0.11844308801E+02 -0.33876771757E+02  0.63123669828E+02  0.11213190700E+03  0.85446144199E+02 0.  0.
         23    2    1    2    0    0  0.11844308801E+02  0.33876771757E+02 -0.27168700925E+02  0.13294043535E+03  0.12508835967E+03 0.  0.
          5    1    4    4  502    0  0.43191327188E+02  0.63997139125E+02 -0.40489260953E+02  0.87281024359E+02  0.41800000000E+01 0.  1.
         -5    1    4    4    0  502 -0.31347018387E+02 -0.30120367368E+02  0.13320560028E+02  0.45659410986E+02  0.41800000000E+01 0.  1.
        -11    1    3    3    0    0 -0.27850803695E+02  0.90730381326E+01 -0.53076830668E+01  0.29768419289E+02  0.00000000000E+00 0. -1.
         11    1    3    3    0    0  0.16006494894E+02 -0.42949809890E+02  0.68431352894E+02  0.82363487707E+02  0.00000000000E+00 0.  1.
</event>
<event>
 8    1  0.8061721E-006  0.1303408E+03  0.7561462E-02  0.1226951E+00
          2   -1    0    0  501    0  0.00000000000E+00  0.00000000000E+00  0.97588468042E+02  0.97588468042E+02  0.00000000000E+00 0. -1.
         -2   -1    0    0    0  501 -0.00000000000E+00 -0.00000000000E+00 -0.24361951934E+03  0.24361951934E+03  0.00000000000E+00 0.  1.
         23    2    1    2    0    0 -0.70729876598E+02 -0.80436432858E+02 -0.76520782938E+02  0.16245751040E+03  0.95206498149E+02 0.  0.
         23    2    1    2    0    0  0.70729876598E+02  0.80436432858E+02 -0.69510268361E+02  0.17875047698E+03  0.12508924990E+03 0.  0.
          5    1    4    4  502    0 -0.11044895086E+02  0.15260037410E+02 -0.71519485755E+02  0.74076768908E+02  0.41800000000E+01 0. -1.
         -5    1    4    4    0  502  0.81774771683E+02  0.65176395448E+02  0.20092173944E+01  0.10467370807E+03  0.41800000000E+01 0. -1.
        -11    1    3    3    0    0  0.94113394727E+01 -0.50201970555E+02 -0.53057612182E+02  0.73647276723E+02  0.00000000000E+00 0. -1.
         11    1    3    3    0    0 -0.80141216070E+02 -0.30234462303E+02 -0.23463170756E+02  0.88810233678E+02  0.00000000000E+00 0.  1.
</event>
<event>
 8    1  0.8061721E-006  0.7305686E+02  0.7561462E-02  0.1349996E+00
          4   -1    0    0  501    0  0.00000000000E+00  0.00000000000E+00  0.19148814664E+03  0.19148814664E+03  0.00000000000E+00 0. -1.
         -4   -1    0    0    0  501 -0.00000000000E+00 -0.00000000000E+00 -0.62144173562E+02  0.62144173562E+02  0.00000000000E+00 0.  1.
         23    2    1    2    0    0 -0.76662804378E+01  0.63974012704E+01  0.41187556056E+02  0.10027370549E+03  0.90877404455E+02 0.  0.
         23    2    1    2    0    0  0.76662804378E+01 -0.63974012704E+01  0.88156417019E+02  0.15335861471E+03  0.12509041628E+03 0.  0.
          5    1    4    4  502    0 -0.11088741033E+02  0.41029878868E+02  0.92620445488E+02  0.10199230589E+03  0.41800000000E+01 0. -1.
         -5    1    4    4    0  502  0.18755021471E+02 -0.47427280139E+02 -0.44640284686E+01  0.51366308821E+02  0.41800000000E+01 0. -1.
        -11    1    3    3    0    0  0.13566671612E+02 -0.16264568883E+02 -0.21584192153E+02  0.30240174114E+02  0.00000000000E+00 0.  1.
         11    1    3    3    0    0 -0.21232952050E+02  0.22661970153E+02  0.62771748209E+02  0.70033531377E+02  0.00000000000E+00 0. -1.
</event>
<event>
 8    1  0.8061721E-006  0.1513248E+03  0.7561462E-02  0.1198854E+00
          2   -1    0    0  501    0  0.00000000000E+00  0.00000000000E+00  0.60603599310E+03  0.60603599310E+03  0.00000000000E+00 0. -1.
         -2   -1    0    0    0  501 -0.00000000000E+00 -0.00000000000E+00 -0.50197053616E+02  0.50197053616E+02  0.00000000000E+00 0.  1.
         23    2    1    2    0    0  0.11171451337E+03 -0.30548945278E+02  0.14171585475E+03  0.20839197993E+03  0.99651709744E+02 0.  0.
         23    2    1    2    0    0 -0.11171451337E+03  0.30548945278E+02  0.41412308473E+03  0.44784106679E+03  0.12510124396E+03 0.  0.
          5    1    4    4  502    0  0.21579708878E+01 -0.29749712603E+02  0.29389856651E+02  0.42082517894E+02  0.41800000000E+01 0.  1.
         -5    1    4    4    0  502 -0.11387248425E+03  0.60298657881E+02  0.38473322808E+03  0.40575854889E+03  0.41800000000E+01 0.  1.
        -11    1    3    3    0    0  0.86989426947E+01 -0.39274145151E+02  0.75711587363E+02  0.85734325345E+02  0.00000000000E+00 0. -1.
         11    1    3    3    0    0  0.10301557067E+03  0.87251998729E+01  0.66004267389E+02  0.12265765458E+03  0.00000000000E+00 0.  1.
</event>
<event>
 8    1  0.8061721E-006  0.1141631E+03  0.7561462E-02  0.1253049E+00
         -2   -1    0    0    0  501 -0.00000000000E+00  0.00000000000E+00  0.33621514156E+02  0.33621514156E+02  0.00000000000E+00 0.  1.
          2   -1    0    0  501    0  0.00000000000E+00 -0.00000000000E+00 -0.44778576853E+03  0.44778576853E+03  0.00000000000E+00 0. -1.
         23    2    1    2    0    0  0.25417479266E+02 -0.47933267611E+02 -0.14970448332E+03  0.18386666116E+03  0.91934054425E+02 0.  0.
         23    2    1    2    0    0 -0.25417479266E+02  0.47933267611E+02 -0.26445977105E+03  0.29754062153E+03  0.12509118497E+03 0.  0.
          5    1    4    4  502    0  0.37421616699E+02  0.45975572420E+02 -0.19456278071E+03  0.20343617843E+03  0.41800000000E+01 0.  1.
         -5    1    4    4    0  502 -0.62839095965E+02  0.19576951905E+01 -0.69896990343E+02  0.94104443100E+02  0.41800000000E+01 0.  1.
        -11    1    3    3    0    0  0.59035072053E+02 -0.40118151400E+02 -0.11141674670E+03  0.13231892249E+03  0.00000000000E+00 0. -1.
         11    1    3    3    0    0 -0.33617592787E+02 -0.78151162105E+01 -0.38287736626E+02  0.51547738672E+02  0.00000000000E+00 0.  1.
</event>
<event>
 8    1  0.8061721E-006  0.8265356E+02  0.7561462E-02  0.1321685E+00
         -2   -1    0    0    0  501 -0.00000000000E+00  0.00000000000E+00  0.23701757747E+02  0.23701757747E+02  0.00000000000E+00 0.  1.
          2   -1    0    0  501    0  0.00000000000E+00 -0.00000000000E+00 -0.68701635690E+03  0.68701635690E+03  0.00000000000E+00 0. -1.
         23    2    1    2    0    0 -0.69008182147E+01  0.70852290056E+00 -0.10755062722E+03  0.14100854440E+03  0.90929362054E+02 0.  0.
         23    2    1    2    0    0  0.69008182147E+01 -0.70852290056E+00 -0.55576397193E+03  0.56970957024E+03  0.12508908276E+03 0.  0.
          5    1    4    4  502    0  0.35181926703E+02 -0.49508060503E+02 -0.18771103422E+03  0.19733656729E+03  0.41800000000E+01 0.  1.
         -5    1    4    4    0  502 -0.28281108488E+02  0.48799537603E+02 -0.36805293771E+03  0.37237300295E+03  0.41800000000E+01 0.  1.
        -11    1    3    3    0    0  0.20482272298E+02  0.22205194116E+00 -0.11147509425E+03  0.11334138442E+03  0.00000000000E+00 0. -1.
         11    1    3    3    0    0 -0.27383090513E+02  0.48647095940E+00  0.39244670293E+01  0.27667159982E+02  0.00000000000E+00 0.  1.
</event>
<event>
 8    1  0.8061721E-006  0.1941308E+03  0.7561462E-02  0.1154787E+00
          2   -1    0    0  501    0  0.00000000000E+00  0.00000000000E+00  0.15641152559E+03  0.15641152559E+03  0.00000000000E+00 0.  1.
         -2   -1    0    0    0  501 -0.00000000000E+00 -0.00000000000E+00 -0.31547652897E+03  0.31547652897E+03  0.00000000000E+00 0. -1.
         23    2    1    2    0    0 -0.13522214879E+03 -0.10890306724E+03 -0.16656791481E+03  0.25776314699E+03  0.92477360077E+02 0.  0.
         23    2    1    2    0    0  0.13522214879E+03  0.10890306724E+03  0.75029114253E+01  0.21412490757E+03  0.12509306448E+03 0.  0.
          5    1    4    4  502    0 -0.13453876842E+02  0.18206523525E+01  0.26300141039E+02  0.29891326430E+02  0.41800000000E+01 0.  1.
         -5    1    4    4    0  502  0.14867602563E+03  0.10708241489E+03 -0.18797229613E+02  0.18423358114E+03  0.41800000000E+01 0.  1.
        -11    1    3    3    0    0 -0.77687295232E+01 -0.49608422031E+02 -0.18282155382E+02  0.53437682399E+02  0.00000000000E+00 0.  1.
         11    1    3    3    0    0 -0.12745341927E+03 -0.59294645213E+02 -0.14828575942E+03  0.20432546460E+03  0.00000000000E+00 0. -1.
</event>
<event>
 8    1  0.8061721E-006  0.1067673E+03  0.7561462E-02  0.1266676E+00
          2   -1    0    0  501    0  0.00000000000E+00  0.00000000000E+00  0.32429850608E+03  0.32429850608E+03  0.00000000000E+00 0. -1.
         -2   -1    0    0    0  501 -0.00000000000E+00 -0.00000000000E+00 -0.46589210743E+02  0.46589210743E+02  0.00000000000E+00 0.  1.
         23    2    1    2    0    0 -0.35020216604E+02 -0.29293396783E+02  0.96018782295E+02  0.14562541342E+03  0.99511988287E+02 0.  0.
         23    2    1    2    0    0  0.35020216604E+02  0.29293396783E+02  0.18169051305E+03  0.22526230341E+03  0.12508854521E+03 0.  0.
          5    1    4    4  502    0 -0.28290589370E+02 -0.23627811436E+02  0.10926494010E+03  0.11539033952E+03  0.41800000000E+01 0. -1.
         -5    1    4    4    0  502  0.63310805974E+02  0.52921208219E+02  0.72425572949E+02  0.10987196389E+03  0.41800000000E+01 0. -1.
        -11    1    3    3    0    0 -0.21580026219E+02 -0.58127553781E+02  0.95433753719E+02  0.11380734330E+03  0.00000000000E+00 0. -1.
         11    1    3    3    0    0 -0.13440190385E+02  0.28834156998E+02  0.58502857601E+00  0.31818070115E+02  0.00000000000E+00 0.  1.
</event>
<event>
 8    1  0.8061721E-006  0.1046630E+03  0.7561462E-02  0.1270785E+00
          1   -1    0    0  501    0  0.00000000000E+00  0.00000000000E+00  0.68242139557E+03  0.68242139557E+03  0.00000000000E+00 0. -1.
         -1   -1    0    0    0  501 -0.00000000000E+00 -0.00000000000E+00 -0.20481116856E+02  0.20481116856E+02  0.00000000000E+00 0.  1.
         23    2    1    2    0    0 -0.28509263193E+02 -0.30274023632E+02  0.21847304316E+03  0.24025859529E+03  0.90908896301E+02 0.  0.
         23    2    1    2    0    0  0.28509263193E+02  0.30274023632E+02  0.44346723555E+03  0.46264391714E+03  0.12508761115E+03 0.  0.
          5    1    4    4  502    0 -0.37917988864E+02  0.17607074956E+02  0.31129764374E+03  0.31412016549E+03  0.41800000000E+01 0. -1.
         -5    1    4    4    0  502  0.66427252057E+02  0.12666948676E+02  0.13216959181E+03  0.14852375165E+03  0.41800000000E+01 0. -1.
        -11    1    3    3    0    0 -0.40541553349E+02  0.21855684543E+02  0.11198688561E+03  0.12108819531E+03  0.00000000000E+00 0. -1.
         11    1    3    3    0    0  0.12032290155E+02 -0.52129708175E+02  0.10648615755E+03  0.11917039997E+03  0.00000000000E+00 0.  1.
</event>
<event>
 8    1  0.8061721E-006  0.8998207E+02  0.7561462E-02  0.1302895E+00
          1   -1    0    0  501    0  0.00000000000E+00  0.00000000000E+00  0.57296043675E+03  0.57296043675E+03  0.00000000000E+00 0. -1.
         -1   -1    0    0    0  501 -0.00000000000E+00 -0.00000000000E+00 -0.28445746810E+02  0.28445746810E+02  0.00000000000E+00 0.  1.
         23    2    1    2    0    0  0.24863331014E+02  0.26114793601E+01  0.94742648211E+02  0.13389103658E+03  0.91244918938E+02 0.  0.
         23    2    1    2    0    0 -0.24863331014E+02 -0.26114793601E+01  0.44977204173E+03  0.46751514698E+03  0.12510203069E+03 0.  0.
          5    1    4    4  502    0 -0.97416984769E+01 -0.63580273105E+02  0.21573274653E+03  0.22515648368E+03  0.41800000000E+01 0.  1.
         -5    1    4    4    0  502 -0.15121632537E+02  0.60968793744E+02  0.23403929520E+03  0.24235866330E+03  0.41800000000E+01 0.  1.
        -11    1    3    3    0    0  0.26520990010E+02  0.21160496271E+02  0.10656279270E+03  0.11183361883E+03  0.00000000000E+00 0. -1.
         11    1    3    3    0    0 -0.16576589960E+01 -0.18549016911E+02 -0.11820144489E+02  0.22057417742E+02  0.00000000000E+00 0.  1.
</event>
<event>
 8    1  0.8061721E-006  0.8491987E+02  0.7561462E-02  0.1315642E+00
          1   -1    0    0  501    0  0.00000000000E+00  0.00000000000E+00  0.38449911702E+03  0.38449911702E+03  0.00000000000E+00 0. -1.
         -1   -1    0    0    0  501 -0.00000000000E+00 -0.00000000000E+00 -0.42492948148E+02  0.42492948148E+02  0.00000000000E+00 0.  1.
         23    2    1    2    0    0  0.44723626566E+02  0.23438611472E+02  0.81067895264E+02  0.13324705975E+03  0.92915036499E+02 0.  0.
         23    2    1    2    0    0 -0.44723626566E+02 -0.23438611472E+02  0.26093827361E+03  0.29374500542E+03  0.12509106401E+03 0.  0.
          5    1    4    4  502    0  0.24891792014E+02  0.24098932205E+02  0.15190249574E+03  0.15585955362E+03  0.41800000000E+01 0. -1.
         -5    1    4    4    0  502 -0.69615418581E+02 -0.47537543677E+02  0.10903577787E+03  0.13788545180E+03  0.41800000000E+01 0. -1.
        -11    1    3    3    0    0  0.31811133938E+02  0.17781582130E+02  0.10182794057E+03  0.10815295829E+03  0.00000000000E+00 0. -1.
         11    1    3    3    0    0  0.12912492628E+02  0.56570293419E+01 -0.20760045307E+02  0.25094101458E+02  0.00000000000E+00 0.  1.
</event>
<event>
 8    1  0.8061721E-006  0.9980448E+02  0.7561462E-02  0.1280708E+00
          2   -1    0    0  501    0  0.00000000000E+00  0.00000000000E+00  0.96605302097E+02  0.96605302097E+02  0.00000000000E+00 0. -1.
         -2   -1    0    0    0  501 -0.00000000000E+00 -0.00000000000E+00 -0.12265708081E+03  0.12265708081E+03  0.00000000000E+00 0.  1.
         23    2    1    2    0    0 -0.85728310615E+01  0.18981834522E+02 -0.25934695755E+02  0.92441761119E+02  0.86250027714E+02 0.  0.
         23    2    1    2    0    0  0.85728310615E+01 -0.18981834522E+02 -0.11708295292E+00  0.12682062178E+03  0.12509857284E+03 0.  0.
          5    1    4    4  502    0 -0.76270862746E+01 -0.71332679717E+02  0.82198069404E-01  0.71860996355E+02  0.41800000000E+01 0. -1.
         -5    1    4    4    0  502  0.16199917336E+02  0.52350845195E+02 -0.19928102232E+00  0.54959625428E+02  0.41800000000E+01 0. -1.
        -11    1    3    3    0    0 -0.36476450063E+01 -0.26646686390E+02 -0.36508761890E+02  0.45345792577E+02  0.00000000000E+00 0.  1.
         11    1    3    3    0    0 -0.49251860552E+01  0.45628520912E+02  0.10574066135E+02  0.47095968543E+02  0.00000000000E+00 0. -1.
</event>
<event>
 8    1  0.8061721E-006  0.9268550E+02  0.7561462E-02  0.1296476E+00
         -1   -1    0    0    0  501 -0.00000000000E+00  0.00000000000E+00  0.89574337293E+02  0.89574337293E+02  0.00000000000E+00 0.  1.
          1   -1    0    0  501    0  0.00000000000E+00 -0.00000000000E+00 -0.15800906613E+03  0.15800906613E+03  0.00000000000E+00 0. -1.
         23    2    1    2    0    0 -0.47150297385E+02 -0.13899458748E+02 -0.34539337026E+02  0.10896311280E+03  0.90904612932E+02 0.  0.
         23    2    1    2    0    0  0.47150297385E+02  0.13899458748E+02 -0.33895391815E+02  0.13862029062E+03  0.12510132649E+03 0.  0.
          5    1    4    4  502    0  0.13743563814E+02  0.42466463054E+02  0.34941974892E+02  0.56839247356E+02  0.41800000000E+01 0. -1.
         -5    1    4    4    0  502  0.33406733571E+02 -0.28567004307E+02 -0.68837366707E+02  0.81781043269E+02  0.41800000000E+01 0. -1.
        -11    1    3    3    0    0 -0.37437294241E+02  0.32135737737E+02 -0.37273486699E+02  0.61835017997E+02  0.00000000000E+00 0. -1.
         11    1    3    3    0    0 -0.97130031433E+01 -0.46035196485E+02  0.27341496730E+01  0.47128094804E+02  0.00000000000E+00 0.  1.
</event>
<event>
 8    1  0.8061721E-006  0.1503962E+03  0.7561462E-02  0.1199987E+00
          2   -1    0    0  501    0  0.00000000000E+00  0.00000000000E+00  0.36926841103E+03  0.36926841103E+03  0.00000000000E+00 0. -1.
         -2   -1    0    0    0  501 -0.00000000000E+00 -0.00000000000E+00 -0.87208937928E+02  0.87208937928E+02  0.00000000000E+00 0.  1.
         23    2    1    2    0    0  0.48149481447E+02  0.11227870706E+03  0.39059396450E+02  0.15710949561E+03  0.90735200094E+02 0.  0.
         23    2    1    2    0    0 -0.48149481447E+02 -0.11227870706E+03  0.24300007665E+03  0.29936785334E+03  0.12508874347E+03 0.  0.
          5    1    4    4  502    0  0.73443053025E+01 -0.10349704080E+03  0.20949392015E+03  0.23381777361E+03  0.41800000000E+01 0.  1.
         -5    1    4    4    0  502 -0.55493786749E+02 -0.87816662644E+01  0.33506156493E+02  0.65550079734E+02  0.41800000000E+01 0.  1.
        -11    1    3    3    0    0 -0.17997993011E+02  0.18111795946E+02 -0.15376501961E+02  0.29806068466E+02  0.00000000000E+00 0.  1.
         11    1    3    3    0    0  0.66147474458E+02  0.94166911118E+02  0.54435898412E+02  0.12730342714E+03  0.00000000000E+00 0. -1.
</event>
<event>
 8    1  0.8061721E-006  0.9623206E+02  0.7561462E-02  0.1288425E+00
          2   -1    0    0  501    0  0.00000000000E+00  0.00000000000E+00  0.84721059262E+02  0.84721059262E+02  0.00000000000E+00 0. -1.
         -2   -1    0    0    0  501 -0.00000000000E+00 -0.00000000000E+00 -0.19035207716E+03  0.19035207716E+03  0.00000000000E+00 0.  1.
         23    2    1    2    0    0  0.52296515964E+02 -0.30575396533E+01 -0.91347841609E+02  0.13871034448E+03  0.90287636855E+02 0.  0.
         23    2    1    2    0    0 -0.52296515964E+02  0.30575396533E+01 -0.14283176290E+02  0.13636279194E+03  0.12508608144E+03 0.  0.
          5    1    4    4  502    0 -0.79843682439E+02 -0.19301799413E+02  0.22310658688E+02  0.85222127274E+02  0.41800000000E+01 0.  1.
         -5    1    4    4    0  502  0.27547166476E+02  0.22359339066E+02 -0.36593834978E+02  0.51140664668E+02  0.41800000000E+01 0.  1.
        -11    1    3    3    0    0  0.43813411684E+02  0.21285801612E+02 -0.54343473405E+01  0.49012575169E+02  0.00000000000E+00 0. -1.
         11    1    3    3    0    0  0.84831042796E+01 -0.24343341265E+02 -0.85913494269E+02  0.89697769313E+02  0.00000000000E+00 0.  1.
</event>
<event>
 8    1  0.8061721E-006  0.9582313E+02  0.7561462E-02  0.1289333E+00
          1   -1    0    0  501    0  0.00000000000E+00  0.00000000000E+00  0.10155108500E+04  0.10155108500E+04  0.00000000000E+00 0. -1.
         -1   -1    0    0    0  501 -0.00000000000E+00 -0.00000000000E+00 -0.15788561544E+02  0.15788561544E+02  0.00000000000E+00 0.  1.
         23    2    1    2    0    0 -0.89176819093E+01 -0.41639758482E+02  0.28203906206E+03  0.30155359130E+03  0.97852651260E+02 0.  0.
         23    2    1    2    0    0  0.89176819093E+01  0.41639758482E+02  0.71768322640E+03  0.72974582025E+03  0.12508538757E+03 0.  0.
          5    1    4    4  502    0  0.25357410486E+01  0.67020317726E+02  0.68197277296E+03  0.68527548360E+03  0.41800000000E+01 0.  1.
         -5    1    4    4    0  502  0.63819408607E+01 -0.25380559244E+02  0.35710453439E+02  0.44470336647E+02  0.41800000000E+01 0.  1.
        -11    1    3    3    0    0 -0.42928977321E+02  0.15678922498E+01  0.66947511054E+02  0.79544481997E+02  0.00000000000E+00 0.  1.
         11    1    3    3    0    0  0.34011295411E+02 -0.43207650732E+02  0.21509155101E+03  0.22200910930E+03  0.00000000000E+00 0. -1.
</event>
<event>
 8    1  0.8061721E-006  0.3177290E+03  0.7561462E-02  0.1076699E+00
          2   -1    0    0  501    0  0.00000000000E+00  0.00000000000E+00  0.99258022736E+03  0.99258022736E+03  0.00000000000E+00 0. -1.
         -2   -1    0    0    0  501 -0.00000000000E+00 -0.00000000000E+00 -0.12181409005E+03  0.12181409005E+03  0.00000000000E+00 0.  1.
         23    2    1    2    0    0  0.28706378459E+03 -0.10564098496E+03  0.22849339980E+03  0.39208681488E+03  0.89203153117E+02 0.  0.
         23    2    1    2    0    0 -0.28706378459E+03  0.10564098496E+03  0.64227273752E+03  0.72230750253E+03  0.12509286445E+03 0.  0.
          5    1    4    4  502    0 -0.13472345538E+03  0.97935089906E+02  0.42772962948E+03  0.45903354954E+03  0.41800000000E+01 0.  1.
         -5    1    4    4    0  502 -0.15234032921E+03  0.77058950516E+01  0.21454310803E+03  0.26327395300E+03  0.41800000000E+01 0.  1.
        -11    1    3    3    0    0  0.65761427548E+02  0.10069233914E+02  0.29513983615E+02  0.72780698358E+02  0.00000000000E+00 0. -1.
         11    1    3    3    0    0  0.22130235704E+03 -0.11571021887E+03  0.19897941618E+03  0.31930611652E+03  0.00000000000E+00 0.  1.
</event>
<event>
 8    1  0.8061721E-006  0.1573480E+03  0.7561462E-02  0.1191724E+00
          1   -1    0    0  501    0  0.00000000000E+00  0.00000000000E+00  0.26531008331E+02  0.26531008331E+02  0.00000000000E+00 0. -1.
         -1   -1    0    0    0  501 -0.00000000000E+00 -0.00000000000E+00 -0.10943319602E+04  0.10943319602E+04  0.00000000000E+00 0.  1.
         23    2    1    2    0    0 -0.10767325893E+03 -0.74006770370E+02 -0.50333777444E+03  0.52812625971E+03  0.92184045604E+02 0.  0.
         23    2    1    2    0    0  0.10767325893E+03  0.74006770370E+02 -0.56446317747E+03  0.59273670886E+03  0.12509034561E+03 0.  0.
          5    1    4    4  502    0  0.10983207838E+03  0.10347774668E+03 -0.47766080981E+03  0.50094715403E+03  0.41800000000E+01 0.  1.
         -5    1    4    4    0  502 -0.21588194467E+01 -0.29470976308E+02 -0.86802367657E+02  0.91789554835E+02  0.41800000000E+01 0.  1.
        -11    1    3    3    0    0 -0.60102753344E+02 -0.58468251853E+02 -0.43731206176E+03  0.44527824648E+03  0.00000000000E+00 0.  1.
         11    1    3    3    0    0 -0.47570505588E+02 -0.15538518517E+02 -0.66025712684E+02  0.82848013223E+02  0.00000000000E+00 0. -1.
</event>
<event>
 8    1  0.8061721E-006  0.1098771E+03  0.7561462E-02  0.1260798E+00
          1   -1    0    0  501    0  0.00000000000E+00  0.00000000000E+00  0.52555949541E+03  0.52555949541E+03  0.00000000000E+00 0. -1.
         -1   -1    0    0    0  501 -0.00000000000E+00 -0.00000000000E+00 -0.31401057085E+02  0.31401057085E+02  0.00000000000E+00 0.  1.
         23    2    1    2    0    0 -0.67781279319E+02  0.13774495045E+02  0.22140816967E+03  0.24902355260E+03  0.90593121210E+02 0.  0.
         23    2    1    2    0    0  0.67781279319E+02 -0.13774495045E+02  0.27275026865E+03  0.30793699989E+03  0.12509375810E+03 0.  0.
          5    1    4    4  502    0 -0.36779176956E+02 -0.60890781808E+00  0.60533320300E+02  0.70956563423E+02  0.41800000000E+01 0.  1.
         -5    1    4    4    0  502  0.10456045627E+03 -0.13165587227E+02  0.21221694835E+03  0.23698043647E+03  0.41800000000E+01 0.  1.
        -11    1    3    3    0    0 -0.13191488873E+02 -0.11132372188E+02 -0.22948991958E+01  0.17412973656E+02  0.00000000000E+00 0.  1.
         11    1    3    3    0    0 -0.54589790445E+02  0.24906867233E+02  0.22370306887E+03  0.23161057894E+03  0.00000000000E+00 0. -1.
</event>
<event>
 8    1  0.8061721E-006  0.6821093E+02  0.7561462E-02  0.1366285E+00
          1   -1    0    0  501    0  0.00000000000E+00  0.00000000000E+00  0.84349734052E+03  0.84349734052E+03  0.00000000000E+00 0. -1.
         -1   -1    0    0    0  501 -0.00000000000E+00 -0.00000000000E+00 -0.13680514961E+02  0.13680514961E+02  0.00000000000E+00 0.  1.
         23    2    1    2    0    0  0.71668889667E+00  0.33144767108E+02  0.30282392318E+03  0.31452796610E+03  0.78271474878E+02 0.  0.
         23    2    1    2    0    0 -0.71668889667E+00 -0.33144767108E+02  0.52699290238E+03  0.54264988938E+03  0.12509314153E+03 0.  0.
          5    1    4    4  502    0  0.20286401549E+02 -0.74345823079E+01  0.93231880627E+01  0.23899902459E+02  0.41800000000E+01 0. -1.
         -5    1    4    4    0  502 -0.21003090446E+02 -0.25710184800E+02  0.51766971432E+03  0.51874998692E+03  0.41800000000E+01 0. -1.
        -11    1    3    3    0    0  0.11075796613E+02 -0.22114407314E+02  0.14253636743E+03  0.14466629297E+03  0.00000000000E+00 0. -1.
         11    1    3    3    0    0 -0.10359107716E+02  0.55259174422E+02  0.16028755575E+03  0.16986167313E+03  0.00000000000E+00 0.  1.
</event>
<event>
 8    1  0.8061721E-006  0.1536832E+03  0.7561462E-02  0.1196019E+00
          4   -1    0    0  501    0  0.00000000000E+00  0.00000000000E+00  0.25387957719E+03  0.25387957719E+03  0.00000000000E+00 0. -1.
         -4   -1    0    0    0  501 -0.00000000000E+00 -0.00000000000E+00 -0.11036792207E+03  0.11036792207E+03  0.00000000000E+00 0.  1.
         23    2    1    2    0    0  0.11662590490E+02 -0.12536573909E+03  0.47153884935E+02  0.16229515900E+03  0.90904594018E+02 0.  0.
         23    2    1    2    0    0 -0.11662590490E+02  0.12536573909E+03  0.96357770183E+02  0.20195234026E+03  0.12508934130E+03 0.  0.
          5    1    4    4  502    0 -0.13746079616E+02 -0.15385474479E+02  0.49072754758E+02  0.53397333166E+02  0.41800000000E+01 0.  1.
         -5    1    4    4    0  502  0.20834891259E+01  0.14075121357E+03  0.47285015425E+02  0.14855500710E+03  0.41800000000E+01 0.  1.
        -11    1    3    3    0    0  0.41533991468E+02 -0.54029602881E+02 -0.60607953059E+01  0.68417860786E+02  0.00000000000E+00 0.  1.
         11    1    3    3    0    0 -0.29871400978E+02 -0.71336136214E+02  0.53214680241E+02  0.93877298211E+02  0.00000000000E+00 0. -1.
</event>
<event>
 8    1  0.8061721E-006  0.5706319E+02  0.7561462E-02  0.1410586E+00
         -1   -1    0    0    0  501 -0.00000000000E+00  0.00000000000E+00  0.89988389464E+02  0.89988389464E+02  0.00000000000E+00 0.  1.
          1   -1    0    0  501    0  0.00000000000E+00 -0.00000000000E+00 -0.14332074458E+03  0.14332074458E+03  0.00000000000E+00 0. -1.
         23    2    1    2    0    0  0.26277205497E+02  0.41438452901E+01 -0.28426010028E+01  0.95813353852E+02  0.92002475039E+02 0.  0.
         23    2    1    2    0    0 -0.26277205497E+02 -0.41438452901E+01 -0.50489754115E+02  0.13749578019E+03  0.12509281082E+03 0.  0.
          5    1    4    4  502    0 -0.42093173065E+02  0.26928773687E+02  0.23663897024E+02  0.55447691506E+02  0.41800000000E+01 0. -1.
         -5    1    4    4    0  502  0.15815967568E+02 -0.31072618977E+02 -0.74153651139E+02  0.82048088688E+02  0.41800000000E+01 0. -1.
        -11    1    3    3    0    0  0.87202434031E+01  0.68665909522E+01  0.44176500400E+02  0.45549488514E+02  0.00000000000E+00 0.  1.
         11    1    3    3    0    0  0.17556962094E+02 -0.27227456620E+01 -0.47019101403E+02  0.50263865338E+02  0.00000000000E+00 0. -1.
</event>
<event>
 8    1  0.8061721E-006  0.1239186E+03  0.7561462E-02  0.1236769E+00
          1   -1    0    0  501    0  0.00000000000E+00  0.00000000000E+00  0.11107897508E+03  0.11107897508E+03  0.00000000000E+00 0. -1.
         -1   -1    0    0    0  501 -0.00000000000E+00 -0.00000000000E+00 -0.26877434834E+03  0.26877434834E+03  0.00000000000E+00 0.  1.
         23    2    1    2    0    0  0.61083028589E+02  0.71200821741E+02 -0.18665680929E+03  0.22740096168E+03  0.89831728905E+02 0.  0.
         23    2    1    2    0    0 -0.61083028589E+02 -0.71200821741E+02  0.28961436031E+02  0.15245236174E+03  0.11662874614E+03 0.  0.
          5    1    4    4  502    0 -0.35603451915E+02 -0.10029230977E+03  0.47022742081E+01  0.10661021044E+03  0.41800000000E+01 0. -1.
         -5    1    4    4    0  502 -0.25479576674E+02  0.29091488032E+02  0.24259161823E+02  0.45842151300E+02  0.41800000000E+01 0.  1.
        -11    1    3    3    0    0  0.15570206543E+02  0.49729923257E+02 -0.16424385349E+03  0.17231233272E+03  0.00000000000E+00 0.  1.
         11    1    3    3    0    0  0.45512822046E+02  0.21470898484E+02 -0.22412955802E+02  0.55088628954E+02  0.00000000000E+00 0. -1.
</event>
<event>
 8    1  0.8061721E-006  0.9802927E+02  0.7561462E-02  0.1284496E+00
         -2   -1    0    0    0  501 -0.00000000000E+00  0.00000000000E+00  0.16488570358E+02  0.16488570358E+02  0.00000000000E+00 0.  1.
          2   -1    0    0  501    0  0.00000000000E+00 -0.00000000000E+00 -0.91341855437E+03  0.91341855437E+03  0.00000000000E+00 0. -1.
         23    2    1    2    0    0 -0.26651648029E+02 -0.51294426872E+02 -0.37826118997E+03  0.39324299932E+03  0.90648221728E+02 0.  0.
         23    2    1    2    0    0  0.26651648029E+02  0.51294426872E+02 -0.51866879404E+03  0.53666412541E+03  0.12509850926E+03 0.  0.
          5    1    4    4  502    0 -0.23710338229E+02  0.19641498646E+02 -0.42159594771E+03  0.42273938086E+03  0.41800000000E+01 0. -1.
         -5    1    4    4    0  502  0.50361986258E+02  0.31652928226E+02 -0.97072846332E+02  0.11392474455E+03  0.41800000000E+01 0. -1.
        -11    1    3    3    0    0 -0.54489394212E+02 -0.97597802251E+01 -0.15925674537E+03  0.16860325720E+03  0.00000000000E+00 0.  1.
         11    1    3    3    0    0  0.27837746183E+02 -0.41534646647E+02 -0.21900444460E+03  0.22463974212E+03  0.00000000000E+00 0. -1.
</event>
<event>
 8    1  0.8061721E-006  0.2932919E+03  0.7561462E-02  0.1088643E+00
          2   -1    0    0  501    0  0.00000000000E+00  0.00000000000E+00  0.15970015898E+04  0.15970015898E+04  0.00000000000E+00 0. -1.
         -2   -1    0    0    0  501 -0.00000000000E+00 -0.00000000000E+00 -0.70543339335E+02  0.70543339335E+02  0.00000000000E+00 0.  1.
         23    2    1    2    0    0 -0.23865554089E+03 -0.14946372037E+03  0.38591956895E+03  0.48611587510E+03  0.89882475608E+02 0.  0.
         23    2    1    2    0    0  0.23865554089E+03  0.14946372037E+03  0.11405386815E+04  0.11814290540E+04  0.12510097833E+03 0.  0.
          5    1    4    4  502    0  0.12086316062E+03  0.14200644066E+03  0.60880608276E+03  0.63673860539E+03  0.41800000000E+01 0.  1.
         -5    1    4    4    0  502  0.11779238027E+03  0.74572797150E+01  0.53173259874E+03  0.54469044864E+03  0.41800000000E+01 0.  1.
        -11    1    3    3    0    0 -0.11100869924E+03 -0.77947274906E+02  0.11339307773E+03  0.17679564205E+03  0.00000000000E+00 0.  1.
         11    1    3    3    0    0 -0.12764684165E+03 -0.71516445468E+02  0.27252649122E+03  0.30932023305E+03  0.00000000000E+00 0. -1.
</event>
<event>
 8    1  0.8061721E-006  0.9554758E+02  0.7561462E-02  0.1289948E+00
          2   -1    0    0  501    0  0.00000000000E+00  0.00000000000E+00  0.70340886117E+03  0.70340886117E+03  0.00000000000E+00 0. -1.
         -2   -1    0    0    0  501 -0.00000000000E+00 -0.00000000000E+00 -0.28550072626E+02  0.28550072626E+02  0.00000000000E+00 0.  1.
         23    2    1    2    0    0 -0.49925789705E+02 -0.28417910321E+02  0.12770932960E+03  0.16776031958E+03  0.92377972773E+02 0.  0.
         23    2    1    2    0    0  0.49925789705E+02  0.28417910321E+02  0.54714945895E+03  0.56419861422E+03  0.12508950298E+03 0.  0.
          5    1    4    4  502    0 -0.19232691763E+02 -0.44437803578E+01  0.11777753475E+02  0.23363036901E+02  0.41800000000E+01 0.  1.
         -5    1    4    4    0  502  0.69158481468E+02  0.32861690679E+02  0.53537170547E+03  0.54083557732E+03  0.41800000000E+01 0.  1.
        -11    1    3    3    0    0  0.36573201937E+01  0.21016145833E+02  0.74528570762E+02  0.77521366322E+02  0.00000000000E+00 0. -1.
         11    1    3    3    0    0 -0.53583109899E+02 -0.49434056154E+02  0.53180758837E+02  0.90238953256E+02  0.00000000000E+00 0.  1.
</event>
<event>
 8    1  0.8061721E-006  0.1296351E+03  0.7561462E-02  0.1227998E+00
         -1   -1    0    0    0  501 -0.00000000000E+00  0.00000000000E+00  0.10162928038E+02  0.10162928038E+02  0.00000000000E+00 0.  1.
          1   -1    0    0  501    0  0.00000000000E+00 -0.00000000000E+00 -0.20428601257E+04  0.20428601257E+04  0.00000000000E+00 0. -1.
         23    2    1    2    0    0 -0.84721698583E+02 -0.19296042978E+02 -0.68635162431E+03  0.69808983339E+03  0.93277863417E+02 0.  0.
         23    2    1    2    0    0  0.84721698583E+02  0.19296042978E+02 -0.13463455733E+04  0.13549332203E+04  0.12509006849E+03 0.  0.
          5    1    4    4  502    0  0.49819065044E+02  0.60030058311E+02 -0.11004738729E+04  0.11032432935E+04  0.41800000000E+01 0.  1.
         -5    1    4    4    0  502  0.34902633539E+02 -0.40734015334E+02 -0.24587170039E+03  0.25168992687E+03  0.41800000000E+01 0.  1.
        -11    1    3    3    0    0  0.46772868758E+01 -0.36080856857E+02 -0.18188794598E+03  0.18549105137E+03  0.00000000000E+00 0. -1.
         11    1    3    3    0    0 -0.89398985458E+02  0.16784813879E+02 -0.50446367833E+03  0.51259878202E+03  0.00000000000E+00 0.  1.
</event>
<event>
 8    1  0.8061721E-006  0.1934466E+03  0.7561462E-02  0.1155389E+00
         -2   -1    0    0    0  501 -0.00000000000E+00  0.00000000000E+00  0.31530825100E+02  0.31530825100E+02  0.00000000000E+00 0. -1.
          2   -1    0    0  501    0  0.00000000000E+00 -0.00000000000E+00 -0.15820341741E+04  0.15820341741E+04  0.00000000000E+00 0.  1.
         23    2    1    2    0    0 -0.14132738765E+03 -0.11353193899E+03 -0.50769092901E+03  0.54774732024E+03  0.97026366331E+02 0.  0.
         23    2    1    2    0    0  0.14132738765E+03  0.11353193899E+03 -0.10428124199E+04  0.10658176789E+04  0.12508656931E+03 0.  0.
          5    1    4    4  502    0  0.80335681077E+02  0.53891035503E+02 -0.84265588362E+03  0.84820072857E+03  0.41800000000E+01 0. -1.
         -5    1    4    4    0  502  0.60991706575E+02  0.59640903483E+02 -0.20015653633E+03  0.21761695034E+03  0.41800000000E+01 0. -1.
        -11    1    3    3    0    0 -0.15576716118E+03 -0.10553574876E+03 -0.47929206094E+03  0.51490007035E+03  0.00000000000E+00 0.  1.
         11    1    3    3    0    0  0.14439773529E+02 -0.79961902250E+01 -0.28398868073E+02  0.32847249892E+02  0.00000000000E+00 0. -1.
</event>
<event>
 8    1  0.8061721E-006  0.1509302E+03  0.7561462E-02  0.1199335E+00
         -1   -1    0    0    0  501 -0.00000000000E+00  0.00000000000E+00  0.28610771958E+03  0.28610771958E+03  0.00000000000E+00 0.  1.
          1   -1    0    0  501    0  0.00000000000E+00 -0.00000000000E+00 -0.11686617178E+03  0.11686617178E+03  0.00000000000E+00 0. -1.
         23    2    1    2    0    0  0.11067576276E+03 -0.71294066695E+02  0.15264062636E+03  0.22060380861E+03  0.89637665920E+02 0.  0.
         23    2    1    2    0    0 -0.11067576276E+03  0.71294066695E+02  0.16600921443E+02  0.18237008275E+03  0.12510510813E+03 0.  0.
          5    1    4    4  502    0 -0.33275400865E+02 -0.14990005041E+02 -0.39144291949E+02  0.53681473024E+02  0.41800000000E+01 0. -1.
         -5    1    4    4    0  502 -0.77400361892E+02  0.86284071736E+02  0.55745213392E+02  0.12868860972E+03  0.41800000000E+01 0. -1.
        -11    1    3    3    0    0  0.71707475195E+02 -0.81797760838E+02  0.72061647751E+02  0.13048263008E+03  0.00000000000E+00 0. -1.
         11    1    3    3    0    0  0.38968287562E+02  0.10503694143E+02  0.80578978605E+02  0.90121178528E+02  0.00000000000E+00 0.  1.
</event>
<event>
 7    1  0.8061721E-006  0.1070303E+03  0.7561462E-02  0.1266170E+00
         -2   -1    0    0    0  501 -0.00000000000E+00  0.00000000000E+00  0.44308020756E+03  0.44308020756E+03  0.00000000000E+00 0.  1.
          2   -1    0    0  501    0  0.00000000000E+00 -0.00000000000E+00 -0.40302730436E+02  0.40302730436E+02  0.00000000000E+00 0. -1.
         23    2    1    2    0    0 -0.58200825839E+02  0.16552472783E+02  0.22198862172E+03  0.24740762071E+03  0.90940981559E+02 0.  0.
          5    1    1    2  502    0  0.33884239039E+02 -0.54941859366E+02  0.18335408790E+02  0.67233988290E+02  0.41800000000E+01 0. -1.
         -5    1    1    2    0  502  0.24316586800E+02  0.38389386584E+02  0.16245344661E+03  0.16874132900E+03  0.41800000000E+01 0.  1.
        -11    1    3    3    0    0 -0.12917459308E+02  0.47282122281E+02  0.66807531028E+02  0.82859556145E+02  0.00000000000E+00 0.  1.
         11    1    3    3    0    0 -0.45283366531E+02 -0.30729649499E+02  0.15518109070E+03  0.16454806457E+03  0.00000000000E+00 0. -1.
</event>
<event>
 8    1  0.8061721E-006  0.1201608E+03  0.7561462E-02  0.1242832E+00
          1   -1    0    0  501    0  0.00000000000E+00  0.00000000000E+00  0.36244837409E+03  0.36244837409E+03  0.00000000000E+00 0. -1.
         -1   -1    0    0    0  501 -0.00000000000E+00 -0.00000000000E+00 -0.48593987288E+02  0.48593987288E+02  0.00000000000E+00 0.  1.
         23    2    1    2    0    0 -0.33448368637E+02 -0.22609573603E+02  0.16427872412E+03  0.21191688167E+03  0.12763729611E+03 0.  0.
         23    2    1    2    0    0  0.33448368637E+02  0.22609573603E+02  0.14957566269E+03  0.19912547971E+03  0.12509233237E+03 0.  0.
          5    1    4    4  502    0 -0.11769106360E+02  0.55600928583E+02  0.24494509872E+02  0.62027643335E+02  0.41800000000E+01 0. -1.
         -5    1    4    4    0  502  0.45217474996E+02 -0.32991354980E+02  0.12508115282E+03  0.13709783638E+03  0.41800000000E+01 0. -1.
        -11    1    3    3    0    0 -0.44018520533E+02  0.42533614707E+02  0.46355245629E+02  0.76782467577E+02  0.00000000000E+00 0.  1.
         11    1    3    3    0    0  0.10570151896E+02 -0.65143188310E+02  0.11792347849E+03  0.13513441409E+03  0.00000000000E+00 0. -1.
</event>
<event>
 8    1  0.8061721E-006  0.1322652E+03  0.7561462E-02  0.1224133E+00
         -1   -1    0    0    0  501 -0.00000000000E+00  0.00000000000E+00  0.95061682751E+01  0.95061682751E+01  0.00000000000E+00 0.  1.
          1   -1    0    0  501    0  0.00000000000E+00 -0.00000000000E+00 -0.19702626414E+04  0.19702626414E+04  0.00000000000E+00 0. -1.
         23    2    1    2    0    0  0.63387744401E+02  0.40194793856E+02 -0.63719968166E+03  0.64819699787E+03  0.92207842118E+02 0.  0.
         23    2    1    2    0    0 -0.63387744401E+02 -0.40194793856E+02 -0.13235567914E+04  0.13315718118E+04  0.12508909691E+03 0.  0.
          5    1    4    4  502    0 -0.62485647974E+02  0.34160607356E+02 -0.62763923493E+03  0.63168020780E+03  0.41800000000E+01 0.  1.
         -5    1    4    4    0  502 -0.90209642711E+00 -0.74355401212E+02 -0.69591755650E+03  0.69989160398E+03  0.41800000000E+01 0.  1.
        -11    1    3    3    0    0  0.41414894508E+02 -0.26047039556E+02 -0.24528358167E+03  0.25011532779E+03  0.00000000000E+00 0.  1.
         11    1    3    3    0    0  0.21972849893E+02  0.66241833412E+02 -0.39191609999E+03  0.39808167008E+03  0.00000000000E+00 0. -1.
</event>
<event>
 8    1  0.8061721E-006  0.1185921E+03  0.7561462E-02  0.1245438E+00
          1   -1    0    0  501    0  0.00000000000E+00  0.00000000000E+00  0.80562036325E+03  0.80562036325E+03  0.00000000000E+00 0. -1.
         -1   -1    0    0    0  501 -0.00000000000E+00 -0.00000000000E+00 -0.30206437092E+02  0.30206437092E+02  0.00000000000E+00 0.  1.
         23    2    1    2    0    0  0.84943877646E+02 -0.40552441823E+02  0.19582958927E+03  0.23547260032E+03  0.90764280318E+02 0.  0.
         23    2    1    2    0    0 -0.84943877646E+02  0.40552441823E+02  0.57958433688E+03  0.60035420002E+03  0.12508876459E+03 0.  0.
          5    1    4    4  502    0 -0.26378738205E+01  0.32975647193E+02  0.30889394738E+02  0.45453039430E+02  0.41800000000E+01 0. -1.
         -5    1    4    4    0  502 -0.82306003825E+02  0.75767946299E+01  0.54869494215E+03  0.55490116059E+03  0.41800000000E+01 0. -1.
        -11    1    3    3    0    0  0.33091950366E+02  0.22070716493E+02  0.26967043687E+02  0.48056374715E+02  0.00000000000E+00 0. -1.
         11    1    3    3    0    0  0.51851927280E+02 -0.62623158316E+02  0.16886254558E+03  0.18741622561E+03  0.00000000000E+00 0.  1.
</event>
<event>
 8    1  0.8061721E-006  0.1108868E+03  0.7561462E-02  0.1258936E+00
          2   -1    0    0  501    0  0.00000000000E+00  0.00000000000E+00  0.12674906452E+04  0.12674906452E+04  0.00000000000E+00 0. -1.
         -2   -1    0    0    0  501 -0.00000000000E+00 -0.00000000000E+00 -0.16675371400E+02  0.16675371400E+02  0.00000000000E+00 0.  1.
         23    2    1    2    0    0  0.19166891707E+02  0.65493416445E+02  0.24513312837E+03  0.26844181423E+03  0.85521925051E+02 0.  0.
         23    2    1    2    0    0 -0.19166891707E+02 -0.65493416445E+02  0.10056821454E+04  0.10157242023E+04  0.12506926209E+03 0.  0.
          5    1    4    4  502    0  0.23303551738E+02 -0.78250856698E+02  0.84616080998E+03  0.85010107684E+03  0.41800000000E+01 0. -1.
         -5    1    4    4    0  502 -0.42470443446E+02  0.12757440252E+02  0.15952133540E+03  0.16562312549E+03  0.41800000000E+01 0. -1.
        -11    1    3    3    0    0 -0.93341250956E+01  0.66311340973E+02  0.22152100342E+03  0.23142142249E+03  0.00000000000E+00 0. -1.
         11    1    3    3    0    0  0.28501016803E+02 -0.81792452800E+00  0.23612124954E+02  0.37020391734E+02  0.00000000000E+00 0.  1.
</event>
<event>
 8    1  0.8061721E-006  0.1249035E+03  0.7561462E-02  0.1235220E+00
         -2   -1    0    0    0  501 -0.00000000000E+00  0.00000000000E+00  0.19757949087E+03  0.19757949087E+03  0.00000000000E+00 0.  1.
          2   -1    0    0  501    0  0.00000000000E+00 -0.00000000000E+00 -0.10372119544E+03  0.10372119544E+03  0.00000000000E+00 0. -1.
         23    2    1    2    0    0  0.26626535214E+01 -0.69604416203E+02  0.51033135806E+02  0.15185875402E+03  0.12491931693E+03 0.  0.
         23    2    1    2    0    0 -0.26626535214E+01  0.69604416203E+02  0.42825159623E+02  0.14944193229E+03  0.12508809836E+03 0.  0.
          5    1    4    4  502    0  0.25020060555E+02 -0.24743429932E+02  0.36427714153E+02  0.50820188050E+02  0.41800000000E+01 0. -1.
         -5    1    4    4    0  502 -0.27682714076E+02  0.94347846136E+02  0.63974454701E+01  0.98621744243E+02  0.41800000000E+01 0. -1.
        -11    1    3    3    0    0 -0.21957786678E+02 -0.84415649722E+02 -0.65861981332E+01  0.87472991944E+02  0.00000000000E+00 0.  1.
         11    1    3    3    0    0  0.24620440199E+02  0.14811233518E+02  0.57619333939E+02  0.64385762072E+02  0.00000000000E+00 0. -1.
</event>
<event>
 8    1  0.8061721E-006  0.1634769E+03  0.7561462E-02  0.1184826E+00
          2   -1    0    0  501    0  0.00000000000E+00  0.00000000000E+00  0.55539746955E+03  0.55539746955E+03  0.00000000000E+00 0. -1.
         -2   -1    0    0    0  501 -0.00000000000E+00 -0.00000000000E+00 -0.62564106376E+02  0.62564106376E+02  0.00000000000E+00 0.  1.
         23    2    1    2    0    0 -0.11961505269E+03  0.82880674553E+02  0.16511279959E+03  0.23819084643E+03  0.91080599977E+02 0.  0.
         23    2    1    2    0    0  0.11961505269E+03 -0.82880674553E+02  0.32772056358E+03  0.37977072949E+03  0.12509225451E+03 0.  0.
          5    1    4    4  502    0  0.59965409048E+02  0.12717101218E+02  0.47332917222E+02  0.77559347589E+02  0.41800000000E+01 0.  1.
         -5    1    4    4    0  502  0.59649643641E+02 -0.95597775771E+02  0.28038764636E+03  0.30221138190E+03  0.41800000000E+01 0.  1.
        -11    1    3    3    0    0 -0.23586581570E+02 -0.31856716267E+01 -0.54014136388E+01  0.24405954256E+02  0.00000000000E+00 0.  1.
         11    1    3    3    0    0 -0.96028471119E+02  0.86066346180E+02  0.17051421323E+03  0.21378489218E+03  0.00000000000E+00 0. -1.
</event>
<event>
 8    1  0.8061721E-006  0.2976995E+03  0.7561462E-02  0.1086396E+00
         -2   -1    0    0    0  501 -0.00000000000E+00  0.00000000000E+00  0.24496420531E+03  0.24496420531E+03  0.00000000000E+00 0.  1.
          2   -1    0    0  501    0  0.00000000000E+00 -0.00000000000E+00 -0.43158344999E+03  0.43158344999E+03  0.00000000000E+00 0. -1.
         23    2    1    2    0    0  0.18242183885E+03 -0.22516004451E+03  0.10783110630E+02  0.30427605609E+03  0.92156768073E+02 0.  0.
         23    2    1    2    0    0 -0.18242183885E+03  0.22516004451E+03 -0.19740235530E+03  0.37227159922E+03  0.12507470077E+03 0.  0.
          5    1    4    4  502    0 -0.77731373198E+02  0.14507638813E+03 -0.17176368945E+03  0.23792764065E+03  0.41800000000E+01 0. -1.
         -5    1    4    4    0  502 -0.10469046565E+03  0.80083656377E+02 -0.25638665858E+02  0.13434395857E+03  0.41800000000E+01 0. -1.
        -11    1    3    3    0    0  0.14253399844E+03 -0.21459783022E+03  0.28851787827E+02  0.25923077578E+03  0.00000000000E+00 0.  1.
         11    1    3    3    0    0  0.39887840403E+02 -0.10562214286E+02 -0.18068677197E+02  0.45045280311E+02  0.00000000000E+00 0. -1.
</event>
<event>
 8    1  0.8061721E-006  0.1149882E+03  0.7561462E-02  0.1251602E+00
          2   -1    0    0  501    0  0.00000000000E+00  0.00000000000E+00  0.77354367797E+02  0.77354367797E+02  0.00000000000E+00 0. -1.
         -2   -1    0    0    0  501 -0.00000000000E+00 -0.00000000000E+00 -0.30673899448E+03  0.30673899448E+03  0.00000000000E+00 0.  1.
         23    2    1    2    0    0 -0.37130037582E+02 -0.75504558119E+02 -0.19602932487E+03  0.22969243597E+03  0.85155980097E+02 0.  0.
         23    2    1    2    0    0  0.37130037582E+02  0.75504558119E+02 -0.33355301808E+02  0.15440092630E+03  0.12508993523E+03 0.  0.
          5    1    4    4  502    0  0.76076683576E+02  0.72468792103E+02 -0.43547973107E+02  0.11381250359E+03  0.41800000000E+01 0. -1.
         -5    1    4    4    0  502 -0.38946645994E+02  0.30357660160E+01  0.10192671299E+02  0.40588422705E+02  0.41800000000E+01 0. -1.
        -11    1    3    3    0    0 -0.35249987150E+02 -0.57572391036E+02 -0.20012379869E+03  0.21120292755E+03  0.00000000000E+00 0.  1.
         11    1    3    3    0    0 -0.18800504320E+01 -0.17932167083E+02  0.40944738172E+01  0.18489508424E+02  0.00000000000E+00 0. -1.
</event>
<event>
 7    1  0.8061721E-006  0.1722899E+03  0.7561462E-02  0.1175481E+00
          1   -1    0    0  501    0  0.00000000000E+00  0.00000000000E+00  0.15892172478E+04  0.15892172478E+04  0.00000000000E+00 0. -1.
         -1   -1    0    0    0  501 -0.00000000000E+00 -0.00000000000E+00 -0.24245952629E+02  0.24245952629E+02  0.00000000000E+00 0.  1.
         23    2    1    2    0    0 -0.32179662951E+02  0.11126774829E+03  0.34531273192E+03  0.37516180950E+03  0.89941414092E+02 0.  0.
          5    1    1    2  502    0  0.96527392554E+02 -0.10685117669E+03  0.95842155066E+03  0.96918731556E+03  0.41800000000E+01 0. -1.
         -5    1    1    2    0  502 -0.64347729602E+02 -0.44165716019E+01  0.26123701255E+03  0.26911407532E+03  0.41800000000E+01 0.  1.
        -11    1    3    3    0    0  0.10641548553E+02 -0.51671666986E+01  0.48227173804E+01  0.12775005684E+02  0.00000000000E+00 0. -1.
         11    1    3    3    0    0 -0.42821211505E+02  0.11643491499E+03  0.34049001454E+03  0.36238680382E+03  0.00000000000E+00 0.  1.
</event>
<event>
 8    1  0.8061721E-006  0.1143490E+03  0.7561462E-02  0.1252722E+00
         -2   -1    0    0    0  501 -0.00000000000E+00  0.00000000000E+00  0.62247132895E+02  0.62247132895E+02  0.00000000000E+00 0. -1.
          2   -1    0    0  501    0  0.00000000000E+00 -0.00000000000E+00 -0.55095010659E+03  0.55095010659E+03  0.00000000000E+00 0.  1.
         23    2    1    2    0    0 -0.81193102766E+02  0.17847050133E+02 -0.35145027482E+02  0.13541819037E+03  0.10095581307E+03 0.  0.
         23    2    1    2    0    0  0.81193102766E+02 -0.17847050133E+02 -0.45355794621E+03  0.47777904911E+03  0.12508865681E+03 0.  0.
          5    1    4    4  502    0  0.81317049237E+01 -0.59867878174E+02 -0.13027907858E+03  0.14366766573E+03  0.41800000000E+01 0. -1.
         -5    1    4    4    0  502  0.73061397842E+02  0.42020828041E+02 -0.32327886763E+03  0.33411138338E+03  0.41800000000E+01 0. -1.
        -11    1    3    3    0    0 -0.47960790481E+02  0.54073763599E+01  0.33082828388E+02  0.58514533894E+02  0.00000000000E+00 0. -1.
         11    1    3    3    0    0 -0.33232312285E+02  0.12439673773E+02 -0.68227855870E+02  0.76903656480E+02  0.00000000000E+00 0.  1.
</event>
<event>
 8    1  0.8061721E-006  0.1015959E+03  0.7561462E-02  0.1276975E+00
         -2   -1    0    0    0  501 -0.00000000000E+00  0.00000000000E+00  0.82956416276E+02  0.82956416276E+02  0.00000000000E+00 0.  1.
          2   -1    0    0  501    0  0.00000000000E+00 -0.00000000000E+00 -0.21311713401E+03  0.21311713401E+03  0.00000000000E+00 0. -1.
         23    2    1    2    0    0 -0.33669236427E+02  0.36587740335E+02  0.61890646165E+01  0.10447188209E+03  0.91672184450E+02 0.  0.
         23    2    1    2    0    0  0.33669236427E+02 -0.36587740335E+02 -0.13634978235E+03  0.19160166820E+03  0.12509059071E+03 0.  0.
          5    1    4    4  502    0 -0.45568845350E+02 -0.30247055236E+02 -0.51124848518E+02  0.74984175351E+02  0.41800000000E+01 0.  1.
         -5    1    4    4    0  502  0.79238081777E+02 -0.63406850990E+01 -0.85224933832E+02  0.11661749285E+03  0.41800000000E+01 0.  1.
        -11    1    3    3    0    0 -0.41338285134E+01  0.38893136399E+02 -0.35840936726E+02  0.53050328393E+02  0.00000000000E+00 0. -1.
         11    1    3    3    0    0 -0.29535407914E+02 -0.23053960642E+01  0.42030001342E+02  0.51421553696E+02  0.00000000000E+00 0.  1.
</event>
<event>
 8    1  0.8061721E-006  0.8021585E+02  0.7561462E-02  0.1328440E+00
          2   -1    0    0  501    0  0.00000000000E+00  0.00000000000E+00  0.96981518420E+02  0.96981518420E+02  0.00000000000E+00 0. -1.
         -2   -1    0    0    0  501 -0.00000000000E+00 -0.00000000000E+00 -0.17697386526E+03  0.17697386526E+03  0.00000000000E+00 0.  1.
         23    2    1    2    0    0 -0.51049966983E+02 -0.16088385763E+02 -0.77418225970E+02  0.13786794297E+03  0.10074250693E+03 0.  0.
         23    2    1    2    0    0  0.51049966983E+02  0.16088385763E+02 -0.25741208714E+01  0.13608744071E+03  0.12509288603E+03 0.  0.
          5    1    4    4  502    0 -0.80032282988E+01  0.86007529016E+01  0.53058608450E+02  0.54504247030E+02  0.41800000000E+01 0.  1.
         -5    1    4    4    0  502  0.59053195282E+02  0.74876328610E+01 -0.55632729321E+02  0.81583193678E+02  0.41800000000E+01 0.  1.
        -11    1    3    3    0    0 -0.44837785612E+02 -0.42124958203E+02 -0.89414559430E+02  0.10853525953E+03  0.00000000000E+00 0.  1.
         11    1    3    3    0    0 -0.62121813710E+01  0.26036572440E+02  0.11996333461E+02  0.29332683449E+02  0.00000000000E+00 0. -1.
</event>
<event>
 8    1  0.8061721E-006  0.1363667E+03  0.7561462E-02  0.1218303E+00
          2   -1    0    0  501    0  0.00000000000E+00  0.00000000000E+00  0.82849069503E+03  0.82849069503E+03  0.00000000000E+00 0. -1.
         -2   -1    0    0    0  501 -0.00000000000E+00 -0.00000000000E+00 -0.31019166918E+02  0.31019166918E+02  0.00000000000E+00 0.  1.
         23    2    1    2    0    0  0.90865599909E+02  0.24890341658E+02  0.18209899759E+03  0.22452456423E+03  0.91515838325E+02 0.  0.
         23    2    1    2    0    0 -0.90865599909E+02 -0.24890341658E+02  0.61537253051E+03  0.63498529771E+03  0.12508753193E+03 0.  0.
          5    1    4    4  502    0 -0.11712910326E+03 -0.27380850489E+01  0.39917314252E+03  0.41603292424E+03  0.41800000000E+01 0.  1.
         -5    1    4    4    0  502  0.26263503351E+02 -0.22152256609E+02  0.21619938799E+03  0.21895237347E+03  0.41800000000E+01 0.  1.
        -11    1    3    3    0    0  0.24264561808E+02  0.45162607554E+02  0.12280916052E+03  0.13308087762E+03  0.00000000000E+00 0. -1.
         11    1    3    3    0    0  0.66601038101E+02 -0.20272265896E+02  0.59289837072E+02  0.91443686610E+02  0.00000000000E+00 0.  1.
</event>
<event>
 8    1  0.8061721E-006  0.2833523E+03  0.7561462E-02  0.1093872E+00
         -1   -1    0    0    0  501 -0.00000000000E+00  0.00000000000E+00  0.54589115304E+03  0.54589115304E+03  0.00000000000E+00 0.  1.
          1   -1    0    0  501    0  0.00000000000E+00 -0.00000000000E+00 -0.47354319599E+03  0.47354319599E+03  0.00000000000E+00 0. -1.
         23    2    1    2    0    0  0.96769548094E+01 -0.27882145647E+03  0.44328877028E+03  0.53872129349E+03  0.12601845169E+03 0.  0.
         23    2    1    2    0    0 -0.96769548094E+01  0.27882145647E+03 -0.37094081322E+03  0.48071305554E+03  0.12511157743E+03 0.  0.
          5    1    4    4  502    0 -0.36570577429E+02  0.16139525906E+03 -0.12709703103E+03  0.20870305335E+03  0.41800000000E+01 0.  1.
         -5    1    4    4    0  502  0.26893622620E+02  0.11742619741E+03 -0.24384378219E+03  0.27201000219E+03  0.41800000000E+01 0.  1.
        -11    1    3    3    0    0  0.19036990191E+02 -0.23732084692E+03  0.26860710319E+03  0.35893365301E+03  0.00000000000E+00 0. -1.
         11    1    3    3    0    0 -0.93600353820E+01 -0.41500609558E+02  0.17468166708E+03  0.17978764048E+03  0.00000000000E+00 0.  1.
</event>
<event>
 8    1  0.8061721E-006  0.7616461E+02  0.7561462E-02  0.1340302E+00
         -2   -1    0    0    0  501 -0.00000000000E+00  0.00000000000E+00  0.17753440007E+03  0.17753440007E+03  0.00000000000E+00 0.  1.
          2   -1    0    0  501    0  0.00000000000E+00 -0.00000000000E+00 -0.69378550239E+02  0.69378550239E+02  0.00000000000E+00 0. -1.
         23    2    1    2    0    0 -0.20607220584E+02 -0.15161315882E+02  0.39854159813E+02  0.10212014558E+03  0.90474565703E+02 0.  0.
         23    2    1    2    0    0  0.20607220584E+02  0.15161315882E+02  0.68301690017E+02  0.14479280473E+03  0.12508122322E+03 0.  0.
          5    1    4    4  502    0 -0.45155056254E+02 -0.10864616297E+02  0.56018745339E+02  0.72887524460E+02  0.41800000000E+01 0. -1.
         -5    1    4    4    0  502  0.65762276838E+02  0.26025932179E+02  0.12282944679E+02  0.71905280270E+02  0.41800000000E+01 0. -1.
        -11    1    3    3    0    0 -0.96506636905E+00 -0.15176539071E+02 -0.27791716300E+02  0.31680249149E+02  0.00000000000E+00 0. -1.
         11    1    3    3    0    0 -0.19642154215E+02  0.15223188548E-01  0.67645876113E+02  0.70439896430E+02  0.00000000000E+00 0.  1.
</event>
<event>
 8    1  0.8061721E-006  0.1063573E+03  0.7561462E-02  0.1267468E+00
         -1   -1    0    0    0  501 -0.00000000000E+00  0.00000000000E+00  0.17481923510E+02  0.17481923510E+02  0.00000000000E+00 0.  1.
          1   -1    0    0  501    0  0.00000000000E+00 -0.00000000000E+00 -0.76843889539E+03  0.76843889539E+03  0.00000000000E+00 0. -1.
         23    2    1    2    0    0 -0.13936803684E+02  0.38881642303E+02 -0.24548233496E+03  0.26356242204E+03  0.86588434143E+02 0.  0.
         23    2    1    2    0    0  0.13936803684E+02 -0.38881642303E+02 -0.50547463692E+03  0.52235839687E+03  0.12509064553E+03 0.  0.
          5    1    4    4  502    0  0.75956115885E+01 -0.77228824157E+02 -0.43389476599E+03  0.44079941578E+03  0.41800000000E+01 0. -1.
         -5    1    4    4    0  502  0.63411920958E+01  0.38347181854E+02 -0.71579870932E+02  0.81558981087E+02  0.41800000000E+01 0. -1.
        -11    1    3    3    0    0  0.15352003168E+02  0.58615102718E+02 -0.15207015563E+03  0.16369711818E+03  0.00000000000E+00 0.  1.
         11    1    3    3    0    0 -0.29288806852E+02 -0.19733460415E+02 -0.93412179328E+02  0.99865303852E+02  0.00000000000E+00 0. -1.
</event>
<event>
 8    1  0.8061721E-006  0.8178773E+02  0.7561462E-02  0.1324053E+00
         -1   -1    0    0    0  501 -0.00000000000E+00  0.00000000000E+00  0.19351952034E+03  0.19351952034E+03  0.00000000000E+00 0.  1.
          1   -1    0    0  501    0  0.00000000000E+00 -0.00000000000E+00 -0.97809205964E+02  0.97809205964E+02  0.00000000000E+00 0. -1.
         23    2    1    2    0    0 -0.32105499239E+02  0.32925276373E+01  0.12579682716E+03  0.15867846051E+03  0.91172409669E+02 0.  0.
         23    2    1    2    0    0  0.32105499239E+02 -0.32925276373E+01 -0.30086512784E+02  0.13265026580E+03  0.12509712605E+03 0.  0.
          5    1    4    4  502    0 -0.17918595032E+02 -0.25838757670E+02  0.35121514890E+02  0.47325581391E+02  0.41800000000E+01 0. -1.
         -5    1    4    4    0  502  0.50024094270E+02  0.22546230033E+02 -0.65208027674E+02  0.85324684408E+02  0.41800000000E+01 0. -1.
        -11    1    3    3    0    0  0.19979415972E+02  0.13010246442E+02  0.93800366715E+02  0.96783016955E+02  0.00000000000E+00 0. -1.
         11    1    3    3    0    0 -0.52084915210E+02 -0.97177188047E+01  0.31996460449E+02  0.61895443552E+02  0.00000000000E+00 0.  1.
</event>
<event>
 8    1  0.8061721E-006  0.9356168E+02  0.7561462E-02  0.1294449E+00
          3   -1    0    0  501    0  0.00000000000E+00  0.00000000000E+00  0.69404767283E+02  0.69404767283E+02  0.00000000000E+00 0. -1.
         -3   -1    0    0    0  501 -0.00000000000E+00 -0.00000000000E+00 -0.21444386840E+03  0.21444386840E+03  0.00000000000E+00 0.  1.
         23    2    1    2    0    0 -0.19218570144E+02 -0.55485407736E+02 -0.80622170987E+02  0.13138962809E+03  0.85529620635E+02 0.  0.
         23    2    1    2    0    0  0.19218570144E+02  0.55485407736E+02 -0.64416930132E+02  0.15245900759E+03  0.12508486798E+03 0.  0.
          5    1    4    4  502    0 -0.36392878238E+02  0.34685584559E+02  0.15533628598E+02  0.52785389835E+02  0.41800000000E+01 0. -1.
         -5    1    4    4    0  502  0.55611448382E+02  0.20799823176E+02 -0.79950558730E+02  0.99673617756E+02  0.41800000000E+01 0. -1.
        -11    1    3    3    0    0 -0.90373696873E+01 -0.63535594229E+02 -0.93303857577E+02  0.11324334693E+03  0.00000000000E+00 0.  1.
         11    1    3    3    0    0 -0.10181200457E+02  0.80501864933E+01  0.12681686590E+02  0.18146281165E+02  0.00000000000E+00 0. -1.
</event>
<event>
 8    1  0.8061721E-006  0.1194910E+03  0.7561462E-02  0.1243939E+00
          1   -1    0    0  501    0  0.00000000000E+00  0.00000000000E+00  0.94017523718E+03  0.94017523718E+03  0.00000000000E+00 0. -1.
         -1   -1    0    0    0  501 -0.00000000000E+00 -0.00000000000E+00 -0.28210173934E+02  0.28210173934E+02  0.00000000000E+00 0.  1.
         23    2    1    2    0    0  0.81420322963E+02  0.76079461801E+02  0.28192734532E+03  0.31645546024E+03  0.90794695760E+02 0.  0.
         23    2    1    2    0    0 -0.81420322963E+02 -0.76079461801E+02  0.63003771792E+03  0.65192995087E+03  0.12509109215E+03 0.  0.
          5    1    4    4  502    0 -0.23524735156E+01 -0.96368834267E+01  0.39525682252E+03  0.39540337860E+03  0.41800000000E+01 0. -1.
         -5    1    4    4    0  502 -0.79067849448E+02 -0.66442578374E+02  0.23478089540E+03  0.25652657227E+03  0.41800000000E+01 0. -1.
        -11    1    3    3    0    0  0.31833480673E+02 -0.25067506164E+01  0.18017758596E+02  0.36664613938E+02  0.00000000000E+00 0.  1.
         11    1    3    3    0    0  0.49586842291E+02  0.78586212417E+02  0.26390958673E+03  0.27979084631E+03  0.00000000000E+00 0. -1.
</event>
<event>
 7    1  0.8061721E-006  0.8802385E+02  0.7561462E-02  0.1307709E+00
          1   -1    0    0  501    0  0.00000000000E+00  0.00000000000E+00  0.35408640261E+03  0.35408640261E+03  0.00000000000E+00 0. -1.
         -1   -1    0    0    0  501 -0.00000000000E+00 -0.00000000000E+00 -0.36122994886E+02  0.36122994886E+02  0.00000000000E+00 0.  1.
         23    2    1    2    0    0  0.11269232464E+01 -0.49206237718E-01  0.12033952368E+03  0.15092821207E+03  0.91084860775E+02 0.  0.
          5    1    1    2  502    0  0.53859532957E+02  0.83961394026E+00  0.16842353699E+03  0.17687711682E+03  0.41800000000E+01 0. -1.
         -5    1    1    2    0  502 -0.54986456204E+02 -0.79040770255E+00  0.29200347051E+02  0.62404068602E+02  0.41800000000E+01 0.  1.
        -11    1    3    3    0    0  0.38095651790E+01 -0.33296420023E+02  0.90019408103E+01  0.34701575059E+02  0.00000000000E+00 0. -1.
         11    1    3    3    0    0 -0.26826419327E+01  0.33247213786E+02  0.11133758287E+03  0.11622663701E+03  0.00000000000E+00 0.  1.
</event>
<event>
 8    1  0.8061721E-006  0.1265853E+03  0.7561462E-02  0.1232612E+00
          1   -1    0    0  501    0  0.00000000000E+00  0.00000000000E+00  0.54299764642E+02  0.54299764642E+02  0.00000000000E+00 0. -1.
         -1   -1    0    0    0  501 -0.00000000000E+00 -0.00000000000E+00 -0.42537601936E+03  0.42537601936E+03  0.00000000000E+00 0.  1.
         23    2    1    2    0    0 -0.33947323456E+02 -0.90476088591E+02 -0.23776400003E+03  0.27289493106E+03  0.92744705022E+02 0.  0.
         23    2    1    2    0    0  0.33947323456E+02  0.90476088591E+02 -0.13331225469E+03  0.20678085295E+03  0.12509124877E+03 0.  0.
          5    1    4    4  502    0 -0.44541085321E+02  0.45172681680E+02 -0.33362345783E+02  0.71798314519E+02  0.41800000000E+01 0.  1.
         -5    1    4    4    0  502  0.78488408777E+02  0.45303406912E+02 -0.99949908908E+02  0.13498253843E+03  0.41800000000E+01 0.  1.
        -11    1    3    3    0    0 -0.27655611282E+02 -0.43974608444E+02 -0.21415464818E+03  0.22036517956E+03  0.00000000000E+00 0.  1.
         11    1    3    3    0    0 -0.62917121738E+01 -0.46501480147E+02 -0.23609351847E+02  0.52529751500E+02  0.00000000000E+00 0. -1.
</event>
<event>
 8    1  0.8061721E-006  0.1942933E+03  0.7561462E-02  0.1154645E+00
          1   -1    0    0  501    0  0.00000000000E+00  0.00000000000E+00  0.16818614074E+03  0.16818614074E+03  0.00000000000E+00 0. -1.
         -1   -1    0    0    0  501 -0.00000000000E+00 -0.00000000000E+00 -0.26022871690E+03  0.26022871690E+03  0.00000000000E+00 0.  1.
         23    2    1    2    0    0  0.17713676556E+03  0.18963028465E+02 -0.25631019455E+02  0.20082735847E+03  0.89093482310E+02 0.  0.
         23    2    1    2    0    0 -0.17713676556E+03 -0.18963028465E+02 -0.66411556697E+02  0.22758749917E+03  0.12509414357E+03 0.  0.
          5    1    4    4  502    0 -0.82334465503E+02  0.25844644027E+02  0.23347376339E+02  0.89495710604E+02  0.41800000000E+01 0. -1.
         -5    1    4    4    0  502 -0.94802300057E+02 -0.44807672493E+02 -0.89758933037E+02  0.13809178857E+03  0.41800000000E+01 0. -1.
        -11    1    3    3    0    0  0.14617042548E+03 -0.19941797151E+02 -0.31214482492E+02  0.15079062462E+03  0.00000000000E+00 0.  1.
         11    1    3    3    0    0  0.30966340084E+02  0.38904825616E+02  0.55834630370E+01  0.50036733845E+02  0.00000000000E+00 0. -1.
</event>
<event>
 8    1  0.8061721E-006  0.1183507E+03  0.7561462E-02  0.1245843E+00
          2   -1    0    0  501    0  0.00000000000E+00  0.00000000000E+00  0.15400139001E+04  0.15400139001E+04  0.00000000000E+00 0. -1.
         -2   -1    0    0    0  501 -0.00000000000E+00 -0.00000000000E+00 -0.16833664962E+02  0.16833664962E+02  0.00000000000E+00 0.  1.
         23    2    1    2    0    0  0.79948554170E+01 -0.85386259690E+02  0.29204693550E+03  0.31640755320E+03  0.86415254025E+02 0.  0.
         23    2    1    2    0    0 -0.79948554170E+01  0.85386259690E+02  0.12311332997E+04  0.12404400119E+04  0.12508992966E+03 0.  0.
          5    1    4    4  502    0 -0.41367495961E+02  0.30148748730E+02  0.17636018894E+03  0.18368616011E+03  0.41800000000E+01 0.  1.
         -5    1    4    4    0  502  0.33372640545E+02  0.55237510961E+02  0.10547731107E+04  0.10567538518E+04  0.41800000000E+01 0.  1.
        -11    1    3    3    0    0  0.27659863704E+02  0.50542778874E+01  0.87222588140E+02  0.91642750215E+02  0.00000000000E+00 0.  1.
         11    1    3    3    0    0 -0.19665008287E+02 -0.90440537578E+02  0.20482434736E+03  0.22476480299E+03  0.00000000000E+00 0. -1.
</event>
<event>
 8    1  0.8061721E-006  0.1866515E+03  0.7561462E-02  0.1161517E+00
         -1   -1    0    0    0  501 -0.00000000000E+00  0.00000000000E+00  0.15434057838E+03  0.15434057838E+03  0.00000000000E+00 0.  1.
          1   -1    0    0  501    0  0.00000000000E+00 -0.00000000000E+00 -0.31106029401E+03  0.31106029401E+03  0.00000000000E+00 0. -1.
         23    2    1    2    0    0 -0.17492108848E+03  0.46015971505E+02 -0.15373086580E+02  0.20398018176E+03  0.93041528004E+02 0.  0.
         23    2    1    2    0    0  0.17492108848E+03 -0.46015971505E+02 -0.14134662904E+03  0.26142069063E+03  0.12508817338E+03 0.  0.
          5    1    4    4  502    0  0.25392897093E+02 -0.33494624688E+02 -0.95566760454E+02  0.10448524877E+03  0.41800000000E+01 0.  1.
         -5    1    4    4    0  502  0.14952819139E+03 -0.12521346816E+02 -0.45779868588E+02  0.15693544186E+03  0.41800000000E+01 0.  1.
        -11    1    3    3    0    0 -0.76808042503E+02  0.17424276320E+02  0.39365235009E+02  0.88049432286E+02  0.00000000000E+00 0.  1.
         11    1    3    3    0    0 -0.98113045975E+02  0.28591695184E+02 -0.54738321590E+02  0.11593074948E+03  0.00000000000E+00 0. -1.
</event>
<event>
 8    1  0.8061721E-006  0.1105520E+03  0.7561462E-02  0.1259551E+00
         -2   -1    0    0    0  501 -0.00000000000E+00  0.00000000000E+00  0.17222729014E+02  0.17222729014E+02  0.00000000000E+00 0.  1.
          2   -1    0    0  501    0  0.00000000000E+00 -0.00000000000E+00 -0.89265584040E+03  0.89265584040E+03  0.00000000000E+00 0. -1.
         23    2    1    2    0    0 -0.22294707458E+02  0.49805932575E+02 -0.29425351344E+03  0.31289062592E+03  0.91311164236E+02 0.  0.
         23    2    1    2    0    0  0.22294707458E+02 -0.49805932575E+02 -0.58117959794E+03  0.59698794349E+03  0.12508874734E+03 0.  0.
          5    1    4    4  502    0  0.36198133375E+02 -0.76593828933E+02 -0.53487105472E+03  0.54155464827E+03  0.41800000000E+01 0.  1.
         -5    1    4    4    0  502 -0.13903425916E+02  0.26787896358E+02 -0.46308543222E+02  0.55433295219E+02  0.41800000000E+01 0.  1.
        -11    1    3    3    0    0  0.25626182957E+02 -0.11428136758E+02 -0.64591394397E+02  0.70422665335E+02  0.00000000000E+00 0.  1.
         11    1    3    3    0    0 -0.47920890415E+02  0.61234069333E+02 -0.22966211905E+03  0.24246796058E+03  0.00000000000E+00 0. -1.
</event>
<event>
 8    1  0.8061721E-006  0.1428023E+03  0.7561462E-02  0.1209607E+00
         -1   -1    0    0    0  501 -0.00000000000E+00  0.00000000000E+00  0.14746355217E+03  0.14746355217E+03  0.00000000000E+00 0.  1.
          1   -1    0    0  501    0  0.00000000000E+00 -0.00000000000E+00 -0.14836250950E+03  0.14836250950E+03  0.00000000000E+00 0. -1.
         23    2    1    2    0    0  0.20571649983E+02 -0.93681088121E+02  0.29871099809E+02  0.13522083663E+03  0.90515484873E+02 0.  0.
         23    2    1    2    0    0 -0.20571649983E+02  0.93681088121E+02 -0.30770057140E+02  0.16060522503E+03  0.12509157780E+03 0.  0.
          5    1    4    4  502    0  0.23450630701E+00 -0.28959921334E+02 -0.20481955842E+02  0.35717152070E+02  0.41800000000E+01 0. -1.
         -5    1    4    4    0  502 -0.20806156290E+02  0.12264100945E+03 -0.10288101298E+02  0.12488807296E+03  0.41800000000E+01 0. -1.
        -11    1    3    3    0    0  0.44406128138E+01 -0.10932147178E+03  0.24853235514E+02  0.11219887053E+03  0.00000000000E+00 0. -1.
         11    1    3    3    0    0  0.16131037170E+02  0.15640383655E+02  0.50178642948E+01  0.23021966101E+02  0.00000000000E+00 0.  1.
</event>
<event>
 8    1  0.8061721E-006  0.1013274E+03  0.7561462E-02  0.1277529E+00
          2   -1    0    0  501    0  0.00000000000E+00  0.00000000000E+00  0.61133983324E+03  0.61133983324E+03  0.00000000000E+00 0. -1.
         -2   -1    0    0    0  501 -0.00000000000E+00 -0.00000000000E+00 -0.25304012422E+02  0.25304012422E+02  0.00000000000E+00 0.  1.
         23    2    1    2    0    0 -0.10424075347E+02  0.47757193693E+02  0.14006331848E+03  0.17088800085E+03  0.84826674771E+02 0.  0.
         23    2    1    2    0    0  0.10424075347E+02 -0.47757193693E+02  0.44597250233E+03  0.46575584481E+03  0.12509046024E+03 0.  0.
          5    1    4    4  502    0  0.60510748941E+02 -0.10678153938E+02  0.31090702647E+03  0.31694830055E+03  0.41800000000E+01 0. -1.
         -5    1    4    4    0  502 -0.50086673595E+02 -0.37079039756E+02  0.13506547586E+03  0.14880754426E+03  0.41800000000E+01 0. -1.
        -11    1    3    3    0    0 -0.33379337371E+02  0.10763096837E+02  0.11590954494E+03  0.12109932710E+03  0.00000000000E+00 0. -1.
         11    1    3    3    0    0  0.22955262024E+02  0.36994096856E+02  0.24153773544E+02  0.49788673744E+02  0.00000000000E+00 0.  1.
</event>
<event>
 8    1  0.8061721E-006  0.1528237E+03  0.7561462E-02  0.1197046E+00
          2   -1    0    0  501    0  0.00000000000E+00  0.00000000000E+00  0.23496171110E+03  0.23496171110E+03  0.00000000000E+00 0. -1.
         -2   -1    0    0    0  501 -0.00000000000E+00 -0.00000000000E+00 -0.12531791956E+03  0.12531791956E+03  0.00000000000E+00 0.  1.
         23    2    1    2    0    0  0.12725952585E+03  0.35660665864E-01  0.81182158343E+01  0.15497564251E+03  0.88071312877E+02 0.  0.
         23    2    1    2    0    0 -0.12725952585E+03 -0.35660665864E-01  0.10152557570E+03  0.20530398815E+03  0.12508915555E+03 0.  0.
          5    1    4    4  502    0 -0.12614486070E+03 -0.38126523784E+02  0.10242670851E+03  0.16695766144E+03  0.41800000000E+01 0.  1.
         -5    1    4    4    0  502 -0.11146651501E+01  0.38090863118E+02 -0.90113280915E+00  0.38346326706E+02  0.41800000000E+01 0.  1.
        -11    1    3    3    0    0  0.95750011617E+02  0.20464066728E+02 -0.29058702136E+02  0.10213349559E+03  0.00000000000E+00 0.  1.
         11    1    3    3    0    0  0.31509514238E+02 -0.20428406062E+02  0.37176917970E+02  0.52842146924E+02  0.00000000000E+00 0. -1.
</event>
<event>
 8    1  0.8061721E-006  0.1086219E+03  0.7561462E-02  0.1263143E+00
          2   -1    0    0  501    0  0.00000000000E+00  0.00000000000E+00  0.83971922223E+02  0.83971922223E+02  0.00000000000E+00 0. -1.
         -2   -1    0    0    0  501 -0.00000000000E+00 -0.00000000000E+00 -0.18195388873E+03  0.18195388873E+03  0.00000000000E+00 0.  1.
         23    2    1    2    0    0 -0.31527848488E+02 -0.45474957097E+02 -0.83421933956E+02  0.12836996832E+03  0.80359521819E+02 0.  0.
         23    2    1    2    0    0  0.31527848488E+02  0.45474957097E+02 -0.14560032555E+02  0.13755584264E+03  0.12509052060E+03 0.  0.
          5    1    4    4  502    0 -0.54627828098E+01  0.74520705724E+02 -0.38998714888E+02  0.84389275033E+02  0.41800000000E+01 0.  1.
         -5    1    4    4    0  502  0.36990631297E+02 -0.29045748628E+02  0.24438682333E+02  0.53166567609E+02  0.41800000000E+01 0.  1.
        -11    1    3    3    0    0 -0.56871859826E+02 -0.23108324795E+02 -0.39703315717E+02  0.73107840850E+02  0.00000000000E+00 0. -1.
         11    1    3    3    0    0  0.25344011338E+02 -0.22366632301E+02 -0.43718618239E+02  0.55262127465E+02  0.00000000000E+00 0.  1.
</event>
<event>
 8    1  0.8061721E-006  0.1121758E+03  0.7561462E-02  0.1256593E+00
          1   -1    0    0  501    0  0.00000000000E+00  0.00000000000E+00  0.66350204575E+03  0.66350204575E+03  0.00000000000E+00 0. -1.
         -1   -1    0    0    0  501 -0.00000000000E+00 -0.00000000000E+00 -0.23418666905E+02  0.23418666905E+02  0.00000000000E+00 0.  1.
         23    2    1    2    0    0 -0.55216357411E+02 -0.70108379582E+01  0.22554485648E+03  0.25035717372E+03  0.93328635319E+02 0.  0.
         23    2    1    2    0    0  0.55216357411E+02  0.70108379582E+01  0.41453852237E+03  0.43656353894E+03  0.12509012365E+03 0.  0.
          5    1    4    4  502    0  0.57398673968E+02 -0.39064035903E+02  0.12245561524E+03  0.14083130610E+03  0.41800000000E+01 0. -1.
         -5    1    4    4    0  502 -0.21823165568E+01  0.46074873861E+02  0.29208290713E+03  0.29573223284E+03  0.41800000000E+01 0. -1.
        -11    1    3    3    0    0 -0.78070437804E+02  0.11701156096E+02  0.15743620228E+03  0.17611947110E+03  0.00000000000E+00 0.  1.
         11    1    3    3    0    0  0.22854080393E+02 -0.18711994054E+02  0.68108654206E+02  0.74237702617E+02  0.00000000000E+00 0. -1.
</event>
<event>
 8    1  0.8061721E-006  0.1071796E+03  0.7561462E-02  0.1265884E+00
         -1   -1    0    0    0  501 -0.00000000000E+00  0.00000000000E+00  0.62125274443E+02  0.62125274443E+02  0.00000000000E+00 0.  1.
          1   -1    0    0  501    0  0.00000000000E+00 -0.00000000000E+00 -0.25468866163E+03  0.25468866163E+03  0.00000000000E+00 0. -1.
         23    2    1    2    0    0  0.36708390776E+02  0.23523190675E+02 -0.28978067529E+02  0.10632935387E+03  0.92549212010E+02 0.  0.
         23    2    1    2    0    0 -0.36708390776E+02 -0.23523190675E+02 -0.16358531966E+03  0.21048458221E+03  0.12507100417E+03 0.  0.
          5    1    4    4  502    0 -0.80503843766E+02  0.50094577219E+00 -0.11678869570E+03  0.14190909643E+03  0.41800000000E+01 0. -1.
         -5    1    4    4    0  502  0.43795452990E+02 -0.24024136447E+02 -0.46796623965E+02  0.68575485774E+02  0.41800000000E+01 0. -1.
        -11    1    3    3    0    0  0.26870238448E+02 -0.23427041620E+02  0.17344548912E+02  0.39644285468E+02  0.00000000000E+00 0.  1.
         11    1    3    3    0    0  0.98381523280E+01  0.46950232295E+02 -0.46322616441E+02  0.66685068401E+02  0.00000000000E+00 0. -1.
</event>
<event>
 7    1  0.8061721E-006  0.2106657E+03  0.7561462E-02  0.1141040E+00
         -2   -1    0    0    0  501 -0.00000000000E+00  0.00000000000E+00  0.10162563287E+03  0.10162563287E+03  0.00000000000E+00 0.  1.
          2   -1    0    0  501    0  0.00000000000E+00 -0.00000000000E+00 -0.10169326292E+04  0.10169326292E+04  0.00000000000E+00 0. -1.
         23    2    1    2    0    0  0.13965417998E+03 -0.84462440169E+02 -0.23928893916E+02  0.18661261481E+03  0.87261000778E+02 0.  0.
          5    1    1    2  502    0 -0.25839020078E+02  0.13023038735E+03 -0.62044243127E+03  0.63450286971E+03  0.41800000000E+01 0. -1.
         -5    1    1    2    0  502 -0.11381515991E+03 -0.45767947182E+02 -0.27093567110E+03  0.29744277750E+03  0.41800000000E+01 0.  1.
        -11    1    3    3    0    0  0.12343544251E+02  0.10517442586E+01 -0.30693232775E+02  0.33098999816E+02  0.00000000000E+00 0. -1.
         11    1    3    3    0    0  0.12731063573E+03 -0.85514184427E+02  0.67643388590E+01  0.15351361500E+03  0.00000000000E+00 0.  1.
</event>
<event>
 8    1  0.8061721E-006  0.9561845E+02  0.7561462E-02  0.1289789E+00
          2   -1    0    0  501    0  0.00000000000E+00  0.00000000000E+00  0.28617895146E+03  0.28617895146E+03  0.00000000000E+00 0. -1.
         -2   -1    0    0    0  501 -0.00000000000E+00 -0.00000000000E+00 -0.49674399298E+02  0.49674399298E+02  0.00000000000E+00 0.  1.
         23    2    1    2    0    0  0.23839558781E+02  0.37947306934E+02  0.85225274643E+02  0.13448976474E+03  0.93892633975E+02 0.  0.
         23    2    1    2    0    0 -0.23839558781E+02 -0.37947306934E+02  0.15127927751E+03  0.20136358602E+03  0.12511415308E+03 0.  0.
          5    1    4    4  502    0 -0.29321382007E+02 -0.59444953165E+02  0.21755721396E+02  0.69887264312E+02  0.41800000000E+01 0. -1.
         -5    1    4    4    0  502  0.54818232265E+01  0.21497646230E+02  0.12952355612E+03  0.13147632170E+03  0.41800000000E+01 0. -1.
        -11    1    3    3    0    0  0.52246760029E+02 -0.30877020276E+01  0.31163805531E+02  0.60913386151E+02  0.00000000000E+00 0.  1.
         11    1    3    3    0    0 -0.28407201248E+02  0.41035008962E+02  0.54061469112E+02  0.73576378586E+02  0.00000000000E+00 0. -1.
</event>
<event>
 8    1  0.8061721E-006  0.1755009E+03  0.7561462E-02  0.1172230E+00
         -2   -1    0    0    0  501 -0.00000000000E+00  0.00000000000E+00  0.20348880593E+02  0.20348880593E+02  0.00000000000E+00 0.  1.
          2   -1    0    0  501    0  0.00000000000E+00 -0.00000000000E+00 -0.17365603314E+04  0.17365603314E+04  0.00000000000E+00 0. -1.
         23    2    1    2    0    0  0.99255528647E+02 -0.10944084248E+03 -0.62850565287E+03  0.65211039551E+03  0.91649627793E+02 0.  0.
         23    2    1    2    0    0 -0.99255528647E+02  0.10944084248E+03 -0.10877057979E+04  0.11047988165E+04  0.12509022370E+03 0.  0.
          5    1    4    4  502    0 -0.12025410661E+03  0.10219176566E+03 -0.75509824413E+03  0.77142403243E+03  0.41800000000E+01 0. -1.
         -5    1    4    4    0  502  0.20998577963E+02  0.72490768195E+01 -0.33260755379E+03  0.33337478404E+03  0.41800000000E+01 0. -1.
        -11    1    3    3    0    0 -0.12436749163E+02 -0.32784468914E+02 -0.18812357796E+03  0.19136346234E+03  0.00000000000E+00 0.  1.
         11    1    3    3    0    0  0.11169227781E+03 -0.76656373564E+02 -0.44038207491E+03  0.46074693318E+03  0.00000000000E+00 0. -1.
</event>
<event>
 8    1  0.8061721E-006  0.1152554E+03  0.7561462E-02  0.1251136E+00
         -1   -1    0    0    0  501 -0.00000000000E+00  0.00000000000E+00  0.12310991662E+03  0.12310991662E+03  0.00000000000E+00 0.  1.
          1   -1    0    0  501    0  0.00000000000E+00 -0.00000000000E+00 -0.15311278357E+03  0.15311278357E+03  0.00000000000E+00 0. -1.
         23    2    1    2    0    0 -0.72303624637E+02 -0.54826964378E+02 -0.17602100022E+02  0.12845238429E+03  0.89198491843E+02 0.  0.
         23    2    1    2    0    0  0.72303624637E+02  0.54826964378E+02 -0.12400766938E+02  0.14777031590E+03  0.11596756909E+03 0.  0.
          5    1    4    4  502    0  0.64998814886E+02  0.34867328294E+01 -0.51158023037E+02  0.82895228834E+02  0.41800000000E+01 0. -1.
         -5    1    4    4    0  502  0.73048097506E+01  0.51340231548E+02  0.38757256099E+02  0.64875087062E+02  0.41800000000E+01 0.  1.
        -11    1    3    3    0    0 -0.25363400856E+02  0.14740992570E+02 -0.31879792745E+02  0.43323436502E+02  0.00000000000E+00 0.  1.
         11    1    3    3    0    0 -0.46940223781E+02 -0.69567956948E+02  0.14277692723E+02  0.85128947791E+02  0.00000000000E+00 0. -1.
</event>
<event>
 8    1  0.8061721E-006  0.1380722E+03  0.7561462E-02  0.1215947E+00
         -2   -1    0    0    0  501 -0.00000000000E+00  0.00000000000E+00  0.39101874144E+03  0.39101874144E+03  0.00000000000E+00 0.  1.
          2   -1    0    0  501    0  0.00000000000E+00 -0.00000000000E+00 -0.58055450740E+02  0.58055450740E+02  0.00000000000E+00 0. -1.
         23    2    1    2    0    0  0.95520394652E+02 -0.66671192748E+01  0.20884465797E+03  0.24852026874E+03  0.94750390694E+02 0.  0.
         23    2    1    2    0    0 -0.95520394652E+02  0.66671192748E+01  0.12411863272E+03  0.20055392344E+03  0.12509134639E+03 0.  0.
          5    1    4    4  502    0  0.23718032580E+02 -0.23863845922E+02  0.33395945250E+02  0.47589807426E+02  0.41800000000E+01 0. -1.
         -5    1    4    4    0  502 -0.11923842723E+03  0.30530965197E+02  0.90722687473E+02  0.15296411601E+03  0.41800000000E+01 0. -1.
        -11    1    3    3    0    0  0.56502078548E+02 -0.38796826946E+02  0.59188429007E+02  0.90559090044E+02  0.00000000000E+00 0.  1.
         11    1    3    3    0    0  0.39018316104E+02  0.32129707671E+02  0.14965622897E+03  0.15796117870E+03  0.00000000000E+00 0. -1.
</event>
<event>
 6    1  0.8061721E-006  0.1062991E+03  0.7561462E-02  0.1267581E+00
         -3   -1    0    0    0  501 -0.00000000000E+00  0.00000000000E+00  0.11733965836E+03  0.11733965836E+03  0.00000000000E+00 0.  1.
          3   -1    0    0  501    0  0.00000000000E+00 -0.00000000000E+00 -0.10373804161E+03  0.10373804161E+03  0.00000000000E+00 0. -1.
          5    1    1    2  502    0  0.48168476133E+02  0.78662898658E+02 -0.20406777748E+02  0.94561951632E+02  0.41800000000E+01 0. -1.
         -5    1    1    2    0  502  0.80538566036E+01 -0.60504894444E+02  0.12558505214E+02  0.62457147798E+02  0.41800000000E+01 0.  1.
        -11    1    1    2    0    0 -0.25602394954E+02 -0.84482154200E+01  0.32956178516E+01  0.27160929074E+02  0.00000000000E+00 0.  1.
         11    1    1    2    0    0 -0.30619937783E+02 -0.97097887943E+01  0.18154271433E+02  0.36897671465E+02  0.00000000000E+00 0. -1.
</event>
<event>
 7    1  0.8061721E-006  0.1681793E+03  0.7561462E-02  0.1179760E+00
         -1   -1    0    0    0  501 -0.00000000000E+00  0.00000000000E+00  0.20402332801E+03  0.20402332801E+03  0.00000000000E+00 0.  1.
          1   -1    0    0  501    0  0.00000000000E+00 -0.00000000000E+00 -0.47668494902E+03  0.47668494902E+03  0.00000000000E+00 0. -1.
         23    2    1    2    0    0  0.29165656349E+02 -0.35033796354E+02  0.12327949609E+03  0.16012076251E+03  0.91448466550E+02 0.  0.
          5    1    1    2  502    0  0.93210013219E+02 -0.30847574994E+02  0.27873467325E+01  0.98310330836E+02  0.41800000000E+01 0. -1.
         -5    1    1    2    0  502 -0.12237566957E+03  0.65881371348E+02 -0.39872846383E+03  0.42227718368E+03  0.41800000000E+01 0.  1.
        -11    1    3    3    0    0  0.47170599200E+02  0.12005915480E+02  0.40963516942E+02  0.63617742460E+02  0.00000000000E+00 0.  1.
         11    1    3    3    0    0 -0.18004942850E+02 -0.47039711834E+02  0.82315979144E+02  0.96503020051E+02  0.00000000000E+00 0. -1.
</event>
<event>
 8    1  0.8061721E-006  0.9708422E+02  0.7561462E-02  0.1286550E+00
         -2   -1    0    0    0  501 -0.00000000000E+00  0.00000000000E+00  0.38340337799E+03  0.38340337799E+03  0.00000000000E+00 0.  1.
          2   -1    0    0  501    0  0.00000000000E+00 -0.00000000000E+00 -0.37220504662E+02  0.37220504662E+02  0.00000000000E+00 0. -1.
         23    2    1    2    0    0  0.32177055231E+02 -0.13647566663E+02  0.21489615848E+03  0.23594924596E+03  0.90939918526E+02 0.  0.
         23    2    1    2    0    0 -0.32177055231E+02  0.13647566663E+02  0.13128671485E+03  0.18467463669E+03  0.12508757325E+03 0.  0.
          5    1    4    4  502    0 -0.62746557997E+02  0.30730643408E+02  0.27744545558E+02  0.75291003400E+02  0.41800000000E+01 0.  1.
         -5    1    4    4    0  502  0.30569502766E+02 -0.17083076745E+02  0.10354216929E+03  0.10938363329E+03  0.41800000000E+01 0.  1.
        -11    1    3    3    0    0 -0.26815965334E+02  0.44914795468E+01  0.11780433938E+03  0.12090133069E+03  0.00000000000E+00 0.  1.
         11    1    3    3    0    0  0.58993020565E+02 -0.18139046210E+02  0.97091819096E+02  0.11504791527E+03  0.00000000000E+00 0. -1.
</event>
<event>
 8    1  0.8061721E-006  0.8198406E+02  0.7561462E-02  0.1323513E+00
          3   -1    0    0  501    0  0.00000000000E+00  0.00000000000E+00  0.10028639218E+03  0.10028639218E+03  0.00000000000E+00 0. -1.
         -3   -1    0    0    0  501 -0.00000000000E+00 -0.00000000000E+00 -0.13520409314E+03  0.13520409314E+03  0.00000000000E+00 0.  1.
         23    2    1    2    0    0  0.43809147986E+02  0.59805156474E+01 -0.23123708992E+02  0.10228942677E+03  0.89293968980E+02 0.  0.
         23    2    1    2    0    0 -0.43809147986E+02 -0.59805156474E+01 -0.11793991970E+02  0.13320105856E+03  0.12509362789E+03 0.  0.
          5    1    4    4  502    0 -0.80717183845E+02  0.45057308343E+01  0.19783810807E+02  0.83333288357E+02  0.41800000000E+01 0.  1.
         -5    1    4    4    0  502  0.36908035860E+02 -0.10486246482E+02 -0.31577802778E+02  0.49867770198E+02  0.41800000000E+01 0.  1.
        -11    1    3    3    0    0  0.10266866654E+02 -0.41351526844E+00  0.34120775700E+02  0.35634349722E+02  0.00000000000E+00 0. -1.
         11    1    3    3    0    0  0.33542281331E+02  0.63940309158E+01 -0.57244484692E+02  0.66655077045E+02  0.00000000000E+00 0.  1.
</event>
<event>
 8    1  0.8061721E-006  0.1090375E+03  0.7561462E-02  0.1262363E+00
          4   -1    0    0  501    0  0.00000000000E+00  0.00000000000E+00  0.11667567282E+04  0.11667567282E+04  0.00000000000E+00 0. -1.
         -4   -1    0    0    0  501 -0.00000000000E+00 -0.00000000000E+00 -0.30730771570E+02  0.30730771570E+02  0.00000000000E+00 0.  1.
         23    2    1    2    0    0  0.37155150498E+02 -0.19180925699E+02  0.73880985281E+02  0.12718444306E+03  0.94705171193E+02 0.  0.
         23    2    1    2    0    0 -0.37155150498E+02  0.19180925699E+02  0.10621449714E+04  0.10703030567E+04  0.12509308504E+03 0.  0.
          5    1    4    4  502    0  0.25292733258E+02  0.41747977442E+02  0.21325797142E+03  0.21881282127E+03  0.41800000000E+01 0.  1.
         -5    1    4    4    0  502 -0.62447883756E+02 -0.22567051743E+02  0.84888699993E+03  0.85149023545E+03  0.41800000000E+01 0.  1.
        -11    1    3    3    0    0 -0.31402491648E+02 -0.12010064128E+02  0.16283182386E+02  0.37356393705E+02  0.00000000000E+00 0.  1.
         11    1    3    3    0    0  0.68557642146E+02 -0.71708615715E+01  0.57597802894E+02  0.89828049353E+02  0.00000000000E+00 0. -1.
</event>
<event>
 8    1  0.8061721E-006  0.7965037E+02  0.7561462E-02  0.1330047E+00
          1   -1    0    0  501    0  0.00000000000E+00  0.00000000000E+00  0.20805280275E+03  0.20805280275E+03  0.00000000000E+00 0. -1.
         -1   -1    0    0    0  501 -0.00000000000E+00 -0.00000000000E+00 -0.83345490886E+02  0.83345490886E+02  0.00000000000E+00 0.  1.
         23    2    1    2    0    0  0.20611699112E+02 -0.41360116845E+02  0.96352112079E+01  0.11526019526E+03  0.10515024446E+03 0.  0.
         23    2    1    2    0    0 -0.20611699112E+02  0.41360116845E+02  0.11507210066E+03  0.17613809837E+03  0.12509012728E+03 0.  0.
          5    1    4    4  502    0 -0.58843453394E+00  0.16494863834E+01 -0.26913134350E+02  0.27292054907E+02  0.41800000000E+01 0.  1.
         -5    1    4    4    0  502 -0.20023264578E+02  0.39710630462E+02  0.14198523501E+03  0.14884604347E+03  0.41800000000E+01 0.  1.
        -11    1    3    3    0    0  0.31695988782E+02  0.26515723359E+02 -0.12224653535E+02  0.43094796022E+02  0.00000000000E+00 0. -1.
         11    1    3    3    0    0 -0.11084289670E+02 -0.67875840204E+02  0.21859864743E+02  0.72165399240E+02  0.00000000000E+00 0.  1.
</event>
<event>
 8    1  0.8061721E-006  0.1171400E+03  0.7561462E-02  0.1247891E+00
         -2   -1    0    0    0  501 -0.00000000000E+00  0.00000000000E+00  0.22311957006E+02  0.22311957006E+02  0.00000000000E+00 0.  1.
          2   -1    0    0  501    0  0.00000000000E+00 -0.00000000000E+00 -0.69340081657E+03  0.69340081657E+03  0.00000000000E+00 0. -1.
         23    2    1    2    0    0 -0.42784533553E+02  0.23730971532E+02 -0.18444968099E+03  0.21087569068E+03  0.89739605426E+02 0.  0.
         23    2    1    2    0    0  0.42784533553E+02 -0.23730971532E+02 -0.48663917858E+03  0.50483708290E+03  0.12509642209E+03 0.  0.
          5    1    4    4  502    0  0.43827036839E+02 -0.72040291971E+02 -0.34267891541E+03  0.35292623067E+03  0.41800000000E+01 0. -1.
         -5    1    4    4    0  502 -0.10425032859E+01  0.48309320439E+02 -0.14396026316E+03  0.15191085223E+03  0.41800000000E+01 0. -1.
        -11    1    3    3    0    0  0.26476570604E+02 -0.39378050201E+01 -0.61498635945E+02  0.67071583569E+02  0.00000000000E+00 0. -1.
         11    1    3    3    0    0 -0.69261104157E+02  0.27668776553E+02 -0.12295104504E+03  0.14380410711E+03  0.00000000000E+00 0.  1.
</event>
<event>
 8    1  0.8061721E-006  0.1103723E+03  0.7561462E-02  0.1259882E+00
          2   -1    0    0  501    0  0.00000000000E+00  0.00000000000E+00  0.24062383327E+03  0.24062383327E+03  0.00000000000E+00 0. -1.
         -2   -1    0    0    0  501 -0.00000000000E+00 -0.00000000000E+00 -0.57861251086E+02  0.57861251086E+02  0.00000000000E+00 0.  1.
         23    2    1    2    0    0 -0.16212415812E+02 -0.38545735455E+02  0.60531177481E+02  0.11866115956E+03  0.93101187928E+02 0.  0.
         23    2    1    2    0    0  0.16212415812E+02  0.38545735455E+02  0.12223140470E+03  0.17982392479E+03  0.12509001352E+03 0.  0.
          5    1    4    4  502    0 -0.28012793281E+02 -0.27473361488E+02  0.81234657732E+02  0.90310819926E+02  0.41800000000E+01 0. -1.
         -5    1    4    4    0  502  0.44225209093E+02  0.66019096943E+02  0.40996746972E+02  0.89513104867E+02  0.41800000000E+01 0. -1.
        -11    1    3    3    0    0 -0.49421735958E+02  0.18037249458E+01  0.34330356404E+02  0.60202448286E+02  0.00000000000E+00 0.  1.
         11    1    3    3    0    0  0.33209320146E+02 -0.40349460401E+02  0.26200821076E+02  0.58458711278E+02  0.00000000000E+00 0. -1.
</event>
<event>
 8    1  0.8061721E-006  0.1468398E+03  0.7561462E-02  0.1204411E+00
          2   -1    0    0  501    0  0.00000000000E+00  0.00000000000E+00  0.40170735574E+03  0.40170735574E+03  0.00000000000E+00 0. -1.
         -2   -1    0    0    0  501 -0.00000000000E+00 -0.00000000000E+00 -0.61209142496E+02  0.61209142496E+02  0.00000000000E+00 0.  1.
         23    2    1    2    0    0  0.92966139119E+02 -0.28742327556E+02  0.77509768536E+02  0.15586523941E+03  0.93900927694E+02 0.  0.
         23    2    1    2    0    0 -0.92966139119E+02  0.28742327556E+02  0.26298844471E+03  0.30705125883E+03  0.12509488031E+03 0.  0.
          5    1    4    4  502    0 -0.28692167116E+02 -0.49361449456E+02  0.94390134953E+02  0.11039367338E+03  0.41800000000E+01 0.  1.
         -5    1    4    4    0  502 -0.64273972004E+02  0.78103777011E+02  0.16859830976E+03  0.19665758545E+03  0.41800000000E+01 0.  1.
        -11    1    3    3    0    0  0.83270489705E+02 -0.59891939371E+02  0.60220861121E+02  0.11894356213E+03  0.00000000000E+00 0. -1.
         11    1    3    3    0    0  0.96956494139E+01  0.31149611815E+02  0.17288907415E+02  0.36921677283E+02  0.00000000000E+00 0.  1.
</event>
<event>
 8    1  0.8061721E-006  0.1602792E+03  0.7561462E-02  0.1188382E+00
          2   -1    0    0  501    0  0.00000000000E+00  0.00000000000E+00  0.59798936062E+03  0.59798936062E+03  0.00000000000E+00 0. -1.
         -2   -1    0    0    0  501 -0.00000000000E+00 -0.00000000000E+00 -0.47513194602E+02  0.47513194602E+02  0.00000000000E+00 0.  1.
         23    2    1    2    0    0 -0.58222883696E+02  0.11654701211E+03  0.26303586150E+03  0.30602817891E+03  0.86557909136E+02 0.  0.
         23    2    1    2    0    0  0.58222883696E+02 -0.11654701211E+03  0.28744030452E+03  0.33947437631E+03  0.12509121989E+03 0.  0.
          5    1    4    4  502    0  0.33393599896E+02 -0.13609952554E+03  0.26710058081E+03  0.30165942059E+03  0.41800000000E+01 0. -1.
         -5    1    4    4    0  502  0.24829283800E+02  0.19552513425E+02  0.20339723710E+02  0.37814955717E+02  0.41800000000E+01 0. -1.
        -11    1    3    3    0    0  0.16497749097E+02  0.29164120690E+02  0.10756435037E+03  0.11266237673E+03  0.00000000000E+00 0. -1.
         11    1    3    3    0    0 -0.74720632793E+02  0.87382891424E+02  0.15547151114E+03  0.19336580218E+03  0.00000000000E+00 0.  1.
</event>
<event>
 8    1  0.8061721E-006  0.8842537E+02  0.7561462E-02  0.1306710E+00
         -2   -1    0    0    0  501 -0.00000000000E+00  0.00000000000E+00  0.15042338612E+02  0.15042338612E+02  0.00000000000E+00 0. -1.
          2   -1    0    0  501    0  0.00000000000E+00 -0.00000000000E+00 -0.20484577045E+04  0.20484577045E+04  0.00000000000E+00 0.  1.
         23    2    1    2    0    0 -0.47449266893E+02  0.39289725840E+02 -0.27312526239E+03  0.29769610958E+03  0.10114568312E+03 0.  0.
         23    2    1    2    0    0  0.47449266893E+02 -0.39289725840E+02 -0.17602901035E+04  0.17658039336E+04  0.12508863956E+03 0.  0.
          5    1    4    4  502    0  0.34929063944E+02 -0.45208186702E+02 -0.17396861608E+04  0.17406289755E+04  0.41800000000E+01 0.  1.
         -5    1    4    4    0  502  0.12520202949E+02  0.59184608622E+01 -0.20603942710E+02  0.25174958114E+02  0.41800000000E+01 0.  1.
        -11    1    3    3    0    0 -0.32075190009E+02 -0.23943996669E+02 -0.43881127056E+02  0.59394327189E+02  0.00000000000E+00 0. -1.
         11    1    3    3    0    0 -0.15374076884E+02  0.63233722509E+02 -0.22924413534E+03  0.23830178239E+03  0.00000000000E+00 0.  1.
</event>
<event>
 8    1  0.8061721E-006  0.1475704E+03  0.7561462E-02  0.1203491E+00
         -1   -1    0    0    0  501 -0.00000000000E+00  0.00000000000E+00  0.31608862899E+03  0.31608862899E+03  0.00000000000E+00 0.  1.
          1   -1    0    0  501    0  0.00000000000E+00 -0.00000000000E+00 -0.75019362165E+02  0.75019362165E+02  0.00000000000E+00 0. -1.
         23    2    1    2    0    0 -0.59454321586E+02  0.89541122567E+02  0.12744016147E+03  0.19082665432E+03  0.92851431098E+02 0.  0.
         23    2    1    2    0    0  0.59454321586E+02 -0.89541122567E+02  0.11362910536E+03  0.20028133684E+03  0.12509440961E+03 0.  0.
          5    1    4    4  502    0  0.78963186954E+02 -0.10509010225E+02  0.35286720169E+02  0.87225278504E+02  0.41800000000E+01 0.  1.
         -5    1    4    4    0  502 -0.19508865368E+02 -0.79032112342E+02  0.78342385190E+02  0.11305605834E+03  0.41800000000E+01 0.  1.
        -11    1    3    3    0    0 -0.45945730736E+02  0.27542191485E+01  0.76534045445E+02  0.89308767813E+02  0.00000000000E+00 0.  1.
         11    1    3    3    0    0 -0.13508590849E+02  0.86786903418E+02  0.50906116024E+02  0.10151788650E+03  0.00000000000E+00 0. -1.
</event>
<event>
 8    1  0.8061721E-006  0.1101818E+03  0.7561462E-02  0.1260234E+00
         -2   -1    0    0    0  501 -0.00000000000E+00  0.00000000000E+00  0.56326406570E+02  0.56326406570E+02  0.00000000000E+00 0.  1.
          2   -1    0    0  501    0  0.00000000000E+00 -0.00000000000E+00 -0.27631444841E+03  0.27631444841E+03  0.00000000000E+00 0. -1.
         23    2    1    2    0    0  0.15779942695E+01  0.60779940845E+02 -0.10481629139E+03  0.15206359885E+03  0.91870516924E+02 0.  0.
         23    2    1    2    0    0 -0.15779942695E+01 -0.60779940845E+02 -0.11517175045E+03  0.18057725613E+03  0.12508765748E+03 0.  0.
          5    1    4    4  502    0 -0.25657759603E+02  0.25670036627E+02 -0.27052838569E+01  0.36634169419E+02  0.41800000000E+01 0. -1.
         -5    1    4    4    0  502  0.24079765333E+02 -0.86449977472E+02 -0.11246646659E+03  0.14394308671E+03  0.41800000000E+01 0. -1.
        -11    1    3    3    0    0 -0.35058421842E+02  0.29729000393E+02 -0.11918458826E+02  0.47486377701E+02  0.00000000000E+00 0.  1.
         11    1    3    3    0    0  0.36636416112E+02  0.31050940452E+02 -0.92897832561E+02  0.10457722115E+03  0.00000000000E+00 0. -1.
</event>
<event>
 8    1  0.8061721E-006  0.9064581E+02  0.7561462E-02  0.1301295E+00
          2   -1    0    0  501    0  0.00000000000E+00  0.00000000000E+00  0.37268397315E+03  0.37268397315E+03  0.00000000000E+00 0. -1.
         -2   -1    0    0    0  501 -0.00000000000E+00 -0.00000000000E+00 -0.44141361438E+02  0.44141361438E+02  0.00000000000E+00 0.  1.
         23    2    1    2    0    0 -0.96972994700E+01  0.43325803703E+02  0.62206493840E+02  0.11924777311E+03  0.91538082968E+02 0.  0.
         23    2    1    2    0    0  0.96972994700E+01 -0.43325803703E+02  0.26633611787E+03  0.29757756147E+03  0.12508522905E+03 0.  0.
          5    1    4    4  502    0  0.84193718745E+01 -0.71923375741E+02  0.76012259612E+02  0.10506756784E+03  0.41800000000E+01 0. -1.
         -5    1    4    4    0  502  0.12779275955E+01  0.28597572038E+02  0.19032385826E+03  0.19250999363E+03  0.41800000000E+01 0. -1.
        -11    1    3    3    0    0  0.25272593223E+02  0.15125431714E+01  0.59510335960E+02  0.64672032913E+02  0.00000000000E+00 0. -1.
         11    1    3    3    0    0 -0.34969892693E+02  0.41813260531E+02  0.26961578800E+01  0.54575740201E+02  0.00000000000E+00 0.  1.
</event>
<event>
 8    1  0.8061721E-006  0.1076683E+03  0.7561462E-02  0.1264950E+00
         -1   -1    0    0    0  501 -0.00000000000E+00  0.00000000000E+00  0.41322789150E+02  0.41322789150E+02  0.00000000000E+00 0.  1.
          1   -1    0    0  501    0  0.00000000000E+00 -0.00000000000E+00 -0.34806078351E+03  0.34806078351E+03  0.00000000000E+00 0. -1.
         23    2    1    2    0    0 -0.66063251210E+01 -0.26576063172E+02 -0.66920876279E+02  0.11598807916E+03  0.90691235301E+02 0.  0.
         23    2    1    2    0    0  0.66063251210E+01  0.26576063172E+02 -0.23981711808E+03  0.27339549350E+03  0.12838580558E+03 0.  0.
          5    1    4    4  502    0 -0.31518609289E+02  0.67254014457E+02 -0.15313260659E+03  0.17024568363E+03  0.41800000000E+01 0. -1.
         -5    1    4    4    0  502  0.38124934410E+02 -0.40677951284E+02 -0.86684511492E+02  0.10314980987E+03  0.41800000000E+01 0.  1.
        -11    1    3    3    0    0 -0.42763338815E+02 -0.53127493088E+01 -0.59382216104E+02  0.73370130443E+02  0.00000000000E+00 0.  1.
         11    1    3    3    0    0  0.36157013694E+02 -0.21263313863E+02 -0.75386601751E+01  0.42617948719E+02  0.00000000000E+00 0. -1.
</event>
<event>
 8    1  0.8061721E-006  0.1113982E+03  0.7561462E-02  0.1258002E+00
         -2   -1    0    0    0  501 -0.00000000000E+00  0.00000000000E+00  0.18750546723E+03  0.18750546723E+03  0.00000000000E+00 0. -1.
          2   -1    0    0  501    0  0.00000000000E+00 -0.00000000000E+00 -0.10202985179E+03  0.10202985179E+03  0.00000000000E+00 0.  1.
         23    2    1    2    0    0 -0.47615166056E+02  0.18670206190E+02  0.10846970836E+03  0.15245142453E+03  0.94127459179E+02 0.  0.
         23    2    1    2    0    0  0.47615166056E+02 -0.18670206190E+02 -0.22994092921E+02  0.13708389450E+03  0.12508990840E+03 0.  0.
          5    1    4    4  502    0  0.80285679349E+02 -0.37464297324E+02 -0.37747355547E+02  0.96393460013E+02  0.41800000000E+01 0.  1.
         -5    1    4    4    0  502 -0.32670513293E+02  0.18794091134E+02  0.14753262626E+02  0.40690434484E+02  0.41800000000E+01 0.  1.
        -11    1    3    3    0    0 -0.38266298865E+02 -0.28739581281E+02  0.20457312266E+02  0.52045891155E+02  0.00000000000E+00 0.  1.
         11    1    3    3    0    0 -0.93488671914E+01  0.47409787471E+02  0.88012396094E+02  0.10040553337E+03  0.00000000000E+00 0. -1.
</event>
<event>
 8    1  0.8061721E-006  0.1135503E+03  0.7561462E-02  0.1254133E+00
         -1   -1    0    0    0  501 -0.00000000000E+00  0.00000000000E+00  0.53656912916E+03  0.53656912916E+03  0.00000000000E+00 0.  1.
          1   -1    0    0  501    0  0.00000000000E+00 -0.00000000000E+00 -0.37185039194E+02  0.37185039194E+02  0.00000000000E+00 0. -1.
         23    2    1    2    0    0  0.52430119454E+01  0.81604906210E+02  0.32853899344E+03  0.34676592225E+03  0.74979228657E+02 0.  0.
         23    2    1    2    0    0 -0.52430119454E+01 -0.81604906210E+02  0.17084509653E+03  0.22698824611E+03  0.12509503176E+03 0.  0.
          5    1    4    4  502    0  0.47296822131E+01  0.31287711451E+02  0.17934956220E+02  0.36611826454E+02  0.41800000000E+01 0. -1.
         -5    1    4    4    0  502 -0.99726941585E+01 -0.11289261766E+03  0.15291014031E+03  0.19037641965E+03  0.41800000000E+01 0. -1.
        -11    1    3    3    0    0  0.42684652421E+01  0.67367166959E+02  0.32517010395E+03  0.33210262192E+03  0.00000000000E+00 0.  1.
         11    1    3    3    0    0  0.97454670327E+00  0.14237739251E+02  0.33688894890E+01  0.14663300332E+02  0.00000000000E+00 0. -1.
</event>
<event>
 8    1  0.8061721E-006  0.1723993E+03  0.7561462E-02  0.1175369E+00
          2   -1    0    0  501    0  0.00000000000E+00  0.00000000000E+00  0.38065363663E+03  0.38065363663E+03  0.00000000000E+00 0. -1.
         -2   -1    0    0    0  501 -0.00000000000E+00 -0.00000000000E+00 -0.10917103231E+03  0.10917103231E+03  0.00000000000E+00 0.  1.
         23    2    1    2    0    0  0.13762635715E+03 -0.89369249739E+02  0.18065831852E+03  0.26438247244E+03  0.10165031580E+03 0.  0.
         23    2    1    2    0    0 -0.13762635715E+03  0.89369249739E+02  0.90824285805E+02  0.22544219650E+03  0.12508899267E+03 0.  0.
          5    1    4    4  502    0 -0.79272440356E+02  0.62361227854E+02  0.11819205917E+03  0.15543448070E+03  0.41800000000E+01 0. -1.
         -5    1    4    4    0  502 -0.58353916797E+02  0.27008021884E+02 -0.27367773370E+02  0.70007715795E+02  0.41800000000E+01 0. -1.
        -11    1    3    3    0    0  0.10274921635E+03 -0.24294819973E+02  0.15224301788E+03  0.18527162824E+03  0.00000000000E+00 0. -1.
         11    1    3    3    0    0  0.34877140802E+02 -0.65074429766E+02  0.28415300644E+02  0.79110844203E+02  0.00000000000E+00 0.  1.
</event>
<event>
 8    1  0.8061721E-006  0.1675336E+03  0.7561462E-02  0.1180445E+00
          2   -1    0    0  501    0  0.00000000000E+00  0.00000000000E+00  0.17720807965E+04  0.17720807965E+04  0.00000000000E+00 0. -1.
         -2   -1    0    0    0  501 -0.00000000000E+00 -0.00000000000E+00 -0.19374771237E+02  0.19374771237E+02  0.00000000000E+00 0.  1.
         23    2    1    2    0    0  0.50628882999E+02 -0.12988512084E+03  0.55660798219E+03  0.58078168348E+03  0.89785798558E+02 0.  0.
         23    2    1    2    0    0 -0.50628882999E+02  0.12988512084E+03  0.11960980430E+04  0.12106738842E+04  0.12508915605E+03 0.  0.
          5    1    4    4  502    0  0.21067279738E+02  0.93923869372E+02  0.44601809864E+03  0.45630597216E+03  0.41800000000E+01 0.  1.
         -5    1    4    4    0  502 -0.71696162736E+02  0.35961251464E+02  0.75007994440E+03  0.75436791206E+03  0.41800000000E+01 0.  1.
        -11    1    3    3    0    0  0.12235858893E+02 -0.11738916452E+03  0.32692981677E+03  0.34758169872E+03  0.00000000000E+00 0.  1.
         11    1    3    3    0    0  0.38393024105E+02 -0.12495956318E+02  0.22967816542E+03  0.23319998477E+03  0.00000000000E+00 0. -1.
</event>
<event>
 8    1  0.8061721E-006  0.1204700E+03  0.7561462E-02  0.1242324E+00
          1   -1    0    0  501    0  0.00000000000E+00  0.00000000000E+00  0.75304088391E+03  0.75304088391E+03  0.00000000000E+00 0. -1.
         -1   -1    0    0    0  501 -0.00000000000E+00 -0.00000000000E+00 -0.21910856681E+02  0.21910856681E+02  0.00000000000E+00 0.  1.
         23    2    1    2    0    0  0.20959959954E+02 -0.70956987931E+02  0.33875270424E+03  0.35652500050E+03  0.82960637030E+02 0.  0.
         23    2    1    2    0    0 -0.20959959954E+02  0.70956987931E+02  0.39237732299E+03  0.41842674009E+03  0.12508700639E+03 0.  0.
          5    1    4    4  502    0 -0.62351710430E+02 -0.59092153668E+00  0.17537222510E+03  0.18617458129E+03  0.41800000000E+01 0. -1.
         -5    1    4    4    0  502  0.41391750476E+02  0.71547909468E+02  0.21700509788E+03  0.23225215879E+03  0.41800000000E+01 0. -1.
        -11    1    3    3    0    0 -0.55582034591E+01  0.94782997662E+01  0.47832514357E+01  0.11983792657E+02  0.00000000000E+00 0.  1.
         11    1    3    3    0    0  0.26518163413E+02 -0.80435287697E+02  0.33396945281E+03  0.34454120785E+03  0.00000000000E+00 0. -1.
</event>
<event>
 8    1  0.8061721E-006  0.2127684E+03  0.7561462E-02  0.1139392E+00
          1   -1    0    0  501    0  0.00000000000E+00  0.00000000000E+00  0.22387040948E+03  0.22387040948E+03  0.00000000000E+00 0. -1.
         -1   -1    0    0    0  501 -0.00000000000E+00 -0.00000000000E+00 -0.24200939238E+03  0.24200939238E+03  0.00000000000E+00 0.  1.
         23    2    1    2    0    0  0.17210689364E+03 -0.10864196918E+03 -0.43095015909E+02  0.22568981673E+03  0.87492014914E+02 0.  0.
         23    2    1    2    0    0 -0.17210689364E+03  0.10864196918E+03  0.24956033003E+02  0.24018998513E+03  0.12507823580E+03 0.  0.
          5    1    4    4  502    0 -0.10242779635E+03  0.73804939917E+02 -0.46296249286E+02  0.13453415076E+03  0.41800000000E+01 0. -1.
         -5    1    4    4    0  502 -0.69679097282E+02  0.34837029266E+02  0.71252282289E+02  0.10565583438E+03  0.41800000000E+01 0. -1.
        -11    1    3    3    0    0  0.33209812926E+02  0.13877835227E+02 -0.11622002918E+02  0.37822703989E+02  0.00000000000E+00 0. -1.
         11    1    3    3    0    0  0.13889708071E+03 -0.12251980441E+03 -0.31473012991E+02  0.18786711274E+03  0.00000000000E+00 0.  1.
</event>
<event>
 8    1  0.8061721E-006  0.8767263E+02  0.7561462E-02  0.1308588E+00
          1   -1    0    0  501    0  0.00000000000E+00  0.00000000000E+00  0.32184655113E+02  0.32184655113E+02  0.00000000000E+00 0. -1.
         -1   -1    0    0    0  501 -0.00000000000E+00 -0.00000000000E+00 -0.42436197945E+03  0.42436197945E+03  0.00000000000E+00 0.  1.
         23    2    1    2    0    0 -0.31032805712E+02 -0.29330292395E+02 -0.19322163524E+03  0.21768516705E+03  0.90713452938E+02 0.  0.
         23    2    1    2    0    0  0.31032805712E+02  0.29330292395E+02 -0.19895568909E+03  0.23886146751E+03  0.12509249921E+03 0.  0.
          5    1    4    4  502    0  0.20106035796E+02 -0.29101443016E+02 -0.16795228198E+03  0.17168747212E+03  0.41800000000E+01 0. -1.
         -5    1    4    4    0  502  0.10926769916E+02  0.58431735412E+02 -0.31003407105E+02  0.67173995386E+02  0.41800000000E+01 0. -1.
        -11    1    3    3    0    0  0.21725933362E+02 -0.10370208519E+02 -0.13396599795E+03  0.13611188784E+03  0.00000000000E+00 0.  1.
         11    1    3    3    0    0 -0.52758739074E+02 -0.18960083876E+02 -0.59255637293E+02  0.81573279205E+02  0.00000000000E+00 0. -1.
</event>
<event>
 8    1  0.8061721E-006  0.8281139E+02  0.7561462E-02  0.1321257E+00
         -1   -1    0    0    0  501 -0.00000000000E+00  0.00000000000E+00  0.34905955634E+02  0.34905955634E+02  0.00000000000E+00 0.  1.
          1   -1    0    0  501    0  0.00000000000E+00 -0.00000000000E+00 -0.42288214982E+03  0.42288214982E+03  0.00000000000E+00 0. -1.
         23    2    1    2    0    0  0.32136817603E+02  0.25830243115E+02 -0.97604285104E+02  0.13894531023E+03  0.89884516243E+02 0.  0.
         23    2    1    2    0    0 -0.32136817603E+02 -0.25830243115E+02 -0.29037190908E+03  0.31884279522E+03  0.12507959856E+03 0.  0.
          5    1    4    4  502    0 -0.28128909626E+02 -0.47530789885E+02 -0.42138876191E+02  0.69595752963E+02  0.41800000000E+01 0.  1.
         -5    1    4    4    0  502 -0.40079079775E+01  0.21700546770E+02 -0.24823303289E+03  0.24924704225E+03  0.41800000000E+01 0.  1.
        -11    1    3    3    0    0  0.43945471263E+02  0.46493188766E+02 -0.37159805072E+02  0.73984269673E+02  0.00000000000E+00 0.  1.
         11    1    3    3    0    0 -0.11808653660E+02 -0.20662945651E+02 -0.60444480033E+02  0.64961040560E+02  0.00000000000E+00 0. -1.
</event>
<event>
 8    1  0.8061721E-006  0.8205171E+02  0.7561462E-02  0.1323328E+00
          1   -1    0    0  501    0  0.00000000000E+00  0.00000000000E+00  0.10165891464E+04  0.10165891464E+04  0.00000000000E+00 0. -1.
         -1   -1    0    0    0  501 -0.00000000000E+00 -0.00000000000E+00 -0.21276148705E+02  0.21276148705E+02  0.00000000000E+00 0.  1.
         23    2    1    2    0    0  0.43983478246E+01  0.46102902573E+01  0.10247758485E+03  0.13628734853E+03  0.89621346408E+02 0.  0.
         23    2    1    2    0    0 -0.43983478246E+01 -0.46102902573E+01  0.89283541281E+03  0.90157794654E+03  0.12508844505E+03 0.  0.
          5    1    4    4  502    0  0.25137071597E+02  0.23941554041E+02  0.75534620297E+02  0.83234738191E+02  0.41800000000E+01 0.  1.
         -5    1    4    4    0  502 -0.29535419421E+02 -0.28551844298E+02  0.81730079251E+03  0.81834320835E+03  0.41800000000E+01 0.  1.
        -11    1    3    3    0    0  0.19299491657E+02  0.42747196408E+02  0.40290777348E+02  0.61831544686E+02  0.00000000000E+00 0.  1.
         11    1    3    3    0    0 -0.14901143833E+02 -0.38136906150E+02  0.62186807504E+02  0.74455803842E+02  0.00000000000E+00 0. -1.
</event>
<event>
 7    1  0.8061721E-006  0.9104790E+02  0.7561462E-02  0.1300334E+00
          2   -1    0    0  501    0  0.00000000000E+00  0.00000000000E+00  0.14329451413E+03  0.14329451413E+03  0.00000000000E+00 0. -1.
         -2   -1    0    0    0  501 -0.00000000000E+00 -0.00000000000E+00 -0.16016473525E+03  0.16016473525E+03  0.00000000000E+00 0.  1.
         23    2    1    2    0    0 -0.11851755494E+02  0.10210885952E+02 -0.11035648210E+03  0.13749089893E+03  0.80501353086E+02 0.  0.
          5    1    1    2  502    0  0.64163726089E+02  0.10886208877E+02  0.11279058841E+02  0.66182949902E+02  0.41800000000E+01 0. -1.
         -5    1    1    2    0  502 -0.52311970595E+02 -0.21097094829E+02  0.82207202142E+02  0.99785400544E+02  0.41800000000E+01 0.  1.
        -11    1    3    3    0    0 -0.25170152628E+02  0.28289298110E+02 -0.10854870251E+03  0.11496365420E+03  0.00000000000E+00 0. -1.
         11    1    3    3    0    0  0.13318397134E+02 -0.18078412158E+02 -0.18077795915E+01  0.22527244736E+02  0.00000000000E+00 0.  1.
</event>
<event>
 8    1  0.8061721E-006  0.8595506E+02  0.7561462E-02  0.1312954E+00
          1   -1    0    0  501    0  0.00000000000E+00  0.00000000000E+00  0.17122465681E+03  0.17122465681E+03  0.00000000000E+00 0. -1.
         -1   -1    0    0    0  501 -0.00000000000E+00 -0.00000000000E+00 -0.80803669265E+02  0.80803669265E+02  0.00000000000E+00 0.  1.
         23    2    1    2    0    0 -0.41361721946E+02  0.26889399652E+02  0.23765190660E+02  0.10195088872E+03  0.85996322991E+02 0.  0.
         23    2    1    2    0    0  0.41361721946E+02 -0.26889399652E+02  0.66655796883E+02  0.15007743735E+03  0.12508561104E+03 0.  0.
          5    1    4    4  502    0 -0.10738133440E+02 -0.56172775774E+02 -0.39501628121E+01  0.57478382320E+02  0.41800000000E+01 0.  1.
         -5    1    4    4    0  502  0.52099855386E+02  0.29283376122E+02  0.70605959695E+02  0.92599055032E+02  0.41800000000E+01 0.  1.
        -11    1    3    3    0    0 -0.19865477481E+01  0.12619607956E+02 -0.30696007239E+02  0.33248244124E+02  0.00000000000E+00 0.  1.
         11    1    3    3    0    0 -0.39375174197E+02  0.14269791696E+02  0.54461197899E+02  0.68702644598E+02  0.00000000000E+00 0. -1.
</event>
<event>
 8    1  0.8061721E-006  0.1075120E+03  0.7561462E-02  0.1265248E+00
         -2   -1    0    0    0  501 -0.00000000000E+00  0.00000000000E+00  0.15014796728E+02  0.15014796728E+02  0.00000000000E+00 0.  1.
          2   -1    0    0  501    0  0.00000000000E+00 -0.00000000000E+00 -0.11323620538E+04  0.11323620538E+04  0.00000000000E+00 0. -1.
         23    2    1    2    0    0 -0.45032800306E+02 -0.32042061354E+02 -0.24185555386E+03  0.26126949351E+03  0.81932853645E+02 0.  0.
         23    2    1    2    0    0  0.45032800306E+02  0.32042061354E+02 -0.87549170322E+03  0.88610735703E+03  0.12508348800E+03 0.  0.
          5    1    4    4  502    0  0.63457097535E+02  0.69830382298E+02 -0.59335029405E+03  0.60082038029E+03  0.41800000000E+01 0.  1.
         -5    1    4    4    0  502 -0.18424297229E+02 -0.37788320944E+02 -0.28214140917E+03  0.28528697674E+03  0.41800000000E+01 0.  1.
        -11    1    3    3    0    0 -0.15609869610E+02  0.15768866399E+02 -0.13188525417E+02  0.25812058799E+02  0.00000000000E+00 0.  1.
         11    1    3    3    0    0 -0.29422930696E+02 -0.47810927753E+02 -0.22866702844E+03  0.23545743471E+03  0.00000000000E+00 0. -1.
</event>
<event>
 8    1  0.8061721E-006  0.9310232E+02  0.7561462E-02  0.1295508E+00
          1   -1    0    0  501    0  0.00000000000E+00  0.00000000000E+00  0.84209569809E+03  0.84209569809E+03  0.00000000000E+00 0. -1.
         -1   -1    0    0    0  501 -0.00000000000E+00 -0.00000000000E+00 -0.20240057207E+02  0.20240057207E+02  0.00000000000E+00 0.  1.
         23    2    1    2    0    0 -0.40408039151E+01 -0.15577441812E+02  0.12529791701E+03  0.15445214021E+03  0.88864564465E+02 0.  0.
         23    2    1    2    0    0  0.40408039151E+01  0.15577441812E+02  0.69655772387E+03  0.70788361509E+03  0.12509022758E+03 0.  0.
          5    1    4    4  502    0 -0.32765858534E+02  0.49993735136E+02  0.20068325379E+03  0.20943785663E+03  0.41800000000E+01 0.  1.
         -5    1    4    4    0  502  0.36806662449E+02 -0.34416293324E+02  0.49587447008E+03  0.49844575845E+03  0.41800000000E+01 0.  1.
        -11    1    3    3    0    0 -0.33736066394E+01 -0.45582999456E+02  0.30331830957E+02  0.54856276126E+02  0.00000000000E+00 0.  1.
         11    1    3    3    0    0 -0.66719727565E+00  0.30005557644E+02  0.94966086052E+02  0.99595864079E+02  0.00000000000E+00 0. -1.
</event>
<event>
 7    1  0.8061721E-006  0.1094514E+03  0.7561462E-02  0.1261589E+00
          2   -1    0    0  501    0  0.00000000000E+00  0.00000000000E+00  0.12430505930E+04  0.12430505930E+04  0.00000000000E+00 0. -1.
         -2   -1    0    0    0  501 -0.00000000000E+00 -0.00000000000E+00 -0.11892149811E+02  0.11892149811E+02  0.00000000000E+00 0.  1.
         23    2    1    2    0    0 -0.38549210170E+01  0.30552219360E+02  0.35266170340E+03  0.36558967487E+03  0.91308459631E+02 0.  0.
          5    1    1    2  502    0 -0.37331002284E+02 -0.61777980416E+02  0.69247688857E+03  0.69624121984E+03  0.41800000000E+01 0. -1.
         -5    1    1    2    0  502  0.41185923301E+02  0.31225761056E+02  0.18601985120E+03  0.19311184809E+03  0.41800000000E+01 0.  1.
        -11    1    3    3    0    0  0.92115087073E+01  0.60959348646E+02  0.25953247975E+03  0.26675457283E+03  0.00000000000E+00 0.  1.
         11    1    3    3    0    0 -0.13066429724E+02 -0.30407129286E+02  0.93129223656E+02  0.98835102044E+02  0.00000000000E+00 0. -1.
</event>
<event>
 8    1  0.8061721E-006  0.7397157E+02  0.7561462E-02  0.1347086E+00
          2   -1    0    0  501    0  0.00000000000E+00  0.00000000000E+00  0.12833124914E+04  0.12833124914E+04  0.00000000000E+00 0. -1.
         -2   -1    0    0    0  501 -0.00000000000E+00 -0.00000000000E+00 -0.17548544218E+02  0.17548544218E+02  0.00000000000E+00 0.  1.
         23    2    1    2    0    0 -0.42673208294E+02  0.83861934328E+01  0.17513376621E+03  0.20222031148E+03  0.91268216602E+02 0.  0.
         23    2    1    2    0    0  0.42673208294E+02 -0.83861934328E+01  0.10906301810E+04  0.10986407241E+04  0.12508364459E+03 0.  0.
          5    1    4    4  502    0  0.24046764518E+02  0.23117324138E+02  0.10032566478E+04  0.10038197205E+04  0.41800000000E+01 0. -1.
         -5    1    4    4    0  502  0.18626443775E+02 -0.31503517571E+02  0.87373533146E+02  0.94821003588E+02  0.41800000000E+01 0. -1.
        -11    1    3    3    0    0 -0.49254123736E+02 -0.16347041027E+02  0.42322822045E+02  0.66965780226E+02  0.00000000000E+00 0.  1.
         11    1    3    3    0    0  0.65809154422E+01  0.24733234460E+02  0.13281094416E+03  0.13525453125E+03  0.00000000000E+00 0. -1.
</event>
<event>
 8    1  0.8061721E-006  0.1094452E+03  0.7561462E-02  0.1261601E+00
          1   -1    0    0  501    0  0.00000000000E+00  0.00000000000E+00  0.98822225339E+03  0.98822225339E+03  0.00000000000E+00 0. -1.
         -1   -1    0    0    0  501 -0.00000000000E+00 -0.00000000000E+00 -0.25051805702E+02  0.25051805702E+02  0.00000000000E+00 0.  1.
         23    2    1    2    0    0  0.63133173965E+02  0.63768561149E+02  0.21191759100E+03  0.24755181417E+03  0.91217368284E+02 0.  0.
         23    2    1    2    0    0 -0.63133173965E+02 -0.63768561149E+02  0.75125285669E+03  0.76572224492E+03  0.11788755085E+03 0.  0.
          5    1    4    4  502    0 -0.74899223030E+02 -0.78033443728E+02  0.41334148022E+03  0.42727949122E+03  0.41800000000E+01 0. -1.
         -5    1    4    4    0  502  0.11766049065E+02  0.14264882579E+02  0.33791137647E+03  0.33844275370E+03  0.41800000000E+01 0.  1.
        -11    1    3    3    0    0  0.20315775089E+02  0.33766570934E+02  0.18421649160E+03  0.18838425573E+03  0.00000000000E+00 0. -1.
         11    1    3    3    0    0  0.42817398876E+02  0.30001990215E+02  0.27701099400E+02  0.59167558436E+02  0.00000000000E+00 0.  1.
</event>
<event>
 8    1  0.8061721E-006  0.1844638E+03  0.7561462E-02  0.1163552E+00
         -2   -1    0    0    0  501 -0.00000000000E+00  0.00000000000E+00  0.33554256531E+02  0.33554256531E+02  0.00000000000E+00 0.  1.
          2   -1    0    0  501    0  0.00000000000E+00 -0.00000000000E+00 -0.12442475466E+04  0.12442475466E+04  0.00000000000E+00 0. -1.
         23    2    1    2    0    0  0.37558060370E+02  0.15063774853E+03 -0.33552193974E+03  0.38020731974E+03  0.88771024302E+02 0.  0.
         23    2    1    2    0    0 -0.37558060370E+02 -0.15063774853E+03 -0.87517135028E+03  0.89759448334E+03  0.12509446427E+03 0.  0.
          5    1    4    4  502    0 -0.44358598788E+02 -0.56543294278E+01 -0.11085139695E+03  0.11960418611E+03  0.41800000000E+01 0.  1.
         -5    1    4    4    0  502  0.68005384181E+01 -0.14498341910E+03 -0.76431995333E+03  0.77799029724E+03  0.41800000000E+01 0.  1.
        -11    1    3    3    0    0 -0.14722499138E+01  0.13767899278E+03 -0.25567155546E+03  0.29038873402E+03  0.00000000000E+00 0. -1.
         11    1    3    3    0    0  0.39030310283E+02  0.12958755749E+02 -0.79850384279E+02  0.89818585721E+02  0.00000000000E+00 0.  1.
</event>
<event>
 8    1  0.8135779E-006  0.1501412E+03  0.7561462E-02  0.1200300E+00
         -2   -1    0    0    0  501 -0.00000000000E+00  0.00000000000E+00  0.97593387300E+02  0.97593387300E+02  0.00000000000E+00 0.  1.
          2   -1    0    0  501    0  0.00000000000E+00 -0.00000000000E+00 -0.31072747563E+03  0.31072747563E+03  0.00000000000E+00 0. -1.
         23    2    1    2    0    0  0.60845955666E+02 -0.13132882083E+03 -0.96880697286E+02  0.18446453778E+03  0.60760239378E+02 0.  0.
         23    2    1    2    0    0 -0.60845955666E+02  0.13132882083E+03 -0.11625339105E+03  0.22385632516E+03  0.12508922368E+03 0.  0.
          5    1    4    4  502    0 -0.38114180129E+02  0.65883151955E+02  0.12825948546E+02  0.77299791685E+02  0.41800000000E+01 0. -1.
         -5    1    4    4    0  502 -0.22731775537E+02  0.65445668874E+02 -0.12907933959E+03  0.14655653347E+03  0.41800000000E+01 0. -1.
        -11    1    3    3    0    0  0.44293774277E+02 -0.13078927890E+03 -0.95403066762E+02  0.16783777603E+03  0.00000000000E+00 0.  1.
         11    1    3    3    0    0  0.16552181389E+02 -0.53954192845E+00 -0.14776305239E+01  0.16626761747E+02  0.00000000000E+00 0. -1.
</event>
<event>
 8    1  0.8061721E-006  0.8569998E+02  0.7561462E-02  0.1313612E+00
         -2   -1    0    0    0  501 -0.00000000000E+00  0.00000000000E+00  0.34756769324E+02  0.34756769324E+02  0.00000000000E+00 0.  1.
          2   -1    0    0  501    0  0.00000000000E+00 -0.00000000000E+00 -0.39962150460E+03  0.39962150460E+03  0.00000000000E+00 0. -1.
         23    2    1    2    0    0  0.35866066859E+02 -0.24312077265E+01 -0.10505962876E+03  0.14379609872E+03  0.91364691690E+02 0.  0.
         23    2    1    2    0    0 -0.35866066859E+02  0.24312077265E+01 -0.25980510651E+03  0.29058217521E+03  0.12508805560E+03 0.  0.
          5    1    4    4  502    0  0.21292393269E+02 -0.19587518236E+02 -0.65041069629E+01  0.29946831036E+02  0.41800000000E+01 0. -1.
         -5    1    4    4    0  502 -0.57158460128E+02  0.22018725962E+02 -0.25330099955E+03  0.26063534417E+03  0.41800000000E+01 0. -1.
        -11    1    3    3    0    0  0.34132169937E+02  0.31709105004E+02 -0.17442495631E+02  0.49746487500E+02  0.00000000000E+00 0.  1.
         11    1    3    3    0    0  0.17338969221E+01 -0.34140312731E+02 -0.87617133132E+02  0.94049611218E+02  0.00000000000E+00 0. -1.
</event>
<event>
 8    1  0.8061721E-006  0.9683413E+02  0.7561462E-02  0.1287098E+00
         -2   -1    0    0    0  501 -0.00000000000E+00  0.00000000000E+00  0.31097072388E+02  0.31097072388E+02  0.00000000000E+00 0.  1.
          2   -1    0    0  501    0  0.00000000000E+00 -0.00000000000E+00 -0.52168305176E+03  0.52168305176E+03  0.00000000000E+00 0. -1.
         23    2    1    2    0    0  0.15186226701E+02  0.26387231158E+02 -0.88685569967E+02  0.13070772448E+03  0.91063008239E+02 0.  0.
         23    2    1    2    0    0 -0.15186226701E+02 -0.26387231158E+02 -0.40190040941E+03  0.42207239967E+03  0.12527674976E+03 0.  0.
          5    1    4    4  502    0  0.42328821555E+02  0.49981656284E+01 -0.28324170497E+03  0.28646124803E+03  0.41800000000E+01 0. -1.
         -5    1    4    4    0  502 -0.57515048256E+02 -0.31385396787E+02 -0.11865870444E+03  0.13561115164E+03  0.41800000000E+01 0. -1.
        -11    1    3    3    0    0  0.22360600877E+02 -0.24861614876E+02 -0.72401756271E+01  0.34212812058E+02  0.00000000000E+00 0.  1.
         11    1    3    3    0    0 -0.71743741757E+01  0.51248846034E+02 -0.81445394340E+02  0.96494912424E+02  0.00000000000E+00 0. -1.
</event>
<event>
 8    1  0.8061721E-006  0.8916449E+02  0.7561462E-02  0.1304888E+00
         -1   -1    0    0    0  501 -0.00000000000E+00  0.00000000000E+00  0.83345936120E+02  0.83345936120E+02  0.00000000000E+00 0.  1.
          1   -1    0    0  501    0  0.00000000000E+00 -0.00000000000E+00 -0.18274095951E+03  0.18274095951E+03  0.00000000000E+00 0. -1.
         23    2    1    2    0    0  0.35760665072E+01  0.55678184582E+02 -0.36176191287E+02  0.11523033293E+03  0.94108789821E+02 0.  0.
         23    2    1    2    0    0 -0.35760665072E+01 -0.55678184582E+02 -0.63218832101E+02  0.15085656270E+03  0.12509289862E+03 0.  0.
          5    1    4    4  502    0 -0.17616317116E+02 -0.50072251617E+02  0.26710776589E+02  0.59569312542E+02  0.41800000000E+01 0. -1.
         -5    1    4    4    0  502  0.14040250609E+02 -0.56059329649E+01 -0.89929608690E+02  0.91287250154E+02  0.41800000000E+01 0. -1.
        -11    1    3    3    0    0  0.26416373080E+01  0.82509148499E+02 -0.26791204265E+02  0.86790013594E+02  0.00000000000E+00 0.  1.
         11    1    3    3    0    0  0.93442919921E+00 -0.26830963917E+02 -0.93849870226E+01  0.28440319338E+02  0.00000000000E+00 0. -1.
</event>
<event>
 8    1  0.8061721E-006  0.1336189E+03  0.7561462E-02  0.1222183E+00
         -1   -1    0    0    0  501 -0.00000000000E+00  0.00000000000E+00  0.82774300370E+02  0.82774300370E+02  0.00000000000E+00 0.  1.
          1   -1    0    0  501    0  0.00000000000E+00 -0.00000000000E+00 -0.23978357853E+03  0.23978357853E+03  0.00000000000E+00 0. -1.
         23    2    1    2    0    0 -0.22359437182E+02 -0.84500381639E+02 -0.41243548490E+02  0.13101316409E+03  0.88448628848E+02 0.  0.
         23    2    1    2    0    0  0.22359437182E+02  0.84500381639E+02 -0.11576572967E+03  0.19154471481E+03  0.12508962657E+03 0.  0.
          5    1    4    4  502    0  0.64166443004E+02  0.83635638686E+02 -0.58869386441E+02  0.12081113163E+03  0.41800000000E+01 0. -1.
         -5    1    4    4    0  502 -0.41807005822E+02  0.86474295303E+00 -0.56896343228E+02  0.70733583176E+02  0.41800000000E+01 0. -1.
        -11    1    3    3    0    0  0.25798427066E+02 -0.42809118462E+01  0.50311106188E+01  0.26630755141E+02  0.00000000000E+00 0. -1.
         11    1    3    3    0    0 -0.48157864248E+02 -0.80219469793E+02 -0.46274659109E+02  0.10438240895E+03  0.00000000000E+00 0.  1.
</event>
<event>
 8    1  0.8061721E-006  0.1045242E+03  0.7561462E-02  0.1271060E+00
          2   -1    0    0  501    0  0.00000000000E+00  0.00000000000E+00  0.33394996757E+03  0.33394996757E+03  0.00000000000E+00 0.  1.
         -2   -1    0    0    0  501 -0.00000000000E+00 -0.00000000000E+00 -0.97006128272E+02  0.97006128272E+02  0.00000000000E+00 0. -1.
         23    2    1    2    0    0  0.86477349202E+01  0.83405292689E+02 -0.26545389129E+02  0.12747042818E+03  0.92264978239E+02 0.  0.
         23    2    1    2    0    0 -0.86477349202E+01 -0.83405292689E+02  0.26348922843E+03  0.30348566766E+03  0.12508297570E+03 0.  0.
          5    1    4    4  502    0 -0.89997595660E+01 -0.71034882277E+02  0.45141834551E+02  0.84747907343E+02  0.41800000000E+01 0. -1.
         -5    1    4    4    0  502  0.35202464586E+00 -0.12370410412E+02  0.21834739388E+03  0.21873776032E+03  0.41800000000E+01 0. -1.
        -11    1    3    3    0    0  0.44904102669E+02  0.74404402758E+02 -0.23294181375E+02  0.89972287246E+02  0.00000000000E+00 0. -1.
         11    1    3    3    0    0 -0.36256367749E+02  0.90008899308E+01 -0.32512077542E+01  0.37498140938E+02  0.00000000000E+00 0.  1.
</event>
<event>
 8    1  0.8061721E-006  0.1076699E+03  0.7561462E-02  0.1264947E+00
          2   -1    0    0  501    0  0.00000000000E+00  0.00000000000E+00  0.12493795564E+04  0.12493795564E+04  0.00000000000E+00 0. -1.
         -2   -1    0    0    0  501 -0.00000000000E+00 -0.00000000000E+00 -0.13131088702E+02  0.13131088702E+02  0.00000000000E+00 0.  1.
         23    2    1    2    0    0  0.65225169250E+02 -0.12593294912E+02  0.53196777894E+03  0.54412135489E+03  0.93088222858E+02 0.  0.
         23    2    1    2    0    0 -0.65225169250E+02  0.12593294912E+02  0.70428068876E+03  0.71838929021E+03  0.12513580605E+03 0.  0.
          5    1    4    4  502    0 -0.78333358674E+02 -0.60777696669E+01  0.68099090991E+03  0.68552107637E+03  0.41800000000E+01 0.  1.
         -5    1    4    4    0  502  0.13108189424E+02  0.18671064579E+02  0.23289778842E+02  0.32868213839E+02  0.41800000000E+01 0.  1.
        -11    1    3    3    0    0  0.42201239145E+02  0.38689913934E+02  0.30232008480E+03  0.30769349636E+03  0.00000000000E+00 0. -1.
         11    1    3    3    0    0  0.23023930104E+02 -0.51283208846E+02  0.22964769414E+03  0.23642785853E+03  0.00000000000E+00 0.  1.
</event>
<event>
 8    1  0.8061721E-006  0.1100235E+03  0.7561462E-02  0.1260526E+00
         -2   -1    0    0    0  501 -0.00000000000E+00  0.00000000000E+00  0.26929575930E+02  0.26929575930E+02  0.00000000000E+00 0. -1.
          2   -1    0    0  501    0  0.00000000000E+00 -0.00000000000E+00 -0.10618482486E+04  0.10618482486E+04  0.00000000000E+00 0.  1.
         23    2    1    2    0    0 -0.21208556077E+02  0.90407109717E+02 -0.19593157910E+03  0.23544931390E+03  0.91782064654E+02 0.  0.
         23    2    1    2    0    0  0.21208556077E+02 -0.90407109717E+02 -0.83898709359E+03  0.85332851064E+03  0.12508779127E+03 0.  0.
          5    1    4    4  502    0 -0.28272015793E+02 -0.14088328936E+02 -0.53624182197E+03  0.53718763195E+03  0.41800000000E+01 0.  1.
         -5    1    4    4    0  502  0.49480571869E+02 -0.76318780781E+02 -0.30274527161E+03  0.31614087868E+03  0.41800000000E+01 0.  1.
        -11    1    3    3    0    0 -0.22369653443E+02  0.33912192489E+02 -0.11015971585E+02  0.42092633851E+02  0.00000000000E+00 0. -1.
         11    1    3    3    0    0  0.11610973661E+01  0.56494917228E+02 -0.18491560751E+03  0.19335668005E+03  0.00000000000E+00 0.  1.
</event>
<event>
 8    1  0.8061721E-006  0.8634985E+02  0.7561462E-02  0.1311940E+00
         -1   -1    0    0    0  501 -0.00000000000E+00  0.00000000000E+00  0.41294877947E+03  0.41294877947E+03  0.00000000000E+00 0.  1.
          1   -1    0    0  501    0  0.00000000000E+00 -0.00000000000E+00 -0.30679288364E+02  0.30679288364E+02  0.00000000000E+00 0. -1.
         23    2    1    2    0    0  0.36432076084E+02  0.13384990702E+02  0.22687716894E+03  0.24040405536E+03  0.69385920085E+02 0.  0.
         23    2    1    2    0    0 -0.36432076084E+02 -0.13384990702E+02  0.15539232217E+03  0.20322401247E+03  0.12508705494E+03 0.  0.
          5    1    4    4  502    0  0.17068289331E+02  0.25510983979E+02  0.12768399599E+03  0.13138802090E+03  0.41800000000E+01 0. -1.
         -5    1    4    4    0  502 -0.53500365415E+02 -0.38895974680E+02  0.27708326184E+02  0.71835991576E+02  0.41800000000E+01 0. -1.
        -11    1    3    3    0    0  0.36246813912E+02  0.37019374081E+02  0.18704185863E+03  0.19408483315E+03  0.00000000000E+00 0.  1.
         11    1    3    3    0    0  0.18526217213E+00 -0.23634383380E+02  0.39835310305E+02  0.46319222218E+02  0.00000000000E+00 0. -1.
</event>
<event>
 8    1  0.8061721E-006  0.6160541E+02  0.7561462E-02  0.1391215E+00
          2   -1    0    0  501    0  0.00000000000E+00  0.00000000000E+00  0.23247559351E+03  0.23247559351E+03  0.00000000000E+00 0. -1.
         -2   -1    0    0    0  501 -0.00000000000E+00 -0.00000000000E+00 -0.61744700954E+02  0.61744700954E+02  0.00000000000E+00 0.  1.
         23    2    1    2    0    0  0.12877775439E+02  0.50538840538E+01 -0.63363985684E+00  0.86852764590E+02  0.85741602348E+02 0.  0.
         23    2    1    2    0    0 -0.12877775439E+02 -0.50538840538E+01  0.17136453241E+03  0.20736752987E+03  0.11594874140E+03 0.  0.
          5    1    4    4  502    0  0.25600763098E+01 -0.19920372733E+02  0.18194871578E+03  0.18310156420E+03  0.41800000000E+01 0. -1.
         -5    1    4    4    0  502 -0.15437851749E+02  0.14866488680E+02 -0.10584183368E+02  0.24265965669E+02  0.41800000000E+01 0.  1.
        -11    1    3    3    0    0 -0.64189576624E+01 -0.35433083537E+02  0.15479237298E+02  0.39195831586E+02  0.00000000000E+00 0. -1.
         11    1    3    3    0    0  0.19296733101E+02  0.40486967591E+02 -0.16112877155E+02  0.47656933003E+02  0.00000000000E+00 0.  1.
</event>
<event>
 8    1  0.8061721E-006  0.9795536E+02  0.7561462E-02  0.1284655E+00
         -4   -1    0    0    0  501 -0.00000000000E+00  0.00000000000E+00  0.13437491597E+03  0.13437491597E+03  0.00000000000E+00 0.  1.
          4   -1    0    0  501    0  0.00000000000E+00 -0.00000000000E+00 -0.12086577513E+03  0.12086577513E+03  0.00000000000E+00 0. -1.
         23    2    1    2    0    0  0.48791472435E+02 -0.13283661595E+02  0.51773081239E+02  0.11499390295E+03  0.89364883076E+02 0.  0.
         23    2    1    2    0    0 -0.48791472435E+02  0.13283661595E+02 -0.38263940397E+02  0.14024678815E+03  0.12509184228E+03 0.  0.
          5    1    4    4  502    0  0.29771627331E+02  0.33584189841E+02 -0.38062308743E+02  0.58995418027E+02  0.41800000000E+01 0.  1.
         -5    1    4    4    0  502 -0.78563099767E+02 -0.20300528246E+02 -0.20163165345E+00  0.81251370126E+02  0.41800000000E+01 0.  1.
        -11    1    3    3    0    0  0.10922965799E+02  0.17603767453E+02  0.61737295011E+02  0.65120637325E+02  0.00000000000E+00 0.  1.
         11    1    3    3    0    0  0.37868506637E+02 -0.30887429048E+02 -0.99642137723E+01  0.49873265626E+02  0.00000000000E+00 0. -1.
</event>
<event>
 8    1  0.8061721E-006  0.9735596E+02  0.7561462E-02  0.1285956E+00
         -4   -1    0    0    0  501 -0.00000000000E+00  0.00000000000E+00  0.15083173958E+02  0.15083173958E+02  0.00000000000E+00 0.  1.
          4   -1    0    0  501    0  0.00000000000E+00 -0.00000000000E+00 -0.80194356226E+03  0.80194356226E+03  0.00000000000E+00 0. -1.
         23    2    1    2    0    0 -0.35621539481E+01 -0.43314753324E+01 -0.20577607739E+03  0.22463452402E+03  0.89918989846E+02 0.  0.
         23    2    1    2    0    0  0.35621539481E+01  0.43314753324E+01 -0.58108431091E+03  0.59239221220E+03  0.11505696880E+03 0.  0.
          5    1    4    4  502    0 -0.12058931249E+02  0.55812418468E+02 -0.22140859498E+03  0.22869123772E+03  0.41800000000E+01 0. -1.
         -5    1    4    4    0  502  0.15621085197E+02 -0.51480943136E+02 -0.35967571593E+03  0.36370097448E+03  0.41800000000E+01 0.  1.
        -11    1    3    3    0    0 -0.34703832864E+02 -0.27830707903E+02 -0.15078572949E+03  0.15721081558E+03  0.00000000000E+00 0. -1.
         11    1    3    3    0    0  0.31141678915E+02  0.23499232570E+02 -0.54990347900E+02  0.67423708436E+02  0.00000000000E+00 0.  1.
</event>
<event>
 8    1  0.8061721E-006  0.1637300E+03  0.7561462E-02  0.1184549E+00
          1   -1    0    0  501    0  0.00000000000E+00  0.00000000000E+00  0.22763038631E+03  0.22763038631E+03  0.00000000000E+00 0. -1.
         -1   -1    0    0    0  501 -0.00000000000E+00 -0.00000000000E+00 -0.13227834326E+03  0.13227834326E+03  0.00000000000E+00 0.  1.
         23    2    1    2    0    0  0.74666256086E+02 -0.11032043638E+03  0.81623093923E+02  0.17660655787E+03  0.82352281933E+02 0.  0.
         23    2    1    2    0    0 -0.74666256086E+02  0.11032043638E+03  0.13728949128E+02  0.18330217170E+03  0.12516210938E+03 0.  0.
          5    1    4    4  502    0  0.95443550963E+01  0.81465459139E+02 -0.25411235393E+02  0.85970454408E+02  0.41800000000E+01 0. -1.
         -5    1    4    4    0  502 -0.84210611182E+02  0.28854977244E+02  0.39140184521E+02  0.97331717296E+02  0.41800000000E+01 0. -1.
        -11    1    3    3    0    0  0.32216735111E+02 -0.10909065805E+03  0.53744344893E+02  0.12580597881E+03  0.00000000000E+00 0. -1.
         11    1    3    3    0    0  0.42449520975E+02 -0.12297783308E+01  0.27878749030E+02  0.50800579064E+02  0.00000000000E+00 0.  1.
</event>
<event>
 8    1  0.8061721E-006  0.8147845E+02  0.7561462E-02  0.1324907E+00
          2   -1    0    0  501    0  0.00000000000E+00  0.00000000000E+00  0.14677383373E+03  0.14677383373E+03  0.00000000000E+00 0. -1.
         -2   -1    0    0    0  501 -0.00000000000E+00 -0.00000000000E+00 -0.10522858589E+03  0.10522858589E+03  0.00000000000E+00 0.  1.
         23    2    1    2    0    0 -0.51021470273E+02 -0.35772580718E+02 -0.92369426812E+01  0.10725914134E+03  0.86812063285E+02 0.  0.
         23    2    1    2    0    0  0.51021470273E+02  0.35772580718E+02  0.50782190519E+02  0.14474327828E+03  0.12036992055E+03 0.  0.
          5    1    4    4  502    0  0.36420872662E+02  0.12244760259E+02  0.89193375891E+02  0.97207740546E+02  0.41800000000E+01 0. -1.
         -5    1    4    4    0  502  0.14600597611E+02  0.23527820459E+02 -0.38411185372E+02  0.47535537736E+02  0.41800000000E+01 0.  1.
        -11    1    3    3    0    0 -0.41518554429E+02  0.15379168211E+02  0.18865948775E+02  0.48127260466E+02  0.00000000000E+00 0.  1.
         11    1    3    3    0    0 -0.95029158436E+01 -0.51151748929E+02 -0.28102891456E+02  0.59131880878E+02  0.00000000000E+00 0. -1.
</event>
<event>
 7    1  0.8061721E-006  0.1459751E+03  0.7561462E-02  0.1205508E+00
          2   -1    0    0  501    0  0.00000000000E+00  0.00000000000E+00  0.41579936483E+03  0.41579936483E+03  0.00000000000E+00 0. -1.
         -2   -1    0    0    0  501 -0.00000000000E+00 -0.00000000000E+00 -0.26784588661E+03  0.26784588661E+03  0.00000000000E+00 0.  1.
         23    2    1    2    0    0  0.11451853793E+03 -0.32939649916E+02 -0.22428957910E+03  0.27027943941E+03  0.92442652542E+02 0.  0.
          5    1    1    2  502    0 -0.11634382470E+03  0.66133829105E+01  0.36834881842E+03  0.38636504347E+03  0.41800000000E+01 0. -1.
         -5    1    1    2    0  502  0.18252867701E+01  0.26326267006E+02  0.38942389009E+01  0.27000768561E+02  0.41800000000E+01 0.  1.
        -11    1    3    3    0    0  0.11415707473E+03 -0.54892808469E+02 -0.17236490803E+03  0.21390352884E+03  0.00000000000E+00 0.  1.
         11    1    3    3    0    0  0.36146319770E+00  0.21953158552E+02 -0.51924671078E+02  0.56375910570E+02  0.00000000000E+00 0. -1.
</event>
<event>
 8    1  0.8061721E-006  0.9892831E+02  0.7561462E-02  0.1282566E+00
          1   -1    0    0  501    0  0.00000000000E+00  0.00000000000E+00  0.93456259468E+03  0.93456259468E+03  0.00000000000E+00 0. -1.
         -1   -1    0    0    0  501 -0.00000000000E+00 -0.00000000000E+00 -0.28234168335E+02  0.28234168335E+02  0.00000000000E+00 0.  1.
         23    2    1    2    0    0 -0.21386974350E+02  0.84082025792E+02  0.16186309132E+03  0.20470747131E+03  0.90433946865E+02 0.  0.
         23    2    1    2    0    0  0.21386974350E+02 -0.84082025792E+02  0.74446533502E+03  0.75808929170E+03  0.11376972098E+03 0.  0.
          5    1    4    4  502    0  0.57726726663E+01 -0.91329055513E+02  0.72851554117E+03  0.73425246765E+03  0.41800000000E+01 0. -1.
         -5    1    4    4    0  502  0.15614301684E+02  0.72470297206E+01  0.15949793858E+02  0.23836824053E+02  0.41800000000E+01 0.  1.
        -11    1    3    3    0    0 -0.55421839361E+01  0.56146221694E+02  0.20953853967E+02  0.60184532974E+02  0.00000000000E+00 0.  1.
         11    1    3    3    0    0 -0.15844790414E+02  0.27935804098E+02  0.14090923736E+03  0.14452293834E+03  0.00000000000E+00 0. -1.
</event>
<event>
 8    1  0.8061721E-006  0.1688088E+03  0.7561462E-02  0.1179096E+00
         -2   -1    0    0    0  501 -0.00000000000E+00  0.00000000000E+00  0.87917891258E+02  0.87917891258E+02  0.00000000000E+00 0.  1.
          2   -1    0    0  501    0  0.00000000000E+00 -0.00000000000E+00 -0.41385883769E+03  0.41385883769E+03  0.00000000000E+00 0. -1.
         23    2    1    2    0    0  0.13290783239E+03  0.76860136803E+02 -0.12080070726E+03  0.21664218268E+03  0.93643216003E+02 0.  0.
         23    2    1    2    0    0 -0.13290783239E+03 -0.76860136803E+02 -0.20514023918E+03  0.28513454627E+03  0.12508884526E+03 0.  0.
          5    1    4    4  502    0 -0.14784901950E+03 -0.57590405460E+02 -0.12732843964E+03  0.20348462181E+03  0.41800000000E+01 0. -1.
         -5    1    4    4    0  502  0.14941187115E+02 -0.19269731344E+02 -0.77811799532E+02  0.81649924463E+02  0.41800000000E+01 0. -1.
        -11    1    3    3    0    0  0.99463371091E+02  0.64252650697E+02 -0.34659250457E+02  0.12338001845E+03  0.00000000000E+00 0.  1.
         11    1    3    3    0    0  0.33444461298E+02  0.12607486107E+02 -0.86141456803E+02  0.93262164234E+02  0.00000000000E+00 0. -1.
</event>
<event>
 8    1  0.8061721E-006  0.2131950E+03  0.7561462E-02  0.1139061E+00
          2   -1    0    0  501    0  0.00000000000E+00  0.00000000000E+00  0.82717730177E+02  0.82717730177E+02  0.00000000000E+00 0. -1.
         -2   -1    0    0    0  501 -0.00000000000E+00 -0.00000000000E+00 -0.77386031047E+03  0.77386031047E+03  0.00000000000E+00 0.  1.
         23    2    1    2    0    0 -0.19352927753E+03 -0.48252913042E+02 -0.52241116659E+03  0.56692190107E+03  0.93301072074E+02 0.  0.
         23    2    1    2    0    0  0.19352927753E+03  0.48252913042E+02 -0.16873141370E+03  0.28965613958E+03  0.12509382219E+03 0.  0.
          5    1    4    4  502    0  0.43479564124E+02  0.47174359864E+02 -0.64114225492E+00  0.64294449126E+02  0.41800000000E+01 0. -1.
         -5    1    4    4    0  502  0.15004971340E+03  0.10785531778E+01 -0.16809027145E+03  0.22536169045E+03  0.41800000000E+01 0. -1.
        -11    1    3    3    0    0 -0.87752924321E+02  0.14580148778E+02 -0.29805233678E+03  0.31104397105E+03  0.00000000000E+00 0.  1.
         11    1    3    3    0    0 -0.10577635321E+03 -0.62833061820E+02 -0.22435882981E+03  0.25587793002E+03  0.00000000000E+00 0. -1.
</event>
<event>
 8    1  0.8061721E-006  0.1952244E+03  0.7561462E-02  0.1153832E+00
          2   -1    0    0  501    0  0.00000000000E+00  0.00000000000E+00  0.73762710800E+03  0.73762710800E+03  0.00000000000E+00 0. -1.
         -2   -1    0    0    0  501 -0.00000000000E+00 -0.00000000000E+00 -0.66442027022E+02  0.66442027022E+02  0.00000000000E+00 0.  1.
         23    2    1    2    0    0 -0.18443733284E+03  0.13559780111E+02  0.22562903257E+03  0.30570234040E+03  0.91348033389E+02 0.  0.
         23    2    1    2    0    0  0.18443733284E+03 -0.13559780111E+02  0.44555604841E+03  0.49836679463E+03  0.12509305467E+03 0.  0.
          5    1    4    4  502    0  0.47281902989E+02 -0.11590162665E+02  0.27571854570E+03  0.28001446224E+03  0.41800000000E+01 0. -1.
         -5    1    4    4    0  502  0.13715542985E+03 -0.19696174460E+01  0.16983750272E+03  0.21835233239E+03  0.41800000000E+01 0. -1.
        -11    1    3    3    0    0 -0.58915573740E+01 -0.21592155948E+02  0.13186028061E+02  0.25976970239E+02  0.00000000000E+00 0.  1.
         11    1    3    3    0    0 -0.17854577547E+03  0.35151936059E+02  0.21244300451E+03  0.27972537016E+03  0.00000000000E+00 0. -1.
</event>
<event>
 8    1  0.8061721E-006  0.1243656E+03  0.7561462E-02  0.1236064E+00
          1   -1    0    0  501    0  0.00000000000E+00  0.00000000000E+00  0.18573794007E+02  0.18573794007E+02  0.00000000000E+00 0. -1.
         -1   -1    0    0    0  501 -0.00000000000E+00 -0.00000000000E+00 -0.90991685161E+03  0.90991685161E+03  0.00000000000E+00 0.  1.
         23    2    1    2    0    0  0.54494280643E+02 -0.45641534790E+02 -0.45171908228E+03  0.46592199980E+03  0.89333108569E+02 0.  0.
         23    2    1    2    0    0 -0.54494280643E+02  0.45641534790E+02 -0.43962397532E+03  0.46256864581E+03  0.12509091129E+03 0.  0.
          5    1    4    4  502    0 -0.89457125333E+02  0.12351285421E+02 -0.22374708763E+03  0.24132004299E+03  0.41800000000E+01 0.  1.
         -5    1    4    4    0  502  0.34962844690E+02  0.33290249369E+02 -0.21587688769E+03  0.22124860282E+03  0.41800000000E+01 0.  1.
        -11    1    3    3    0    0  0.61220533373E+02 -0.65051569509E+02 -0.40732932173E+03  0.41700939647E+03  0.00000000000E+00 0. -1.
         11    1    3    3    0    0 -0.67262527297E+01  0.19410034719E+02 -0.44389760549E+02  0.48912603336E+02  0.00000000000E+00 0.  1.
</event>
<event>
 8    1  0.1146812E-005  0.8367164E+02  0.7561462E-02  0.1318943E+00
         -1   -1    0    0    0  501 -0.00000000000E+00  0.00000000000E+00  0.17369590140E+02  0.17369590140E+02  0.00000000000E+00 0.  1.
          1   -1    0    0  501    0  0.00000000000E+00 -0.00000000000E+00 -0.79145305867E+03  0.79145305867E+03  0.00000000000E+00 0. -1.
         23    2    1    2    0    0  0.21550764096E+02  0.27565852660E+02 -0.22168431932E+03  0.24135778417E+03  0.88799385580E+02 0.  0.
         23    2    1    2    0    0 -0.21550764096E+02 -0.27565852660E+02 -0.55239914921E+03  0.56746486464E+03  0.12508893193E+03 0.  0.
          5    1    4    4  502    0  0.38985749184E+02  0.34399693345E+01 -0.70256628250E+02  0.80530666466E+02  0.41800000000E+01 0. -1.
         -5    1    4    4    0  502 -0.60536513280E+02 -0.31005821994E+02 -0.48214252096E+03  0.48693419818E+03  0.41800000000E+01 0. -1.
        -11    1    3    3    0    0  0.11832437085E+02 -0.13319247665E+02 -0.22755290502E+01  0.17960705949E+02  0.00000000000E+00 0.  1.
         11    1    3    3    0    0  0.97183270107E+01  0.40885100325E+02 -0.21940879027E+03  0.22339707822E+03  0.00000000000E+00 0. -1.
</event>
<event>
 8    1  0.8061721E-006  0.1765519E+03  0.7561462E-02  0.1171182E+00
          1   -1    0    0  501    0  0.00000000000E+00  0.00000000000E+00  0.63390143220E+02  0.63390143220E+02  0.00000000000E+00 0. -1.
         -1   -1    0    0    0  501 -0.00000000000E+00 -0.00000000000E+00 -0.59718333830E+03  0.59718333830E+03  0.00000000000E+00 0.  1.
         23    2    1    2    0    0  0.13702990634E+03  0.61268604026E+02 -0.35080302945E+03  0.39287113418E+03  0.93562415170E+02 0.  0.
         23    2    1    2    0    0 -0.13702990634E+03 -0.61268604026E+02 -0.18299016564E+03  0.26770234735E+03  0.12509240178E+03 0.  0.
          5    1    4    4  502    0 -0.84560736173E+02  0.13426865219E+02 -0.32568046384E+02  0.91700320921E+02  0.41800000000E+01 0.  1.
         -5    1    4    4    0  502 -0.52469170168E+02 -0.74695469245E+02 -0.15042211926E+03  0.17600202642E+03  0.41800000000E+01 0.  1.
        -11    1    3    3    0    0  0.12674485017E+03  0.13868997931E+02 -0.27078169783E+03  0.29929806886E+03  0.00000000000E+00 0. -1.
         11    1    3    3    0    0  0.10285056172E+02  0.47399606096E+02 -0.80021331619E+02  0.93573065316E+02  0.00000000000E+00 0.  1.
</event>
<event>
 8    1  0.8061721E-006  0.1086821E+03  0.7561462E-02  0.1263030E+00
          2   -1    0    0  501    0  0.00000000000E+00  0.00000000000E+00  0.33964993085E+03  0.33964993085E+03  0.00000000000E+00 0. -1.
         -2   -1    0    0    0  501 -0.00000000000E+00 -0.00000000000E+00 -0.61956071913E+02  0.61956071913E+02  0.00000000000E+00 0.  1.
         23    2    1    2    0    0  0.33514420079E+02 -0.39382101775E+02  0.14343272710E+02  0.10550447726E+03  0.90836660860E+02 0.  0.
         23    2    1    2    0    0 -0.33514420079E+02  0.39382101775E+02  0.26335058623E+03  0.29610152550E+03  0.12509362832E+03 0.  0.
          5    1    4    4  502    0 -0.61916671175E+02  0.58759882978E+02  0.11224595114E+03  0.14107807754E+03  0.41800000000E+01 0. -1.
         -5    1    4    4    0  502  0.28402251096E+02 -0.19377781203E+02  0.15110463509E+03  0.15502344796E+03  0.41800000000E+01 0. -1.
        -11    1    3    3    0    0  0.34835745160E+02 -0.63864459742E+02 -0.68861696040E+01  0.73072687722E+02  0.00000000000E+00 0.  1.
         11    1    3    3    0    0 -0.13213250815E+01  0.24482357967E+02  0.21229442314E+02  0.32431789537E+02  0.00000000000E+00 0. -1.
</event>
<event>
 8    1  0.8061721E-006  0.9033157E+02  0.7561462E-02  0.1302051E+00
         -2   -1    0    0    0  501 -0.00000000000E+00  0.00000000000E+00  0.62377385730E+02  0.62377385730E+02  0.00000000000E+00 0.  1.
          2   -1    0    0  501    0  0.00000000000E+00 -0.00000000000E+00 -0.27696507271E+03  0.27696507271E+03  0.00000000000E+00 0. -1.
         23    2    1    2    0    0 -0.67134415695E+02  0.19001496104E+02 -0.97921230069E+02  0.15460776943E+03  0.97195207939E+02 0.  0.
         23    2    1    2    0    0  0.67134415695E+02 -0.19001496104E+02 -0.11666645691E+03  0.18473468900E+03  0.12509099300E+03 0.  0.
          5    1    4    4  502    0 -0.16549278712E+01  0.19712552597E+02 -0.10244339695E+03  0.10441956471E+03  0.41800000000E+01 0. -1.
         -5    1    4    4    0  502  0.68789343566E+02 -0.38714048701E+02 -0.14223059959E+02  0.80315124290E+02  0.41800000000E+01 0. -1.
        -11    1    3    3    0    0 -0.27632253257E+02  0.29606301392E+02 -0.10550429084E+03  0.11300986633E+03  0.00000000000E+00 0. -1.
         11    1    3    3    0    0 -0.39502162438E+02 -0.10604805288E+02  0.75830607668E+01  0.41597903109E+02  0.00000000000E+00 0.  1.
</event>
<event>
 8    1  0.8061721E-006  0.1039835E+03  0.7561462E-02  0.1272135E+00
         -1   -1    0    0    0  501 -0.00000000000E+00  0.00000000000E+00  0.50249141308E+02  0.50249141308E+02  0.00000000000E+00 0.  1.
          1   -1    0    0  501    0  0.00000000000E+00 -0.00000000000E+00 -0.35676550095E+03  0.35676550095E+03  0.00000000000E+00 0. -1.
         23    2    1    2    0    0 -0.31924633618E+02  0.57929810291E+02 -0.76615868685E+02  0.13622184628E+03  0.91166632691E+02 0.  0.
         23    2    1    2    0    0  0.31924633618E+02 -0.57929810291E+02 -0.22990049096E+03  0.27079279598E+03  0.12688363749E+03 0.  0.
          5    1    4    4  502    0  0.57011850966E+02 -0.57972402628E+02 -0.23141042108E+03  0.24531491190E+03  0.41800000000E+01 0. -1.
         -5    1    4    4    0  502 -0.25087217348E+02  0.42592337633E-01  0.15099301212E+01  0.25477884083E+02  0.41800000000E+01 0.  1.
        -11    1    3    3    0    0 -0.11198553046E+02  0.74030313937E+02 -0.80218213761E+02  0.10973083792E+03  0.00000000000E+00 0.  1.
         11    1    3    3    0    0 -0.20726080573E+02 -0.16100503647E+02  0.36023450755E+01  0.26491008354E+02  0.00000000000E+00 0. -1.
</event>
<event>
 8    1  0.8061721E-006  0.1186312E+03  0.7561462E-02  0.1245372E+00
         -1   -1    0    0    0  501 -0.00000000000E+00  0.00000000000E+00  0.35922198707E+03  0.35922198707E+03  0.00000000000E+00 0.  1.
          1   -1    0    0  501    0  0.00000000000E+00 -0.00000000000E+00 -0.46391458945E+02  0.46391458945E+02  0.00000000000E+00 0. -1.
         23    2    1    2    0    0  0.68472800860E+02 -0.48389390966E+01  0.12529112158E+03  0.16996271297E+03  0.92073442775E+02 0.  0.
         23    2    1    2    0    0 -0.68472800860E+02  0.48389390966E+01  0.18753940654E+03  0.23565073304E+03  0.12509316204E+03 0.  0.
          5    1    4    4  502    0  0.16556698425E+02 -0.39812802313E+02  0.36667699559E+02  0.56755405748E+02  0.41800000000E+01 0.  1.
         -5    1    4    4    0  502 -0.85029499285E+02  0.44651741409E+02  0.15087170699E+03  0.17889532730E+03  0.41800000000E+01 0.  1.
        -11    1    3    3    0    0  0.52243185041E+02 -0.35469394758E+02  0.32731866262E+02  0.71125265671E+02  0.00000000000E+00 0. -1.
         11    1    3    3    0    0  0.16229615818E+02  0.30630455661E+02  0.92559255322E+02  0.98837447303E+02  0.00000000000E+00 0.  1.
</event>
<event>
 8    1  0.8061721E-006  0.9834046E+02  0.7561462E-02  0.1283825E+00
         -1   -1    0    0    0  501 -0.00000000000E+00  0.00000000000E+00  0.10596407224E+02  0.10596407224E+02  0.00000000000E+00 0.  1.
          1   -1    0    0  501    0  0.00000000000E+00 -0.00000000000E+00 -0.18990759094E+04  0.18990759094E+04  0.00000000000E+00 0. -1.
         23    2    1    2    0    0  0.34193273008E+02  0.10234504972E+02 -0.28983662673E+03  0.30574588926E+03  0.90561325054E+02 0.  0.
         23    2    1    2    0    0 -0.34193273008E+02 -0.10234504972E+02 -0.15986428755E+04  0.16039264274E+04  0.12508803365E+03 0.  0.
          5    1    4    4  502    0  0.27458645089E+02 -0.23306203827E+02 -0.11789601123E+04  0.11795175180E+04  0.41800000000E+01 0. -1.
         -5    1    4    4    0  502 -0.61651918097E+02  0.13071698855E+02 -0.41968276311E+03  0.42440890939E+03  0.41800000000E+01 0. -1.
        -11    1    3    3    0    0  0.47495124472E+02 -0.29126156998E+02 -0.15990670263E+03  0.16933479682E+03  0.00000000000E+00 0.  1.
         11    1    3    3    0    0 -0.13301851464E+02  0.39360661970E+02 -0.12992992411E+03  0.13641109244E+03  0.00000000000E+00 0. -1.
</event>
<event>
 8    1  0.8061721E-006  0.1232540E+03  0.7561462E-02  0.1237824E+00
         -2   -1    0    0    0  501 -0.00000000000E+00  0.00000000000E+00  0.16095679686E+02  0.16095679686E+02  0.00000000000E+00 0.  1.
          2   -1    0    0  501    0  0.00000000000E+00 -0.00000000000E+00 -0.23373783477E+04  0.23373783477E+04  0.00000000000E+00 0. -1.
         23    2    1    2    0    0  0.10017909758E+03 -0.40246014547E+01 -0.34631191944E+03  0.37200768509E+03  0.91682731291E+02 0.  0.
         23    2    1    2    0    0 -0.10017909758E+03  0.40246014547E+01 -0.19749707486E+04  0.19814663423E+04  0.12508940357E+03 0.  0.
          5    1    4    4  502    0 -0.49211869685E+02  0.50087950324E+02 -0.50386041219E+03  0.50874689017E+03  0.41800000000E+01 0.  1.
         -5    1    4    4    0  502 -0.50967227898E+02 -0.46063348870E+02 -0.14711103364E+04  0.14727194522E+04  0.41800000000E+01 0.  1.
        -11    1    3    3    0    0  0.34007713749E+02  0.16850833880E+02 -0.30576651242E+02  0.48738145206E+02  0.00000000000E+00 0.  1.
         11    1    3    3    0    0  0.66171383833E+02 -0.20875435334E+02 -0.31573526819E+03  0.32326953989E+03  0.00000000000E+00 0. -1.
</event>
<event>
 8    1  0.8061721E-006  0.1240920E+03  0.7561462E-02  0.1236495E+00
         -1   -1    0    0    0  501 -0.00000000000E+00  0.00000000000E+00  0.43316861150E+03  0.43316861150E+03  0.00000000000E+00 0.  1.
          1   -1    0    0  501    0  0.00000000000E+00 -0.00000000000E+00 -0.63794401567E+02  0.63794401567E+02  0.00000000000E+00 0. -1.
         23    2    1    2    0    0 -0.63451052703E+02 -0.41824920811E+02  0.32358887647E+03  0.34360944512E+03  0.87076573857E+02 0.  0.
         23    2    1    2    0    0  0.63451052703E+02  0.41824920811E+02  0.45785333468E+02  0.15335356795E+03  0.12508261250E+03 0.  0.
          5    1    4    4  502    0  0.45920118238E+02  0.82768187886E+02  0.52180822846E+02  0.10816441586E+03  0.41800000000E+01 0. -1.
         -5    1    4    4    0  502  0.17530934465E+02 -0.40943267075E+02 -0.63954893779E+01  0.45189152087E+02  0.41800000000E+01 0. -1.
        -11    1    3    3    0    0  0.10287329837E+02 -0.32848251386E+02  0.16408498188E+03  0.16765654790E+03  0.00000000000E+00 0.  1.
         11    1    3    3    0    0 -0.73738382540E+02 -0.89766694252E+01  0.15950389458E+03  0.17595289722E+03  0.00000000000E+00 0. -1.
</event>
<event>
 8    1  0.8061721E-006  0.1627881E+03  0.7561462E-02  0.1185585E+00
          2   -1    0    0  501    0  0.00000000000E+00  0.00000000000E+00  0.53330155158E+02  0.53330155158E+02  0.00000000000E+00 0. -1.
         -2   -1    0    0    0  501 -0.00000000000E+00 -0.00000000000E+00 -0.54472370503E+03  0.54472370503E+03  0.00000000000E+00 0.  1.
         23    2    1    2    0    0 -0.10000100449E+03  0.82752644501E+02 -0.27485570840E+03  0.31630202904E+03  0.87482067075E+02 0.  0.
         23    2    1    2    0    0  0.10000100449E+03 -0.82752644501E+02 -0.21653784147E+03  0.28175183115E+03  0.12508899431E+03 0.  0.
          5    1    4    4  502    0  0.92405408504E+02  0.44094072754E+01 -0.10741509558E+03  0.14182269759E+03  0.41800000000E+01 0. -1.
         -5    1    4    4    0  502  0.75955959892E+01 -0.87162051777E+02 -0.10912274589E+03  0.13992913356E+03  0.41800000000E+01 0. -1.
        -11    1    3    3    0    0 -0.10966056755E+03  0.73582269543E+02 -0.27244819756E+03  0.30276692491E+03  0.00000000000E+00 0.  1.
         11    1    3    3    0    0  0.96595630547E+01  0.91703749587E+01 -0.24075108443E+01  0.13535104128E+02  0.00000000000E+00 0. -1.
</event>
<event>
 7    1  0.8061721E-006  0.3291112E+03  0.7561462E-02  0.1071531E+00
         -2   -1    0    0    0  501 -0.00000000000E+00  0.00000000000E+00  0.13919439451E+03  0.13919439451E+03  0.00000000000E+00 0.  1.
          2   -1    0    0  501    0  0.00000000000E+00 -0.00000000000E+00 -0.18543793564E+04  0.18543793564E+04  0.00000000000E+00 0. -1.
         23    2    1    2    0    0  0.22693093995E+02 -0.31951656919E+03 -0.11240376251E+03  0.35176763597E+03  0.92195712406E+02 0.  0.
          5    1    1    2  502    0  0.38008074682E+01  0.30804086993E+03 -0.15592942314E+04  0.15894400260E+04  0.41800000000E+01 0. -1.
         -5    1    1    2    0  502 -0.26493901464E+02  0.11475699267E+02 -0.43486967922E+02  0.52366088908E+02  0.41800000000E+01 0.  1.
        -11    1    3    3    0    0 -0.33467493087E+01 -0.17362721258E+02 -0.34313188840E+02  0.38601292062E+02  0.00000000000E+00 0. -1.
         11    1    3    3    0    0  0.26039843304E+02 -0.30215384794E+03 -0.78090573665E+02  0.31316634391E+03  0.00000000000E+00 0.  1.
</event>
<event>
 8    1  0.8061721E-006  0.9677246E+02  0.7561462E-02  0.1287233E+00
          2   -1    0    0  501    0  0.00000000000E+00  0.00000000000E+00  0.59765320633E+03  0.59765320633E+03  0.00000000000E+00 0. -1.
         -2   -1    0    0    0  501 -0.00000000000E+00 -0.00000000000E+00 -0.44590499127E+02  0.44590499127E+02  0.00000000000E+00 0.  1.
         23    2    1    2    0    0  0.26270909322E+02  0.33841569007E+00  0.20972873446E+02  0.97875973379E+02  0.91921540145E+02 0.  0.
         23    2    1    2    0    0 -0.26270909322E+02 -0.33841569007E+00  0.53208983376E+03  0.54436773208E+03  0.11192122827E+03 0.  0.
          5    1    4    4  502    0 -0.28885579447E+02 -0.45788603573E+02  0.41715876047E+03  0.42067787766E+03  0.41800000000E+01 0. -1.
         -5    1    4    4    0  502  0.26146701254E+01  0.45450187883E+02  0.11493107329E+03  0.12368985442E+03  0.41800000000E+01 0.  1.
        -11    1    3    3    0    0 -0.14404266356E+02  0.36414445106E+02 -0.11547855412E+01  0.39176883889E+02  0.00000000000E+00 0.  1.
         11    1    3    3    0    0  0.40675175677E+02 -0.36076029416E+02  0.22127658987E+02  0.58699089491E+02  0.00000000000E+00 0. -1.
</event>
<event>
 8    1  0.8061721E-006  0.1052149E+03  0.7561462E-02  0.1269697E+00
          2   -1    0    0  501    0  0.00000000000E+00  0.00000000000E+00  0.97262422008E+03  0.97262422008E+03  0.00000000000E+00 0. -1.
         -2   -1    0    0    0  501 -0.00000000000E+00 -0.00000000000E+00 -0.22574054963E+02  0.22574054963E+02  0.00000000000E+00 0.  1.
         23    2    1    2    0    0 -0.58350247845E+02 -0.47201839659E+02  0.21159223453E+03  0.24247001625E+03  0.91584223396E+02 0.  0.
         23    2    1    2    0    0  0.58350247845E+02  0.47201839659E+02  0.73845793058E+03  0.75272825879E+03  0.12508777419E+03 0.  0.
          5    1    4    4  502    0 -0.14466420450E+02  0.81642812268E+00  0.47927075035E+03  0.47950794406E+03  0.41800000000E+01 0. -1.
         -5    1    4    4    0  502  0.72816668294E+02  0.46385411536E+02  0.25918718024E+03  0.27322031473E+03  0.41800000000E+01 0. -1.
        -11    1    3    3    0    0 -0.39072150809E+02 -0.69319345606E+02  0.10400317176E+03  0.13095214538E+03  0.00000000000E+00 0.  1.
         11    1    3    3    0    0 -0.19278097036E+02  0.22117505947E+02  0.10758906277E+03  0.11151787087E+03  0.00000000000E+00 0. -1.
</event>
<event>
 8    1  0.8061721E-006  0.1954590E+03  0.7561462E-02  0.1153628E+00
         -1   -1    0    0    0  501 -0.00000000000E+00  0.00000000000E+00  0.17505097314E+03  0.17505097314E+03  0.00000000000E+00 0.  1.
          1   -1    0    0  501    0  0.00000000000E+00 -0.00000000000E+00 -0.23844213731E+03  0.23844213731E+03  0.00000000000E+00 0. -1.
         23    2    1    2    0    0  0.15926105846E+03 -0.66329978274E+02 -0.38519565666E+02  0.19894684796E+03  0.91281655425E+02 0.  0.
         23    2    1    2    0    0 -0.15926105846E+03  0.66329978274E+02 -0.24871598503E+02  0.21454626249E+03  0.12509097321E+03 0.  0.
          5    1    4    4  502    0 -0.67307707853E+02  0.90383905470E+02  0.10011843761E+02  0.11321345909E+03  0.41800000000E+01 0. -1.
         -5    1    4    4    0  502 -0.91953350603E+02 -0.24053927197E+02 -0.34883442263E+02  0.10133280340E+03  0.41800000000E+01 0. -1.
        -11    1    3    3    0    0  0.75031386959E+02 -0.64205231524E+02  0.13883828132E+02  0.99723525147E+02  0.00000000000E+00 0. -1.
         11    1    3    3    0    0  0.84229671497E+02 -0.21247467493E+01 -0.52403393798E+02  0.99223322817E+02  0.00000000000E+00 0.  1.
</event>
<event>
 8    1  0.8061721E-006  0.1678407E+03  0.7561462E-02  0.1180119E+00
          1   -1    0    0  501    0  0.00000000000E+00  0.00000000000E+00  0.40271496245E+03  0.40271496245E+03  0.00000000000E+00 0. -1.
         -1   -1    0    0    0  501 -0.00000000000E+00 -0.00000000000E+00 -0.70521122690E+02  0.70521122690E+02  0.00000000000E+00 0.  1.
         23    2    1    2    0    0  0.10879209519E+03  0.65997012952E+02  0.16717415446E+03  0.23019283441E+03  0.94075594079E+02 0.  0.
         23    2    1    2    0    0 -0.10879209519E+03 -0.65997012952E+02  0.16501968531E+03  0.24304325073E+03  0.12508876645E+03 0.  0.
          5    1    4    4  502    0 -0.13138806033E+03 -0.29056969638E+02  0.13064807719E+03  0.18759936662E+03  0.41800000000E+01 0.  1.
         -5    1    4    4    0  502  0.22595965141E+02 -0.36940043314E+02  0.34371608113E+02  0.55443884107E+02  0.41800000000E+01 0.  1.
        -11    1    3    3    0    0  0.95125789132E+02  0.52351441415E+01  0.90392617743E+02  0.13132839691E+03  0.00000000000E+00 0.  1.
         11    1    3    3    0    0  0.13666306060E+02  0.60761868810E+02  0.76781536712E+02  0.98864437502E+02  0.00000000000E+00 0. -1.
</event>
<event>
 8    1  0.8061721E-006  0.1060073E+03  0.7561462E-02  0.1268148E+00
         -2   -1    0    0    0  501 -0.00000000000E+00  0.00000000000E+00  0.11731940600E+03  0.11731940600E+03  0.00000000000E+00 0.  1.
          2   -1    0    0  501    0  0.00000000000E+00 -0.00000000000E+00 -0.18521918817E+03  0.18521918817E+03  0.00000000000E+00 0. -1.
         23    2    1    2    0    0  0.74462136328E+02  0.10696442670E+02  0.53036197499E+02  0.11297989381E+03  0.65517894710E+02 0.  0.
         23    2    1    2    0    0 -0.74462136328E+02 -0.10696442670E+02 -0.12093597966E+03  0.18955870037E+03  0.12509183057E+03 0.  0.
          5    1    4    4  502    0 -0.55607876874E+02  0.44366655281E+02 -0.10863961376E+03  0.12992564854E+03  0.41800000000E+01 0.  1.
         -5    1    4    4    0  502 -0.18854259454E+02 -0.55063097951E+02 -0.12296365905E+02  0.59633051826E+02  0.41800000000E+01 0.  1.
        -11    1    3    3    0    0  0.42149846873E+02 -0.10900902814E+02 -0.42611498536E+01  0.43744675924E+02  0.00000000000E+00 0. -1.
         11    1    3    3    0    0  0.32312289454E+02  0.21597345484E+02  0.57297347353E+02  0.69235217884E+02  0.00000000000E+00 0.  1.
</event>
<event>
 8    1  0.8061721E-006  0.1071272E+03  0.7561462E-02  0.1265984E+00
         -2   -1    0    0    0  501 -0.00000000000E+00  0.00000000000E+00  0.39779170651E+02  0.39779170651E+02  0.00000000000E+00 0.  1.
          2   -1    0    0  501    0  0.00000000000E+00 -0.00000000000E+00 -0.78173784763E+03  0.78173784763E+03  0.00000000000E+00 0. -1.
         23    2    1    2    0    0 -0.32228754263E+02  0.70488027999E+01 -0.34398877402E+02  0.10222753229E+03  0.90436758946E+02 0.  0.
         23    2    1    2    0    0  0.32228754263E+02 -0.70488027999E+01 -0.70755979958E+03  0.71928948600E+03  0.12509243168E+03 0.  0.
          5    1    4    4  502    0 -0.41605551888E+02  0.11276535763E+02 -0.40399048627E+03  0.40630526406E+03  0.41800000000E+01 0.  1.
         -5    1    4    4    0  502  0.73834306151E+02 -0.18325338563E+02 -0.30356931331E+03  0.31298422194E+03  0.41800000000E+01 0.  1.
        -11    1    3    3    0    0 -0.49321799937E+02 -0.27311850379E+02 -0.11506830468E+02  0.57541152817E+02  0.00000000000E+00 0.  1.
         11    1    3    3    0    0  0.17093045674E+02  0.34360653179E+02 -0.22892046934E+02  0.44686379469E+02  0.00000000000E+00 0. -1.
</event>
<event>
 8    1  0.8061721E-006  0.1811347E+03  0.7561462E-02  0.1166709E+00
          2   -1    0    0  501    0  0.00000000000E+00  0.00000000000E+00  0.84837947589E+03  0.84837947589E+03  0.00000000000E+00 0. -1.
         -2   -1    0    0    0  501 -0.00000000000E+00 -0.00000000000E+00 -0.42955181553E+02  0.42955181553E+02  0.00000000000E+00 0.  1.
         23    2    1    2    0    0  0.62263720281E+02  0.13925258770E+03  0.29901519986E+03  0.34785826221E+03  0.91253639888E+02 0.  0.
         23    2    1    2    0    0 -0.62263720281E+02 -0.13925258770E+03  0.50640909448E+03  0.54347639524E+03  0.12509343375E+03 0.  0.
          5    1    4    4  502    0 -0.82524398175E+02 -0.14816718830E+03  0.47804357318E+03  0.50725429741E+03  0.41800000000E+01 0. -1.
         -5    1    4    4    0  502  0.20260677894E+02  0.89146005979E+01  0.28365521296E+02  0.36222097826E+02  0.41800000000E+01 0. -1.
        -11    1    3    3    0    0  0.79743211034E+02  0.12009658740E+03  0.28237726106E+03  0.31704745319E+03  0.00000000000E+00 0. -1.
         11    1    3    3    0    0 -0.17479490753E+02  0.19156000306E+02  0.16637938798E+02  0.30810809015E+02  0.00000000000E+00 0.  1.
</event>
<event>
 8    1  0.8061721E-006  0.1456893E+03  0.7561462E-02  0.1205872E+00
          3   -1    0    0  501    0  0.00000000000E+00  0.00000000000E+00  0.15456616609E+03  0.15456616609E+03  0.00000000000E+00 0. -1.
         -3   -1    0    0    0  501 -0.00000000000E+00 -0.00000000000E+00 -0.18640062731E+03  0.18640062731E+03  0.00000000000E+00 0.  1.
         23    2    1    2    0    0  0.23294232097E+02  0.11808722509E+03 -0.62683009164E+02  0.16466116144E+03  0.93257302511E+02 0.  0.
         23    2    1    2    0    0 -0.23294232097E+02 -0.11808722509E+03  0.30848547939E+02  0.17630563196E+03  0.12507929074E+03 0.  0.
          5    1    4    4  502    0 -0.61702566357E+02 -0.19677132639E+02 -0.39085013542E+01  0.65016498113E+02  0.41800000000E+01 0. -1.
         -5    1    4    4    0  502  0.38408334260E+02 -0.98410092447E+02  0.34757049293E+02  0.11128913384E+03  0.41800000000E+01 0. -1.
        -11    1    3    3    0    0 -0.36749361884E+00  0.14392769045E+02 -0.56298008625E+02  0.58109832451E+02  0.00000000000E+00 0.  1.
         11    1    3    3    0    0  0.23661725716E+02  0.10369445604E+03 -0.63850005389E+01  0.10655132899E+03  0.00000000000E+00 0. -1.
</event>
<event>
 8    1  0.8061721E-006  0.9710513E+02  0.7561462E-02  0.1286504E+00
         -2   -1    0    0    0  501 -0.00000000000E+00  0.00000000000E+00  0.18225343650E+02  0.18225343650E+02  0.00000000000E+00 0.  1.
          2   -1    0    0  501    0  0.00000000000E+00 -0.00000000000E+00 -0.99075417432E+03  0.99075417432E+03  0.00000000000E+00 0. -1.
         23    2    1    2    0    0 -0.10402724519E+02  0.75376737906E+02 -0.33918609570E+03  0.35893225957E+03  0.89416386376E+02 0.  0.
         23    2    1    2    0    0  0.10402724519E+02 -0.75376737906E+02 -0.63334273497E+03  0.65004725839E+03  0.12509416019E+03 0.  0.
          5    1    4    4  502    0  0.95676811936E+01 -0.46959791872E+02 -0.64423789130E+02  0.80403106793E+02  0.41800000000E+01 0. -1.
         -5    1    4    4    0  502  0.83504332520E+00 -0.28416946035E+02 -0.56891894584E+03  0.56964415160E+03  0.41800000000E+01 0. -1.
        -11    1    3    3    0    0  0.39534002461E+02  0.27249083331E+02 -0.14346343666E+03  0.15128518616E+03  0.00000000000E+00 0.  1.
         11    1    3    3    0    0 -0.49936726980E+02  0.48127654576E+02 -0.19572265903E+03  0.20764707341E+03  0.00000000000E+00 0. -1.
</event>
<event>
 8    1  0.8061721E-006  0.1374905E+03  0.7561462E-02  0.1216746E+00
         -2   -1    0    0    0  501 -0.00000000000E+00  0.00000000000E+00  0.13073951172E+03  0.13073951172E+03  0.00000000000E+00 0.  1.
          2   -1    0    0  501    0  0.00000000000E+00 -0.00000000000E+00 -0.24842189447E+03  0.24842189447E+03  0.00000000000E+00 0. -1.
         23    2    1    2    0    0 -0.42134209559E+02  0.77575846702E+02  0.64869483036E+02  0.14090662720E+03  0.88618983023E+02 0.  0.
         23    2    1    2    0    0  0.42134209559E+02 -0.77575846702E+02 -0.18255186578E+03  0.23825477900E+03  0.12508737909E+03 0.  0.
          5    1    4    4  502    0 -0.16343925571E+02 -0.90087268625E+02 -0.93712889453E+02  0.13108172230E+03  0.41800000000E+01 0. -1.
         -5    1    4    4    0  502  0.58478135130E+02  0.12511421924E+02 -0.88838976327E+02  0.10717305670E+03  0.41800000000E+01 0. -1.
        -11    1    3    3    0    0 -0.68564377716E+02  0.47888570948E+02  0.54518513297E+02  0.99833147857E+02  0.00000000000E+00 0. -1.
         11    1    3    3    0    0  0.26430168157E+02  0.29687275754E+02  0.10350969739E+02  0.41073479339E+02  0.00000000000E+00 0.  1.
</event>
<event>
 8    1  0.8061721E-006  0.1045061E+03  0.7561462E-02  0.1271096E+00
         -2   -1    0    0    0  501 -0.00000000000E+00  0.00000000000E+00  0.99110535809E+02  0.99110535809E+02  0.00000000000E+00 0. -1.
          2   -1    0    0  501    0  0.00000000000E+00 -0.00000000000E+00 -0.20058583294E+03  0.20058583294E+03  0.00000000000E+00 0.  1.
         23    2    1    2    0    0 -0.28866405120E+02  0.71069863281E+02 -0.13797651211E+02  0.12875989403E+03  0.10249165976E+03 0.  0.
         23    2    1    2    0    0  0.28866405120E+02 -0.71069863281E+02 -0.87677645916E+02  0.17093647472E+03  0.12509082294E+03 0.  0.
          5    1    4    4  502    0  0.22182198387E+02 -0.86886052314E+02 -0.89107560762E+01  0.90211473693E+02  0.41800000000E+01 0. -1.
         -5    1    4    4    0  502  0.66842067323E+01  0.15816189033E+02 -0.78766889840E+02  0.80725001024E+02  0.41800000000E+01 0. -1.
        -11    1    3    3    0    0 -0.25284072048E+02  0.84223605447E+02  0.21835971652E+02  0.90607448214E+02  0.00000000000E+00 0. -1.
         11    1    3    3    0    0 -0.35823330714E+01 -0.13153742166E+02 -0.35633622862E+02  0.38152445813E+02  0.00000000000E+00 0.  1.
</event>
<event>
 8    1  0.8061721E-006  0.1066841E+03  0.7561462E-02  0.1266837E+00
         -2   -1    0    0    0  501 -0.00000000000E+00  0.00000000000E+00  0.18654551470E+03  0.18654551470E+03  0.00000000000E+00 0.  1.
          2   -1    0    0  501    0  0.00000000000E+00 -0.00000000000E+00 -0.72012310676E+02  0.72012310676E+02  0.00000000000E+00 0. -1.
         23    2    1    2    0    0  0.30427921540E+02  0.48770293057E+01  0.83303682002E+02  0.12599660730E+03  0.89364410098E+02 0.  0.
         23    2    1    2    0    0 -0.30427921540E+02 -0.48770293057E+01  0.31229522025E+02  0.13256121808E+03  0.12509016615E+03 0.  0.
          5    1    4    4  502    0 -0.32471271854E+02 -0.61142291211E+02  0.29532238882E+01  0.69418709306E+02  0.41800000000E+01 0.  1.
         -5    1    4    4    0  502  0.20433503140E+01  0.56265261906E+02  0.28276298137E+02  0.63142508773E+02  0.41800000000E+01 0.  1.
        -11    1    3    3    0    0  0.21229970943E+02 -0.38094160468E+02  0.17767768780E+02  0.47091085520E+02  0.00000000000E+00 0.  1.
         11    1    3    3    0    0  0.91979505967E+01  0.42971189774E+02  0.65535913222E+02  0.78905521781E+02  0.00000000000E+00 0. -1.
</event>
<event>
 8    1  0.8061721E-006  0.8789302E+02  0.7561462E-02  0.1308036E+00
         -2   -1    0    0    0  501 -0.00000000000E+00  0.00000000000E+00  0.79676863424E+02  0.79676863424E+02  0.00000000000E+00 0.  1.
          2   -1    0    0  501    0  0.00000000000E+00 -0.00000000000E+00 -0.26243767351E+03  0.26243767351E+03  0.00000000000E+00 0. -1.
         23    2    1    2    0    0  0.11978163058E+02  0.39347076009E+02  0.18201913931E+02  0.10185537308E+03  0.91386752730E+02 0.  0.
         23    2    1    2    0    0 -0.11978163058E+02 -0.39347076009E+02 -0.20096272401E+03  0.24025916385E+03  0.12508709201E+03 0.  0.
          5    1    4    4  502    0 -0.58346657466E+02 -0.19949247587E+02 -0.17045605262E+03  0.18131476275E+03  0.41800000000E+01 0. -1.
         -5    1    4    4    0  502  0.46368494409E+02 -0.19397828422E+02 -0.30506671398E+02  0.58944401100E+02  0.41800000000E+01 0. -1.
        -11    1    3    3    0    0  0.30938373846E+02  0.24411749825E+02  0.48900765764E+02  0.62804469570E+02  0.00000000000E+00 0.  1.
         11    1    3    3    0    0 -0.18960210788E+02  0.14935326183E+02 -0.30698851833E+02  0.39050903513E+02  0.00000000000E+00 0. -1.
</event>
<event>
 8    1  0.8061721E-006  0.1018597E+03  0.7561462E-02  0.1276433E+00
          2   -1    0    0  501    0  0.00000000000E+00  0.00000000000E+00  0.16118058347E+02  0.16118058347E+02  0.00000000000E+00 0.  1.
         -2   -1    0    0    0  501 -0.00000000000E+00 -0.00000000000E+00 -0.74624370092E+03  0.74624370092E+03  0.00000000000E+00 0. -1.
         23    2    1    2    0    0  0.17214693131E+02 -0.59466525957E+01 -0.37661551903E+03  0.38693087541E+03  0.86859339386E+02 0.  0.
         23    2    1    2    0    0 -0.17214693131E+02  0.59466525957E+01 -0.35351012355E+03  0.37543088386E+03  0.12508889945E+03 0.  0.
          5    1    4    4  502    0  0.95145468268E+01 -0.51199910601E+02 -0.86636520152E+02  0.10116974089E+03  0.41800000000E+01 0. -1.
         -5    1    4    4    0  502 -0.26729239958E+02  0.57146563197E+02 -0.26687360340E+03  0.27426114297E+03  0.41800000000E+01 0. -1.
        -11    1    3    3    0    0  0.52489133869E+02 -0.70271641111E+01 -0.24567532565E+03  0.25131823619E+03  0.00000000000E+00 0.  1.
         11    1    3    3    0    0 -0.35274440738E+02  0.10805115154E+01 -0.13094019338E+03  0.13561263922E+03  0.00000000000E+00 0. -1.
</event>
<event>
 8    1  0.8061721E-006  0.1333466E+03  0.7561462E-02  0.1222573E+00
         -1   -1    0    0    0  501 -0.00000000000E+00  0.00000000000E+00  0.12779441719E+03  0.12779441719E+03  0.00000000000E+00 0.  1.
          1   -1    0    0  501    0  0.00000000000E+00 -0.00000000000E+00 -0.31145180427E+03  0.31145180427E+03  0.00000000000E+00 0. -1.
         23    2    1    2    0    0  0.73329295618E+02 -0.21929816146E+02  0.75024047049E+02  0.14188819565E+03  0.92981449741E+02 0.  0.
         23    2    1    2    0    0 -0.73329295618E+02  0.21929816146E+02 -0.25868143413E+03  0.29735802582E+03  0.12509040220E+03 0.  0.
          5    1    4    4  502    0 -0.10411059456E+03  0.38775719944E+02 -0.20162443910E+03  0.23024434672E+03  0.41800000000E+01 0. -1.
         -5    1    4    4    0  502  0.30781298944E+02 -0.16845903798E+02 -0.57056995033E+02  0.67113679094E+02  0.41800000000E+01 0. -1.
        -11    1    3    3    0    0 -0.92651551169E+01  0.23962952233E+02  0.12368128051E+02  0.28513799651E+02  0.00000000000E+00 0.  1.
         11    1    3    3    0    0  0.82594450735E+02 -0.45892768379E+02  0.62655918997E+02  0.11337439599E+03  0.00000000000E+00 0. -1.
</event>
<event>
 7    1  0.8061721E-006  0.1636993E+03  0.7561462E-02  0.1184582E+00
          2   -1    0    0  501    0  0.00000000000E+00  0.00000000000E+00  0.53313223745E+03  0.53313223745E+03  0.00000000000E+00 0. -1.
         -2   -1    0    0    0  501 -0.00000000000E+00 -0.00000000000E+00 -0.94213771034E+02  0.94213771034E+02  0.00000000000E+00 0.  1.
         23    2    1    2    0    0 -0.31703584013E+02  0.47921721001E+02  0.44087374720E+01  0.10760217092E+03  0.90869035637E+02 0.  0.
          5    1    1    2  502    0  0.11223427142E+03 -0.10582608360E+03  0.37120351372E+03  0.40200150827E+03  0.41800000000E+01 0. -1.
         -5    1    1    2    0  502 -0.80530687408E+02  0.57904362597E+02  0.63306215223E+02  0.11774232930E+03  0.41800000000E+01 0.  1.
        -11    1    3    3    0    0 -0.43215167929E+02  0.43932951141E+02  0.37637999860E+02  0.72209929848E+02  0.00000000000E+00 0.  1.
         11    1    3    3    0    0  0.11511583916E+02  0.39887698594E+01 -0.33229262388E+02  0.35392241072E+02  0.00000000000E+00 0. -1.
</event>
<event>
 8    1  0.8061721E-006  0.1574277E+03  0.7561462E-02  0.1191632E+00
         -2   -1    0    0    0  501 -0.00000000000E+00  0.00000000000E+00  0.13915771097E+03  0.13915771097E+03  0.00000000000E+00 0.  1.
          2   -1    0    0  501    0  0.00000000000E+00 -0.00000000000E+00 -0.24462298935E+03  0.24462298935E+03  0.00000000000E+00 0. -1.
         23    2    1    2    0    0 -0.13195393916E+03  0.22297999722E+02  0.27168882764E+02  0.15762102289E+03  0.78722270145E+02 0.  0.
         23    2    1    2    0    0  0.13195393916E+03 -0.22297999722E+02 -0.13263416114E+03  0.22615967743E+03  0.12508931267E+03 0.  0.
          5    1    4    4  502    0  0.14345132406E+02 -0.38139409844E+02 -0.91912262374E+02  0.10062670511E+03  0.41800000000E+01 0. -1.
         -5    1    4    4    0  502  0.11760880675E+03  0.15841410123E+02 -0.40721898765E+02  0.12553297232E+03  0.41800000000E+01 0. -1.
        -11    1    3    3    0    0 -0.39026302600E+02  0.44922561838E+02  0.75057886155E+01  0.59978543826E+02  0.00000000000E+00 0. -1.
         11    1    3    3    0    0 -0.92927636556E+02 -0.22624562117E+02  0.19663094148E+02  0.97642479067E+02  0.00000000000E+00 0.  1.
</event>
<event>
 8    1  0.8061721E-006  0.1004587E+03  0.7561462E-02  0.1279334E+00
         -1   -1    0    0    0  501 -0.00000000000E+00  0.00000000000E+00  0.22408253394E+03  0.22408253394E+03  0.00000000000E+00 0.  1.
          1   -1    0    0  501    0  0.00000000000E+00 -0.00000000000E+00 -0.79593562894E+02  0.79593562894E+02  0.00000000000E+00 0. -1.
         23    2    1    2    0    0  0.12517060226E+02  0.71432798758E+02  0.10733596003E+03  0.15438912087E+03  0.83998040402E+02 0.  0.
         23    2    1    2    0    0 -0.12517060226E+02 -0.71432798758E+02  0.37153011017E+02  0.14928697597E+03  0.12508770296E+03 0.  0.
          5    1    4    4  502    0  0.43442081146E+02 -0.29689657069E+02  0.55896639183E+02  0.76880405977E+02  0.41800000000E+01 0.  1.
         -5    1    4    4    0  502 -0.55959141372E+02 -0.41743141690E+02 -0.18743628166E+02  0.72406569992E+02  0.41800000000E+01 0.  1.
        -11    1    3    3    0    0  0.21913301622E+02  0.43207637825E+02  0.60477912861E+01  0.48822827999E+02  0.00000000000E+00 0. -1.
         11    1    3    3    0    0 -0.93962413956E+01  0.28225160933E+02  0.10128816875E+03  0.10556629287E+03  0.00000000000E+00 0.  1.
</event>
<event>
 8    1  0.8061721E-006  0.1940951E+03  0.7561462E-02  0.1154819E+00
         -3   -1    0    0    0  501 -0.00000000000E+00  0.00000000000E+00  0.27908349614E+03  0.27908349614E+03  0.00000000000E+00 0.  1.
          3   -1    0    0  501    0  0.00000000000E+00 -0.00000000000E+00 -0.26934247157E+03  0.26934247157E+03  0.00000000000E+00 0. -1.
         23    2    1    2    0    0  0.47942852751E+02 -0.17347433749E+03  0.18242799862E+03  0.27221518461E+03  0.91811051382E+02 0.  0.
         23    2    1    2    0    0 -0.47942852751E+02  0.17347433749E+03 -0.17268697405E+03  0.27621078310E+03  0.11865809200E+03 0.  0.
          5    1    4    4  502    0 -0.65017154039E+02  0.54753407355E+02 -0.11496257715E+03  0.14303507430E+03  0.41800000000E+01 0. -1.
         -5    1    4    4    0  502  0.17074301288E+02  0.11872093013E+03 -0.57724396902E+02  0.13317570880E+03  0.41800000000E+01 0.  1.
        -11    1    3    3    0    0  0.46358514128E+02 -0.10740091490E+03  0.16775502156E+03  0.20451360740E+03  0.00000000000E+00 0.  1.
         11    1    3    3    0    0  0.15843386226E+01 -0.66073422588E+02  0.14672977065E+02  0.67701577214E+02  0.00000000000E+00 0. -1.
</event>
<event>
 8    1  0.8061721E-006  0.1189025E+03  0.7561462E-02  0.1244919E+00
         -1   -1    0    0    0  501 -0.00000000000E+00  0.00000000000E+00  0.69636023373E+02  0.69636023373E+02  0.00000000000E+00 0.  1.
          1   -1    0    0  501    0  0.00000000000E+00 -0.00000000000E+00 -0.21672248558E+03  0.21672248558E+03  0.00000000000E+00 0. -1.
         23    2    1    2    0    0  0.35596545638E+02 -0.18034410617E+02 -0.35716468789E+02  0.11419206714E+03  0.10085538174E+03 0.  0.
         23    2    1    2    0    0 -0.35596545638E+02  0.18034410617E+02 -0.11136999342E+03  0.17216644182E+03  0.12508258962E+03 0.  0.
          5    1    4    4  502    0 -0.53302935577E+01  0.70259995198E+02 -0.55201464005E+02  0.89607773005E+02  0.41800000000E+01 0.  1.
         -5    1    4    4    0  502 -0.30266252080E+02 -0.52225584581E+02 -0.56168529412E+02  0.82558668812E+02  0.41800000000E+01 0.  1.
        -11    1    3    3    0    0  0.21468091430E+02 -0.59315462017E+02 -0.10959495094E+02  0.64025881616E+02  0.00000000000E+00 0.  1.
         11    1    3    3    0    0  0.14128454208E+02  0.41281051400E+02 -0.24756973695E+02  0.50166185519E+02  0.00000000000E+00 0. -1.
</event>
<event>
 8    1  0.8061721E-006  0.1324485E+03  0.7561462E-02  0.1223867E+00
          4   -1    0    0  501    0  0.00000000000E+00  0.00000000000E+00  0.22323322648E+03  0.22323322648E+03  0.00000000000E+00 0. -1.
         -4   -1    0    0    0  501 -0.00000000000E+00 -0.00000000000E+00 -0.14286506334E+03  0.14286506334E+03  0.00000000000E+00 0.  1.
         23    2    1    2    0    0 -0.34657259035E+02 -0.11073590875E+03 -0.45238446966E+02  0.15423122105E+03  0.90979038100E+02 0.  0.
         23    2    1    2    0    0  0.34657259035E+02  0.11073590875E+03  0.12560661010E+03  0.21186706876E+03  0.12508823780E+03 0.  0.
          5    1    4    4  502    0 -0.12825424261E+02  0.30371651528E+02 -0.20053346741E+02  0.38814144839E+02  0.41800000000E+01 0.  1.
         -5    1    4    4    0  502  0.47482683296E+02  0.80364257217E+02  0.14565995685E+03  0.17305292393E+03  0.41800000000E+01 0.  1.
        -11    1    3    3    0    0  0.12336743255E+02 -0.82470128773E+02 -0.39119098796E+00  0.83388670720E+02  0.00000000000E+00 0. -1.
         11    1    3    3    0    0 -0.46994002291E+02 -0.28265779972E+02 -0.44847255978E+02  0.70842550332E+02  0.00000000000E+00 0.  1.
</event>
<event>
 8    1  0.8061721E-006  0.9218224E+02  0.7561462E-02  0.1297652E+00
         -2   -1    0    0    0  501 -0.00000000000E+00  0.00000000000E+00  0.39190832068E+02  0.39190832068E+02  0.00000000000E+00 0.  1.
          2   -1    0    0  501    0  0.00000000000E+00 -0.00000000000E+00 -0.33985852745E+03  0.33985852745E+03  0.00000000000E+00 0. -1.
         23    2    1    2    0    0  0.39915017860E+01  0.37647637381E+02 -0.11469163834E+03  0.15174286284E+03  0.91861024543E+02 0.  0.
         23    2    1    2    0    0 -0.39915017860E+01 -0.37647637381E+02 -0.18597605704E+03  0.22730649668E+03  0.12509145835E+03 0.  0.
          5    1    4    4  502    0  0.46228086196E+02 -0.17882834782E+02 -0.21568843217E+02  0.54217332384E+02  0.41800000000E+01 0. -1.
         -5    1    4    4    0  502 -0.50219587982E+02 -0.19764802599E+02 -0.16440721382E+03  0.17308916429E+03  0.41800000000E+01 0. -1.
        -11    1    3    3    0    0  0.16113346261E+02  0.56125279696E+02 -0.11572224146E+03  0.12961992176E+03  0.00000000000E+00 0. -1.
         11    1    3    3    0    0 -0.12121844475E+02 -0.18477642315E+02  0.10306031228E+01  0.22122941075E+02  0.00000000000E+00 0.  1.
</event>
<event>
 8    1  0.8061721E-006  0.9791433E+02  0.7561462E-02  0.1284744E+00
          1   -1    0    0  501    0  0.00000000000E+00  0.00000000000E+00  0.74128432386E+03  0.74128432386E+03  0.00000000000E+00 0. -1.
         -1   -1    0    0    0  501 -0.00000000000E+00 -0.00000000000E+00 -0.21089257027E+02  0.21089257027E+02  0.00000000000E+00 0.  1.
         23    2    1    2    0    0 -0.57556818318E+02  0.23528898150E+02  0.27713766706E+03  0.29781703527E+03  0.89572895511E+02 0.  0.
         23    2    1    2    0    0  0.57556818318E+02 -0.23528898150E+02  0.44305739976E+03  0.46455654561E+03  0.12508608316E+03 0.  0.
          5    1    4    4  502    0  0.51618855550E+02  0.26901836170E+02  0.37514009899E+03  0.37965218465E+03  0.41800000000E+01 0.  1.
         -5    1    4    4    0  502  0.59379627678E+01 -0.50430734320E+02  0.67917300773E+02  0.84904360961E+02  0.41800000000E+01 0.  1.
        -11    1    3    3    0    0 -0.22806729881E+02 -0.20336998434E+02  0.24818039951E+02  0.39365918510E+02  0.00000000000E+00 0.  1.
         11    1    3    3    0    0 -0.34750088437E+02  0.43865896584E+02  0.25231962711E+03  0.25845111676E+03  0.00000000000E+00 0. -1.
</event>
<event>
 8    1  0.8061721E-006  0.6561493E+02  0.7561462E-02  0.1375673E+00
          1   -1    0    0  501    0  0.00000000000E+00  0.00000000000E+00  0.18091391131E+04  0.18091391131E+04  0.00000000000E+00 0. -1.
         -1   -1    0    0    0  501 -0.00000000000E+00 -0.00000000000E+00 -0.19449576642E+02  0.19449576642E+02  0.00000000000E+00 0.  1.
         23    2    1    2    0    0 -0.60342206079E+02  0.13319985245E+02  0.18709237419E+03  0.21992963102E+03  0.97708148489E+02 0.  0.
         23    2    1    2    0    0  0.60342206079E+02 -0.13319985245E+02  0.16025971623E+04  0.16086590587E+04  0.12509076242E+03 0.  0.
          5    1    4    4  502    0  0.30025925542E+02  0.72260384357E+01  0.14870163956E+04  0.14873429345E+04  0.41800000000E+01 0.  1.
         -5    1    4    4    0  502  0.30316280537E+02 -0.20546023681E+02  0.11558076671E+03  0.12131612419E+03  0.41800000000E+01 0.  1.
        -11    1    3    3    0    0 -0.26433099901E+02  0.12613117250E+02 -0.50339679759E+00  0.29292540099E+02  0.00000000000E+00 0.  1.
         11    1    3    3    0    0 -0.33909106178E+02  0.70686799550E+00  0.18759577098E+03  0.19063709092E+03  0.00000000000E+00 0. -1.
</event>
<event>
 7    1  0.8061721E-006  0.1347853E+03  0.7561462E-02  0.1220523E+00
         -2   -1    0    0    0  501 -0.00000000000E+00  0.00000000000E+00  0.36138830135E+02  0.36138830135E+02  0.00000000000E+00 0.  1.
          2   -1    0    0  501    0  0.00000000000E+00 -0.00000000000E+00 -0.54501159473E+03  0.54501159473E+03  0.00000000000E+00 0. -1.
         23    2    1    2    0    0  0.70917739538E+02  0.44723858770E+02 -0.18899769850E+03  0.22596053700E+03  0.91150890939E+02 0.  0.
          5    1    1    2  502    0 -0.34108921935E+02 -0.89718130286E+02 -0.20322277400E+03  0.22478818859E+03  0.41800000000E+01 0. -1.
         -5    1    1    2    0  502 -0.36808817603E+02  0.44994271516E+02 -0.11665229210E+03  0.13040169928E+03  0.41800000000E+01 0.  1.
        -11    1    3    3    0    0  0.21844476049E+02  0.59971920409E+02 -0.62095403691E+02  0.89048590842E+02  0.00000000000E+00 0.  1.
         11    1    3    3    0    0  0.49073263489E+02 -0.15248061639E+02 -0.12690229481E+03  0.13691194616E+03  0.00000000000E+00 0. -1.
</event>
<event>
 8    1  0.8061721E-006  0.6660146E+02  0.7561462E-02  0.1372047E+00
          4   -1    0    0  501    0  0.00000000000E+00  0.00000000000E+00  0.33594309372E+03  0.33594309372E+03  0.00000000000E+00 0. -1.
         -4   -1    0    0    0  501 -0.00000000000E+00 -0.00000000000E+00 -0.41382294460E+02  0.41382294460E+02  0.00000000000E+00 0.  1.
         23    2    1    2    0    0 -0.13166134636E+02 -0.31931202540E+01  0.66092311863E+02  0.11650145228E+03  0.94978163693E+02 0.  0.
         23    2    1    2    0    0  0.13166134636E+02  0.31931202540E+01  0.22846848739E+03  0.26082393589E+03  0.12509089769E+03 0.  0.
          5    1    4    4  502    0 -0.53747539222E+01 -0.12358463837E+02 -0.12353105977E+02  0.18753432630E+02  0.41800000000E+01 0.  1.
         -5    1    4    4    0  502  0.18540888558E+02  0.15551584091E+02  0.24082159337E+03  0.24207050326E+03  0.41800000000E+01 0.  1.
        -11    1    3    3    0    0  0.16313252974E+02 -0.42429963225E+02  0.41741404475E+02  0.61715223806E+02  0.00000000000E+00 0. -1.
         11    1    3    3    0    0 -0.29479387611E+02  0.39236842971E+02  0.24350907388E+02  0.54786228478E+02  0.00000000000E+00 0.  1.
</event>
<event>
 8    1  0.8061721E-006  0.1132708E+03  0.7561462E-02  0.1254630E+00
         -1   -1    0    0    0  501 -0.00000000000E+00  0.00000000000E+00  0.19241088310E+02  0.19241088310E+02  0.00000000000E+00 0.  1.
          1   -1    0    0  501    0  0.00000000000E+00 -0.00000000000E+00 -0.12167668258E+04  0.12167668258E+04  0.00000000000E+00 0. -1.
         23    2    1    2    0    0 -0.78239475565E+02 -0.56012029609E+02 -0.36563211088E+03  0.38927703282E+03  0.92687673272E+02 0.  0.
         23    2    1    2    0    0  0.78239475565E+02  0.56012029609E+02 -0.83189362661E+03  0.84673088129E+03  0.12508963322E+03 0.  0.
          5    1    4    4  502    0  0.67292646682E+02  0.42777598802E+02 -0.82314364090E+03  0.82700734532E+03  0.41800000000E+01 0. -1.
         -5    1    4    4    0  502  0.10946828883E+02  0.13234430807E+02 -0.87499857124E+01  0.19723535975E+02  0.41800000000E+01 0. -1.
        -11    1    3    3    0    0 -0.52990726267E+02 -0.78830182049E+02 -0.21836986139E+03  0.23813359913E+03  0.00000000000E+00 0.  1.
         11    1    3    3    0    0 -0.25248749298E+02  0.22818152440E+02 -0.14726224949E+03  0.15114343369E+03  0.00000000000E+00 0. -1.
</event>
<event>
 8    1  0.8061721E-006  0.9671376E+02  0.7561462E-02  0.1287362E+00
          2   -1    0    0  501    0  0.00000000000E+00  0.00000000000E+00  0.18246051938E+03  0.18246051938E+03  0.00000000000E+00 0. -1.
         -2   -1    0    0    0  501 -0.00000000000E+00 -0.00000000000E+00 -0.79457491759E+02  0.79457491759E+02  0.00000000000E+00 0.  1.
         23    2    1    2    0    0 -0.13195550550E+02  0.15457917220E+02 -0.61282044736E+01  0.94745045684E+02  0.92336336470E+02 0.  0.
         23    2    1    2    0    0  0.13195550550E+02 -0.15457917220E+02  0.10913123209E+03  0.16717296545E+03  0.12499641915E+03 0.  0.
          5    1    4    4  502    0 -0.43833320188E+02 -0.76490982270E+01  0.11148830915E+01  0.44705525684E+02  0.41800000000E+01 0.  1.
         -5    1    4    4    0  502  0.57028870738E+02 -0.78088189927E+01  0.10801634900E+03  0.12246743977E+03  0.41800000000E+01 0.  1.
        -11    1    3    3    0    0  0.35913977615E+02  0.20998404481E+02 -0.15588082292E+02  0.44426738440E+02  0.00000000000E+00 0.  1.
         11    1    3    3    0    0 -0.49109528164E+02 -0.55404872614E+01  0.94598778185E+01  0.50318307245E+02  0.00000000000E+00 0. -1.
</event>
<event>
 8    1  0.8061721E-006  0.9548536E+02  0.7561462E-02  0.1290087E+00
         -2   -1    0    0    0  501 -0.00000000000E+00  0.00000000000E+00  0.17233753876E+02  0.17233753876E+02  0.00000000000E+00 0.  1.
          2   -1    0    0  501    0  0.00000000000E+00 -0.00000000000E+00 -0.94056298663E+03  0.94056298663E+03  0.00000000000E+00 0. -1.
         23    2    1    2    0    0  0.15916812694E+02 -0.11717037536E+02 -0.17017544985E+03  0.19406983714E+03  0.91174470441E+02 0.  0.
         23    2    1    2    0    0 -0.15916812694E+02  0.11717037536E+02 -0.75315378290E+03  0.76372690337E+03  0.12509008087E+03 0.  0.
          5    1    4    4  502    0 -0.61426436372E+02  0.13568221594E+02 -0.22710911335E+03  0.23569752967E+03  0.41800000000E+01 0. -1.
         -5    1    4    4    0  502  0.45509623678E+02 -0.18511840586E+01 -0.52604466955E+03  0.52802937370E+03  0.41800000000E+01 0. -1.
        -11    1    3    3    0    0  0.37435811110E+02 -0.34456296503E+02 -0.55918405858E+02  0.75601219804E+02  0.00000000000E+00 0.  1.
         11    1    3    3    0    0 -0.21518998416E+02  0.22739258968E+02 -0.11425704399E+03  0.11846861733E+03  0.00000000000E+00 0. -1.
</event>
<event>
 8    1  0.8061721E-006  0.9686111E+02  0.7561462E-02  0.1287039E+00
         -3   -1    0    0    0  501 -0.00000000000E+00  0.00000000000E+00  0.45006127255E+02  0.45006127255E+02  0.00000000000E+00 0.  1.
          3   -1    0    0  501    0  0.00000000000E+00 -0.00000000000E+00 -0.28464576959E+03  0.28464576959E+03  0.00000000000E+00 0. -1.
         23    2    1    2    0    0 -0.29097325513E+02  0.12278759497E+02 -0.11514103241E+03  0.15036211975E+03  0.91399602981E+02 0.  0.
         23    2    1    2    0    0  0.29097325513E+02 -0.12278759497E+02 -0.12449860992E+03  0.17928977709E+03  0.12508995967E+03 0.  0.
          5    1    4    4  502    0 -0.23181565959E+02  0.39677917387E+02 -0.82040581185E+02  0.94126784125E+02  0.41800000000E+01 0.  1.
         -5    1    4    4    0  502  0.52278891473E+02 -0.51956676884E+02 -0.42458028738E+02  0.85162992965E+02  0.41800000000E+01 0.  1.
        -11    1    3    3    0    0 -0.46913761960E+02 -0.70801293227E+01 -0.19719231459E+02  0.51379737074E+02  0.00000000000E+00 0.  1.
         11    1    3    3    0    0  0.17816436447E+02  0.19358888820E+02 -0.95421800948E+02  0.98982382675E+02  0.00000000000E+00 0. -1.
</event>
<event>
 8    1  0.8061721E-006  0.1390273E+03  0.7561462E-02  0.1214644E+00
          3   -1    0    0  501    0  0.00000000000E+00  0.00000000000E+00  0.30264717199E+03  0.30264717199E+03  0.00000000000E+00 0. -1.
         -3   -1    0    0    0  501 -0.00000000000E+00 -0.00000000000E+00 -0.10877935826E+03  0.10877935826E+03  0.00000000000E+00 0.  1.
         23    2    1    2    0    0 -0.11268457127E+03 -0.42428974096E+02 -0.56511160824E+00  0.15075534372E+03  0.90712864929E+02 0.  0.
         23    2    1    2    0    0  0.11268457127E+03  0.42428974096E+02  0.19443292534E+03  0.26067118652E+03  0.12508906660E+03 0.  0.
          5    1    4    4  502    0  0.85222654808E+02 -0.80507693359E+01  0.18279573477E+03  0.20188974424E+03  0.41800000000E+01 0. -1.
         -5    1    4    4    0  502  0.27461916466E+02  0.50479743432E+02  0.11637190568E+02  0.58781442286E+02  0.41800000000E+01 0. -1.
        -11    1    3    3    0    0 -0.73556024080E+02 -0.56919328152E+02  0.31430942430E+02  0.98174348675E+02  0.00000000000E+00 0. -1.
         11    1    3    3    0    0 -0.39128547195E+02  0.14490354056E+02 -0.31996054038E+02  0.52580995048E+02  0.00000000000E+00 0.  1.
</event>
<event>
 7    1  0.8061721E-006  0.2538763E+03  0.7561462E-02  0.1110879E+00
          2   -1    0    0  501    0  0.00000000000E+00  0.00000000000E+00  0.61550077336E+03  0.61550077336E+03  0.00000000000E+00 0. -1.
         -2   -1    0    0    0  501 -0.00000000000E+00 -0.00000000000E+00 -0.45342444489E+03  0.45342444489E+03  0.00000000000E+00 0.  1.
         23    2    1    2    0    0  0.22797498527E+03 -0.41611189875E+01 -0.38328927841E+03  0.45515531232E+03  0.90916327313E+02 0.  0.
          5    1    1    2  502    0 -0.21209426154E+03  0.56772883455E+02  0.37340454656E+03  0.43319229433E+03  0.41800000000E+01 0. -1.
         -5    1    1    2    0  502 -0.15880723733E+02 -0.52611764467E+02  0.17196106031E+03  0.18057761160E+03  0.41800000000E+01 0.  1.
        -11    1    3    3    0    0  0.13828144671E+03 -0.26043056532E+02 -0.29761722187E+03  0.32920511851E+03  0.00000000000E+00 0.  1.
         11    1    3    3    0    0  0.89693538563E+02  0.21881937544E+02 -0.85672056533E+02  0.12595019381E+03  0.00000000000E+00 0. -1.
</event>
<event>
 8    1  0.8061721E-006  0.8626940E+02  0.7561462E-02  0.1312146E+00
          2   -1    0    0  501    0  0.00000000000E+00  0.00000000000E+00  0.21917244540E+03  0.21917244540E+03  0.00000000000E+00 0. -1.
         -2   -1    0    0    0  501 -0.00000000000E+00 -0.00000000000E+00 -0.59886112607E+02  0.59886112607E+02  0.00000000000E+00 0.  1.
         23    2    1    2    0    0  0.85548066897E+01 -0.24624953910E+02  0.35468726373E+02  0.10113237723E+03  0.91050283363E+02 0.  0.
         23    2    1    2    0    0 -0.85548066897E+01  0.24624953910E+02  0.12381760642E+03  0.17792618078E+03  0.12508938035E+03 0.  0.
          5    1    4    4  502    0 -0.12830947083E+02  0.60196083882E+02  0.12752826718E+03  0.14166556762E+03  0.41800000000E+01 0.  1.
         -5    1    4    4    0  502  0.42761403935E+01 -0.35571129973E+02 -0.37106607551E+01  0.36260613170E+02  0.41800000000E+01 0.  1.
        -11    1    3    3    0    0 -0.48918654006E+01 -0.47765131543E+02  0.51115999049E+02  0.70130474811E+02  0.00000000000E+00 0. -1.
         11    1    3    3    0    0  0.13446672090E+02  0.23140177633E+02 -0.15647272676E+02  0.31001902416E+02  0.00000000000E+00 0.  1.
</event>
<event>
 8    1  0.8061721E-006  0.2487996E+03  0.7561462E-02  0.1114066E+00
         -1   -1    0    0    0  501 -0.00000000000E+00  0.00000000000E+00  0.93784284552E+03  0.93784284552E+03  0.00000000000E+00 0.  1.
          1   -1    0    0  501    0  0.00000000000E+00 -0.00000000000E+00 -0.69932957859E+02  0.69932957859E+02  0.00000000000E+00 0. -1.
         23    2    1    2    0    0  0.22066882008E+03 -0.71098854881E+02  0.40639627597E+03  0.47636994630E+03  0.89557899147E+02 0.  0.
         23    2    1    2    0    0 -0.22066882008E+03  0.71098854881E+02  0.46151361169E+03  0.53140585707E+03  0.12509035071E+03 0.  0.
          5    1    4    4  502    0 -0.96788347912E+02 -0.17905174104E+02  0.26419291113E+03  0.28196444145E+03  0.41800000000E+01 0.  1.
         -5    1    4    4    0  502 -0.12388047216E+03  0.89004028985E+02  0.19732070056E+03  0.24944141562E+03  0.41800000000E+01 0.  1.
        -11    1    3    3    0    0  0.13085035564E+03  0.17103025445E+01  0.24604541524E+03  0.27868097723E+03  0.00000000000E+00 0.  1.
         11    1    3    3    0    0  0.89818464435E+02 -0.72809157425E+02  0.16035086072E+03  0.19768896907E+03  0.00000000000E+00 0. -1.
</event>
<event>
 8    1  0.8061721E-006  0.1087202E+03  0.7561462E-02  0.1262958E+00
          1   -1    0    0  501    0  0.00000000000E+00  0.00000000000E+00  0.95556330199E+03  0.95556330199E+03  0.00000000000E+00 0. -1.
         -1   -1    0    0    0  501 -0.00000000000E+00 -0.00000000000E+00 -0.17763315677E+02  0.17763315677E+02  0.00000000000E+00 0.  1.
         23    2    1    2    0    0 -0.34074863264E+02 -0.37379128969E+02  0.24107836055E+03  0.26365960029E+03  0.94017622333E+02 0.  0.
         23    2    1    2    0    0  0.34074863264E+02  0.37379128969E+02  0.69672162576E+03  0.70966701738E+03  0.12509179095E+03 0.  0.
          5    1    4    4  502    0 -0.43351670612E+02 -0.90110989362E+01  0.24272865045E+03  0.24676960388E+03  0.41800000000E+01 0. -1.
         -5    1    4    4    0  502  0.77426533876E+02  0.46390227905E+02  0.45399297531E+03  0.46289741349E+03  0.41800000000E+01 0. -1.
        -11    1    3    3    0    0  0.96220194174E+01 -0.37701698627E+02  0.32931793375E+02  0.50975526990E+02  0.00000000000E+00 0.  1.
         11    1    3    3    0    0 -0.43696882681E+02  0.32256965820E+00  0.20814656718E+03  0.21268407330E+03  0.00000000000E+00 0. -1.
</event>
<event>
 8    1  0.8061721E-006  0.1182123E+03  0.7561462E-02  0.1246076E+00
          2   -1    0    0  501    0  0.00000000000E+00  0.00000000000E+00  0.50847974494E+03  0.50847974494E+03  0.00000000000E+00 0. -1.
         -2   -1    0    0    0  501 -0.00000000000E+00 -0.00000000000E+00 -0.47282841326E+02  0.47282841326E+02  0.00000000000E+00 0.  1.
         23    2    1    2    0    0 -0.75079190064E+02  0.40940313544E+02  0.88648992527E+02  0.15357903135E+03  0.91732660167E+02 0.  0.
         23    2    1    2    0    0  0.75079190064E+02 -0.40940313544E+02  0.37254791109E+03  0.40218355491E+03  0.12508665689E+03 0.  0.
          5    1    4    4  502    0  0.95769438446E+02  0.90852610417E+01  0.21611618212E+03  0.23659671148E+03  0.41800000000E+01 0. -1.
         -5    1    4    4    0  502 -0.20690248382E+02 -0.50025574586E+02  0.15643172896E+03  0.16558684343E+03  0.41800000000E+01 0. -1.
        -11    1    3    3    0    0 -0.49756324539E+02  0.23070909966E+02 -0.48675819641E+01  0.55060440177E+02  0.00000000000E+00 0.  1.
         11    1    3    3    0    0 -0.25322865525E+02  0.17869403578E+02  0.93516574491E+02  0.98518591175E+02  0.00000000000E+00 0. -1.
</event>
<event>
 8    1  0.8061721E-006  0.1001794E+03  0.7561462E-02  0.1279919E+00
          1   -1    0    0  501    0  0.00000000000E+00  0.00000000000E+00  0.16166889306E+04  0.16166889306E+04  0.00000000000E+00 0. -1.
         -1   -1    0    0    0  501 -0.00000000000E+00 -0.00000000000E+00 -0.18073925589E+02  0.18073925589E+02  0.00000000000E+00 0.  1.
         23    2    1    2    0    0  0.36678094689E+02  0.11952851511E+02  0.14785807326E+03  0.17811222365E+03  0.91508475526E+02 0.  0.
         23    2    1    2    0    0 -0.36678094689E+02 -0.11952851511E+02  0.14507569318E+04  0.14566506326E+04  0.12508891635E+03 0.  0.
          5    1    4    4  502    0 -0.70487753372E+02 -0.31172061237E+02  0.12326410202E+04  0.12350552934E+04  0.41800000000E+01 0.  1.
         -5    1    4    4    0  502  0.33809658683E+02  0.19219209726E+02  0.21811591157E+03  0.22159533913E+03  0.41800000000E+01 0.  1.
        -11    1    3    3    0    0  0.99527622612E+01 -0.31505361063E+02  0.15963753495E+02  0.36694504738E+02  0.00000000000E+00 0.  1.
         11    1    3    3    0    0  0.26725332428E+02  0.43458212574E+02  0.13189431977E+03  0.14141771891E+03  0.00000000000E+00 0. -1.
</event>
<event>
 8    1  0.8061721E-006  0.1306643E+03  0.7561462E-02  0.1226473E+00
          1   -1    0    0  501    0  0.00000000000E+00  0.00000000000E+00  0.66399446094E+03  0.66399446094E+03  0.00000000000E+00 0. -1.
         -1   -1    0    0    0  501 -0.00000000000E+00 -0.00000000000E+00 -0.41251643023E+02  0.41251643023E+02  0.00000000000E+00 0.  1.
         23    2    1    2    0    0  0.38024191428E+02 -0.10319477921E+03  0.17525307293E+03  0.22776347663E+03  0.95223737193E+02 0.  0.
         23    2    1    2    0    0 -0.38024191428E+02  0.10319477921E+03  0.44748974499E+03  0.47748262734E+03  0.12509031116E+03 0.  0.
          5    1    4    4  502    0 -0.13727212257E+02  0.83451834606E+02  0.43556854356E+03  0.44372296943E+03  0.41800000000E+01 0.  1.
         -5    1    4    4    0  502 -0.24296979171E+02  0.19742944606E+02  0.11921201427E+02  0.33759657908E+02  0.41800000000E+01 0.  1.
        -11    1    3    3    0    0  0.51919852793E+02 -0.12618369233E+02  0.56471439785E+02  0.77742638671E+02  0.00000000000E+00 0.  1.
         11    1    3    3    0    0 -0.13895661365E+02 -0.90576409979E+02  0.11878163315E+03  0.15002083796E+03  0.00000000000E+00 0. -1.
</event>
<event>
 8    1  0.8061721E-006  0.1225051E+03  0.7561462E-02  0.1239021E+00
          2   -1    0    0  501    0  0.00000000000E+00  0.00000000000E+00  0.27733198320E+03  0.27733198320E+03  0.00000000000E+00 0. -1.
         -2   -1    0    0    0  501 -0.00000000000E+00 -0.00000000000E+00 -0.72810576999E+02  0.72810576999E+02  0.00000000000E+00 0.  1.
         23    2    1    2    0    0  0.16212306264E+02 -0.66276546672E+02  0.18300640470E+02  0.11566107062E+03  0.91581386218E+02 0.  0.
         23    2    1    2    0    0 -0.16212306264E+02  0.66276546672E+02  0.18622076573E+03  0.23448148959E+03  0.12509186966E+03 0.  0.
          5    1    4    4  502    0 -0.63071005782E+02  0.22234230188E+02  0.13989824632E+03  0.15511706704E+03  0.41800000000E+01 0.  1.
         -5    1    4    4    0  502  0.46858699518E+02  0.44042316484E+02  0.46322519415E+02  0.79364422550E+02  0.41800000000E+01 0.  1.
        -11    1    3    3    0    0 -0.26867960070E+02 -0.65142577913E+02  0.53815667941E+01  0.70671097321E+02  0.00000000000E+00 0. -1.
         11    1    3    3    0    0  0.43080266334E+02 -0.11339687593E+01  0.12919073676E+02  0.44989973296E+02  0.00000000000E+00 0.  1.
</event>
<event>
 7    1  0.8061721E-006  0.7132413E+02  0.7561462E-02  0.1355647E+00
         -2   -1    0    0    0  501 -0.00000000000E+00  0.00000000000E+00  0.53080508426E+02  0.53080508426E+02  0.00000000000E+00 0.  1.
          2   -1    0    0  501    0  0.00000000000E+00 -0.00000000000E+00 -0.43083822039E+03  0.43083822039E+03  0.00000000000E+00 0. -1.
         23    2    1    2    0    0 -0.26467497711E+01  0.45576383737E+02 -0.10352907544E+03  0.15016736089E+03  0.98730718494E+02 0.  0.
          5    1    1    2  502    0 -0.22131488599E+01 -0.56542353723E+02 -0.29984097898E+03  0.30516228612E+03  0.41800000000E+01 0. -1.
         -5    1    1    2    0  502  0.48598986310E+01  0.10965969986E+02  0.25612342462E+02  0.28589081811E+02  0.41800000000E+01 0.  1.
        -11    1    3    3    0    0 -0.27694982943E+02  0.94842617474E+01 -0.10209776076E+03  0.10621165686E+03  0.00000000000E+00 0.  1.
         11    1    3    3    0    0  0.25048233172E+02  0.36092121990E+02 -0.14313146864E+01  0.43955704027E+02  0.00000000000E+00 0. -1.
</event>
<event>
 8    1  0.8061721E-006  0.1230348E+03  0.7561462E-02  0.1238173E+00
         -2   -1    0    0    0  501 -0.00000000000E+00  0.00000000000E+00  0.28965315238E+03  0.28965315238E+03  0.00000000000E+00 0. -1.
          2   -1    0    0  501    0  0.00000000000E+00 -0.00000000000E+00 -0.59014634799E+02  0.59014634799E+02  0.00000000000E+00 0.  1.
         23    2    1    2    0    0 -0.21407145886E+02 -0.70474119507E+02  0.11523999589E+03  0.16322401248E+03  0.89089585146E+02 0.  0.
         23    2    1    2    0    0  0.21407145886E+02  0.70474119507E+02  0.11539852169E+03  0.18544377470E+03  0.12509079643E+03 0.  0.
          5    1    4    4  502    0 -0.43423122223E+01 -0.29220185954E+02 -0.11666072342E+01  0.29858136497E+02  0.41800000000E+01 0. -1.
         -5    1    4    4    0  502  0.25749458108E+02  0.99694305461E+02  0.11656512892E+03  0.15558563820E+03  0.41800000000E+01 0. -1.
        -11    1    3    3    0    0  0.28430586158E+02 -0.20109626277E+01  0.15711314189E+02  0.32545162367E+02  0.00000000000E+00 0.  1.
         11    1    3    3    0    0 -0.49837732044E+02 -0.68463156879E+02  0.99528681703E+02  0.13067885011E+03  0.00000000000E+00 0. -1.
</event>
<event>
 8    1  0.8061721E-006  0.1604123E+03  0.7561462E-02  0.1188232E+00
          4   -1    0    0  501    0  0.00000000000E+00  0.00000000000E+00  0.41499752984E+03  0.41499752984E+03  0.00000000000E+00 0. -1.
         -4   -1    0    0    0  501 -0.00000000000E+00 -0.00000000000E+00 -0.11768933584E+03  0.11768933584E+03  0.00000000000E+00 0.  1.
         23    2    1    2    0    0  0.31467854116E+02  0.13298148498E+03 -0.17935644329E+02  0.16703647249E+03  0.94367338704E+02 0.  0.
         23    2    1    2    0    0 -0.31467854116E+02 -0.13298148498E+03  0.31524383832E+03  0.36565039319E+03  0.12508889338E+03 0.  0.
          5    1    4    4  502    0  0.19627930511E+02 -0.10668363367E+03  0.11878264608E+03  0.16091439574E+03  0.41800000000E+01 0. -1.
         -5    1    4    4    0  502 -0.51095784627E+02 -0.26297851317E+02  0.19646119224E+03  0.20473599744E+03  0.41800000000E+01 0. -1.
        -11    1    3    3    0    0 -0.13555366180E+02  0.94373525147E+02 -0.40489054221E+02  0.10358317292E+03  0.00000000000E+00 0.  1.
         11    1    3    3    0    0  0.45023220296E+02  0.38607959838E+02  0.22553409893E+02  0.63453299571E+02  0.00000000000E+00 0. -1.
</event>
<event>
 8    1  0.8061721E-006  0.9997062E+02  0.7561462E-02  0.1280358E+00
          1   -1    0    0  501    0  0.00000000000E+00  0.00000000000E+00  0.10697380900E+03  0.10697380900E+03  0.00000000000E+00 0. -1.
         -1   -1    0    0    0  501 -0.00000000000E+00 -0.00000000000E+00 -0.15056831588E+03  0.15056831588E+03  0.00000000000E+00 0.  1.
         23    2    1    2    0    0  0.13511728357E+02  0.28379073093E+02 -0.74354680298E+02  0.12494686382E+03  0.95368557211E+02 0.  0.
         23    2    1    2    0    0 -0.13511728357E+02 -0.28379073093E+02  0.30760173417E+02  0.13259526105E+03  0.12508947355E+03 0.  0.
          5    1    4    4  502    0 -0.58237641057E+02 -0.51754025207E+02  0.14102030149E+02  0.79287083534E+02  0.41800000000E+01 0. -1.
         -5    1    4    4    0  502  0.44725912700E+02  0.23374952114E+02  0.16658143268E+02  0.53308177519E+02  0.41800000000E+01 0. -1.
        -11    1    3    3    0    0 -0.27239286403E+00 -0.20496145580E+02 -0.71172532443E+02  0.74065481541E+02  0.00000000000E+00 0. -1.
         11    1    3    3    0    0  0.13784121221E+02  0.48875218673E+02 -0.31821478549E+01  0.50881382284E+02  0.00000000000E+00 0.  1.
</event>
<event>
 8    1  0.8061721E-006  0.2383781E+03  0.7561462E-02  0.1120878E+00
          2   -1    0    0  501    0  0.00000000000E+00  0.00000000000E+00  0.41168257493E+03  0.41168257493E+03  0.00000000000E+00 0.  1.
         -2   -1    0    0    0  501 -0.00000000000E+00 -0.00000000000E+00 -0.15538257085E+03  0.15538257085E+03  0.00000000000E+00 0. -1.
         23    2    1    2    0    0  0.86485475586E+02 -0.20934058956E+03  0.15105104937E+03  0.28773027028E+03  0.93107835317E+02 0.  0.
         23    2    1    2    0    0 -0.86485475586E+02  0.20934058956E+03  0.10524895472E+03  0.27933487550E+03  0.12508960899E+03 0.  0.
          5    1    4    4  502    0 -0.31154799551E+02 -0.13407401615E+01  0.41992581012E+02  0.52471595929E+02  0.41800000000E+01 0.  1.
         -5    1    4    4    0  502 -0.55330676035E+02  0.21068132972E+03  0.63256373704E+02  0.22686327957E+03  0.41800000000E+01 0.  1.
        -11    1    3    3    0    0  0.24195784075E+02 -0.84711041200E+02  0.86777544252E+01  0.88525137052E+02  0.00000000000E+00 0. -1.
         11    1    3    3    0    0  0.62289691511E+02 -0.12462954836E+03  0.14237329494E+03  0.19920513323E+03  0.00000000000E+00 0.  1.
</event>
<event>
 8    1  0.8061721E-006  0.2595457E+03  0.7561462E-02  0.1107417E+00
          2   -1    0    0  501    0  0.00000000000E+00  0.00000000000E+00  0.10954532331E+04  0.10954532331E+04  0.00000000000E+00 0. -1.
         -2   -1    0    0    0  501 -0.00000000000E+00 -0.00000000000E+00 -0.66823544655E+02  0.66823544655E+02  0.00000000000E+00 0.  1.
         23    2    1    2    0    0 -0.13682035025E+03  0.19981132510E+03  0.39565200310E+03  0.47310825905E+03  0.92986791209E+02 0.  0.
         23    2    1    2    0    0  0.13682035025E+03 -0.19981132510E+03  0.63297768534E+03  0.68916851870E+03  0.12509245840E+03 0.  0.
          5    1    4    4  502    0  0.41246666314E+02 -0.15111384677E+03  0.45608184897E+03  0.48224973564E+03  0.41800000000E+01 0.  1.
         -5    1    4    4    0  502  0.95573683936E+02 -0.48697478333E+02  0.17689583637E+03  0.20691878306E+03  0.41800000000E+01 0.  1.
        -11    1    3    3    0    0 -0.54487385816E+02  0.14814105281E+03  0.28527462387E+03  0.32603106871E+03  0.00000000000E+00 0. -1.
         11    1    3    3    0    0 -0.82332964434E+02  0.51670272294E+02  0.11037737923E+03  0.14707719033E+03  0.00000000000E+00 0.  1.
</event>
<event>
 8    1  0.8061721E-006  0.8154602E+02  0.7561462E-02  0.1324720E+00
          2   -1    0    0  501    0  0.00000000000E+00  0.00000000000E+00  0.53966256330E+03  0.53966256330E+03  0.00000000000E+00 0. -1.
         -2   -1    0    0    0  501 -0.00000000000E+00 -0.00000000000E+00 -0.32248034047E+02  0.32248034047E+02  0.00000000000E+00 0.  1.
         23    2    1    2    0    0 -0.19278185306E+02 -0.65509325794E+02  0.17233553807E+03  0.20778118233E+03  0.93863527816E+02 0.  0.
         23    2    1    2    0    0  0.19278185306E+02  0.65509325794E+02  0.33507899119E+03  0.36412941502E+03  0.12509668402E+03 0.  0.
          5    1    4    4  502    0  0.11947449967E+02  0.30515923193E+01 -0.80184923788E+01  0.15291252284E+02  0.41800000000E+01 0.  1.
         -5    1    4    4    0  502  0.73307353391E+01  0.62457733474E+02  0.34309748357E+03  0.34883816274E+03  0.41800000000E+01 0.  1.
        -11    1    3    3    0    0  0.74720801209E+01 -0.59058746256E+02  0.37927127749E+02  0.70584945349E+02  0.00000000000E+00 0.  1.
         11    1    3    3    0    0 -0.26750265427E+02 -0.64505795378E+01  0.13440841032E+03  0.13719623698E+03  0.00000000000E+00 0. -1.
</event>
<event>
 8    1  0.8061721E-006  0.1102639E+03  0.7561462E-02  0.1260082E+00
          3   -1    0    0  501    0  0.00000000000E+00  0.00000000000E+00  0.56659570332E+02  0.56659570332E+02  0.00000000000E+00 0. -1.
         -3   -1    0    0    0  501 -0.00000000000E+00 -0.00000000000E+00 -0.45785921612E+03  0.45785921612E+03  0.00000000000E+00 0.  1.
         23    2    1    2    0    0 -0.80306323642E+02 -0.63922985207E+02 -0.28172835677E+03  0.31337914678E+03  0.91106360771E+02 0.  0.
         23    2    1    2    0    0  0.80306323642E+02  0.63922985207E+02 -0.11947128901E+03  0.20113963967E+03  0.12509401302E+03 0.  0.
          5    1    4    4  502    0  0.75430244179E+02  0.62261554531E+02 -0.14489403978E+03  0.17486560003E+03  0.41800000000E+01 0.  1.
         -5    1    4    4    0  502  0.48760794631E+01  0.16614306759E+01  0.25422750763E+02  0.26274039643E+02  0.41800000000E+01 0.  1.
        -11    1    3    3    0    0 -0.75223889124E+02 -0.28863034303E+02 -0.25911004660E+03  0.27134797677E+03  0.00000000000E+00 0.  1.
         11    1    3    3    0    0 -0.50824345185E+01 -0.35059950904E+02 -0.22618310171E+02  0.42031170017E+02  0.00000000000E+00 0. -1.
</event>
<event>
 8    1  0.8061721E-006  0.7982262E+02  0.7561462E-02  0.1329556E+00
         -2   -1    0    0    0  501 -0.00000000000E+00  0.00000000000E+00  0.29423554315E+02  0.29423554315E+02  0.00000000000E+00 0. -1.
          2   -1    0    0  501    0  0.00000000000E+00 -0.00000000000E+00 -0.96843836627E+03  0.96843836627E+03  0.00000000000E+00 0.  1.
         23    2    1    2    0    0  0.23448909025E+02  0.16740830992E+02 -0.67603824981E+02  0.11704316316E+03  0.91097300368E+02 0.  0.
         23    2    1    2    0    0 -0.23448909025E+02 -0.16740830992E+02 -0.87141098697E+03  0.88081875742E+03  0.12511781827E+03 0.  0.
          5    1    4    4  502    0  0.10821624039E+02 -0.26101571630E+02 -0.80397988159E+03  0.80448711736E+03  0.41800000000E+01 0.  1.
         -5    1    4    4    0  502 -0.34270533064E+02  0.93607406385E+01 -0.67431105379E+02  0.76331640061E+02  0.41800000000E+01 0.  1.
        -11    1    3    3    0    0  0.32533922168E+02 -0.32057291278E+02 -0.36494402296E+02  0.58463385247E+02  0.00000000000E+00 0. -1.
         11    1    3    3    0    0 -0.90850131425E+01  0.48798122269E+02 -0.31109422685E+02  0.58579777915E+02  0.00000000000E+00 0.  1.
</event>
<event>
 8    1  0.8061721E-006  0.2946405E+03  0.7561462E-02  0.1087951E+00
          2   -1    0    0  501    0  0.00000000000E+00  0.00000000000E+00  0.59104905314E+02  0.59104905314E+02  0.00000000000E+00 0. -1.
         -2   -1    0    0    0  501 -0.00000000000E+00 -0.00000000000E+00 -0.14867968599E+04  0.14867968599E+04  0.00000000000E+00 0.  1.
         23    2    1    2    0    0 -0.11921637640E+03  0.24628228366E+03 -0.61394527384E+03  0.67831908295E+03  0.91216617909E+02 0.  0.
         23    2    1    2    0    0  0.11921637640E+03 -0.24628228366E+03 -0.81374668072E+03  0.86758268223E+03  0.12509413447E+03 0.  0.
          5    1    4    4  502    0  0.17096874514E+02  0.13182357946E+02 -0.59825934929E+02  0.63739254540E+02  0.41800000000E+01 0. -1.
         -5    1    4    4    0  502  0.10211950188E+03 -0.25946464161E+03 -0.75392074579E+03  0.80384342769E+03  0.41800000000E+01 0. -1.
        -11    1    3    3    0    0 -0.65521504216E+02  0.21820489213E+03 -0.48556363090E+03  0.53635667435E+03  0.00000000000E+00 0. -1.
         11    1    3    3    0    0 -0.53694872180E+02  0.28077391535E+02 -0.12838164293E+03  0.14196240860E+03  0.00000000000E+00 0.  1.
</event>
<event>
 8    1  0.8061721E-006  0.1308941E+03  0.7561462E-02  0.1226135E+00
          1   -1    0    0  501    0  0.00000000000E+00  0.00000000000E+00  0.59724530642E+03  0.59724530642E+03  0.00000000000E+00 0. -1.
         -1   -1    0    0    0  501 -0.00000000000E+00 -0.00000000000E+00 -0.49704345687E+02  0.49704345687E+02  0.00000000000E+00 0.  1.
         23    2    1    2    0    0  0.12775965788E+03 -0.10506246147E+02  0.18084050433E+03  0.23884567878E+03  0.88944133434E+02 0.  0.
         23    2    1    2    0    0 -0.12775965788E+03  0.10506246147E+02  0.36670045640E+03  0.40810397333E+03  0.12508683757E+03 0.  0.
          5    1    4    4  502    0 -0.79725453339E+02  0.23413552472E+02  0.34282180231E+03  0.35277273546E+03  0.41800000000E+01 0. -1.
         -5    1    4    4    0  502 -0.48034204542E+02 -0.12907306325E+02  0.23878654093E+02  0.55331237867E+02  0.41800000000E+01 0. -1.
        -11    1    3    3    0    0  0.89292987107E+02 -0.21786365382E+01  0.17828149974E+03  0.19940480725E+03  0.00000000000E+00 0. -1.
         11    1    3    3    0    0  0.38466670774E+02 -0.83276096087E+01  0.25590045900E+01  0.39440871526E+02  0.00000000000E+00 0.  1.
</event>
<event>
 8    1  0.8061721E-006  0.1396343E+03  0.7561462E-02  0.1213822E+00
         -4   -1    0    0    0  501 -0.00000000000E+00  0.00000000000E+00  0.51112045864E+03  0.51112045864E+03  0.00000000000E+00 0.  1.
          4   -1    0    0  501    0  0.00000000000E+00 -0.00000000000E+00 -0.41991156892E+02  0.41991156892E+02  0.00000000000E+00 0. -1.
         23    2    1    2    0    0  0.50407667580E+02  0.84223754082E+02  0.20425230205E+03  0.24417433478E+03  0.90925954326E+02 0.  0.
         23    2    1    2    0    0 -0.50407667580E+02 -0.84223754082E+02  0.26487699970E+03  0.30893728076E+03  0.12509134569E+03 0.  0.
          5    1    4    4  502    0  0.14280928255E+02 -0.79983894930E+02  0.20514305317E+03  0.22068645864E+03  0.41800000000E+01 0.  1.
         -5    1    4    4    0  502 -0.64688595836E+02 -0.42398591515E+01  0.59733946527E+02  0.88250822118E+02  0.41800000000E+01 0.  1.
        -11    1    3    3    0    0  0.42433994979E+02 -0.55746506335E+01  0.53373075192E+02  0.68413491469E+02  0.00000000000E+00 0.  1.
         11    1    3    3    0    0  0.79736726017E+01  0.89798404715E+02  0.15087922685E+03  0.17576084331E+03  0.00000000000E+00 0. -1.
</event>
<event>
 8    1  0.8061721E-006  0.1200191E+03  0.7561462E-02  0.1243066E+00
          2   -1    0    0  501    0  0.00000000000E+00  0.00000000000E+00  0.81233647418E+03  0.81233647418E+03  0.00000000000E+00 0.  1.
         -2   -1    0    0    0  501 -0.00000000000E+00 -0.00000000000E+00 -0.20671659320E+02  0.20671659320E+02  0.00000000000E+00 0. -1.
         23    2    1    2    0    0 -0.51908496593E+02  0.48922885530E+02  0.37132132488E+03  0.38868197425E+03  0.90034493648E+02 0.  0.
         23    2    1    2    0    0  0.51908496593E+02 -0.48922885530E+02  0.42034348997E+03  0.44432615925E+03  0.12509654464E+03 0.  0.
          5    1    4    4  502    0  0.59569411450E+02  0.18072871152E+02  0.10770465513E+03  0.12447051293E+03  0.41800000000E+01 0. -1.
         -5    1    4    4    0  502 -0.76609148568E+01 -0.66995756682E+02  0.31263883484E+03  0.31985564632E+03  0.41800000000E+01 0. -1.
        -11    1    3    3    0    0  0.32250505220E+01 -0.20884305444E+02  0.35822917949E+02  0.41591304561E+02  0.00000000000E+00 0. -1.
         11    1    3    3    0    0 -0.55133547115E+02  0.69807190974E+02  0.33549840694E+03  0.34709066969E+03  0.00000000000E+00 0.  1.
</event>
<event>
 8    1  0.8061721E-006  0.1108933E+03  0.7561462E-02  0.1258925E+00
          1   -1    0    0  501    0  0.00000000000E+00  0.00000000000E+00  0.50807104360E+03  0.50807104360E+03  0.00000000000E+00 0. -1.
         -1   -1    0    0    0  501 -0.00000000000E+00 -0.00000000000E+00 -0.33696116998E+02  0.33696116998E+02  0.00000000000E+00 0.  1.
         23    2    1    2    0    0 -0.34101532493E+02  0.18335120719E+02  0.85460978055E+02  0.13139951397E+03  0.91995447333E+02 0.  0.
         23    2    1    2    0    0  0.34101532493E+02 -0.18335120719E+02  0.38891394855E+03  0.41036764663E+03  0.12509378426E+03 0.  0.
          5    1    4    4  502    0 -0.36171003831E+02 -0.39669363034E+02  0.21284604741E+03  0.21955161621E+03  0.41800000000E+01 0.  1.
         -5    1    4    4    0  502  0.70272536324E+02  0.21334242316E+02  0.17606790114E+03  0.19081603043E+03  0.41800000000E+01 0.  1.
        -11    1    3    3    0    0 -0.10138018159E+02  0.52044275390E+02  0.26224481435E+02  0.59153270743E+02  0.00000000000E+00 0.  1.
         11    1    3    3    0    0 -0.23963514334E+02 -0.33709154671E+02  0.59236496620E+02  0.72246243222E+02  0.00000000000E+00 0. -1.
</event>
<event>
 8    1  0.8061721E-006  0.6876110E+02  0.7561462E-02  0.1364357E+00
          2   -1    0    0  501    0  0.00000000000E+00  0.00000000000E+00  0.54415969674E+02  0.54415969674E+02  0.00000000000E+00 0. -1.
         -2   -1    0    0    0  501 -0.00000000000E+00 -0.00000000000E+00 -0.21808427033E+03  0.21808427033E+03  0.00000000000E+00 0.  1.
         23    2    1    2    0    0 -0.13308620236E+02 -0.77917133836E+01 -0.72655623081E+02  0.11703833617E+03  0.90450552230E+02 0.  0.
         23    2    1    2    0    0  0.13308620236E+02  0.77917133836E+01 -0.91012677571E+02  0.15546190383E+03  0.12508903187E+03 0.  0.
          5    1    4    4  502    0  0.57143533170E+02 -0.36453742502E+01 -0.43416095308E+01  0.57575985531E+02  0.41800000000E+01 0.  1.
         -5    1    4    4    0  502 -0.43834912934E+02  0.11437087634E+02 -0.86671068040E+02  0.97885918296E+02  0.41800000000E+01 0.  1.
        -11    1    3    3    0    0 -0.23517522988E+02 -0.53409187885E+01 -0.91956739254E+02  0.95066509324E+02  0.00000000000E+00 0.  1.
         11    1    3    3    0    0  0.10208902752E+02 -0.24507945950E+01  0.19301116172E+02  0.21971826848E+02  0.00000000000E+00 0. -1.
</event>
<event>
 8    1  0.8061721E-006  0.1769022E+03  0.7561462E-02  0.1170835E+00
          2   -1    0    0  501    0  0.00000000000E+00  0.00000000000E+00  0.18127890548E+04  0.18127890548E+04  0.00000000000E+00 0. -1.
         -2   -1    0    0    0  501 -0.00000000000E+00 -0.00000000000E+00 -0.17427256368E+02  0.17427256368E+02  0.00000000000E+00 0.  1.
         23    2    1    2    0    0  0.12808832678E+03  0.54614263157E+02  0.83462920239E+03  0.85141885902E+03  0.94439561749E+02 0.  0.
         23    2    1    2    0    0 -0.12808832678E+03 -0.54614263157E+02  0.96073259609E+03  0.97879745219E+03  0.12509194229E+03 0.  0.
          5    1    4    4  502    0 -0.10928224460E+03 -0.93418785452E+02  0.73102020039E+03  0.74503535771E+03  0.41800000000E+01 0.  1.
         -5    1    4    4    0  502 -0.18806082180E+02  0.38804522295E+02  0.22971239570E+03  0.23376209448E+03  0.41800000000E+01 0.  1.
        -11    1    3    3    0    0  0.61877203388E+02 -0.21741424550E+02  0.27290195640E+03  0.28067232789E+03  0.00000000000E+00 0.  1.
         11    1    3    3    0    0  0.66211123393E+02  0.76355687707E+02  0.56172724599E+03  0.57074653113E+03  0.00000000000E+00 0. -1.
</event>
<event>
 8    1  0.8061721E-006  0.8753153E+02  0.7561462E-02  0.1308942E+00
         -1   -1    0    0    0  501 -0.00000000000E+00  0.00000000000E+00  0.22648031656E+02  0.22648031656E+02  0.00000000000E+00 0.  1.
          1   -1    0    0  501    0  0.00000000000E+00 -0.00000000000E+00 -0.77171984317E+03  0.77171984317E+03  0.00000000000E+00 0. -1.
         23    2    1    2    0    0  0.57942051488E+02  0.19223774599E+02 -0.20686803563E+03  0.23458295755E+03  0.92238522146E+02 0.  0.
         23    2    1    2    0    0 -0.57942051488E+02 -0.19223774599E+02 -0.54220377588E+03  0.55978491727E+03  0.12508950469E+03 0.  0.
          5    1    4    4  502    0 -0.83819445375E+02 -0.11191471862E+02 -0.51216519935E+03  0.51911618380E+03  0.41800000000E+01 0.  1.
         -5    1    4    4    0  502  0.25877393887E+02 -0.80323027365E+01 -0.30038576537E+02  0.40668733469E+02  0.41800000000E+01 0.  1.
        -11    1    3    3    0    0  0.29942483742E+02  0.18038008038E+02 -0.20335665833E+03  0.20633916873E+03  0.00000000000E+00 0. -1.
         11    1    3    3    0    0  0.27999567746E+02  0.11857665606E+01 -0.35113773011E+01  0.28243788819E+02  0.00000000000E+00 0.  1.
</event>
<event>
 8    1  0.8061721E-006  0.9942116E+02  0.7561462E-02  0.1281518E+00
          1   -1    0    0  501    0  0.00000000000E+00  0.00000000000E+00  0.11953602588E+03  0.11953602588E+03  0.00000000000E+00 0. -1.
         -1   -1    0    0    0  501 -0.00000000000E+00 -0.00000000000E+00 -0.12052665619E+03  0.12052665619E+03  0.00000000000E+00 0.  1.
         23    2    1    2    0    0  0.43036422215E+02 -0.27121186207E+01 -0.28353810849E+02  0.10495214959E+03  0.91386683329E+02 0.  0.
         23    2    1    2    0    0 -0.43036422215E+02  0.27121186207E+01  0.27363180539E+02  0.13511053248E+03  0.12508646255E+03 0.  0.
          5    1    4    4  502    0  0.31214358627E+02 -0.34419582548E+02  0.22632545967E+02  0.51853142472E+02  0.41800000000E+01 0.  1.
         -5    1    4    4    0  502 -0.74250780842E+02  0.37131701168E+02  0.47306345721E+01  0.83257390007E+02  0.41800000000E+01 0.  1.
        -11    1    3    3    0    0  0.53785083572E+02 -0.11714130863E+02  0.16895526151E+02  0.57580507819E+02  0.00000000000E+00 0. -1.
         11    1    3    3    0    0 -0.10748661357E+02  0.90020122424E+01 -0.45249337000E+02  0.47371641774E+02  0.00000000000E+00 0.  1.
</event>
<event>
 8    1  0.8061721E-006  0.1208745E+03  0.7561462E-02  0.1241661E+00
         -2   -1    0    0    0  501 -0.00000000000E+00  0.00000000000E+00  0.35158174350E+02  0.35158174350E+02  0.00000000000E+00 0.  1.
          2   -1    0    0  501    0  0.00000000000E+00 -0.00000000000E+00 -0.44982753719E+03  0.44982753719E+03  0.00000000000E+00 0. -1.
         23    2    1    2    0    0 -0.34288188154E+02 -0.54292393957E+02 -0.17628118599E+03  0.20821886042E+03  0.90314414207E+02 0.  0.
         23    2    1    2    0    0  0.34288188154E+02  0.54292393957E+02 -0.23838817685E+03  0.27676685112E+03  0.12509045978E+03 0.  0.
          5    1    4    4  502    0  0.47326542092E+01  0.92083624392E+02 -0.16267138986E+03  0.18703273878E+03  0.41800000000E+01 0.  1.
         -5    1    4    4    0  502  0.29555533945E+02 -0.37791230435E+02 -0.75716786988E+02  0.89734112334E+02  0.41800000000E+01 0.  1.
        -11    1    3    3    0    0  0.23978100232E+02 -0.29379563746E+02 -0.28542871356E+02  0.47463707839E+02  0.00000000000E+00 0.  1.
         11    1    3    3    0    0 -0.58266288386E+02 -0.24912830211E+02 -0.14773831463E+03  0.16075515258E+03  0.00000000000E+00 0. -1.
</event>
<event>
 8    1  0.8061721E-006  0.1229572E+03  0.7561462E-02  0.1238297E+00
         -2   -1    0    0    0  501 -0.00000000000E+00  0.00000000000E+00  0.25601490134E+03  0.25601490134E+03  0.00000000000E+00 0.  1.
          2   -1    0    0  501    0  0.00000000000E+00 -0.00000000000E+00 -0.67072030929E+02  0.67072030929E+02  0.00000000000E+00 0. -1.
         23    2    1    2    0    0 -0.25813627791E+02 -0.67421245097E+02  0.91442309860E+02  0.14881231413E+03  0.92582077825E+02 0.  0.
         23    2    1    2    0    0  0.25813627791E+02  0.67421245097E+02  0.97500560550E+02  0.17427461814E+03  0.12511321093E+03 0.  0.
          5    1    4    4  502    0 -0.19913005969E+02 -0.21039187630E+02 -0.67599476489E+01  0.30039049836E+02  0.41800000000E+01 0.  1.
         -5    1    4    4    0  502  0.45726633760E+02  0.88460432727E+02  0.10426050820E+03  0.14423556830E+03  0.41800000000E+01 0.  1.
        -11    1    3    3    0    0  0.34343775842E+02 -0.16219224672E+02  0.23882158398E+02  0.44865528837E+02  0.00000000000E+00 0. -1.
         11    1    3    3    0    0 -0.60157403633E+02 -0.51202020425E+02  0.67560151462E+02  0.10394678529E+03  0.00000000000E+00 0.  1.
</event>
<event>
 8    1  0.8061721E-006  0.1632223E+03  0.7561462E-02  0.1185106E+00
         -3   -1    0    0    0  501 -0.00000000000E+00  0.00000000000E+00  0.21716246339E+03  0.21716246339E+03  0.00000000000E+00 0.  1.
          3   -1    0    0  501    0  0.00000000000E+00 -0.00000000000E+00 -0.15368100714E+03  0.15368100714E+03  0.00000000000E+00 0. -1.
         23    2    1    2    0    0  0.43129672146E+02 -0.12518346646E+03  0.63792293500E+02  0.18869317481E+03  0.11834098452E+03 0.  0.
         23    2    1    2    0    0 -0.43129672146E+02  0.12518346646E+03 -0.31083725060E+00  0.18215029573E+03  0.12509022632E+03 0.  0.
          5    1    4    4  502    0  0.30303240721E+02  0.12767163066E+01  0.20091168495E+02  0.36620265621E+02  0.41800000000E+01 0. -1.
         -5    1    4    4    0  502 -0.73432912866E+02  0.12390675015E+03 -0.20402005745E+02  0.14553003011E+03  0.41800000000E+01 0. -1.
        -11    1    3    3    0    0 -0.21087649642E+02 -0.37923228276E+02 -0.23692431037E+02  0.49438765141E+02  0.00000000000E+00 0. -1.
         11    1    3    3    0    0  0.64217321788E+02 -0.87260238180E+02  0.87484724537E+02  0.13925440967E+03  0.00000000000E+00 0.  1.
</event>
<event>
 8    1  0.8061721E-006  0.1779915E+03  0.7561462E-02  0.1169761E+00
          2   -1    0    0  501    0  0.00000000000E+00  0.00000000000E+00  0.85051784371E+03  0.85051784371E+03  0.00000000000E+00 0.  1.
         -2   -1    0    0    0  501 -0.00000000000E+00 -0.00000000000E+00 -0.42213194800E+02  0.42213194800E+02  0.00000000000E+00 0. -1.
         23    2    1    2    0    0 -0.12592696512E+03 -0.88326121872E+02  0.33570258988E+03  0.38022789812E+03  0.90652751261E+02 0.  0.
         23    2    1    2    0    0  0.12592696512E+03  0.88326121872E+02  0.47260205903E+03  0.51250314039E+03  0.12509060060E+03 0.  0.
          5    1    4    4  502    0  0.13304333692E+03  0.32547465773E+02  0.38149680713E+03  0.40536052259E+03  0.41800000000E+01 0. -1.
         -5    1    4    4    0  502 -0.71163718033E+01  0.55778656099E+02  0.91105251907E+02  0.10714261780E+03  0.41800000000E+01 0. -1.
        -11    1    3    3    0    0 -0.85116930469E+02 -0.87033277986E+02  0.30717656727E+03  0.33041962231E+03  0.00000000000E+00 0.  1.
         11    1    3    3    0    0 -0.40810034648E+02 -0.12928438861E+01  0.28526022607E+02  0.49808275809E+02  0.00000000000E+00 0. -1.
</event>
<event>
 8    1  0.8061721E-006  0.2667419E+03  0.7561462E-02  0.1103159E+00
         -1   -1    0    0    0  501 -0.00000000000E+00  0.00000000000E+00  0.75523540326E+03  0.75523540326E+03  0.00000000000E+00 0.  1.
          1   -1    0    0  501    0  0.00000000000E+00 -0.00000000000E+00 -0.11807377025E+03  0.11807377025E+03  0.00000000000E+00 0. -1.
         23    2    1    2    0    0 -0.73012380583E+02 -0.25085671850E+03  0.45082125130E+03  0.52888107946E+03  0.90639365927E+02 0.  0.
         23    2    1    2    0    0  0.73012380583E+02  0.25085671850E+03  0.18634038171E+03  0.34442809404E+03  0.12509225866E+03 0.  0.
          5    1    4    4  502    0  0.71600975592E+02  0.14861134646E+03  0.17648804276E+03  0.24161443177E+03  0.41800000000E+01 0.  1.
         -5    1    4    4    0  502  0.14114049910E+01  0.10224537204E+03  0.98523389547E+01  0.10281366228E+03  0.41800000000E+01 0.  1.
        -11    1    3    3    0    0 -0.97488120102E+01 -0.12390721569E+03  0.13990975736E+03  0.18714373524E+03  0.00000000000E+00 0.  1.
         11    1    3    3    0    0 -0.63263568573E+02 -0.12694950281E+03  0.31091149393E+03  0.34173734422E+03  0.00000000000E+00 0. -1.
</event>
<event>
 8    1  0.8061721E-006  0.1017787E+03  0.7561462E-02  0.1276599E+00
         -2   -1    0    0    0  501 -0.00000000000E+00  0.00000000000E+00  0.56431699582E+02  0.56431699582E+02  0.00000000000E+00 0. -1.
          2   -1    0    0  501    0  0.00000000000E+00 -0.00000000000E+00 -0.66157363835E+03  0.66157363835E+03  0.00000000000E+00 0.  1.
         23    2    1    2    0    0 -0.84776920403E+01 -0.37964997897E+02 -0.16543097057E+01  0.10046313216E+03  0.92611510377E+02 0.  0.
         23    2    1    2    0    0  0.84776920403E+01  0.37964997897E+02 -0.60348762906E+03  0.61754220578E+03  0.12509134725E+03 0.  0.
          5    1    4    4  502    0 -0.97732834881E+01 -0.42628427870E+02 -0.14014240018E+03  0.14686750717E+03  0.41800000000E+01 0.  1.
         -5    1    4    4    0  502  0.18250975528E+02  0.80593425767E+02 -0.46334522888E+03  0.47067469861E+03  0.41800000000E+01 0.  1.
        -11    1    3    3    0    0  0.28216687703E+02 -0.75138423372E+01 -0.32485537232E+02  0.43680080367E+02  0.00000000000E+00 0.  1.
         11    1    3    3    0    0 -0.36694379743E+02 -0.30451155560E+02  0.30831227526E+02  0.56783051789E+02  0.00000000000E+00 0. -1.
</event>
<event>
 8    1  0.9475753E-006  0.1693443E+03  0.7561462E-02  0.1178533E+00
         -1   -1    0    0    0  501 -0.00000000000E+00  0.00000000000E+00  0.10580122764E+03  0.10580122764E+03  0.00000000000E+00 0.  1.
          1   -1    0    0  501    0  0.00000000000E+00 -0.00000000000E+00 -0.29064187569E+03  0.29064187569E+03  0.00000000000E+00 0. -1.
         23    2    1    2    0    0 -0.85177731918E+02  0.10614320149E+03 -0.56599850408E+02  0.17146521718E+03  0.87607947123E+02 0.  0.
         23    2    1    2    0    0  0.85177731918E+02 -0.10614320149E+03 -0.12824079765E+03  0.22497788615E+03  0.12509085433E+03 0.  0.
          5    1    4    4  502    0  0.10983641308E+03 -0.10523575328E+03 -0.12964766925E+03  0.19991146027E+03  0.41800000000E+01 0. -1.
         -5    1    4    4    0  502 -0.24658681157E+02 -0.90744820800E+00  0.14068715999E+01  0.25066425879E+02  0.41800000000E+01 0. -1.
        -11    1    3    3    0    0 -0.14056290788E+02  0.86599275211E+02 -0.36460468416E+02  0.95007260432E+02  0.00000000000E+00 0. -1.
         11    1    3    3    0    0 -0.71121441130E+02  0.19543926277E+02 -0.20139381991E+02  0.76457956746E+02  0.00000000000E+00 0.  1.
</event>
<event>
 8    1  0.8061721E-006  0.5423142E+02  0.7561462E-02  0.1423769E+00
         -2   -1    0    0    0  501 -0.00000000000E+00  0.00000000000E+00  0.10781121561E+02  0.10781121561E+02  0.00000000000E+00 0.  1.
          2   -1    0    0  501    0  0.00000000000E+00 -0.00000000000E+00 -0.11606615253E+04  0.11606615253E+04  0.00000000000E+00 0. -1.
         23    2    1    2    0    0 -0.61625261297E+01  0.36976437671E+01 -0.35728072312E+03  0.36900051758E+03  0.91979440957E+02 0.  0.
         23    2    1    2    0    0  0.61625261297E+01 -0.36976437671E+01 -0.79259968066E+03  0.80244212932E+03  0.12508983908E+03 0.  0.
          5    1    4    4  502    0  0.99415908981E+01 -0.52882114350E+01 -0.24349238582E+01  0.12255678845E+02  0.41800000000E+01 0. -1.
         -5    1    4    4    0  502 -0.37790647684E+01  0.15905676679E+01 -0.79016475680E+03  0.79018645048E+03  0.41800000000E+01 0. -1.
        -11    1    3    3    0    0 -0.31598176230E+02  0.37022490301E+02 -0.22626062253E+03  0.23143677071E+03  0.00000000000E+00 0. -1.
         11    1    3    3    0    0  0.25435650100E+02 -0.33324846534E+02 -0.13102010060E+03  0.13756374687E+03  0.00000000000E+00 0.  1.
</event>
<event>
 8    1  0.8061721E-006  0.1242292E+03  0.7561462E-02  0.1236279E+00
          2   -1    0    0  501    0  0.00000000000E+00  0.00000000000E+00  0.17998675930E+03  0.17998675930E+03  0.00000000000E+00 0. -1.
         -2   -1    0    0    0  501 -0.00000000000E+00 -0.00000000000E+00 -0.13568400032E+03  0.13568400032E+03  0.00000000000E+00 0.  1.
         23    2    1    2    0    0  0.59260295508E+02  0.15137454209E+02 -0.74064397915E+02  0.13289154505E+03  0.91835192397E+02 0.  0.
         23    2    1    2    0    0 -0.59260295508E+02 -0.15137454209E+02  0.11836715690E+03  0.18277921458E+03  0.12512606566E+03 0.  0.
          5    1    4    4  502    0  0.34269370306E+02  0.18473697243E+02  0.25746617220E+02  0.46861796052E+02  0.41800000000E+01 0. -1.
         -5    1    4    4    0  502 -0.93529665814E+02 -0.33611151452E+02  0.92620539677E+02  0.13591741853E+03  0.41800000000E+01 0. -1.
        -11    1    3    3    0    0  0.66490141393E+02 -0.23500564559E+02 -0.53574345425E+02  0.88563118310E+02  0.00000000000E+00 0. -1.
         11    1    3    3    0    0 -0.72298458844E+01  0.38638018769E+02 -0.20490052489E+02  0.44328426736E+02  0.00000000000E+00 0.  1.
</event>
<event>
 8    1  0.8061721E-006  0.1394506E+03  0.7561462E-02  0.1214070E+00
         -2   -1    0    0    0  501 -0.00000000000E+00  0.00000000000E+00  0.14002553829E+03  0.14002553829E+03  0.00000000000E+00 0.  1.
          2   -1    0    0  501    0  0.00000000000E+00 -0.00000000000E+00 -0.18980462816E+03  0.18980462816E+03  0.00000000000E+00 0. -1.
         23    2    1    2    0    0  0.10930422433E+03  0.71888903621E-01  0.29332809228E+02  0.14583556599E+03  0.91979236712E+02 0.  0.
         23    2    1    2    0    0 -0.10930422433E+03 -0.71888903621E-01 -0.79111899093E+02  0.18399460046E+03  0.12509157364E+03 0.  0.
          5    1    4    4  502    0  0.15552493385E+02 -0.33177562206E+02 -0.17501848684E+02  0.40821780850E+02  0.41800000000E+01 0. -1.
         -5    1    4    4    0  502 -0.12485671771E+03  0.33105673302E+02 -0.61610050409E+02  0.14317281961E+03  0.41800000000E+01 0. -1.
        -11    1    3    3    0    0  0.31936677805E+02  0.12742116629E+02 -0.31478108567E+02  0.46617424257E+02  0.00000000000E+00 0. -1.
         11    1    3    3    0    0  0.77367546526E+02 -0.12670227725E+02  0.60810917795E+02  0.99218141734E+02  0.00000000000E+00 0.  1.
</event>
<event>
 8    1  0.8061721E-006  0.8763386E+02  0.7561462E-02  0.1308685E+00
         -4   -1    0    0    0  501 -0.00000000000E+00  0.00000000000E+00  0.14605665060E+03  0.14605665060E+03  0.00000000000E+00 0.  1.
          4   -1    0    0  501    0  0.00000000000E+00 -0.00000000000E+00 -0.11485970826E+03  0.11485970826E+03  0.00000000000E+00 0. -1.
         23    2    1    2    0    0  0.25920393325E+02 -0.35671378932E+02  0.64926661437E+02  0.12405770578E+03  0.96075641726E+02 0.  0.
         23    2    1    2    0    0 -0.25920393325E+02  0.35671378932E+02 -0.33729719097E+02  0.13685865307E+03  0.12509309696E+03 0.  0.
          5    1    4    4  502    0 -0.47737586449E+02  0.12272184764E+02 -0.71651693422E+02  0.87068485970E+02  0.41800000000E+01 0.  1.
         -5    1    4    4    0  502  0.21817193124E+02  0.23399194167E+02  0.37921974325E+02  0.49790167104E+02  0.41800000000E+01 0.  1.
        -11    1    3    3    0    0  0.46825315845E+01 -0.60604144685E+02  0.67945697605E+02  0.91166914382E+02  0.00000000000E+00 0.  1.
         11    1    3    3    0    0  0.21237861741E+02  0.24932765753E+02 -0.30190361676E+01  0.32890791398E+02  0.00000000000E+00 0. -1.
</event>
<event>
 8    1  0.8061721E-006  0.1594092E+03  0.7561462E-02  0.1189365E+00
          1   -1    0    0  501    0  0.00000000000E+00  0.00000000000E+00  0.16802051690E+03  0.16802051690E+03  0.00000000000E+00 0.  1.
         -1   -1    0    0    0  501 -0.00000000000E+00 -0.00000000000E+00 -0.19910034437E+03  0.19910034437E+03  0.00000000000E+00 0. -1.
         23    2    1    2    0    0 -0.35414721299E+02  0.12355241389E+03 -0.87803840358E+02  0.17901238084E+03  0.88411066329E+02 0.  0.
         23    2    1    2    0    0  0.35414721299E+02 -0.12355241389E+03  0.56724012885E+02  0.18810848043E+03  0.12509110803E+03 0.  0.
          5    1    4    4  502    0  0.59195448773E+02 -0.13707154064E+03  0.58419985365E+02  0.16038414978E+03  0.41800000000E+01 0.  1.
         -5    1    4    4    0  502 -0.23780727474E+02  0.13519126754E+02 -0.16959724797E+01  0.27724330651E+02  0.41800000000E+01 0.  1.
        -11    1    3    3    0    0 -0.49853352611E+02  0.11411847732E+03 -0.98446752386E+02  0.15874554068E+03  0.00000000000E+00 0. -1.
         11    1    3    3    0    0  0.14438631312E+02  0.94339365711E+01  0.10642912028E+02  0.20266840154E+02  0.00000000000E+00 0.  1.
</event>
<event>
 8    1  0.8061721E-006  0.1210908E+03  0.7561462E-02  0.1241308E+00
          2   -1    0    0  501    0  0.00000000000E+00  0.00000000000E+00  0.35250847700E+03  0.35250847700E+03  0.00000000000E+00 0. -1.
         -2   -1    0    0    0  501 -0.00000000000E+00 -0.00000000000E+00 -0.66183229759E+02  0.66183229759E+02  0.00000000000E+00 0.  1.
         23    2    1    2    0    0 -0.83733859491E+02  0.61106120968E+02  0.88789442411E+02  0.16293154622E+03  0.88982056759E+02 0.  0.
         23    2    1    2    0    0  0.83733859491E+02 -0.61106120968E+02  0.19753580483E+03  0.25576016054E+03  0.12509016062E+03 0.  0.
          5    1    4    4  502    0  0.22443720679E+01  0.10691783356E+02 -0.13814169321E+02  0.18101246127E+02  0.41800000000E+01 0. -1.
         -5    1    4    4    0  502  0.81489487423E+02 -0.71797904324E+02  0.21134997415E+03  0.23765891441E+03  0.41800000000E+01 0. -1.
        -11    1    3    3    0    0 -0.94544350594E+02  0.55171787534E+02  0.46590198917E+02  0.11896725181E+03  0.00000000000E+00 0.  1.
         11    1    3    3    0    0  0.10810491103E+02  0.59343334342E+01  0.42199243494E+02  0.43964294407E+02  0.00000000000E+00 0. -1.
</event>
<event>
 8    1  0.8061721E-006  0.7747530E+02  0.7561462E-02  0.1336373E+00
          2   -1    0    0  501    0  0.00000000000E+00  0.00000000000E+00  0.31044350851E+03  0.31044350851E+03  0.00000000000E+00 0.  1.
         -2   -1    0    0    0  501 -0.00000000000E+00 -0.00000000000E+00 -0.46854527187E+02  0.46854527187E+02  0.00000000000E+00 0. -1.
         23    2    1    2    0    0 -0.51140076507E+02 -0.12868901872E+02  0.11936508552E+03  0.15923624350E+03  0.91253720713E+02 0.  0.
         23    2    1    2    0    0  0.51140076507E+02  0.12868901872E+02  0.14422389580E+03  0.19806179219E+03  0.12508807035E+03 0.  0.
          5    1    4    4  502    0 -0.38855561967E+01 -0.12719168968E+02  0.13596253604E+03  0.13667537603E+03  0.41800000000E+01 0.  1.
         -5    1    4    4    0  502  0.55025632704E+02  0.25588070840E+02  0.82613597593E+01  0.61386416159E+02  0.41800000000E+01 0.  1.
        -11    1    3    3    0    0  0.11911671505E+02  0.73147175487E+01  0.82067294556E+02  0.83249227303E+02  0.00000000000E+00 0.  1.
         11    1    3    3    0    0 -0.63051748012E+02 -0.20183619421E+02  0.37297790960E+02  0.75987016199E+02  0.00000000000E+00 0. -1.
</event>
<event>
 8    1  0.8061721E-006  0.1586660E+03  0.7561462E-02  0.1190211E+00
          2   -1    0    0  501    0  0.00000000000E+00  0.00000000000E+00  0.47531937728E+03  0.47531937728E+03  0.00000000000E+00 0. -1.
         -2   -1    0    0    0  501 -0.00000000000E+00 -0.00000000000E+00 -0.71670389455E+02  0.71670389455E+02  0.00000000000E+00 0.  1.
         23    2    1    2    0    0  0.27130071707E+02  0.14641364937E+03  0.21671917203E+03  0.27724311341E+03  0.87883712336E+02 0.  0.
         23    2    1    2    0    0 -0.27130071707E+02 -0.14641364937E+03  0.18692981580E+03  0.26974665333E+03  0.12508998135E+03 0.  0.
          5    1    4    4  502    0 -0.29919923667E+02 -0.83340333745E+02  0.19508929705E+02  0.90768297324E+02  0.41800000000E+01 0. -1.
         -5    1    4    4    0  502  0.27898519599E+01 -0.63073315627E+02  0.16742088609E+03  0.17897835600E+03  0.41800000000E+01 0. -1.
        -11    1    3    3    0    0 -0.44208186999E+01  0.12957184681E+03  0.19854544620E+03  0.23712591872E+03  0.00000000000E+00 0.  1.
         11    1    3    3    0    0  0.31550890407E+02  0.16841802561E+02  0.18173725835E+02  0.40117194689E+02  0.00000000000E+00 0. -1.
</event>
<event>
 8    1  0.8061721E-006  0.1069539E+03  0.7561462E-02  0.1266317E+00
         -1   -1    0    0    0  501 -0.00000000000E+00  0.00000000000E+00  0.16506264351E+02  0.16506264351E+02  0.00000000000E+00 0.  1.
          1   -1    0    0  501    0  0.00000000000E+00 -0.00000000000E+00 -0.11138068376E+04  0.11138068376E+04  0.00000000000E+00 0. -1.
         23    2    1    2    0    0 -0.78579977772E+02  0.40216210627E+01 -0.39395104045E+03  0.41160684075E+03  0.89620213904E+02 0.  0.
         23    2    1    2    0    0  0.78579977772E+02 -0.40216210627E+01 -0.70334953279E+03  0.71870626119E+03  0.12508852167E+03 0.  0.
          5    1    4    4  502    0 -0.87278494844E+01 -0.46582167656E+01 -0.83253711796E+00  0.10772179822E+02  0.41800000000E+01 0.  1.
         -5    1    4    4    0  502  0.87307827256E+02  0.63659570294E+00 -0.70251699568E+03  0.70793408137E+03  0.41800000000E+01 0.  1.
        -11    1    3    3    0    0 -0.86200948109E+01  0.37302255047E+02 -0.87397334143E+02  0.95415188946E+02  0.00000000000E+00 0.  1.
         11    1    3    3    0    0 -0.69959882961E+02 -0.33280633984E+02 -0.30655370630E+03  0.31619165180E+03  0.00000000000E+00 0. -1.
</event>
<event>
 8    1  0.8061721E-006  0.3326414E+03  0.7561462E-02  0.1069974E+00
          2   -1    0    0  501    0  0.00000000000E+00  0.00000000000E+00  0.11886772641E+04  0.11886772641E+04  0.00000000000E+00 0. -1.
         -2   -1    0    0    0  501 -0.00000000000E+00 -0.00000000000E+00 -0.10026528312E+03  0.10026528312E+03  0.00000000000E+00 0.  1.
         23    2    1    2    0    0 -0.26902747108E+03  0.18551111646E+03  0.48632074650E+03  0.59255770325E+03  0.88468122400E+02 0.  0.
         23    2    1    2    0    0  0.26902747108E+03 -0.18551111646E+03  0.60209123450E+03  0.69638484398E+03  0.12509133359E+03 0.  0.
          5    1    4    4  502    0  0.25256713628E+03 -0.16733010675E+03  0.45145674409E+03  0.54370965334E+03  0.41800000000E+01 0. -1.
         -5    1    4    4    0  502  0.16460334804E+02 -0.18181009709E+02  0.15063449041E+03  0.15267519064E+03  0.41800000000E+01 0. -1.
        -11    1    3    3    0    0 -0.16868911340E+03  0.65457079913E+02  0.28495537038E+03  0.33755030647E+03  0.00000000000E+00 0.  1.
         11    1    3    3    0    0 -0.10033835769E+03  0.12005403655E+03  0.20136537611E+03  0.25500739678E+03  0.00000000000E+00 0. -1.
</event>
<event>
 7    1  0.8061721E-006  0.1393488E+03  0.7561462E-02  0.1214208E+00
          1   -1    0    0  501    0  0.00000000000E+00  0.00000000000E+00  0.70565943481E+03  0.70565943481E+03  0.00000000000E+00 0. -1.
         -1   -1    0    0    0  501 -0.00000000000E+00 -0.00000000000E+00 -0.39244829276E+02  0.39244829276E+02  0.00000000000E+00 0.  1.
         23    2    1    2    0    0 -0.41261105168E+02 -0.38521939718E+02  0.12133651918E+03  0.16151052432E+03  0.90424996201E+02 0.  0.
          5    1    1    2  502    0 -0.11708517721E+02  0.11197539463E+03  0.36152958717E+03  0.37867755834E+03  0.41800000000E+01 0. -1.
         -5    1    1    2    0  502  0.52969622888E+02 -0.73453454915E+02  0.18354849918E+03  0.20471618143E+03  0.41800000000E+01 0.  1.
        -11    1    3    3    0    0 -0.23166838774E+02  0.87473756368E+01  0.10566177439E+03  0.10852478779E+03  0.00000000000E+00 0. -1.
         11    1    3    3    0    0 -0.18094266393E+02 -0.47269315355E+02  0.15674744800E+02  0.52985736524E+02  0.00000000000E+00 0.  1.
</event>
<event>
 8    1  0.8061721E-006  0.1179008E+03  0.7561462E-02  0.1246601E+00
         -1   -1    0    0    0  501 -0.00000000000E+00  0.00000000000E+00  0.60347398350E+02  0.60347398350E+02  0.00000000000E+00 0.  1.
          1   -1    0    0  501    0  0.00000000000E+00 -0.00000000000E+00 -0.37248824432E+03  0.37248824432E+03  0.00000000000E+00 0. -1.
         23    2    1    2    0    0  0.63630665776E+02  0.59451099386E+02 -0.71085092487E+02  0.14763650983E+03  0.95708692470E+02 0.  0.
         23    2    1    2    0    0 -0.63630665776E+02 -0.59451099386E+02 -0.24105575348E+03  0.28519913284E+03  0.12508946495E+03 0.  0.
          5    1    4    4  502    0 -0.11457306172E+02  0.30406649294E+02 -0.12565961028E+03  0.12986009488E+03  0.41800000000E+01 0.  1.
         -5    1    4    4    0  502 -0.52173359605E+02 -0.89857748680E+02 -0.11539614320E+03  0.15533903796E+03  0.41800000000E+01 0.  1.
        -11    1    3    3    0    0  0.15944596066E+02  0.47192974893E+02 -0.83162734230E+02  0.96940432161E+02  0.00000000000E+00 0. -1.
         11    1    3    3    0    0  0.47686069710E+02  0.12258124493E+02  0.12077641743E+02  0.50696077665E+02  0.00000000000E+00 0.  1.
</event>
<event>
 8    1  0.8061721E-006  0.1066531E+03  0.7561462E-02  0.1266896E+00
         -1   -1    0    0    0  501 -0.00000000000E+00  0.00000000000E+00  0.15766848574E+03  0.15766848574E+03  0.00000000000E+00 0.  1.
          1   -1    0    0  501    0  0.00000000000E+00 -0.00000000000E+00 -0.97863861115E+02  0.97863861115E+02  0.00000000000E+00 0. -1.
         23    2    1    2    0    0 -0.32330683975E+02 -0.41344833317E+02  0.55288354797E+02  0.11980093709E+03  0.92416416204E+02 0.  0.
         23    2    1    2    0    0  0.32330683975E+02  0.41344833317E+02  0.45162698303E+01  0.13573140976E+03  0.12509176846E+03 0.  0.
          5    1    4    4  502    0  0.15097804814E+02 -0.44859214481E+02 -0.12645264794E+01  0.47532770394E+02  0.41800000000E+01 0.  1.
         -5    1    4    4    0  502  0.17232879160E+02  0.86204047798E+02  0.57807963097E+01  0.88198639371E+02  0.41800000000E+01 0.  1.
        -11    1    3    3    0    0 -0.21054330591E+02 -0.55688542886E+02  0.73117688809E+02  0.94290482352E+02  0.00000000000E+00 0.  1.
         11    1    3    3    0    0 -0.11276353384E+02  0.14343709569E+02 -0.17829334012E+02  0.25510454742E+02  0.00000000000E+00 0. -1.
</event>
<event>
 8    1  0.8061721E-006  0.1234105E+03  0.7561462E-02  0.1237574E+00
          1   -1    0    0  501    0  0.00000000000E+00  0.00000000000E+00  0.19628681514E+03  0.19628681514E+03  0.00000000000E+00 0. -1.
         -1   -1    0    0    0  501 -0.00000000000E+00 -0.00000000000E+00 -0.11924916427E+03  0.11924916427E+03  0.00000000000E+00 0.  1.
         23    2    1    2    0    0  0.74926321158E+02 -0.28483900326E+02 -0.39244316241E+02  0.12687019021E+03  0.90170076117E+02 0.  0.
         23    2    1    2    0    0 -0.74926321158E+02  0.28483900326E+02  0.11628196711E+03  0.18866578920E+03  0.12509195801E+03 0.  0.
          5    1    4    4  502    0 -0.82081252025E+02  0.68914887906E+02  0.85974566345E+02  0.13746160252E+03  0.41800000000E+01 0. -1.
         -5    1    4    4    0  502  0.71549308667E+01 -0.40430987580E+02  0.30307400766E+02  0.51204186680E+02  0.41800000000E+01 0. -1.
        -11    1    3    3    0    0  0.77140761780E+02 -0.39771556069E+02 -0.58341496648E+02  0.10457630722E+03  0.00000000000E+00 0.  1.
         11    1    3    3    0    0 -0.22144406215E+01  0.11287655743E+02  0.19097180407E+02  0.22293882994E+02  0.00000000000E+00 0. -1.
</event>
<event>
 8    1  0.8061721E-006  0.1303045E+03  0.7561462E-02  0.1227005E+00
          2   -1    0    0  501    0  0.00000000000E+00  0.00000000000E+00  0.49663680010E+03  0.49663680010E+03  0.00000000000E+00 0. -1.
         -2   -1    0    0    0  501 -0.00000000000E+00 -0.00000000000E+00 -0.36955457317E+02  0.36955457317E+02  0.00000000000E+00 0.  1.
         23    2    1    2    0    0 -0.72267232616E+02 -0.19431007663E+02  0.14910379726E+03  0.19051993394E+03  0.92009705488E+02 0.  0.
         23    2    1    2    0    0  0.72267232616E+02  0.19431007663E+02  0.31057754552E+03  0.34307232347E+03  0.12506034696E+03 0.  0.
          5    1    4    4  502    0 -0.31141014455E+02  0.27304760055E+02  0.78894331010E+02  0.89202581624E+02  0.41800000000E+01 0. -1.
         -5    1    4    4    0  502  0.10340824707E+03 -0.78737523919E+01  0.23168321451E+03  0.25386974185E+03  0.41800000000E+01 0. -1.
        -11    1    3    3    0    0 -0.30704628230E+02  0.35094513631E+02  0.38878083060E+02  0.60711649823E+02  0.00000000000E+00 0.  1.
         11    1    3    3    0    0 -0.41562604385E+02 -0.54525521294E+02  0.11022571420E+03  0.12980828412E+03  0.00000000000E+00 0. -1.
</event>
<event>
 8    1  0.8061721E-006  0.1056837E+03  0.7561462E-02  0.1268778E+00
         -2   -1    0    0    0  501 -0.00000000000E+00  0.00000000000E+00  0.57062820260E+02  0.57062820260E+02  0.00000000000E+00 0.  1.
          2   -1    0    0  501    0  0.00000000000E+00 -0.00000000000E+00 -0.39618133859E+03  0.39618133859E+03  0.00000000000E+00 0. -1.
         23    2    1    2    0    0  0.70209673682E+02 -0.22589997649E+02 -0.44419210225E+02  0.12470833894E+03  0.90218608348E+02 0.  0.
         23    2    1    2    0    0 -0.70209673682E+02  0.22589997649E+02 -0.29469930811E+03  0.32853581991E+03  0.12509355096E+03 0.  0.
          5    1    4    4  502    0 -0.83402644867E+02 -0.21863499708E+02 -0.24799642817E+03  0.26259039315E+03  0.41800000000E+01 0.  1.
         -5    1    4    4    0  502  0.13192971185E+02  0.44453497357E+02 -0.46702879939E+02  0.65945426760E+02  0.41800000000E+01 0.  1.
        -11    1    3    3    0    0  0.28747693969E+02 -0.23323182030E+02 -0.67693850274E+02  0.77154767147E+02  0.00000000000E+00 0. -1.
         11    1    3    3    0    0  0.41461979713E+02  0.73318438067E+00  0.23274640049E+02  0.47553571795E+02  0.00000000000E+00 0.  1.
</event>
<event>
 7    1  0.8061721E-006  0.8997466E+02  0.7561462E-02  0.1302913E+00
         -4   -1    0    0    0  501 -0.00000000000E+00  0.00000000000E+00  0.58963872159E+02  0.58963872159E+02  0.00000000000E+00 0.  1.
          4   -1    0    0  501    0  0.00000000000E+00 -0.00000000000E+00 -0.28174858437E+03  0.28174858437E+03  0.00000000000E+00 0. -1.
         23    2    1    2    0    0 -0.12457683054E+02 -0.15750138217E+02 -0.21883153222E+02  0.91693451600E+02  0.86749962250E+02 0.  0.
          5    1    1    2  502    0 -0.35068363316E+02  0.23988368098E+02 -0.19572536467E+03  0.20032753851E+03  0.41800000000E+01 0. -1.
         -5    1    1    2    0  502  0.47526046370E+02 -0.82382298808E+01 -0.51761943262E+01  0.48691466427E+02  0.41800000000E+01 0.  1.
        -11    1    3    3    0    0 -0.10875101193E+02 -0.51712409219E+02 -0.16047096596E+02  0.55226356048E+02  0.00000000000E+00 0.  1.
         11    1    3    3    0    0 -0.15825818606E+01  0.35962271003E+02 -0.58360566259E+01  0.36467095551E+02  0.00000000000E+00 0. -1.
</event>
<event>
 8    1  0.8061721E-006  0.1439631E+03  0.7561462E-02  0.1208094E+00
         -2   -1    0    0    0  501 -0.00000000000E+00  0.00000000000E+00  0.25264146070E+02  0.25264146070E+02  0.00000000000E+00 0.  1.
          2   -1    0    0  501    0  0.00000000000E+00 -0.00000000000E+00 -0.13666147215E+04  0.13666147215E+04  0.00000000000E+00 0. -1.
         23    2    1    2    0    0 -0.10933346595E+03 -0.88694651080E+01 -0.30529208017E+03  0.34254710429E+03  0.11001268226E+03 0.  0.
         23    2    1    2    0    0  0.10933346595E+03  0.88694651080E+01 -0.10360584953E+04  0.10493317633E+04  0.12508984625E+03 0.  0.
          5    1    4    4  502    0  0.55473729703E+02 -0.57749093749E+02 -0.46355056593E+03  0.47043479048E+03  0.41800000000E+01 0. -1.
         -5    1    4    4    0  502  0.53859736242E+02  0.66618558857E+02 -0.57250792935E+03  0.57889697282E+03  0.41800000000E+01 0. -1.
        -11    1    3    3    0    0 -0.43811378043E+02  0.22584992134E+02 -0.23947176583E+03  0.24449181039E+03  0.00000000000E+00 0. -1.
         11    1    3    3    0    0 -0.65522087902E+02 -0.31454457242E+02 -0.65820314336E+02  0.98055293905E+02  0.00000000000E+00 0.  1.
</event>
<event>
 8    1  0.8061721E-006  0.2291770E+03  0.7561462E-02  0.1127220E+00
          1   -1    0    0  501    0  0.00000000000E+00  0.00000000000E+00  0.10907990731E+03  0.10907990731E+03  0.00000000000E+00 0. -1.
         -1   -1    0    0    0  501 -0.00000000000E+00 -0.00000000000E+00 -0.52638013437E+03  0.52638013437E+03  0.00000000000E+00 0.  1.
         23    2    1    2    0    0 -0.19038766512E+03  0.71356655045E+02 -0.29186114299E+03  0.36579010927E+03  0.85324334178E+02 0.  0.
         23    2    1    2    0    0  0.19038766512E+03 -0.71356655045E+02 -0.12543908407E+03  0.26966993241E+03  0.12509066068E+03 0.  0.
          5    1    4    4  502    0  0.34389109658E+02  0.35321481563E+02 -0.30703313083E+02  0.58227001959E+02  0.41800000000E+01 0. -1.
         -5    1    4    4    0  502  0.15599855546E+03 -0.10667813661E+03 -0.94735770982E+02  0.21144293045E+03  0.41800000000E+01 0. -1.
        -11    1    3    3    0    0 -0.37744835808E+02 -0.19217292736E+02 -0.67852648320E+02  0.79987241822E+02  0.00000000000E+00 0.  1.
         11    1    3    3    0    0 -0.15264282931E+03  0.90573947781E+02 -0.22400849467E+03  0.28580286745E+03  0.00000000000E+00 0. -1.
</event>
<event>
 8    1  0.8061721E-006  0.1153798E+03  0.7561462E-02  0.1250920E+00
         -1   -1    0    0    0  501 -0.00000000000E+00  0.00000000000E+00  0.84635823398E+02  0.84635823398E+02  0.00000000000E+00 0.  1.
          1   -1    0    0  501    0  0.00000000000E+00 -0.00000000000E+00 -0.16454116720E+03  0.16454116720E+03  0.00000000000E+00 0. -1.
         23    2    1    2    0    0 -0.29162851080E+02  0.41052979890E+02 -0.35233545397E+02  0.10712164297E+03  0.87737247682E+02 0.  0.
         23    2    1    2    0    0  0.29162851080E+02 -0.41052979890E+02 -0.44671798408E+02  0.14205534763E+03  0.12509329788E+03 0.  0.
          5    1    4    4  502    0 -0.20539388272E+02 -0.69302101103E+02 -0.54664513531E+01  0.72608554443E+02  0.41800000000E+01 0. -1.
         -5    1    4    4    0  502  0.49702239352E+02  0.28249121213E+02 -0.39205347055E+02  0.69446793184E+02  0.41800000000E+01 0. -1.
        -11    1    3    3    0    0 -0.28257212621E+02  0.68226510580E+02 -0.23358718974E+02  0.77452931275E+02  0.00000000000E+00 0.  1.
         11    1    3    3    0    0 -0.90563845854E+00 -0.27173530690E+02 -0.11874826423E+02  0.29668711697E+02  0.00000000000E+00 0. -1.
</event>
<event>
 8    1  0.8061721E-006  0.7146384E+02  0.7561462E-02  0.1355185E+00
          1   -1    0    0  501    0  0.00000000000E+00  0.00000000000E+00  0.26562279483E+03  0.26562279483E+03  0.00000000000E+00 0. -1.
         -1   -1    0    0    0  501 -0.00000000000E+00 -0.00000000000E+00 -0.44875990628E+02  0.44875990628E+02  0.00000000000E+00 0.  1.
         23    2    1    2    0    0 -0.47546810681E+01  0.22027543179E+00  0.65828476438E+02  0.11132870659E+03  0.89655100732E+02 0.  0.
         23    2    1    2    0    0  0.47546810681E+01 -0.22027543179E+00  0.15491832776E+03  0.19917007887E+03  0.12508547688E+03 0.  0.
          5    1    4    4  502    0 -0.30409956540E+02  0.21932389525E+01  0.16033779060E+03  0.16326437226E+03  0.41800000000E+01 0. -1.
         -5    1    4    4    0  502  0.35164637608E+02 -0.24135143843E+01 -0.54194628376E+01  0.35905706611E+02  0.41800000000E+01 0. -1.
        -11    1    3    3    0    0 -0.39398129844E+02 -0.97942524887E+01  0.53959032776E+01  0.40954313438E+02  0.00000000000E+00 0. -1.
         11    1    3    3    0    0  0.34643448776E+02  0.10014527920E+02  0.60432573161E+02  0.70374393151E+02  0.00000000000E+00 0.  1.
</event>
<event>
 8    1  0.8061721E-006  0.5649529E+02  0.7561462E-02  0.1413157E+00
         -2   -1    0    0    0  501 -0.00000000000E+00  0.00000000000E+00  0.77950293532E+02  0.77950293532E+02  0.00000000000E+00 0.  1.
          2   -1    0    0  501    0  0.00000000000E+00 -0.00000000000E+00 -0.16663736846E+03  0.16663736846E+03  0.00000000000E+00 0. -1.
         23    2    1    2    0    0 -0.16786423031E+02  0.16236084595E+02 -0.13640780853E+02  0.96857861593E+02  0.93005268717E+02 0.  0.
         23    2    1    2    0    0  0.16786423031E+02 -0.16236084595E+02 -0.75046294078E+02  0.14772980040E+03  0.12508698266E+03 0.  0.
          5    1    4    4  502    0  0.15745429243E+02 -0.27216630486E+02  0.29023213323E+02  0.42993985959E+02  0.41800000000E+01 0. -1.
         -5    1    4    4    0  502  0.10409937875E+01  0.10980545891E+02 -0.10406950740E+03  0.10473581444E+03  0.41800000000E+01 0. -1.
        -11    1    3    3    0    0 -0.68023907334E+01  0.41633884370E+02  0.25386803011E+02  0.49235582809E+02  0.00000000000E+00 0.  1.
         11    1    3    3    0    0 -0.99840322975E+01 -0.25397799775E+02 -0.39027583864E+02  0.47622278784E+02  0.00000000000E+00 0. -1.
</event>
<event>
 8    1  0.8061721E-006  0.1556258E+03  0.7561462E-02  0.1193726E+00
          1   -1    0    0  501    0  0.00000000000E+00  0.00000000000E+00  0.16206045084E+04  0.16206045084E+04  0.00000000000E+00 0. -1.
         -1   -1    0    0    0  501 -0.00000000000E+00 -0.00000000000E+00 -0.15532063843E+02  0.15532063843E+02  0.00000000000E+00 0.  1.
         23    2    1    2    0    0 -0.35959664832E+02 -0.10868384136E+03  0.68478449913E+03  0.70035689193E+03  0.92003755110E+02 0.  0.
         23    2    1    2    0    0  0.35959664832E+02  0.10868384136E+03  0.92028794542E+03  0.93577968031E+03  0.12509369579E+03 0.  0.
          5    1    4    4  502    0 -0.35554450167E+02  0.84698245250E+02  0.57668627327E+03  0.58397126800E+03  0.41800000000E+01 0. -1.
         -5    1    4    4    0  502  0.71514114999E+02  0.23985596108E+02  0.34360167215E+03  0.35180841231E+03  0.41800000000E+01 0. -1.
        -11    1    3    3    0    0 -0.64957592710E+02 -0.78626682074E+02  0.54523244103E+03  0.55468915505E+03  0.00000000000E+00 0.  1.
         11    1    3    3    0    0  0.28997927878E+02 -0.30057159284E+02  0.13955205810E+03  0.14566773687E+03  0.00000000000E+00 0. -1.
</event>
<event>
 8    1  0.8061721E-006  0.1302149E+03  0.7561462E-02  0.1227137E+00
          2   -1    0    0  501    0  0.00000000000E+00  0.00000000000E+00  0.11297248326E+04  0.11297248326E+04  0.00000000000E+00 0.  1.
         -2   -1    0    0    0  501 -0.00000000000E+00 -0.00000000000E+00 -0.16909263911E+02  0.16909263911E+02  0.00000000000E+00 0. -1.
         23    2    1    2    0    0  0.76301094295E+02 -0.12722358526E+02  0.34066936359E+03  0.36060584139E+03  0.89427300983E+02 0.  0.
         23    2    1    2    0    0 -0.76301094295E+02  0.12722358526E+02  0.77214620505E+03  0.78602825507E+03  0.12508773080E+03 0.  0.
          5    1    4    4  502    0  0.34448291113E+02  0.86772273146E+01  0.16441780194E+03  0.16826367709E+03  0.41800000000E+01 0.  1.
         -5    1    4    4    0  502 -0.11074938541E+03  0.40451312112E+01  0.60772840311E+03  0.61776457798E+03  0.41800000000E+01 0.  1.
        -11    1    3    3    0    0  0.82653901661E+02 -0.35615095027E+02  0.30287777660E+03  0.31596684955E+03  0.00000000000E+00 0. -1.
         11    1    3    3    0    0 -0.63528073656E+01  0.22892736501E+02  0.37791586987E+02  0.44638991845E+02  0.00000000000E+00 0.  1.
</event>
<event>
 7    1  0.8061721E-006  0.1072983E+03  0.7561462E-02  0.1265656E+00
          2   -1    0    0  501    0  0.00000000000E+00  0.00000000000E+00  0.31218078431E+03  0.31218078431E+03  0.00000000000E+00 0. -1.
         -2   -1    0    0    0  501 -0.00000000000E+00 -0.00000000000E+00 -0.69429990499E+02  0.69429990499E+02  0.00000000000E+00 0.  1.
         23    2    1    2    0    0  0.17811674606E+02 -0.25767729783E+02  0.81843590756E+02  0.12677429468E+03  0.91608497388E+02 0.  0.
          5    1    1    2  502    0  0.78370360623E+01 -0.57425515727E+02  0.15720455715E+03  0.16760028096E+03  0.41800000000E+01 0. -1.
         -5    1    1    2    0  502 -0.25648710668E+02  0.83193245510E+02  0.37026459031E+01  0.87236199161E+02  0.41800000000E+01 0.  1.
        -11    1    3    3    0    0 -0.16535102424E+02 -0.30466026382E+02 -0.33227093019E+01  0.34822819713E+02  0.00000000000E+00 0. -1.
         11    1    3    3    0    0  0.34346777030E+02  0.46982965988E+01  0.85166300057E+02  0.91951474968E+02  0.00000000000E+00 0.  1.
</event>
<event>
 8    1  0.8061721E-006  0.1376016E+03  0.7561462E-02  0.1216593E+00
          2   -1    0    0  501    0  0.00000000000E+00  0.00000000000E+00  0.24180417182E+03  0.24180417182E+03  0.00000000000E+00 0.  1.
         -2   -1    0    0    0  501 -0.00000000000E+00 -0.00000000000E+00 -0.10434912991E+03  0.10434912991E+03  0.00000000000E+00 0. -1.
         23    2    1    2    0    0  0.99612103469E+02 -0.42304546356E+02  0.20238682307E+02  0.14342203712E+03  0.91913169182E+02 0.  0.
         23    2    1    2    0    0 -0.99612103469E+02  0.42304546356E+02  0.11721635960E+03  0.20273126461E+03  0.12509214560E+03 0.  0.
          5    1    4    4  502    0 -0.69611421699E+02  0.72122563713E+02  0.28396855390E+02  0.10426537308E+03  0.41800000000E+01 0. -1.
         -5    1    4    4    0  502 -0.30000681770E+02 -0.29818017357E+02  0.88819504213E+02  0.98465891528E+02  0.41800000000E+01 0. -1.
        -11    1    3    3    0    0 -0.81234096971E+01  0.97766602613E+01 -0.14046115474E+02  0.18943764961E+02  0.00000000000E+00 0. -1.
         11    1    3    3    0    0  0.10773551317E+03 -0.52081206617E+02  0.34284797781E+02  0.12447827216E+03  0.00000000000E+00 0.  1.
</event>
<event>
 8    1  0.8061721E-006  0.1365038E+03  0.7561462E-02  0.1218112E+00
         -1   -1    0    0    0  501 -0.00000000000E+00  0.00000000000E+00  0.84098136999E+02  0.84098136999E+02  0.00000000000E+00 0.  1.
          1   -1    0    0  501    0  0.00000000000E+00 -0.00000000000E+00 -0.49711646959E+03  0.49711646959E+03  0.00000000000E+00 0. -1.
         23    2    1    2    0    0 -0.22403989272E+01 -0.11441442453E+03 -0.15020920773E+02  0.14861357847E+03  0.93619910910E+02 0.  0.
         23    2    1    2    0    0  0.22403989272E+01  0.11441442453E+03 -0.39799741182E+03  0.43260102812E+03  0.12508409086E+03 0.  0.
          5    1    4    4  502    0  0.26737541968E+02  0.39471809969E+01 -0.21965438833E+03  0.22135039892E+03  0.41800000000E+01 0. -1.
         -5    1    4    4    0  502 -0.24497143041E+02  0.11046724353E+03 -0.17834302349E+03  0.21125062920E+03  0.41800000000E+01 0. -1.
        -11    1    3    3    0    0 -0.33484479897E+02 -0.74996626088E+02  0.23307995533E+02  0.85375447139E+02  0.00000000000E+00 0.  1.
         11    1    3    3    0    0  0.31244080970E+02 -0.39417798438E+02 -0.38328916306E+02  0.63238131333E+02  0.00000000000E+00 0. -1.
</event>
<event>
 8    1  0.8061721E-006  0.1326021E+03  0.7561462E-02  0.1223645E+00
         -2   -1    0    0    0  501 -0.00000000000E+00  0.00000000000E+00  0.55182894989E+02  0.55182894989E+02  0.00000000000E+00 0.  1.
          2   -1    0    0  501    0  0.00000000000E+00 -0.00000000000E+00 -0.50696120408E+03  0.50696120408E+03  0.00000000000E+00 0. -1.
         23    2    1    2    0    0 -0.10011953476E+03 -0.21426532452E+02 -0.85069663705E+02  0.16138806413E+03  0.91248243962E+02 0.  0.
         23    2    1    2    0    0  0.10011953476E+03  0.21426532452E+02 -0.36670864538E+03  0.40075603494E+03  0.12508857425E+03 0.  0.
          5    1    4    4  502    0  0.55999241067E+02 -0.31713953183E+02 -0.66343433227E+02  0.92523582718E+02  0.41800000000E+01 0. -1.
         -5    1    4    4    0  502  0.44120293692E+02  0.53140485635E+02 -0.30036521216E+03  0.30823245222E+03  0.41800000000E+01 0. -1.
        -11    1    3    3    0    0 -0.57556511530E+02 -0.53220028970E+02 -0.72538960582E+02  0.10680367178E+03  0.00000000000E+00 0. -1.
         11    1    3    3    0    0 -0.42563023229E+02  0.31793496517E+02 -0.12530703123E+02  0.54584392348E+02  0.00000000000E+00 0.  1.
</event>
<event>
 7    1  0.8061721E-006  0.1225997E+03  0.7561462E-02  0.1238869E+00
          1   -1    0    0  501    0  0.00000000000E+00  0.00000000000E+00  0.94041735669E+03  0.94041735669E+03  0.00000000000E+00 0. -1.
         -1   -1    0    0    0  501 -0.00000000000E+00 -0.00000000000E+00 -0.21480434122E+02  0.21480434122E+02  0.00000000000E+00 0.  1.
         23    2    1    2    0    0 -0.50436738190E+02 -0.52914723883E+02  0.29349934423E+03  0.31580151262E+03  0.90801419300E+02 0.  0.
          5    1    1    2  502    0 -0.50714548305E+02  0.21335471463E+02  0.24641342892E+03  0.25251577793E+03  0.41800000000E+01 0. -1.
         -5    1    1    2    0  502  0.10115128649E+03  0.31579252420E+02  0.37902414942E+03  0.39358050026E+03  0.41800000000E+01 0.  1.
        -11    1    3    3    0    0 -0.10748784324E+02 -0.41218430980E+02  0.25737184362E+03  0.26087307508E+03  0.00000000000E+00 0. -1.
         11    1    3    3    0    0 -0.39687953866E+02 -0.11696292903E+02  0.36127500616E+02  0.54928437539E+02  0.00000000000E+00 0.  1.
</event>
<event>
 7    1  0.8061721E-006  0.1270640E+03  0.7561462E-02  0.1231878E+00
         -1   -1    0    0    0  501 -0.00000000000E+00  0.00000000000E+00  0.19137331739E+02  0.19137331739E+02  0.00000000000E+00 0.  1.
          1   -1    0    0  501    0  0.00000000000E+00 -0.00000000000E+00 -0.12609364676E+04  0.12609364676E+04  0.00000000000E+00 0. -1.
         23    2    1    2    0    0 -0.16935468955E+02  0.48413526913E+02 -0.19554415724E+03  0.22139654037E+03  0.90267552088E+02 0.  0.
          5    1    1    2  502    0 -0.60373713595E+02 -0.54230568017E+02 -0.63272726042E+03  0.63792413208E+03  0.41800000000E+01 0. -1.
         -5    1    1    2    0  502  0.77309182550E+02  0.58170411037E+01 -0.41352771815E+03  0.42075312685E+03  0.41800000000E+01 0.  1.
        -11    1    3    3    0    0  0.21030349242E+02  0.52966055331E+02 -0.70590950235E+02  0.90723540835E+02  0.00000000000E+00 0.  1.
         11    1    3    3    0    0 -0.37965818197E+02 -0.45525284183E+01 -0.12495320701E+03  0.13067299954E+03  0.00000000000E+00 0. -1.
</event>
<event>
 8    1  0.8061721E-006  0.1679840E+03  0.7561462E-02  0.1179967E+00
          2   -1    0    0  501    0  0.00000000000E+00  0.00000000000E+00  0.35172718169E+03  0.35172718169E+03  0.00000000000E+00 0. -1.
         -2   -1    0    0    0  501 -0.00000000000E+00 -0.00000000000E+00 -0.81718535760E+02  0.81718535760E+02  0.00000000000E+00 0.  1.
         23    2    1    2    0    0 -0.50808188388E+02  0.12247384834E+03  0.10766345975E+03  0.18934299428E+03  0.81719235086E+02 0.  0.
         23    2    1    2    0    0  0.50808188388E+02 -0.12247384834E+03  0.16234518618E+03  0.24410272316E+03  0.12509542136E+03 0.  0.
          5    1    4    4  502    0 -0.40490944182E+02 -0.44840300331E+02  0.38766115766E+02  0.71905863642E+02  0.41800000000E+01 0. -1.
         -5    1    4    4    0  502  0.91299132570E+02 -0.77633548014E+02  0.12357907041E+03  0.17219685952E+03  0.41800000000E+01 0. -1.
        -11    1    3    3    0    0 -0.38941421902E+02  0.71926511044E+01  0.32309455098E+02  0.51108408881E+02  0.00000000000E+00 0.  1.
         11    1    3    3    0    0 -0.11866766486E+02  0.11528119724E+03  0.75354004649E+02  0.13823458540E+03  0.00000000000E+00 0. -1.
</event>
<event>
 8    1  0.8061721E-006  0.9855597E+02  0.7561462E-02  0.1283362E+00
          1   -1    0    0  501    0  0.00000000000E+00  0.00000000000E+00  0.17186720214E+03  0.17186720214E+03  0.00000000000E+00 0. -1.
         -1   -1    0    0    0  501 -0.00000000000E+00 -0.00000000000E+00 -0.10726121198E+03  0.10726121198E+03  0.00000000000E+00 0.  1.
         23    2    1    2    0    0 -0.33495310615E+02 -0.49158991694E+02 -0.27821688377E+02  0.11261289318E+03  0.91482648998E+02 0.  0.
         23    2    1    2    0    0  0.33495310615E+02  0.49158991694E+02  0.92427678534E+02  0.16651552094E+03  0.12508397442E+03 0.  0.
          5    1    4    4  502    0 -0.83679793928E+01  0.80986052803E+02  0.35546707932E+02  0.88937082662E+02  0.41800000000E+01 0. -1.
         -5    1    4    4    0  502  0.41863290008E+02 -0.31827061109E+02  0.56880970602E+02  0.77578438279E+02  0.41800000000E+01 0. -1.
        -11    1    3    3    0    0 -0.10960702051E+02 -0.33876792096E+02 -0.60425138778E+02  0.70135379292E+02  0.00000000000E+00 0.  1.
         11    1    3    3    0    0 -0.22534608564E+02 -0.15282199598E+02  0.32603450401E+02  0.42477513884E+02  0.00000000000E+00 0. -1.
</event>
<event>
 8    1  0.8061721E-006  0.1188230E+03  0.7561462E-02  0.1245051E+00
         -1   -1    0    0    0  501 -0.00000000000E+00  0.00000000000E+00  0.53115734668E+03  0.53115734668E+03  0.00000000000E+00 0.  1.
          1   -1    0    0  501    0  0.00000000000E+00 -0.00000000000E+00 -0.28046214366E+02  0.28046214366E+02  0.00000000000E+00 0. -1.
         23    2    1    2    0    0 -0.34514433494E+02 -0.41972527135E+02  0.24901421963E+03  0.27081177536E+03  0.91531398684E+02 0.  0.
         23    2    1    2    0    0  0.34514433494E+02  0.41972527135E+02  0.25409691268E+03  0.28839178568E+03  0.12510652205E+03 0.  0.
          5    1    4    4  502    0  0.46841203601E+02 -0.31947927955E+02  0.14700667424E+03  0.15761726786E+03  0.41800000000E+01 0.  1.
         -5    1    4    4    0  502 -0.12326770106E+02  0.73920455091E+02  0.10709023844E+03  0.13077451782E+03  0.41800000000E+01 0.  1.
        -11    1    3    3    0    0 -0.56073806547E+02  0.26935694246E+01  0.14770575664E+03  0.15801429569E+03  0.00000000000E+00 0. -1.
         11    1    3    3    0    0  0.21559373053E+02 -0.44666096560E+02  0.10130846298E+03  0.11279747967E+03  0.00000000000E+00 0.  1.
</event>
<event>
 8    1  0.8061721E-006  0.8037396E+02  0.7561462E-02  0.1327994E+00
          3   -1    0    0  501    0  0.00000000000E+00  0.00000000000E+00  0.19504221126E+03  0.19504221126E+03  0.00000000000E+00 0. -1.
         -3   -1    0    0    0  501 -0.00000000000E+00 -0.00000000000E+00 -0.84066231362E+02  0.84066231362E+02  0.00000000000E+00 0.  1.
         23    2    1    2    0    0  0.46040842937E+02  0.46947526344E+02  0.58763816553E+02  0.12845981725E+03  0.93407221685E+02 0.  0.
         23    2    1    2    0    0 -0.46040842937E+02 -0.46947526344E+02  0.52212163346E+02  0.15064862538E+03  0.12508024975E+03 0.  0.
          5    1    4    4  502    0 -0.58455429501E+02 -0.38731444409E+02  0.87448401984E+02  0.11216887908E+03  0.41800000000E+01 0. -1.
         -5    1    4    4    0  502  0.12414586564E+02 -0.82160819346E+01 -0.35236238638E+02  0.38479746299E+02  0.41800000000E+01 0. -1.
        -11    1    3    3    0    0  0.17613828600E+02 -0.27085368680E+01 -0.22731413385E+02  0.28884256688E+02  0.00000000000E+00 0.  1.
         11    1    3    3    0    0  0.28427014336E+02  0.49656063212E+02  0.81495229938E+02  0.99575560558E+02  0.00000000000E+00 0. -1.
</event>
<event>
 8    1  0.8061721E-006  0.7277489E+02  0.7561462E-02  0.1350903E+00
         -1   -1    0    0    0  501 -0.00000000000E+00  0.00000000000E+00  0.13431152862E+03  0.13431152862E+03  0.00000000000E+00 0.  1.
          1   -1    0    0  501    0  0.00000000000E+00 -0.00000000000E+00 -0.11314207418E+03  0.11314207418E+03  0.00000000000E+00 0. -1.
         23    2    1    2    0    0  0.18137494992E+02  0.86637269443E+01  0.61468333513E+02  0.11450463440E+03  0.94492996488E+02 0.  0.
         23    2    1    2    0    0 -0.18137494992E+02 -0.86637269443E+01 -0.40298879067E+02  0.13294896840E+03  0.12508956653E+03 0.  0.
          5    1    4    4  502    0 -0.93456926033E+01 -0.31397985310E+02 -0.79789305365E+02  0.86353813479E+02  0.41800000000E+01 0.  1.
         -5    1    4    4    0  502 -0.87918023892E+01  0.22734258366E+02  0.39490426298E+02  0.46595154919E+02  0.41800000000E+01 0.  1.
        -11    1    3    3    0    0 -0.23376154593E+02 -0.25088262280E+02  0.48593425237E+02  0.59474250597E+02  0.00000000000E+00 0.  1.
         11    1    3    3    0    0  0.41513649586E+02  0.33751989224E+02  0.12874908276E+02  0.55030383804E+02  0.00000000000E+00 0. -1.
</event>
<event>
 8    1  0.8061721E-006  0.1154635E+03  0.7561462E-02  0.1250774E+00
         -1   -1    0    0    0  501 -0.00000000000E+00  0.00000000000E+00  0.10067153002E+03  0.10067153002E+03  0.00000000000E+00 0.  1.
          1   -1    0    0  501    0  0.00000000000E+00 -0.00000000000E+00 -0.18883656391E+03  0.18883656391E+03  0.00000000000E+00 0. -1.
         23    2    1    2    0    0 -0.54733313490E+02 -0.19785728650E+02 -0.25356637958E+02  0.13791631353E+03  0.12243667663E+03 0.  0.
         23    2    1    2    0    0  0.54733313490E+02  0.19785728650E+02 -0.62808395935E+02  0.15159178040E+03  0.12509181677E+03 0.  0.
          5    1    4    4  502    0  0.78542851768E+02 -0.85580436051E+00  0.27785487714E+01  0.78707716891E+02  0.41800000000E+01 0. -1.
         -5    1    4    4    0  502 -0.23809538278E+02  0.20641533010E+02 -0.65586944707E+02  0.72884063511E+02  0.41800000000E+01 0. -1.
        -11    1    3    3    0    0 -0.25356111207E+02  0.43702383895E+02 -0.42349557508E+02  0.65926593684E+02  0.00000000000E+00 0. -1.
         11    1    3    3    0    0 -0.29377202283E+02 -0.63488112545E+02  0.16992919551E+02  0.71989719845E+02  0.00000000000E+00 0.  1.
</event>
<event>
 8    1  0.8061721E-006  0.9886312E+02  0.7561462E-02  0.1282705E+00
         -2   -1    0    0    0  501 -0.00000000000E+00  0.00000000000E+00  0.80073225595E+02  0.80073225595E+02  0.00000000000E+00 0.  1.
          2   -1    0    0  501    0  0.00000000000E+00 -0.00000000000E+00 -0.26163785117E+03  0.26163785117E+03  0.00000000000E+00 0. -1.
         23    2    1    2    0    0  0.37232733604E+02 -0.48836404179E+02  0.62341167844E+01  0.10786043239E+03  0.88451895615E+02 0.  0.
         23    2    1    2    0    0 -0.37232733604E+02  0.48836404179E+02 -0.18779874236E+03  0.23385064438E+03  0.12508591216E+03 0.  0.
          5    1    4    4  502    0 -0.27185886184E+02  0.77098851704E+02 -0.57391040949E+02  0.99972542845E+02  0.41800000000E+01 0.  1.
         -5    1    4    4    0  502 -0.10046847420E+02 -0.28262447524E+02 -0.13040770141E+03  0.13387810154E+03  0.41800000000E+01 0.  1.
        -11    1    3    3    0    0  0.52878563321E+02 -0.28966536021E+02 -0.27029693585E+02  0.66074253710E+02  0.00000000000E+00 0. -1.
         11    1    3    3    0    0 -0.15645829717E+02 -0.19869868158E+02  0.33263810370E+02  0.41786178677E+02  0.00000000000E+00 0.  1.
</event>
<event>
 8    1  0.8061721E-006  0.2476017E+03  0.7561462E-02  0.1114830E+00
         -2   -1    0    0    0  501 -0.00000000000E+00  0.00000000000E+00  0.44199263993E+02  0.44199263993E+02  0.00000000000E+00 0.  1.
          2   -1    0    0  501    0  0.00000000000E+00 -0.00000000000E+00 -0.15592342110E+04  0.15592342110E+04  0.00000000000E+00 0. -1.
         23    2    1    2    0    0 -0.15025521218E+03 -0.18459868068E+03 -0.69245649811E+03  0.73802296864E+03  0.92350412943E+02 0.  0.
         23    2    1    2    0    0  0.15025521218E+03  0.18459868068E+03 -0.82257844894E+03  0.86541050640E+03  0.12508692268E+03 0.  0.
          5    1    4    4  502    0  0.14900540842E+02  0.61051141592E+01 -0.25006653779E+03  0.25061932140E+03  0.41800000000E+01 0. -1.
         -5    1    4    4    0  502  0.13535467134E+03  0.17849356652E+03 -0.57251191115E+03  0.61479118500E+03  0.41800000000E+01 0. -1.
        -11    1    3    3    0    0 -0.78815531747E+02 -0.16104135562E+03 -0.51341626784E+03  0.54382209439E+03  0.00000000000E+00 0.  1.
         11    1    3    3    0    0 -0.71439680433E+02 -0.23557325057E+02 -0.17904023027E+03  0.19420087425E+03  0.00000000000E+00 0. -1.
</event>
<event>
 8    1  0.8061721E-006  0.1713024E+03  0.7561462E-02  0.1176496E+00
          2   -1    0    0  501    0  0.00000000000E+00  0.00000000000E+00  0.47515382916E+03  0.47515382916E+03  0.00000000000E+00 0. -1.
         -2   -1    0    0    0  501 -0.00000000000E+00 -0.00000000000E+00 -0.13298289785E+03  0.13298289785E+03  0.00000000000E+00 0.  1.
         23    2    1    2    0    0  0.40129663385E+02 -0.13651761887E+03 -0.45522055637E+02  0.17662743315E+03  0.94220711341E+02 0.  0.
         23    2    1    2    0    0 -0.40129663385E+02  0.13651761887E+03  0.38769298694E+03  0.43150929386E+03  0.12508784281E+03 0.  0.
          5    1    4    4  502    0  0.26169013741E+02  0.84025130225E+02  0.28557624036E+03  0.29885832973E+03  0.41800000000E+01 0. -1.
         -5    1    4    4    0  502 -0.66298677126E+02  0.52492488647E+02  0.10211674658E+03  0.13265096413E+03  0.41800000000E+01 0. -1.
        -11    1    3    3    0    0 -0.13196525475E+02 -0.10905529197E+03 -0.37686681956E+02  0.11613565769E+03  0.00000000000E+00 0.  1.
         11    1    3    3    0    0  0.53326188860E+02 -0.27462326907E+02 -0.78353736808E+01  0.60491775460E+02  0.00000000000E+00 0. -1.
</event>
<event>
 8    1  0.8061721E-006  0.1023930E+03  0.7561462E-02  0.1275343E+00
          1   -1    0    0  501    0  0.00000000000E+00  0.00000000000E+00  0.34787203864E+03  0.34787203864E+03  0.00000000000E+00 0. -1.
         -1   -1    0    0    0  501 -0.00000000000E+00 -0.00000000000E+00 -0.58510666639E+02  0.58510666639E+02  0.00000000000E+00 0.  1.
         23    2    1    2    0    0  0.32306623577E+02 -0.57928080406E+02  0.42408166790E+02  0.12172038431E+03  0.92833285626E+02 0.  0.
         23    2    1    2    0    0 -0.32306623577E+02  0.57928080406E+02  0.24695320521E+03  0.28466232097E+03  0.12508945194E+03 0.  0.
          5    1    4    4  502    0 -0.65320584383E+02  0.15372393092E+02  0.20650780244E+03  0.21717742535E+03  0.41800000000E+01 0.  1.
         -5    1    4    4    0  502  0.33013960805E+02  0.42555687314E+02  0.40445402767E+02  0.67484895613E+02  0.41800000000E+01 0.  1.
        -11    1    3    3    0    0  0.41097836704E+02 -0.22150344197E+02 -0.18759092489E+02  0.50314744170E+02  0.00000000000E+00 0.  1.
         11    1    3    3    0    0 -0.87912131275E+01 -0.35777736209E+02  0.61167259279E+02  0.71405640143E+02  0.00000000000E+00 0. -1.
</event>
<event>
 8    1  0.8061721E-006  0.1097643E+03  0.7561462E-02  0.1261007E+00
          1   -1    0    0  501    0  0.00000000000E+00  0.00000000000E+00  0.81651598268E+02  0.81651598268E+02  0.00000000000E+00 0. -1.
         -1   -1    0    0    0  501 -0.00000000000E+00 -0.00000000000E+00 -0.16807358931E+03  0.16807358931E+03  0.00000000000E+00 0.  1.
         23    2    1    2    0    0  0.59333025973E+01 -0.35162880248E+02 -0.67957003444E+02  0.11834963458E+03  0.90093559489E+02 0.  0.
         23    2    1    2    0    0 -0.59333025973E+01  0.35162880248E+02 -0.18464987600E+02  0.13137555300E+03  0.12508776092E+03 0.  0.
          5    1    4    4  502    0  0.39646503971E+02  0.61702355326E+02 -0.26014147999E+02  0.77930958072E+02  0.41800000000E+01 0. -1.
         -5    1    4    4    0  502 -0.45579806568E+02 -0.26539475078E+02  0.75491603989E+01  0.53444594927E+02  0.41800000000E+01 0. -1.
        -11    1    3    3    0    0 -0.12849215677E+02  0.26094681570E+02 -0.37356592851E+02  0.47345007964E+02  0.00000000000E+00 0.  1.
         11    1    3    3    0    0  0.18782518274E+02 -0.61257561818E+02 -0.30600410593E+02  0.71004626617E+02  0.00000000000E+00 0. -1.
</event>
<event>
 8    1  0.8061721E-006  0.1094667E+03  0.7561462E-02  0.1261561E+00
         -1   -1    0    0    0  501 -0.00000000000E+00  0.00000000000E+00  0.32753768424E+03  0.32753768424E+03  0.00000000000E+00 0.  1.
          1   -1    0    0  501    0  0.00000000000E+00 -0.00000000000E+00 -0.43085296574E+02  0.43085296574E+02  0.00000000000E+00 0. -1.
         23    2    1    2    0    0  0.10276283026E+02 -0.41368316733E+02  0.17028622761E+03  0.19598774261E+03  0.87159946742E+02 0.  0.
         23    2    1    2    0    0 -0.10276283026E+02  0.41368316733E+02  0.11416616005E+03  0.17463523820E+03  0.12508642892E+03 0.  0.
          5    1    4    4  502    0  0.35025165009E+02 -0.30387002202E+02  0.32422562922E+02  0.56734707835E+02  0.41800000000E+01 0.  1.
         -5    1    4    4    0  502 -0.45301448035E+02  0.71755318935E+02  0.81743597127E+02  0.11790053037E+03  0.41800000000E+01 0.  1.
        -11    1    3    3    0    0  0.24486286327E+01  0.22718937876E+02  0.13771900189E+02  0.26679789265E+02  0.00000000000E+00 0. -1.
         11    1    3    3    0    0  0.78276543934E+01 -0.64087254609E+02  0.15651432743E+03  0.16930795335E+03  0.00000000000E+00 0.  1.
</event>
<event>
 8    1  0.8061721E-006  0.1121360E+03  0.7561462E-02  0.1256665E+00
          1   -1    0    0  501    0  0.00000000000E+00  0.00000000000E+00  0.51073754418E+02  0.51073754418E+02  0.00000000000E+00 0. -1.
         -1   -1    0    0    0  501 -0.00000000000E+00 -0.00000000000E+00 -0.31459260128E+03  0.31459260128E+03  0.00000000000E+00 0.  1.
         23    2    1    2    0    0  0.19849017533E+02  0.30315914337E+02 -0.19160858527E+03  0.21689972676E+03  0.94966327511E+02 0.  0.
         23    2    1    2    0    0 -0.19849017533E+02 -0.30315914337E+02 -0.71910261593E+02  0.14876662894E+03  0.12508951197E+03 0.  0.
          5    1    4    4  502    0 -0.25480164528E+01 -0.78568402203E+02 -0.46048060567E+02  0.91199684728E+02  0.41800000000E+01 0. -1.
         -5    1    4    4    0  502 -0.17301001080E+02  0.48252487866E+02 -0.25862201026E+02  0.57566944209E+02  0.41800000000E+01 0. -1.
        -11    1    3    3    0    0  0.51593971656E+02  0.34551056015E+02 -0.16116283625E+03  0.17271124217E+03  0.00000000000E+00 0.  1.
         11    1    3    3    0    0 -0.31744954123E+02 -0.42351416784E+01 -0.30445749020E+02  0.44188484594E+02  0.00000000000E+00 0. -1.
</event>
<event>
 8    1  0.8061721E-006  0.8592282E+02  0.7561462E-02  0.1313037E+00
          1   -1    0    0  501    0  0.00000000000E+00  0.00000000000E+00  0.56635818739E+02  0.56635818739E+02  0.00000000000E+00 0. -1.
         -1   -1    0    0    0  501 -0.00000000000E+00 -0.00000000000E+00 -0.24472908956E+03  0.24472908956E+03  0.00000000000E+00 0.  1.
         23    2    1    2    0    0  0.76461389043E+01  0.42931681133E+02 -0.99888509702E+02  0.14221182784E+03  0.91350407338E+02 0.  0.
         23    2    1    2    0    0 -0.76461389043E+01 -0.42931681133E+02 -0.88204761115E+02  0.15915308046E+03  0.12509208788E+03 0.  0.
          5    1    4    4  502    0  0.20598944628E+02  0.58486596626E+00  0.26123756054E+02  0.33534782217E+02  0.41800000000E+01 0.  1.
         -5    1    4    4    0  502 -0.28245083533E+02 -0.43516547099E+02 -0.11432851717E+03  0.12561829824E+03  0.41800000000E+01 0.  1.
        -11    1    3    3    0    0  0.28896806109E+02 -0.18132689136E+02 -0.50076416009E+02  0.60592633702E+02  0.00000000000E+00 0.  1.
         11    1    3    3    0    0 -0.21250667204E+02  0.61064370269E+02 -0.49812093692E+02  0.81619194133E+02  0.00000000000E+00 0. -1.
</event>
<event>
 8    1  0.8061721E-006  0.1014545E+03  0.7561462E-02  0.1277267E+00
         -2   -1    0    0    0  501 -0.00000000000E+00  0.00000000000E+00  0.14673224903E+03  0.14673224903E+03  0.00000000000E+00 0.  1.
          2   -1    0    0  501    0  0.00000000000E+00 -0.00000000000E+00 -0.98836352038E+02  0.98836352038E+02  0.00000000000E+00 0. -1.
         23    2    1    2    0    0 -0.20908417216E+02  0.24657890075E+02  0.67274280130E+02  0.11491069363E+03  0.87369704650E+02 0.  0.
         23    2    1    2    0    0  0.20908417216E+02 -0.24657890075E+02 -0.19378383134E+02  0.13065790744E+03  0.12510313181E+03 0.  0.
          5    1    4    4  502    0  0.21000901719E+02  0.48526539459E+02 -0.21722473999E+02  0.57316674550E+02  0.41800000000E+01 0.  1.
         -5    1    4    4    0  502 -0.92484502871E-01 -0.73184429534E+02  0.23440908649E+01  0.73341232888E+02  0.41800000000E+01 0.  1.
        -11    1    3    3    0    0  0.17635355194E+02  0.32735186026E+02  0.65707116515E+02  0.75498498778E+02  0.00000000000E+00 0.  1.
         11    1    3    3    0    0 -0.38543772410E+02 -0.80772959512E+01  0.15671636150E+01  0.39412194854E+02  0.00000000000E+00 0. -1.
</event>
<event>
 8    1  0.8061721E-006  0.7429675E+02  0.7561462E-02  0.1346063E+00
         -1   -1    0    0    0  501 -0.00000000000E+00  0.00000000000E+00  0.63602132803E+02  0.63602132803E+02  0.00000000000E+00 0.  1.
          1   -1    0    0  501    0  0.00000000000E+00 -0.00000000000E+00 -0.23793504569E+03  0.23793504569E+03  0.00000000000E+00 0. -1.
         23    2    1    2    0    0 -0.13094382577E+01  0.38416330708E+02 -0.20144647544E+02  0.99369812766E+02  0.89392526370E+02 0.  0.
         23    2    1    2    0    0  0.13094382577E+01 -0.38416330708E+02 -0.15418826534E+03  0.20216736573E+03  0.12498037247E+03 0.  0.
          5    1    4    4  502    0 -0.31941775718E+02 -0.20882124131E+02  0.48481763132E+01  0.38695185202E+02  0.41800000000E+01 0.  1.
         -5    1    4    4    0  502  0.33251213975E+02 -0.17534206577E+02 -0.15903644166E+03  0.16347218053E+03  0.41800000000E+01 0.  1.
        -11    1    3    3    0    0 -0.23981503019E+02  0.43013432938E+02  0.19906213155E+02  0.53118031047E+02  0.00000000000E+00 0.  1.
         11    1    3    3    0    0  0.22672064761E+02 -0.45971022296E+01 -0.40050860699E+02  0.46251781719E+02  0.00000000000E+00 0. -1.
</event>
<event>
 8    1  0.8061721E-006  0.9821946E+02  0.7561462E-02  0.1284085E+00
          1   -1    0    0  501    0  0.00000000000E+00  0.00000000000E+00  0.11605608730E+04  0.11605608730E+04  0.00000000000E+00 0. -1.
         -1   -1    0    0    0  501 -0.00000000000E+00 -0.00000000000E+00 -0.80887591998E+02  0.80887591998E+02  0.00000000000E+00 0.  1.
         23    2    1    2    0    0  0.48000980336E+02  0.83946439299E+01 -0.43691180116E+02  0.11162212169E+03  0.90421317562E+02 0.  0.
         23    2    1    2    0    0 -0.48000980336E+02 -0.83946439299E+01  0.11233644611E+04  0.11298263433E+04  0.11038699824E+03 0.  0.
          5    1    4    4  502    0 -0.59107698311E+02 -0.42708973258E+02  0.94412935436E+03  0.94695062520E+03  0.41800000000E+01 0. -1.
         -5    1    4    4    0  502  0.11106717976E+02  0.34314329328E+02  0.17923510672E+03  0.18287571807E+03  0.41800000000E+01 0.  1.
        -11    1    3    3    0    0  0.59018884594E+02 -0.15288625617E+02 -0.55967228215E+02  0.82760506560E+02  0.00000000000E+00 0.  1.
         11    1    3    3    0    0 -0.11017904258E+02  0.23683269547E+02  0.12276048099E+02  0.28861615125E+02  0.00000000000E+00 0. -1.
</event>
<event>
 8    1  0.8061721E-006  0.1246289E+03  0.7561462E-02  0.1235650E+00
          2   -1    0    0  501    0  0.00000000000E+00  0.00000000000E+00  0.11583049903E+03  0.11583049903E+03  0.00000000000E+00 0. -1.
         -2   -1    0    0    0  501 -0.00000000000E+00 -0.00000000000E+00 -0.17675216141E+03  0.17675216141E+03  0.00000000000E+00 0.  1.
         23    2    1    2    0    0 -0.15177504666E+02 -0.91733239284E+02 -0.32584771294E+02  0.13419552890E+03  0.91111628338E+02 0.  0.
         23    2    1    2    0    0  0.15177504666E+02  0.91733239284E+02 -0.28336891093E+02  0.15838713155E+03  0.12505262974E+03 0.  0.
          5    1    4    4  502    0 -0.43128858786E+02  0.39030794935E+02 -0.49930496252E+02  0.76772574982E+02  0.41800000000E+01 0. -1.
         -5    1    4    4    0  502  0.58306363451E+02  0.52702444349E+02  0.21593605160E+02  0.81614556564E+02  0.41800000000E+01 0. -1.
        -11    1    3    3    0    0  0.48750240942E+01 -0.92049875636E+02 -0.52375654374E+02  0.10601959553E+03  0.00000000000E+00 0.  1.
         11    1    3    3    0    0 -0.20052528760E+02  0.31663635222E+00  0.19790883080E+02  0.28175933371E+02  0.00000000000E+00 0. -1.
</event>
<event>
 8    1  0.8061721E-006  0.2560124E+03  0.7561462E-02  0.1109563E+00
          1   -1    0    0  501    0  0.00000000000E+00  0.00000000000E+00  0.18607356097E+03  0.18607356097E+03  0.00000000000E+00 0. -1.
         -1   -1    0    0    0  501 -0.00000000000E+00 -0.00000000000E+00 -0.37556591555E+03  0.37556591555E+03  0.00000000000E+00 0.  1.
         23    2    1    2    0    0 -0.13078353353E+03 -0.20176608992E+03 -0.90958985988E+02  0.27324760867E+03  0.92611180889E+02 0.  0.
         23    2    1    2    0    0  0.13078353353E+03  0.20176608992E+03 -0.98533368598E+02  0.28839186785E+03  0.12508859672E+03 0.  0.
          5    1    4    4  502    0  0.13203219740E+03  0.21761558333E+03 -0.93516776360E+02  0.27120454111E+03  0.41800000000E+01 0. -1.
         -5    1    4    4    0  502 -0.12486638707E+01 -0.15849493408E+02 -0.50165922389E+01  0.17187326739E+02  0.41800000000E+01 0. -1.
        -11    1    3    3    0    0 -0.35198379742E+02 -0.68492985950E+02 -0.76593264513E+02  0.10861281338E+03  0.00000000000E+00 0.  1.
         11    1    3    3    0    0 -0.95585153790E+02 -0.13327310397E+03 -0.14365721475E+02  0.16463479529E+03  0.00000000000E+00 0. -1.
</event>
<event>
 8    1  0.8061721E-006  0.1261916E+03  0.7561462E-02  0.1233219E+00
         -4   -1    0    0    0  501 -0.00000000000E+00  0.00000000000E+00  0.15177546315E+03  0.15177546315E+03  0.00000000000E+00 0.  1.
          4   -1    0    0  501    0  0.00000000000E+00 -0.00000000000E+00 -0.22894190620E+03  0.22894190620E+03  0.00000000000E+00 0. -1.
         23    2    1    2    0    0 -0.25183494208E+02 -0.59521846129E+02  0.10138068450E+03  0.15333251412E+03  0.95161747307E+02 0.  0.
         23    2    1    2    0    0  0.25183494208E+02  0.59521846129E+02 -0.17854712755E+03  0.22738485523E+03  0.12509091528E+03 0.  0.
          5    1    4    4  502    0 -0.50530260153E+02  0.21093058532E+02 -0.82669722858E+02  0.99247064374E+02  0.41800000000E+01 0. -1.
         -5    1    4    4    0  502  0.75713754361E+02  0.38428787597E+02 -0.95877404689E+02  0.12813779086E+03  0.41800000000E+01 0. -1.
        -11    1    3    3    0    0 -0.52397197681E+02 -0.66208838913E+02  0.89054190588E+02  0.12271807339E+03  0.00000000000E+00 0.  1.
         11    1    3    3    0    0  0.27213703473E+02  0.66869927847E+01  0.12326493908E+02  0.30614440731E+02  0.00000000000E+00 0. -1.
</event>
<event>
 8    1  0.8061721E-006  0.1138164E+03  0.7561462E-02  0.1253661E+00
         -4   -1    0    0    0  501 -0.00000000000E+00  0.00000000000E+00  0.37450499740E+02  0.37450499740E+02  0.00000000000E+00 0.  1.
          4   -1    0    0  501    0  0.00000000000E+00 -0.00000000000E+00 -0.65450568171E+03  0.65450568171E+03  0.00000000000E+00 0. -1.
         23    2    1    2    0    0  0.94470055024E+02  0.51173963247E+02 -0.22011473245E+03  0.26212768112E+03  0.93365196703E+02 0.  0.
         23    2    1    2    0    0 -0.94470055024E+02 -0.51173963247E+02 -0.39694044952E+03  0.42982850033E+03  0.12508978145E+03 0.  0.
          5    1    4    4  502    0 -0.33565386095E+02  0.62778592174E+01 -0.12894201111E+02  0.36739345154E+02  0.41800000000E+01 0.  1.
         -5    1    4    4    0  502 -0.60904668929E+02 -0.57451822464E+02 -0.38404624841E+03  0.39308915518E+03  0.41800000000E+01 0.  1.
        -11    1    3    3    0    0  0.65598404977E+02  0.45870250127E+02 -0.21853181161E+03  0.23273028008E+03  0.00000000000E+00 0. -1.
         11    1    3    3    0    0  0.28871650047E+02  0.53037131205E+01 -0.15829208433E+01  0.29397401036E+02  0.00000000000E+00 0.  1.
</event>
<event>
 8    1  0.8061721E-006  0.1036790E+03  0.7561462E-02  0.1272744E+00
         -1   -1    0    0    0  501 -0.00000000000E+00  0.00000000000E+00  0.40668572951E+03  0.40668572951E+03  0.00000000000E+00 0.  1.
          1   -1    0    0  501    0  0.00000000000E+00 -0.00000000000E+00 -0.41881730786E+02  0.41881730786E+02  0.00000000000E+00 0. -1.
         23    2    1    2    0    0 -0.26756559588E+02 -0.65554149680E+02  0.18865630898E+03  0.22121282660E+03  0.91272403898E+02 0.  0.
         23    2    1    2    0    0  0.26756559588E+02  0.65554149680E+02  0.17614768975E+03  0.22735463370E+03  0.12509540695E+03 0.  0.
          5    1    4    4  502    0  0.64941930062E+02  0.11227254164E+02  0.13172731617E+03  0.14735353319E+03  0.41800000000E+01 0. -1.
         -5    1    4    4    0  502 -0.38185370474E+02  0.54326895516E+02  0.44420373572E+02  0.80001100511E+02  0.41800000000E+01 0. -1.
        -11    1    3    3    0    0 -0.20497751389E+02 -0.19448264994E+02  0.14304897989E+01  0.28292032878E+02  0.00000000000E+00 0. -1.
         11    1    3    3    0    0 -0.62588081988E+01 -0.46105884686E+02  0.18722581918E+03  0.19292079372E+03  0.00000000000E+00 0.  1.
</event>
<event>
 8    1  0.8061721E-006  0.1107392E+03  0.7561462E-02  0.1259207E+00
         -1   -1    0    0    0  501 -0.00000000000E+00  0.00000000000E+00  0.17158908714E+02  0.17158908714E+02  0.00000000000E+00 0.  1.
          1   -1    0    0  501    0  0.00000000000E+00 -0.00000000000E+00 -0.11643388517E+04  0.11643388517E+04  0.00000000000E+00 0. -1.
         23    2    1    2    0    0  0.60626926842E+02  0.39332580952E+02 -0.28485222568E+03  0.30715255623E+03  0.89326514225E+02 0.  0.
         23    2    1    2    0    0 -0.60626926842E+02 -0.39332580952E+02 -0.86232771734E+03  0.87434520421E+03  0.12509103828E+03 0.  0.
          5    1    4    4  502    0 -0.65119741478E+02  0.27147693312E+01 -0.76935495360E+03  0.77212205494E+03  0.41800000000E+01 0. -1.
         -5    1    4    4    0  502  0.44928146364E+01 -0.42047350283E+02 -0.92972763739E+02  0.10222314927E+03  0.41800000000E+01 0. -1.
        -11    1    3    3    0    0  0.54423115001E+02 -0.16989048361E+02 -0.16521389370E+03  0.17477452298E+03  0.00000000000E+00 0. -1.
         11    1    3    3    0    0  0.62038118407E+01  0.56321629313E+02 -0.11963833198E+03  0.13237803326E+03  0.00000000000E+00 0.  1.
</event>
<event>
 8    1  0.8061721E-006  0.1109935E+03  0.7561462E-02  0.1258741E+00
         -2   -1    0    0    0  501 -0.00000000000E+00  0.00000000000E+00  0.28448367031E+02  0.28448367031E+02  0.00000000000E+00 0.  1.
          2   -1    0    0  501    0  0.00000000000E+00 -0.00000000000E+00 -0.63425556166E+03  0.63425556166E+03  0.00000000000E+00 0. -1.
         23    2    1    2    0    0 -0.39390701151E+02  0.39362687329E+02 -0.13791655984E+03  0.17518987383E+03  0.92571409868E+02 0.  0.
         23    2    1    2    0    0  0.39390701151E+02 -0.39362687329E+02 -0.46789063479E+03  0.48751405486E+03  0.12508900458E+03 0.  0.
          5    1    4    4  502    0 -0.42106076436E+02 -0.44933637448E+01 -0.93136598966E+02  0.10239634006E+03  0.41800000000E+01 0.  1.
         -5    1    4    4    0  502  0.81496777587E+02 -0.34869323585E+02 -0.37475403583E+03  0.38511771480E+03  0.41800000000E+01 0.  1.
        -11    1    3    3    0    0  0.10365566479E+02  0.39603517964E+02 -0.11166492193E+03  0.11893249511E+03  0.00000000000E+00 0. -1.
         11    1    3    3    0    0 -0.49756267630E+02 -0.24083063432E+00 -0.26251637907E+02  0.56257378722E+02  0.00000000000E+00 0.  1.
</event>
<event>
 8    1  0.8061721E-006  0.1615709E+03  0.7561462E-02  0.1186935E+00
          1   -1    0    0  501    0  0.00000000000E+00  0.00000000000E+00  0.75981837015E+03  0.75981837015E+03  0.00000000000E+00 0. -1.
         -1   -1    0    0    0  501 -0.00000000000E+00 -0.00000000000E+00 -0.57046819677E+02  0.57046819677E+02  0.00000000000E+00 0.  1.
         23    2    1    2    0    0  0.14080440540E+03 -0.12954354553E+02  0.12964619068E+03  0.21344600064E+03  0.93580791556E+02 0.  0.
         23    2    1    2    0    0 -0.14080440540E+03  0.12954354553E+02  0.57312535979E+03  0.60341918919E+03  0.12509334100E+03 0.  0.
          5    1    4    4  502    0 -0.47662346766E+02  0.53211247713E+02  0.36365733711E+03  0.37063090456E+03  0.41800000000E+01 0. -1.
         -5    1    4    4    0  502 -0.93142058634E+02 -0.40256893160E+02  0.20946802268E+03  0.23278828462E+03  0.41800000000E+01 0. -1.
        -11    1    3    3    0    0  0.10069248521E+03  0.14056940567E+02  0.35647444133E+02  0.10773724718E+03  0.00000000000E+00 0.  1.
         11    1    3    3    0    0  0.40111920186E+02 -0.27011295120E+02  0.93998746548E+02  0.10570875346E+03  0.00000000000E+00 0. -1.
</event>
<event>
 8    1  0.8061721E-006  0.4547523E+02  0.7561462E-02  0.1471397E+00
         -2   -1    0    0    0  501 -0.00000000000E+00  0.00000000000E+00  0.11747386022E+03  0.11747386022E+03  0.00000000000E+00 0.  1.
          2   -1    0    0  501    0  0.00000000000E+00 -0.00000000000E+00 -0.94252834003E+02  0.94252834003E+02  0.00000000000E+00 0. -1.
         23    2    1    2    0    0  0.25819626292E+00  0.15909111074E+02  0.55055095245E+02  0.81675901997E+02  0.58195558027E+02 0.  0.
         23    2    1    2    0    0 -0.25819626292E+00 -0.15909111074E+02 -0.31834069029E+02  0.13005079223E+03  0.12508650658E+03 0.  0.
          5    1    4    4  502    0 -0.80031315519E+01  0.76705267890E+01  0.46389223295E+02  0.47878173877E+02  0.41800000000E+01 0. -1.
         -5    1    4    4    0  502  0.77449352890E+01 -0.23579637863E+02 -0.78223292324E+02  0.82172618349E+02  0.41800000000E+01 0. -1.
        -11    1    3    3    0    0  0.25788223713E+02  0.55245374616E+01  0.87460145554E+01  0.27785711563E+02  0.00000000000E+00 0. -1.
         11    1    3    3    0    0 -0.25530027450E+02  0.10384573613E+02  0.46309080690E+02  0.53890190435E+02  0.00000000000E+00 0.  1.
</event>
<event>
 8    1  0.8061721E-006  0.2108950E+03  0.7561462E-02  0.1140859E+00
         -1   -1    0    0    0  501 -0.00000000000E+00  0.00000000000E+00  0.75816291415E+03  0.75816291415E+03  0.00000000000E+00 0.  1.
          1   -1    0    0  501    0  0.00000000000E+00 -0.00000000000E+00 -0.72893587480E+02  0.72893587480E+02  0.00000000000E+00 0. -1.
         23    2    1    2    0    0 -0.12546343738E+03 -0.16727749700E+03  0.32982684563E+03  0.40011889947E+03  0.87100806519E+02 0.  0.
         23    2    1    2    0    0  0.12546343738E+03  0.16727749700E+03  0.35544248104E+03  0.43093760216E+03  0.12508007237E+03 0.  0.
          5    1    4    4  502    0  0.63060201864E+02  0.55564770076E+02  0.25404387946E+03  0.26761875462E+03  0.41800000000E+01 0.  1.
         -5    1    4    4    0  502  0.62403235512E+02  0.11171272692E+03  0.10139860159E+03  0.16331884754E+03  0.41800000000E+01 0.  1.
        -11    1    3    3    0    0 -0.10402388830E+03 -0.12878736518E+03  0.18275646378E+03  0.24659091593E+03  0.00000000000E+00 0. -1.
         11    1    3    3    0    0 -0.21439549073E+02 -0.38490131820E+02  0.14707038185E+03  0.15352798354E+03  0.00000000000E+00 0.  1.
</event>
<event>
 8    1  0.9085671E-006  0.8882233E+02  0.7561462E-02  0.1305729E+00
         -3   -1    0    0    0  501 -0.00000000000E+00  0.00000000000E+00  0.22929686783E+03  0.22929686783E+03  0.00000000000E+00 0.  1.
          3   -1    0    0  501    0  0.00000000000E+00 -0.00000000000E+00 -0.62620026834E+02  0.62620026834E+02  0.00000000000E+00 0. -1.
         23    2    1    2    0    0 -0.22637843979E+02 -0.56541622568E+01  0.12610114563E+03  0.15835702328E+03  0.92903209641E+02 0.  0.
         23    2    1    2    0    0  0.22637843979E+02  0.56541622568E+01  0.40575695363E+02  0.13355987138E+03  0.12508961051E+03 0.  0.
          5    1    4    4  502    0  0.37001888531E+02  0.53152128341E+02  0.51173213130E+02  0.82646588823E+02  0.41800000000E+01 0. -1.
         -5    1    4    4    0  502 -0.14364044552E+02 -0.47497966085E+02 -0.10597517768E+02  0.50913282559E+02  0.41800000000E+01 0. -1.
        -11    1    3    3    0    0 -0.42648851571E+02 -0.48156496919E+01  0.13090406789E+03  0.13776062577E+03  0.00000000000E+00 0. -1.
         11    1    3    3    0    0  0.20011007592E+02 -0.83851256486E+00 -0.48029222588E+01  0.20596397510E+02  0.00000000000E+00 0.  1.
</event>
<event>
 8    1  0.8061721E-006  0.1022471E+03  0.7561462E-02  0.1275640E+00
          3   -1    0    0  501    0  0.00000000000E+00  0.00000000000E+00  0.31628482412E+02  0.31628482412E+02  0.00000000000E+00 0. -1.
         -3   -1    0    0    0  501 -0.00000000000E+00 -0.00000000000E+00 -0.43004501632E+03  0.43004501632E+03  0.00000000000E+00 0.  1.
         23    2    1    2    0    0  0.30615391429E+02 -0.28151066827E+02 -0.20317202440E+03  0.22609360877E+03  0.90053671062E+02 0.  0.
         23    2    1    2    0    0 -0.30615391429E+02  0.28151066827E+02 -0.19524450952E+03  0.23557988997E+03  0.12509069233E+03 0.  0.
          5    1    4    4  502    0  0.35403636884E+02  0.99448547232E+01 -0.10447304953E+02  0.38456939827E+02  0.41800000000E+01 0.  1.
         -5    1    4    4    0  502 -0.66019028313E+02  0.18206212104E+02 -0.18479720456E+03  0.19712295014E+03  0.41800000000E+01 0.  1.
        -11    1    3    3    0    0 -0.21172598833E+02 -0.40439417702E+02 -0.10291435895E+03  0.11258326129E+03  0.00000000000E+00 0.  1.
         11    1    3    3    0    0  0.51787990262E+02  0.12288350875E+02 -0.10025766545E+03  0.11351034748E+03  0.00000000000E+00 0. -1.
</event>
<event>
 8    1  0.8061721E-006  0.6024788E+02  0.7561462E-02  0.1396794E+00
          1   -1    0    0  501    0  0.00000000000E+00  0.00000000000E+00  0.16244056249E+03  0.16244056249E+03  0.00000000000E+00 0. -1.
         -1   -1    0    0    0  501 -0.00000000000E+00 -0.00000000000E+00 -0.74163412113E+02  0.74163412113E+02  0.00000000000E+00 0.  1.
         23    2    1    2    0    0  0.14271322768E+02 -0.37286325252E+01  0.35281889487E+02  0.99951928028E+02  0.92347186404E+02 0.  0.
         23    2    1    2    0    0 -0.14271322768E+02  0.37286325252E+01  0.52995260886E+02  0.13665204657E+03  0.12509081022E+03 0.  0.
          5    1    4    4  502    0 -0.27022983678E+02 -0.16004164686E+02 -0.33981745343E+02  0.46460804456E+02  0.41800000000E+01 0. -1.
         -5    1    4    4    0  502  0.12751660909E+02  0.19732797212E+02  0.86977006229E+02  0.90191242115E+02  0.41800000000E+01 0. -1.
        -11    1    3    3    0    0  0.18436841187E+02  0.27683900903E+02  0.53798997937E+02  0.63250673208E+02  0.00000000000E+00 0. -1.
         11    1    3    3    0    0 -0.41655184187E+01 -0.31412533428E+02 -0.18517108450E+02  0.36701254821E+02  0.00000000000E+00 0.  1.
</event>
<event>
 8    1  0.8061721E-006  0.8380593E+02  0.7561462E-02  0.1318585E+00
         -2   -1    0    0    0  501 -0.00000000000E+00  0.00000000000E+00  0.37689571847E+03  0.37689571847E+03  0.00000000000E+00 0.  1.
          2   -1    0    0  501    0  0.00000000000E+00 -0.00000000000E+00 -0.44706716149E+02  0.44706716149E+02  0.00000000000E+00 0. -1.
         23    2    1    2    0    0  0.53213915178E+01 -0.57641921536E+01  0.26714797548E+03  0.28039328612E+03  0.84798649636E+02 0.  0.
         23    2    1    2    0    0 -0.53213915178E+01  0.57641921536E+01  0.65041026840E+02  0.14120914850E+03  0.12509254705E+03 0.  0.
          5    1    4    4  502    0  0.39422150477E+02  0.21986986959E+02 -0.15207524243E+02  0.47815005358E+02  0.41800000000E+01 0. -1.
         -5    1    4    4    0  502 -0.44743541994E+02 -0.16222794805E+02  0.80248551084E+02  0.93394143138E+02  0.41800000000E+01 0. -1.
        -11    1    3    3    0    0 -0.25175559618E+02 -0.27324509548E+02  0.20121803387E+03  0.20461948778E+03  0.00000000000E+00 0.  1.
         11    1    3    3    0    0  0.30496951136E+02  0.21560317394E+02  0.65929941612E+02  0.75773798345E+02  0.00000000000E+00 0. -1.
</event>
<event>
 8    1  0.8061721E-006  0.1115724E+03  0.7561462E-02  0.1257685E+00
         -4   -1    0    0    0  501 -0.00000000000E+00  0.00000000000E+00  0.15283346420E+02  0.15283346420E+02  0.00000000000E+00 0. -1.
          4   -1    0    0  501    0  0.00000000000E+00 -0.00000000000E+00 -0.11410875031E+04  0.11410875031E+04  0.00000000000E+00 0.  1.
         23    2    1    2    0    0  0.66873097157E+02  0.29925636026E+02 -0.41071120725E+03  0.42673128236E+03  0.89712522915E+02 0.  0.
         23    2    1    2    0    0 -0.66873097157E+02 -0.29925636026E+02 -0.71509294946E+03  0.72963956719E+03  0.12509363225E+03 0.  0.
          5    1    4    4  502    0 -0.86576094561E+02 -0.21128346120E+02 -0.27736112903E+03  0.29135630328E+03  0.41800000000E+01 0.  1.
         -5    1    4    4    0  502  0.19702997403E+02 -0.87972899058E+01 -0.43773182043E+03  0.43828326392E+03  0.41800000000E+01 0.  1.
        -11    1    3    3    0    0  0.39253956822E+02  0.59629861106E+02 -0.31094659352E+03  0.31903663972E+03  0.00000000000E+00 0. -1.
         11    1    3    3    0    0  0.27619140336E+02 -0.29704225080E+02 -0.99764613724E+02  0.10769464263E+03  0.00000000000E+00 0.  1.
</event>
<event>
 8    1  0.8061721E-006  0.1093952E+03  0.7561462E-02  0.1261694E+00
         -2   -1    0    0    0  501 -0.00000000000E+00  0.00000000000E+00  0.10521269468E+03  0.10521269468E+03  0.00000000000E+00 0.  1.
          2   -1    0    0  501    0  0.00000000000E+00 -0.00000000000E+00 -0.24136582018E+03  0.24136582018E+03  0.00000000000E+00 0. -1.
         23    2    1    2    0    0  0.78095510016E+02 -0.41257229657E+02  0.15766401279E+02  0.13087824626E+03  0.95286243761E+02 0.  0.
         23    2    1    2    0    0 -0.78095510016E+02  0.41257229657E+02 -0.15191952678E+03  0.21570026860E+03  0.12508395410E+03 0.  0.
          5    1    4    4  502    0 -0.75538892516E+02  0.40330687203E+02 -0.17351330060E+03  0.19353817840E+03  0.41800000000E+01 0.  1.
         -5    1    4    4    0  502 -0.25566175003E+01  0.92654245412E+00  0.21593773824E+02  0.22162090197E+02  0.41800000000E+01 0.  1.
        -11    1    3    3    0    0 -0.19408757400E+02 -0.20789375386E+02  0.12841838090E+02  0.31205941715E+02  0.00000000000E+00 0.  1.
         11    1    3    3    0    0  0.97504267416E+02 -0.20467854270E+02  0.29245631887E+01  0.99672304541E+02  0.00000000000E+00 0. -1.
</event>
<event>
 8    1  0.8061721E-006  0.1275925E+03  0.7561462E-02  0.1231072E+00
         -2   -1    0    0    0  501 -0.00000000000E+00  0.00000000000E+00  0.26819162222E+03  0.26819162222E+03  0.00000000000E+00 0.  1.
          2   -1    0    0  501    0  0.00000000000E+00 -0.00000000000E+00 -0.61296365377E+02  0.61296365377E+02  0.00000000000E+00 0. -1.
         23    2    1    2    0    0  0.28888301221E+01  0.68032336237E+02  0.99515537571E+02  0.15112196404E+03  0.91092050614E+02 0.  0.
         23    2    1    2    0    0 -0.28888301221E+01 -0.68032336237E+02  0.10737971927E+03  0.17836602355E+03  0.12508912876E+03 0.  0.
          5    1    4    4  502    0 -0.88630364264E+01 -0.10423425062E+03  0.87391062955E+02  0.13637449432E+03  0.41800000000E+01 0.  1.
         -5    1    4    4    0  502  0.59742063043E+01  0.36201914381E+02  0.19988656314E+02  0.41991529230E+02  0.41800000000E+01 0.  1.
        -11    1    3    3    0    0 -0.25916518271E+02 -0.11958856853E+02  0.21524410603E+02  0.35748852126E+02  0.00000000000E+00 0. -1.
         11    1    3    3    0    0  0.28805348393E+02  0.79991193089E+02  0.77991126968E+02  0.11537311192E+03  0.00000000000E+00 0.  1.
</event>
<event>
 8    1  0.8061721E-006  0.1176630E+03  0.7561462E-02  0.1247003E+00
          1   -1    0    0  501    0  0.00000000000E+00  0.00000000000E+00  0.85656962779E+03  0.85656962779E+03  0.00000000000E+00 0. -1.
         -1   -1    0    0    0  501 -0.00000000000E+00 -0.00000000000E+00 -0.26252976813E+02  0.26252976813E+02  0.00000000000E+00 0.  1.
         23    2    1    2    0    0 -0.27185896449E+02 -0.97416860986E+02  0.32043814108E+03  0.34817125529E+03  0.91178412937E+02 0.  0.
         23    2    1    2    0    0  0.27185896449E+02  0.97416860986E+02  0.50987850990E+03  0.53465134931E+03  0.12508738022E+03 0.  0.
          5    1    4    4  502    0 -0.56425340247E+01  0.30140152399E+01 -0.56521115261E+01  0.95048010389E+01  0.41800000000E+01 0. -1.
         -5    1    4    4    0  502  0.32828430473E+02  0.94402845747E+02  0.51553062143E+03  0.52514654827E+03  0.41800000000E+01 0. -1.
        -11    1    3    3    0    0 -0.52172476051E+02 -0.42418123688E+02  0.10721109254E+03  0.12655229290E+03  0.00000000000E+00 0.  1.
         11    1    3    3    0    0  0.24986579602E+02 -0.54998737299E+02  0.21322704854E+03  0.22161896240E+03  0.00000000000E+00 0. -1.
</event>
<event>
 7    1  0.8061721E-006  0.9364804E+02  0.7561462E-02  0.1294250E+00
         -2   -1    0    0    0  501 -0.00000000000E+00  0.00000000000E+00  0.12661233331E+02  0.12661233331E+02  0.00000000000E+00 0.  1.
          2   -1    0    0  501    0  0.00000000000E+00 -0.00000000000E+00 -0.12431920321E+04  0.12431920321E+04  0.00000000000E+00 0. -1.
         23    2    1    2    0    0 -0.39200898844E+02 -0.28606110601E+01 -0.35547180295E+03  0.36907374275E+03  0.91161018725E+02 0.  0.
          5    1    1    2  502    0  0.64825611418E+02  0.19529404904E+02 -0.82629421654E+03  0.82907379782E+03  0.41800000000E+01 0. -1.
         -5    1    1    2    0  502 -0.25624712574E+02 -0.16668793844E+02 -0.48764779312E+02  0.57705724881E+02  0.41800000000E+01 0.  1.
        -11    1    3    3    0    0 -0.63371426908E+02 -0.80739606841E+01 -0.31676915214E+03  0.32314675046E+03  0.00000000000E+00 0.  1.
         11    1    3    3    0    0  0.24170528064E+02  0.52133496240E+01 -0.38702650807E+02  0.45926992289E+02  0.00000000000E+00 0. -1.
</event>
<event>
 8    1  0.8061721E-006  0.2350564E+03  0.7561462E-02  0.1123131E+00
          2   -1    0    0  501    0  0.00000000000E+00  0.00000000000E+00  0.47657508811E+03  0.47657508811E+03  0.00000000000E+00 0. -1.
         -2   -1    0    0    0  501 -0.00000000000E+00 -0.00000000000E+00 -0.12597497342E+03  0.12597497342E+03  0.00000000000E+00 0.  1.
         23    2    1    2    0    0  0.11760103148E+03 -0.17651926200E+03  0.10222281192E+03  0.25279755636E+03  0.92022001512E+02 0.  0.
         23    2    1    2    0    0 -0.11760103148E+03  0.17651926200E+03  0.24837730276E+03  0.34975250517E+03  0.12508588203E+03 0.  0.
          5    1    4    4  502    0 -0.13389626645E+03  0.18045364514E+03  0.24439786057E+03  0.33202336493E+03  0.41800000000E+01 0. -1.
         -5    1    4    4    0  502  0.16295234967E+02 -0.39343831365E+01  0.39794421916E+01  0.17729140235E+02  0.41800000000E+01 0. -1.
        -11    1    3    3    0    0  0.49635109651E+02 -0.14483707536E+03  0.87608625397E+02  0.17639924533E+03  0.00000000000E+00 0.  1.
         11    1    3    3    0    0  0.67965921830E+02 -0.31682186638E+02  0.14614186526E+02  0.76398311030E+02  0.00000000000E+00 0. -1.
</event>
<event>
 8    1  0.8061721E-006  0.9694325E+02  0.7561462E-02  0.1286858E+00
          3   -1    0    0  501    0  0.00000000000E+00  0.00000000000E+00  0.39592640170E+03  0.39592640170E+03  0.00000000000E+00 0. -1.
         -3   -1    0    0    0  501 -0.00000000000E+00 -0.00000000000E+00 -0.48546424111E+02  0.48546424111E+02  0.00000000000E+00 0.  1.
         23    2    1    2    0    0 -0.54841603808E+02 -0.29659096987E+02  0.51167821476E+02  0.11689465038E+03  0.84610577303E+02 0.  0.
         23    2    1    2    0    0  0.54841603808E+02  0.29659096987E+02  0.29621215611E+03  0.32757817542E+03  0.12521404092E+03 0.  0.
          5    1    4    4  502    0  0.66479456514E+02  0.12436988151E+02  0.29864619271E+03  0.30623719179E+03  0.41800000000E+01 0. -1.
         -5    1    4    4    0  502 -0.11637852706E+02  0.17222108836E+02 -0.24340366015E+01  0.21340983636E+02  0.41800000000E+01 0. -1.
        -11    1    3    3    0    0 -0.71732056031E+02 -0.10970776666E+01  0.31790312734E+02  0.78468563295E+02  0.00000000000E+00 0.  1.
         11    1    3    3    0    0  0.16890452223E+02 -0.28562019320E+02  0.19377508742E+02  0.38426087089E+02  0.00000000000E+00 0. -1.
</event>
<event>
 7    1  0.8061721E-006  0.7168236E+02  0.7561462E-02  0.1354464E+00
         -1   -1    0    0    0  501 -0.00000000000E+00  0.00000000000E+00  0.45862421030E+02  0.45862421030E+02  0.00000000000E+00 0.  1.
          1   -1    0    0  501    0  0.00000000000E+00 -0.00000000000E+00 -0.36171797656E+03  0.36171797656E+03  0.00000000000E+00 0. -1.
         23    2    1    2    0    0 -0.22294439909E+02  0.37902117837E+02 -0.61901217127E+02  0.11816482021E+03  0.90540330600E+02 0.  0.
          5    1    1    2  502    0 -0.65121768566E+00 -0.19567301065E+02 -0.25861140036E+03  0.25938510395E+03  0.41800000000E+01 0. -1.
         -5    1    1    2    0  502  0.22945657595E+02 -0.18334816772E+02  0.46570619574E+01  0.30030473433E+02  0.41800000000E+01 0.  1.
        -11    1    3    3    0    0  0.15638702343E+02  0.51158478704E+02 -0.56182318684E+02  0.77577135078E+02  0.00000000000E+00 0.  1.
         11    1    3    3    0    0 -0.37933142253E+02 -0.13256360867E+02 -0.57188984435E+01  0.40587685128E+02  0.00000000000E+00 0. -1.
</event>
<event>
 7    1  0.8061721E-006  0.1160602E+03  0.7561462E-02  0.1249742E+00
         -1   -1    0    0    0  501 -0.00000000000E+00  0.00000000000E+00  0.39778316906E+03  0.39778316906E+03  0.00000000000E+00 0.  1.
          1   -1    0    0  501    0  0.00000000000E+00 -0.00000000000E+00 -0.35760211485E+02  0.35760211485E+02  0.00000000000E+00 0. -1.
         23    2    1    2    0    0 -0.13591299857E+02  0.14196273647E+02  0.18615523092E+03  0.20801849896E+03  0.90728541772E+02 0.  0.
          5    1    1    2  502    0 -0.59282096778E+02  0.16055975757E+02  0.66745677136E+02  0.90799885310E+02  0.41800000000E+01 0. -1.
         -5    1    1    2    0  502  0.72873396635E+02 -0.30252249404E+02  0.10912204952E+03  0.13472499628E+03  0.41800000000E+01 0.  1.
        -11    1    3    3    0    0  0.30732063464E+02  0.31460190252E+02  0.10677267811E+03  0.11547557355E+03  0.00000000000E+00 0.  1.
         11    1    3    3    0    0 -0.44323363321E+02 -0.17263916605E+02  0.79382552804E+02  0.92542925404E+02  0.00000000000E+00 0. -1.
</event>
<event>
 8    1  0.8061721E-006  0.1844746E+03  0.7561462E-02  0.1163541E+00
          1   -1    0    0  501    0  0.00000000000E+00  0.00000000000E+00  0.18496106399E+03  0.18496106399E+03  0.00000000000E+00 0. -1.
         -1   -1    0    0    0  501 -0.00000000000E+00 -0.00000000000E+00 -0.23554102504E+03  0.23554102504E+03  0.00000000000E+00 0.  1.
         23    2    1    2    0    0  0.12583404716E+03 -0.11574821869E+03 -0.74212189759E+02  0.20734194921E+03  0.90837091761E+02 0.  0.
         23    2    1    2    0    0 -0.12583404716E+03  0.11574821869E+03  0.23632228707E+02  0.21316013981E+03  0.12508759098E+03 0.  0.
          5    1    4    4  502    0 -0.85874382570E+02  0.14341869063E+02  0.50618376835E+02  0.10079578991E+03  0.41800000000E+01 0. -1.
         -5    1    4    4    0  502 -0.39959664591E+02  0.10140634963E+03 -0.26986148128E+02  0.11236434991E+03  0.41800000000E+01 0. -1.
        -11    1    3    3    0    0  0.79720247892E+02 -0.56888005559E+02 -0.87578964840E+02  0.13138355370E+03  0.00000000000E+00 0.  1.
         11    1    3    3    0    0  0.46113799268E+02 -0.58860213131E+02  0.13366775080E+02  0.75958395512E+02  0.00000000000E+00 0. -1.
</event>
<event>
 8    1  0.8061721E-006  0.1000121E+03  0.7561462E-02  0.1280271E+00
          2   -1    0    0  501    0  0.00000000000E+00  0.00000000000E+00  0.42180786445E+03  0.42180786445E+03  0.00000000000E+00 0. -1.
         -2   -1    0    0    0  501 -0.00000000000E+00 -0.00000000000E+00 -0.52281746632E+02  0.52281746632E+02  0.00000000000E+00 0.  1.
         23    2    1    2    0    0  0.90123361237E+02 -0.23211117128E+02  0.10226617573E+03  0.16467596245E+03  0.89436154376E+02 0.  0.
         23    2    1    2    0    0 -0.90123361237E+02  0.23211117128E+02  0.26725994209E+03  0.30941364864E+03  0.12509177879E+03 0.  0.
          5    1    4    4  502    0 -0.84139573018E+02  0.33216009123E+02  0.77330469873E+02  0.11908083381E+03  0.41800000000E+01 0. -1.
         -5    1    4    4    0  502 -0.59837882194E+01 -0.10004891994E+02  0.18992947222E+03  0.19033281483E+03  0.41800000000E+01 0. -1.
        -11    1    3    3    0    0  0.38376806616E+02  0.40610694029E+01  0.98812127648E+02  0.10608066808E+03  0.00000000000E+00 0. -1.
         11    1    3    3    0    0  0.51746554621E+02 -0.27272186531E+02  0.34540480855E+01  0.58595294363E+02  0.00000000000E+00 0.  1.
</event>
<event>
 8    1  0.8061721E-006  0.8621549E+02  0.7561462E-02  0.1312284E+00
         -3   -1    0    0    0  501 -0.00000000000E+00  0.00000000000E+00  0.20155744306E+03  0.20155744306E+03  0.00000000000E+00 0. -1.
          3   -1    0    0  501    0  0.00000000000E+00 -0.00000000000E+00 -0.69872049910E+02  0.69872049910E+02  0.00000000000E+00 0.  1.
         23    2    1    2    0    0 -0.81424739196E+01 -0.21322579474E+02  0.14412921509E+02  0.98452944758E+02  0.94679975434E+02 0.  0.
         23    2    1    2    0    0  0.81424739196E+01  0.21322579474E+02  0.11727247164E+03  0.17297654822E+03  0.12508837416E+03 0.  0.
          5    1    4    4  502    0 -0.10798561003E+02 -0.23577619513E+02  0.12110015709E+03  0.12391623586E+03  0.41800000000E+01 0.  1.
         -5    1    4    4    0  502  0.18941034922E+02  0.44900198987E+02 -0.38276854451E+01  0.49060312360E+02  0.41800000000E+01 0.  1.
        -11    1    3    3    0    0  0.19150848005E+02 -0.52460164582E+02  0.56677747195E+01  0.56133301324E+02  0.00000000000E+00 0. -1.
         11    1    3    3    0    0 -0.27293321925E+02  0.31137585107E+02  0.87451467900E+01  0.42319643434E+02  0.00000000000E+00 0.  1.
</event>
<event>
 8    1  0.8061721E-006  0.1395665E+03  0.7561462E-02  0.1213913E+00
         -1   -1    0    0    0  501 -0.00000000000E+00  0.00000000000E+00  0.69145670390E+03  0.69145670390E+03  0.00000000000E+00 0.  1.
          1   -1    0    0  501    0  0.00000000000E+00 -0.00000000000E+00 -0.43655088243E+02  0.43655088243E+02  0.00000000000E+00 0. -1.
         23    2    1    2    0    0 -0.56634140352E+02  0.11694157930E+03  0.22342712967E+03  0.27399995588E+03  0.90958972757E+02 0.  0.
         23    2    1    2    0    0  0.56634140352E+02 -0.11694157930E+03  0.42437448599E+03  0.46111183627E+03  0.12509061661E+03 0.  0.
          5    1    4    4  502    0  0.31980281893E+02 -0.90341400588E+02  0.41129201779E+03  0.42233032497E+03  0.41800000000E+01 0. -1.
         -5    1    4    4    0  502  0.24653858459E+02 -0.26600178714E+02  0.13082468201E+02  0.38781511301E+02  0.41800000000E+01 0. -1.
        -11    1    3    3    0    0 -0.71486274869E+02  0.82325801501E+02  0.11169095981E+03  0.15608553934E+03  0.00000000000E+00 0. -1.
         11    1    3    3    0    0  0.14852134516E+02  0.34615777801E+02  0.11173616986E+03  0.11791441654E+03  0.00000000000E+00 0.  1.
</event>
<event>
 8    1  0.8061721E-006  0.1144329E+03  0.7561462E-02  0.1252574E+00
         -2   -1    0    0    0  501 -0.00000000000E+00  0.00000000000E+00  0.12633395909E+03  0.12633395909E+03  0.00000000000E+00 0.  1.
          2   -1    0    0  501    0  0.00000000000E+00 -0.00000000000E+00 -0.12167251400E+03  0.12167251400E+03  0.00000000000E+00 0. -1.
         23    2    1    2    0    0  0.31401557689E+02 -0.17718200825E+02  0.44494282964E+02  0.11186509618E+03  0.96094048001E+02 0.  0.
         23    2    1    2    0    0 -0.31401557689E+02  0.17718200825E+02 -0.39832837875E+02  0.13614137691E+03  0.12509127494E+03 0.  0.
          5    1    4    4  502    0  0.39961856438E+02  0.35898702425E+02 -0.37061851841E+01  0.54008101377E+02  0.41800000000E+01 0. -1.
         -5    1    4    4    0  502 -0.71363414128E+02 -0.18180501600E+02 -0.36126652691E+02  0.82133275528E+02  0.41800000000E+01 0. -1.
        -11    1    3    3    0    0  0.56167104674E+02  0.16904089793E+02  0.16555200252E+02  0.60947244028E+02  0.00000000000E+00 0. -1.
         11    1    3    3    0    0 -0.24765546985E+02 -0.34622290618E+02  0.27939082711E+02  0.50917852152E+02  0.00000000000E+00 0.  1.
</event>
<event>
 8    1  0.8061721E-006  0.1115691E+03  0.7561462E-02  0.1257691E+00
          2   -1    0    0  501    0  0.00000000000E+00  0.00000000000E+00  0.73976792526E+03  0.73976792526E+03  0.00000000000E+00 0. -1.
         -2   -1    0    0    0  501 -0.00000000000E+00 -0.00000000000E+00 -0.21091906737E+02  0.21091906737E+02  0.00000000000E+00 0.  1.
         23    2    1    2    0    0 -0.42418351479E+02  0.44036598064E+02  0.27762713159E+03  0.29833216896E+03  0.90480496988E+02 0.  0.
         23    2    1    2    0    0  0.42418351479E+02 -0.44036598064E+02  0.44104888694E+03  0.46252766303E+03  0.12517659482E+03 0.  0.
          5    1    4    4  502    0  0.57519057234E+02  0.28168780347E+02  0.17454936326E+03  0.18597546813E+03  0.41800000000E+01 0.  1.
         -5    1    4    4    0  502 -0.15100705756E+02 -0.72205378412E+02  0.26649952367E+03  0.27655219490E+03  0.41800000000E+01 0.  1.
        -11    1    3    3    0    0 -0.47172514587E+02  0.69522484902E+01  0.55894641148E+02  0.73469659048E+02  0.00000000000E+00 0.  1.
         11    1    3    3    0    0  0.47541631084E+01  0.37084349574E+02  0.22173249044E+03  0.22486250992E+03  0.00000000000E+00 0. -1.
</event>
<event>
 8    1  0.8061721E-006  0.9037752E+02  0.7561462E-02  0.1301940E+00
         -2   -1    0    0    0  501 -0.00000000000E+00  0.00000000000E+00  0.50306138055E+02  0.50306138055E+02  0.00000000000E+00 0.  1.
          2   -1    0    0  501    0  0.00000000000E+00 -0.00000000000E+00 -0.23803207832E+03  0.23803207832E+03  0.00000000000E+00 0. -1.
         23    2    1    2    0    0 -0.36973657599E+01  0.15049865148E+02 -0.63136757443E+02  0.11110545108E+03  0.90099956518E+02 0.  0.
         23    2    1    2    0    0  0.36973657599E+01 -0.15049865148E+02 -0.12458918282E+03  0.17723276530E+03  0.12509524237E+03 0.  0.
          5    1    4    4  502    0  0.58218682927E+02  0.12286817114E+02 -0.36237124321E+02  0.69792424342E+02  0.41800000000E+01 0.  1.
         -5    1    4    4    0  502 -0.54521317167E+02 -0.27336682262E+02 -0.88352058503E+02  0.10744034095E+03  0.41800000000E+01 0.  1.
        -11    1    3    3    0    0 -0.30615236447E+02  0.39982335574E+01  0.99502295523E+01  0.32438952548E+02  0.00000000000E+00 0.  1.
         11    1    3    3    0    0  0.26917870687E+02  0.11051631591E+02 -0.73086986995E+02  0.78666498531E+02  0.00000000000E+00 0. -1.
</event>
<event>
 8    1  0.8061721E-006  0.1028274E+03  0.7561462E-02  0.1274460E+00
          2   -1    0    0  501    0  0.00000000000E+00  0.00000000000E+00  0.92480651114E+03  0.92480651114E+03  0.00000000000E+00 0. -1.
         -2   -1    0    0    0  501 -0.00000000000E+00 -0.00000000000E+00 -0.13734845179E+02  0.13734845179E+02  0.00000000000E+00 0.  1.
         23    2    1    2    0    0  0.10082481205E+02  0.13212255144E+02  0.27968312175E+03  0.29466591841E+03  0.91264093509E+02 0.  0.
         23    2    1    2    0    0 -0.10082481205E+02 -0.13212255144E+02  0.63138854421E+03  0.64387543791E+03  0.12509142926E+03 0.  0.
          5    1    4    4  502    0 -0.13971824860E+02 -0.67535654346E+02  0.41422236410E+03  0.41994513429E+03  0.41800000000E+01 0.  1.
         -5    1    4    4    0  502  0.38893436551E+01  0.54323399201E+02  0.21716618011E+03  0.22393030362E+03  0.41800000000E+01 0.  1.
        -11    1    3    3    0    0 -0.15661723466E+02 -0.28733085767E+02  0.49913182635E+02  0.59684215672E+02  0.00000000000E+00 0.  1.
         11    1    3    3    0    0  0.25744204670E+02  0.41945340911E+02  0.22976993912E+03  0.23498170274E+03  0.00000000000E+00 0. -1.
</event>
<event>
 8    1  0.8061721E-006  0.1116661E+03  0.7561462E-02  0.1257515E+00
         -2   -1    0    0    0  501 -0.00000000000E+00  0.00000000000E+00  0.11463009071E+02  0.11463009071E+02  0.00000000000E+00 0. -1.
          2   -1    0    0  501    0  0.00000000000E+00 -0.00000000000E+00 -0.18436557435E+04  0.18436557435E+04  0.00000000000E+00 0.  1.
         23    2    1    2    0    0 -0.48371346933E+02  0.59587312640E+02 -0.47152865575E+03  0.48656203250E+03  0.92265395690E+02 0.  0.
         23    2    1    2    0    0  0.48371346933E+02 -0.59587312640E+02 -0.13606640786E+04  0.13685567200E+04  0.12510126307E+03 0.  0.
          5    1    4    4  502    0  0.30665121163E+02  0.93901512540E+01 -0.85717402767E+02  0.91615883631E+02  0.41800000000E+01 0. -1.
         -5    1    4    4    0  502  0.17706225770E+02 -0.68977463894E+02 -0.12749466759E+04  0.12769408364E+04  0.41800000000E+01 0. -1.
        -11    1    3    3    0    0 -0.72931058081E+01 -0.24772852006E+02 -0.11808084366E+03  0.12087170566E+03  0.00000000000E+00 0.  1.
         11    1    3    3    0    0 -0.41078241125E+02  0.84360164647E+02 -0.35344781209E+03  0.36569032684E+03  0.00000000000E+00 0. -1.
</event>
<event>
 8    1  0.8061721E-006  0.2813735E+03  0.7561462E-02  0.1094941E+00
          2   -1    0    0  501    0  0.00000000000E+00  0.00000000000E+00  0.58343602701E+03  0.58343602701E+03  0.00000000000E+00 0. -1.
         -2   -1    0    0    0  501 -0.00000000000E+00 -0.00000000000E+00 -0.28202540501E+03  0.28202540501E+03  0.00000000000E+00 0.  1.
         23    2    1    2    0    0 -0.20882472809E+03 -0.17001576785E+03 -0.15273772648E+03  0.32286560322E+03  0.91652911992E+02 0.  0.
         23    2    1    2    0    0  0.20882472809E+03  0.17001576785E+03  0.45414834848E+03  0.54259582880E+03  0.12508550123E+03 0.  0.
          5    1    4    4  502    0  0.20853624150E+03  0.11593228579E+03  0.33121317619E+03  0.40822456980E+03  0.41800000000E+01 0.  1.
         -5    1    4    4    0  502  0.28848658368E+00  0.54083482059E+02  0.12293517230E+03  0.13437125900E+03  0.41800000000E+01 0.  1.
        -11    1    3    3    0    0 -0.12664268905E+03 -0.91783589918E+02 -0.13774737503E+03  0.20841530029E+03  0.00000000000E+00 0.  1.
         11    1    3    3    0    0 -0.82182039037E+02 -0.78232177933E+02 -0.14990351446E+02  0.11445030293E+03  0.00000000000E+00 0. -1.
</event>
<event>
 7    1  0.8061721E-006  0.1102086E+03  0.7561462E-02  0.1260184E+00
          2   -1    0    0  501    0  0.00000000000E+00  0.00000000000E+00  0.16583520640E+03  0.16583520640E+03  0.00000000000E+00 0. -1.
         -2   -1    0    0    0  501 -0.00000000000E+00 -0.00000000000E+00 -0.98434629362E+02  0.98434629362E+02  0.00000000000E+00 0.  1.
         23    2    1    2    0    0  0.62314582937E+01  0.13828131545E+02 -0.30538217551E+02  0.10070539270E+03  0.94757295723E+02 0.  0.
          5    1    1    2  502    0 -0.53890814347E+02 -0.47923031081E+02  0.55249450200E+02  0.90943998847E+02  0.41800000000E+01 0. -1.
         -5    1    1    2    0  502  0.47659356053E+02  0.34094899536E+02  0.42689344392E+02  0.72620444218E+02  0.41800000000E+01 0.  1.
        -11    1    3    3    0    0 -0.17424259222E+02  0.46177416116E+02 -0.34819413327E+02  0.60401573763E+02  0.00000000000E+00 0.  1.
         11    1    3    3    0    0  0.23655717516E+02 -0.32349284572E+02  0.42811957754E+01  0.40303818935E+02  0.00000000000E+00 0. -1.
</event>
<event>
 8    1  0.8061721E-006  0.1374357E+03  0.7561462E-02  0.1216822E+00
         -3   -1    0    0    0  501 -0.00000000000E+00  0.00000000000E+00  0.12233796887E+03  0.12233796887E+03  0.00000000000E+00 0.  1.
          3   -1    0    0  501    0  0.00000000000E+00 -0.00000000000E+00 -0.19632569462E+03  0.19632569462E+03  0.00000000000E+00 0. -1.
         23    2    1    2    0    0  0.20555108757E+02  0.10604486839E+03 -0.18041469257E+02  0.14417705015E+03  0.93773666708E+02 0.  0.
         23    2    1    2    0    0 -0.20555108757E+02 -0.10604486839E+03 -0.55946256486E+02  0.17448661335E+03  0.12509023948E+03 0.  0.
          5    1    4    4  502    0 -0.24955199724E+02  0.16645418914E+02 -0.40657584178E+02  0.50698555357E+02  0.41800000000E+01 0. -1.
         -5    1    4    4    0  502  0.44000909666E+01 -0.12269028731E+03 -0.15288672307E+02  0.12378805799E+03  0.41800000000E+01 0. -1.
        -11    1    3    3    0    0 -0.18795729003E+02  0.48651910775E+02  0.29479969046E+02  0.59911237892E+02  0.00000000000E+00 0.  1.
         11    1    3    3    0    0  0.39350837761E+02  0.57392957617E+02 -0.47521438304E+02  0.84265812254E+02  0.00000000000E+00 0. -1.
</event>
<event>
 8    1  0.8061721E-006  0.1313665E+03  0.7561462E-02  0.1225442E+00
          2   -1    0    0  501    0  0.00000000000E+00  0.00000000000E+00  0.13851493410E+03  0.13851493410E+03  0.00000000000E+00 0. -1.
         -2   -1    0    0    0  501 -0.00000000000E+00 -0.00000000000E+00 -0.19963192785E+03  0.19963192785E+03  0.00000000000E+00 0.  1.
         23    2    1    2    0    0 -0.41101920844E+02  0.11824912494E+03 -0.34103272423E+02  0.15912256978E+03  0.92112624424E+02 0.  0.
         23    2    1    2    0    0  0.41101920844E+02 -0.11824912494E+03 -0.27013721329E+02  0.17902429217E+03  0.12509089736E+03 0.  0.
          5    1    4    4  502    0  0.42341351765E+01 -0.28111970863E+02 -0.67587278435E+02  0.73441973100E+02  0.41800000000E+01 0. -1.
         -5    1    4    4    0  502  0.36867785668E+02 -0.90137154073E+02  0.40573557106E+02  0.10558231907E+03  0.41800000000E+01 0. -1.
        -11    1    3    3    0    0  0.12782034040E+02  0.12717847042E+02 -0.36385998302E+02  0.40608680107E+02  0.00000000000E+00 0.  1.
         11    1    3    3    0    0 -0.53883954885E+02  0.10553127789E+03  0.22827258790E+01  0.11851388967E+03  0.00000000000E+00 0. -1.
</event>
<event>
 8    1  0.8061721E-006  0.1099515E+03  0.7561462E-02  0.1260660E+00
         -2   -1    0    0    0  501 -0.00000000000E+00  0.00000000000E+00  0.15550518088E+02  0.15550518088E+02  0.00000000000E+00 0.  1.
          2   -1    0    0  501    0  0.00000000000E+00 -0.00000000000E+00 -0.12480365045E+04  0.12480365045E+04  0.00000000000E+00 0. -1.
         23    2    1    2    0    0 -0.60897506672E+02 -0.43312559020E+02 -0.34721749696E+03  0.36640709023E+03  0.90053769995E+02 0.  0.
         23    2    1    2    0    0  0.60897506672E+02  0.43312559020E+02 -0.88526848941E+03  0.89717993231E+03  0.12508816296E+03 0.  0.
          5    1    4    4  502    0  0.58753113523E+01  0.53000220153E+02 -0.73270734593E+03  0.73465711036E+03  0.41800000000E+01 0. -1.
         -5    1    4    4    0  502  0.55022195320E+02 -0.96876611337E+01 -0.15256114348E+03  0.16252282196E+03  0.41800000000E+01 0. -1.
        -11    1    3    3    0    0 -0.80580514048E+02 -0.27506476486E+02 -0.20520956243E+03  0.22217288314E+03  0.00000000000E+00 0.  1.
         11    1    3    3    0    0  0.19683007376E+02 -0.15806082533E+02 -0.14200793453E+03  0.14423420709E+03  0.00000000000E+00 0. -1.
</event>
<event>
 8    1  0.8061721E-006  0.1553993E+03  0.7561462E-02  0.1193991E+00
         -2   -1    0    0    0  501 -0.00000000000E+00  0.00000000000E+00  0.66579885033E+03  0.66579885033E+03  0.00000000000E+00 0.  1.
          2   -1    0    0  501    0  0.00000000000E+00 -0.00000000000E+00 -0.44673896616E+02  0.44673896616E+02  0.00000000000E+00 0. -1.
         23    2    1    2    0    0 -0.11949233947E+03  0.77949021589E+01  0.41347442660E+03  0.44009300191E+03  0.91550910359E+02 0.  0.
         23    2    1    2    0    0  0.11949233947E+03 -0.77949021589E+01  0.20765052711E+03  0.27037974503E+03  0.12508910993E+03 0.  0.
          5    1    4    4  502    0  0.40821471934E+02  0.52018630410E+02  0.45272278782E+02  0.80245760678E+02  0.41800000000E+01 0. -1.
         -5    1    4    4    0  502  0.78670867531E+02 -0.59813532569E+02  0.16237824833E+03  0.19013398435E+03  0.41800000000E+01 0. -1.
        -11    1    3    3    0    0 -0.81626321498E+01 -0.27619950600E+02  0.43996526393E+02  0.52585022291E+02  0.00000000000E+00 0. -1.
         11    1    3    3    0    0 -0.11132970732E+03  0.35414852758E+02  0.36947790021E+03  0.38750797962E+03  0.00000000000E+00 0.  1.
</event>
<event>
 8    1  0.8061721E-006  0.1051779E+03  0.7561462E-02  0.1269770E+00
         -2   -1    0    0    0  501 -0.00000000000E+00  0.00000000000E+00  0.20151201930E+03  0.20151201930E+03  0.00000000000E+00 0.  1.
          2   -1    0    0  501    0  0.00000000000E+00 -0.00000000000E+00 -0.76687809791E+02  0.76687809791E+02  0.00000000000E+00 0. -1.
         23    2    1    2    0    0  0.14651112194E+02  0.58116642291E+02  0.69650947306E+02  0.12892647247E+03  0.90435510957E+02 0.  0.
         23    2    1    2    0    0 -0.14651112194E+02 -0.58116642291E+02  0.55173262208E+02  0.14927335663E+03  0.12508495888E+03 0.  0.
          5    1    4    4  502    0 -0.55181285309E+02 -0.73084751065E+02  0.21047388599E+02  0.94057535867E+02  0.41800000000E+01 0.  1.
         -5    1    4    4    0  502  0.40530173114E+02  0.14968108774E+02  0.34125873609E+02  0.55215820763E+02  0.41800000000E+01 0.  1.
        -11    1    3    3    0    0 -0.12745514869E+02  0.20984029923E+01  0.65136010685E+02  0.66404452654E+02  0.00000000000E+00 0.  1.
         11    1    3    3    0    0  0.27396627063E+02  0.56018239298E+02  0.45149366210E+01  0.62522019811E+02  0.00000000000E+00 0. -1.
</event>
<event>
 8    1  0.8061721E-006  0.1965812E+03  0.7561462E-02  0.1152656E+00
          1   -1    0    0  501    0  0.00000000000E+00  0.00000000000E+00  0.10609672423E+04  0.10609672423E+04  0.00000000000E+00 0. -1.
         -1   -1    0    0    0  501 -0.00000000000E+00 -0.00000000000E+00 -0.44561308427E+02  0.44561308427E+02  0.00000000000E+00 0.  1.
         23    2    1    2    0    0 -0.16498890869E+03  0.55827173746E+02  0.36785801521E+03  0.42288838515E+03  0.11479134820E+03 0.  0.
         23    2    1    2    0    0  0.16498890869E+03 -0.55827173746E+02  0.64854791863E+03  0.68264016555E+03  0.12265879314E+03 0.  0.
          5    1    4    4  502    0  0.14019658756E+03 -0.19318784544E+02  0.30518630102E+03  0.33642896625E+03  0.41800000000E+01 0. -1.
         -5    1    4    4    0  502  0.24792321129E+02 -0.36508389202E+02  0.34336161761E+03  0.34621119930E+03  0.41800000000E+01 0.  1.
        -11    1    3    3    0    0 -0.14307167572E+03 -0.44211205599E+01  0.27539905319E+03  0.31037668920E+03  0.00000000000E+00 0.  1.
         11    1    3    3    0    0 -0.21917232969E+02  0.60248294306E+02  0.92458962022E+02  0.11251169595E+03  0.00000000000E+00 0. -1.
</event>
<event>
 8    1  0.8061721E-006  0.7355076E+02  0.7561462E-02  0.1348419E+00
         -2   -1    0    0    0  501 -0.00000000000E+00  0.00000000000E+00  0.10222973063E+02  0.10222973063E+02  0.00000000000E+00 0.  1.
          2   -1    0    0  501    0  0.00000000000E+00 -0.00000000000E+00 -0.13696956743E+04  0.13696956743E+04  0.00000000000E+00 0. -1.
         23    2    1    2    0    0  0.35481145263E+00  0.30290176367E+02 -0.38178475369E+03  0.39379076416E+03  0.91618486767E+02 0.  0.
         23    2    1    2    0    0 -0.35481145263E+00 -0.30290176367E+02 -0.97768794760E+03  0.98612788325E+03  0.12512736937E+03 0.  0.
          5    1    4    4  502    0  0.22601935004E+02 -0.14670560988E+02 -0.42354820128E+02  0.50373366114E+02  0.41800000000E+01 0. -1.
         -5    1    4    4    0  502 -0.22956746456E+02 -0.15619615378E+02 -0.93533312747E+03  0.93575451713E+03  0.41800000000E+01 0. -1.
        -11    1    3    3    0    0  0.40122500799E+02  0.32920173950E+02 -0.15305888431E+03  0.16161860967E+03  0.00000000000E+00 0.  1.
         11    1    3    3    0    0 -0.39767689346E+02 -0.26299975833E+01 -0.22872586937E+03  0.23217215450E+03  0.00000000000E+00 0. -1.
</event>
<event>
 7    1  0.8061721E-006  0.1153073E+03  0.7561462E-02  0.1251046E+00
         -1   -1    0    0    0  501 -0.00000000000E+00  0.00000000000E+00  0.98305655430E+01  0.98305655430E+01  0.00000000000E+00 0.  1.
          1   -1    0    0  501    0  0.00000000000E+00 -0.00000000000E+00 -0.15188020586E+04  0.15188020586E+04  0.00000000000E+00 0. -1.
         23    2    1    2    0    0  0.13227813423E+00 -0.26795179940E+02 -0.39124667881E+03  0.40249873255E+03  0.90627075745E+02 0.  0.
          5    1    1    2  502    0 -0.60535915496E+02 -0.15189411019E+02 -0.44208654734E+03  0.44648998086E+03  0.41800000000E+01 0. -1.
         -5    1    1    2    0  502  0.60403637362E+02  0.41984590958E+02 -0.67563826686E+03  0.67964391068E+03  0.41800000000E+01 0.  1.
        -11    1    3    3    0    0 -0.10918848783E+02 -0.59172134926E+02 -0.23941104722E+03  0.24685666355E+03  0.00000000000E+00 0. -1.
         11    1    3    3    0    0  0.11051126918E+02  0.32376954987E+02 -0.15183563159E+03  0.15564206900E+03  0.00000000000E+00 0.  1.
</event>
<event>
 6    1  0.9018733E-006  0.8716564E+02  0.7561462E-02  0.1309864E+00
          2   -1    0    0  501    0  0.00000000000E+00  0.00000000000E+00  0.12032890466E+04  0.12032890466E+04  0.00000000000E+00 0. -1.
         -2   -1    0    0    0  501 -0.00000000000E+00 -0.00000000000E+00 -0.17126331243E+02  0.17126331243E+02  0.00000000000E+00 0.  1.
          5    1    1    2  502    0  0.14486257150E+02  0.57918260988E+02  0.21745853717E+03  0.22554393006E+03  0.41800000000E+01 0. -1.
         -5    1    1    2    0  502  0.28858622062E+02 -0.64249424163E+02  0.93698419712E+03  0.93963698662E+03  0.41800000000E+01 0.  1.
        -11    1    1    2    0    0 -0.13212361235E+02  0.42058641227E+00  0.15947204702E+02  0.20713684369E+02  0.00000000000E+00 0. -1.
         11    1    1    2    0    0 -0.30132517977E+02  0.59105767624E+01  0.15772776410E+02  0.34520776830E+02  0.00000000000E+00 0.  1.
</event>
<event>
 8    1  0.8061721E-006  0.9450849E+02  0.7561462E-02  0.1292287E+00
         -2   -1    0    0    0  501 -0.00000000000E+00  0.00000000000E+00  0.11163752691E+03  0.11163752691E+03  0.00000000000E+00 0.  1.
          2   -1    0    0  501    0  0.00000000000E+00 -0.00000000000E+00 -0.11024916263E+03  0.11024916263E+03  0.00000000000E+00 0. -1.
         23    2    1    2    0    0 -0.23133664603E+02 -0.18083489377E+02  0.15166149424E+02  0.96868441230E+02  0.91056596642E+02 0.  0.
         23    2    1    2    0    0  0.23133664603E+02  0.18083489377E+02 -0.13777785139E+02  0.12501824831E+03  0.12073755017E+03 0.  0.
          5    1    4    4  502    0 -0.44153310453E+01 -0.37647097757E+02 -0.41901558461E+02  0.56656968850E+02  0.41800000000E+01 0. -1.
         -5    1    4    4    0  502  0.27548995648E+02  0.55730587134E+02  0.28123773323E+02  0.68361279460E+02  0.41800000000E+01 0.  1.
        -11    1    3    3    0    0 -0.52361153430E+02 -0.25760505396E+02 -0.78527734240E+01  0.58880897388E+02  0.00000000000E+00 0. -1.
         11    1    3    3    0    0  0.29227488827E+02  0.76770160193E+01  0.23018922848E+02  0.37987543842E+02  0.00000000000E+00 0.  1.
</event>
<event>
 8    1  0.8061721E-006  0.1133998E+03  0.7561462E-02  0.1254400E+00
          2   -1    0    0  501    0  0.00000000000E+00  0.00000000000E+00  0.93142399201E+03  0.93142399201E+03  0.00000000000E+00 0. -1.
         -2   -1    0    0    0  501 -0.00000000000E+00 -0.00000000000E+00 -0.33720196018E+02  0.33720196018E+02  0.00000000000E+00 0.  1.
         23    2    1    2    0    0  0.82406469880E+02  0.40356830941E+02  0.13667701503E+03  0.18846597119E+03  0.91756829602E+02 0.  0.
         23    2    1    2    0    0 -0.82406469880E+02 -0.40356830941E+02  0.76102678096E+03  0.77667821683E+03  0.12509113111E+03 0.  0.
          5    1    4    4  502    0 -0.72484910599E+02  0.10303786384E+02  0.19577654118E+03  0.20906017496E+03  0.41800000000E+01 0.  1.
         -5    1    4    4    0  502 -0.99215592804E+01 -0.50660617326E+02  0.56525023978E+03  0.56761804187E+03  0.41800000000E+01 0.  1.
        -11    1    3    3    0    0  0.23926562421E+02 -0.85821963081E+01 -0.65098876842E+01  0.26239533541E+02  0.00000000000E+00 0.  1.
         11    1    3    3    0    0  0.58479907458E+02  0.48939027249E+02  0.14318690272E+03  0.16222643765E+03  0.00000000000E+00 0. -1.
</event>
<event>
 8    1  0.8061721E-006  0.1327799E+03  0.7561462E-02  0.1223388E+00
         -1   -1    0    0    0  501 -0.00000000000E+00  0.00000000000E+00  0.79448390873E+03  0.79448390873E+03  0.00000000000E+00 0.  1.
          1   -1    0    0  501    0  0.00000000000E+00 -0.00000000000E+00 -0.36373593061E+02  0.36373593061E+02  0.00000000000E+00 0. -1.
         23    2    1    2    0    0  0.98407311915E+01  0.97937919406E+02  0.56362937434E+03  0.57954565072E+03  0.92230220667E+02 0.  0.
         23    2    1    2    0    0 -0.98407311915E+01 -0.97937919406E+02  0.19448094134E+03  0.25131185108E+03  0.12508450704E+03 0.  0.
          5    1    4    4  502    0 -0.57505783917E+02 -0.68394049676E+02  0.16531097657E+03  0.18796237014E+03  0.41800000000E+01 0.  1.
         -5    1    4    4    0  502  0.47665052725E+02 -0.29543869730E+02  0.29169964764E+02  0.63349480931E+02  0.41800000000E+01 0.  1.
        -11    1    3    3    0    0 -0.25307367783E+02  0.14115312204E+02  0.48807469298E+02  0.56761553555E+02  0.00000000000E+00 0.  1.
         11    1    3    3    0    0  0.35148098975E+02  0.83822607202E+02  0.51482190504E+03  0.52278409716E+03  0.00000000000E+00 0. -1.
</event>
<event>
 8    1  0.8061721E-006  0.8245066E+02  0.7561462E-02  0.1322237E+00
         -4   -1    0    0    0  501 -0.00000000000E+00  0.00000000000E+00  0.21153083941E+02  0.21153083941E+02  0.00000000000E+00 0. -1.
          4   -1    0    0  501    0  0.00000000000E+00 -0.00000000000E+00 -0.68302163375E+03  0.68302163375E+03  0.00000000000E+00 0.  1.
         23    2    1    2    0    0  0.11066137179E+01 -0.31460782818E+02 -0.15652784559E+03  0.18262946271E+03  0.88665375178E+02 0.  0.
         23    2    1    2    0    0 -0.11066137179E+01  0.31460782818E+02 -0.50534070423E+03  0.52154525499E+03  0.12509684329E+03 0.  0.
          5    1    4    4  502    0  0.25003587655E+02 -0.33863545362E+02 -0.80881470648E+02  0.91275428207E+02  0.41800000000E+01 0.  1.
         -5    1    4    4    0  502 -0.26110201373E+02  0.65324328180E+02 -0.42445923358E+03  0.43026982678E+03  0.41800000000E+01 0.  1.
        -11    1    3    3    0    0 -0.18767657014E+02 -0.24934952223E+02 -0.15856983307E+03  0.16161178408E+03  0.00000000000E+00 0.  1.
         11    1    3    3    0    0  0.19874270732E+02 -0.65258305949E+01  0.20419874867E+01  0.21017678629E+02  0.00000000000E+00 0. -1.
</event>
<event>
 8    1  0.8061721E-006  0.1192635E+03  0.7561462E-02  0.1244317E+00
          1   -1    0    0  501    0  0.00000000000E+00  0.00000000000E+00  0.32812206222E+02  0.32812206222E+02  0.00000000000E+00 0. -1.
         -1   -1    0    0    0  501 -0.00000000000E+00 -0.00000000000E+00 -0.60498333973E+03  0.60498333973E+03  0.00000000000E+00 0.  1.
         23    2    1    2    0    0  0.66685953303E+02  0.59305319854E+02 -0.28140739952E+03  0.30892328423E+03  0.90990844073E+02 0.  0.
         23    2    1    2    0    0 -0.66685953303E+02 -0.59305319854E+02 -0.29076373399E+03  0.32887226172E+03  0.12509707509E+03 0.  0.
          5    1    4    4  502    0 -0.46801905085E+02 -0.81926885132E+02 -0.10746519942E+03  0.14306877477E+03  0.41800000000E+01 0.  1.
         -5    1    4    4    0  502 -0.19884048218E+02  0.22621565278E+02 -0.18329853457E+03  0.18580348696E+03  0.41800000000E+01 0.  1.
        -11    1    3    3    0    0 -0.67103669964E+01  0.36069258768E+02 -0.34759153103E+02  0.50539283511E+02  0.00000000000E+00 0. -1.
         11    1    3    3    0    0  0.73396320299E+02  0.23236061086E+02 -0.24664824642E+03  0.25838400072E+03  0.00000000000E+00 0.  1.
</event>
<event>
 8    1  0.8061721E-006  0.1018108E+03  0.7561462E-02  0.1276534E+00
          2   -1    0    0  501    0  0.00000000000E+00  0.00000000000E+00  0.39187797035E+03  0.39187797035E+03  0.00000000000E+00 0. -1.
         -2   -1    0    0    0  501 -0.00000000000E+00 -0.00000000000E+00 -0.36048482744E+02  0.36048482744E+02  0.00000000000E+00 0.  1.
         23    2    1    2    0    0 -0.24353061356E+02  0.40065698461E+02  0.12519201730E+03  0.16139368767E+03  0.90424274576E+02 0.  0.
         23    2    1    2    0    0  0.24353061356E+02 -0.40065698461E+02  0.23063747030E+03  0.26653276542E+03  0.12509092911E+03 0.  0.
          5    1    4    4  502    0 -0.10257465678E+02 -0.64315130900E+02  0.53536095967E+02  0.84411122704E+02  0.41800000000E+01 0.  1.
         -5    1    4    4    0  502  0.34610527034E+02  0.24249432440E+02  0.17710137433E+03  0.18212164272E+03  0.41800000000E+01 0.  1.
        -11    1    3    3    0    0 -0.48040590639E+02  0.50772703434E+02  0.63446418951E+02  0.94399225848E+02  0.00000000000E+00 0.  1.
         11    1    3    3    0    0  0.23687529282E+02 -0.10707004973E+02  0.61745598352E+02  0.66994461822E+02  0.00000000000E+00 0. -1.
</event>
<event>
 8    1  0.8061721E-006  0.1094145E+03  0.7561462E-02  0.1261658E+00
         -2   -1    0    0    0  501 -0.00000000000E+00  0.00000000000E+00  0.55690308916E+02  0.55690308916E+02  0.00000000000E+00 0.  1.
          2   -1    0    0  501    0  0.00000000000E+00 -0.00000000000E+00 -0.27140422429E+03  0.27140422429E+03  0.00000000000E+00 0. -1.
         23    2    1    2    0    0 -0.76707068819E+01  0.16585608330E+01 -0.40442519589E+02  0.11161868636E+03  0.10373785801E+03 0.  0.
         23    2    1    2    0    0  0.76707068819E+01 -0.16585608330E+01 -0.17527139578E+03  0.21547584685E+03  0.12509271692E+03 0.  0.
          5    1    4    4  502    0  0.40859406429E+02 -0.51109322941E+02 -0.95300929546E+02  0.11567797352E+03  0.41800000000E+01 0.  1.
         -5    1    4    4    0  502 -0.33188699547E+02  0.49450762108E+02 -0.79970466234E+02  0.99797873326E+02  0.41800000000E+01 0.  1.
        -11    1    3    3    0    0 -0.49441836985E+02 -0.94483775551E+01 -0.45813687166E+02  0.68063654138E+02  0.00000000000E+00 0. -1.
         11    1    3    3    0    0  0.41771130103E+02  0.11106938388E+02  0.53711675774E+01  0.43555032219E+02  0.00000000000E+00 0.  1.
</event>
<event>
 8    1  0.8061721E-006  0.1406811E+03  0.7561462E-02  0.1212415E+00
          2   -1    0    0  501    0  0.00000000000E+00  0.00000000000E+00  0.10518245131E+04  0.10518245131E+04  0.00000000000E+00 0. -1.
         -2   -1    0    0    0  501 -0.00000000000E+00 -0.00000000000E+00 -0.23743859523E+02  0.23743859523E+02  0.00000000000E+00 0.  1.
         23    2    1    2    0    0  0.10165752620E+03 -0.28639742086E+02  0.33793780535E+03  0.36627344805E+03  0.93807201249E+02 0.  0.
         23    2    1    2    0    0 -0.10165752620E+03  0.28639742086E+02  0.69014284820E+03  0.70929492454E+03  0.12509057356E+03 0.  0.
          5    1    4    4  502    0  0.16445409812E+02  0.38715825842E+02  0.12881049735E+03  0.13556910895E+03  0.41800000000E+01 0. -1.
         -5    1    4    4    0  502 -0.11810293602E+03 -0.10076083755E+02  0.56133235085E+03  0.57372581559E+03  0.41800000000E+01 0. -1.
        -11    1    3    3    0    0  0.83205509557E+02  0.36607367743E+01  0.12561947143E+03  0.15072096542E+03  0.00000000000E+00 0.  1.
         11    1    3    3    0    0  0.18452016648E+02 -0.32300478861E+02  0.21231833392E+03  0.21555248264E+03  0.00000000000E+00 0. -1.
</event>
<event>
 8    1  0.8061721E-006  0.8789186E+02  0.7561462E-02  0.1308039E+00
          2   -1    0    0  501    0  0.00000000000E+00  0.00000000000E+00  0.13912078287E+03  0.13912078287E+03  0.00000000000E+00 0. -1.
         -2   -1    0    0    0  501 -0.00000000000E+00 -0.00000000000E+00 -0.14914072722E+03  0.14914072722E+03  0.00000000000E+00 0.  1.
         23    2    1    2    0    0 -0.32234650159E+02 -0.57404190562E+02 -0.72499088992E+02  0.13371371669E+03  0.91043541021E+02 0.  0.
         23    2    1    2    0    0  0.32234650159E+02  0.57404190562E+02  0.62479144646E+02  0.15454779340E+03  0.12508822153E+03 0.  0.
          5    1    4    4  502    0  0.42621227949E+02  0.75580180933E+02 -0.17255135764E+01  0.86887183283E+02  0.41800000000E+01 0.  1.
         -5    1    4    4    0  502 -0.10386577790E+02 -0.18175990371E+02  0.64204658223E+02  0.67660610119E+02  0.41800000000E+01 0.  1.
        -11    1    3    3    0    0 -0.20167762960E+02 -0.20577030766E+02 -0.87527713239E+02  0.92147997498E+02  0.00000000000E+00 0.  1.
         11    1    3    3    0    0 -0.12066887199E+02 -0.36827159795E+02  0.15028624247E+02  0.41565719193E+02  0.00000000000E+00 0. -1.
</event>
<event>
 7    1  0.8061721E-006  0.1615359E+03  0.7561462E-02  0.1186974E+00
         -1   -1    0    0    0  501 -0.00000000000E+00  0.00000000000E+00  0.72848216087E+02  0.72848216087E+02  0.00000000000E+00 0.  1.
          1   -1    0    0  501    0  0.00000000000E+00 -0.00000000000E+00 -0.44151844438E+03  0.44151844438E+03  0.00000000000E+00 0. -1.
         23    2    1    2    0    0  0.11447643456E+03  0.36572629746E+02 -0.15473702321E+03  0.21611350943E+03  0.91209052664E+02 0.  0.
          5    1    1    2  502    0 -0.31894572151E+02  0.58307031467E+02 -0.13266554867E+03  0.14844053980E+03  0.41800000000E+01 0. -1.
         -5    1    1    2    0  502 -0.82581862406E+02 -0.94879661213E+02 -0.81267656414E+02  0.14981261125E+03  0.41800000000E+01 0.  1.
        -11    1    3    3    0    0  0.10649121088E+03  0.14899867511E+02 -0.70049529596E+02  0.12833285099E+03  0.00000000000E+00 0.  1.
         11    1    3    3    0    0  0.79852236756E+01  0.21672762235E+02 -0.84687493617E+02  0.87780658435E+02  0.00000000000E+00 0. -1.
</event>
<event>
 8    1  0.8061721E-006  0.9760522E+02  0.7561462E-02  0.1285414E+00
          1   -1    0    0  501    0  0.00000000000E+00  0.00000000000E+00  0.58691586104E+03  0.58691586104E+03  0.00000000000E+00 0. -1.
         -1   -1    0    0    0  501 -0.00000000000E+00 -0.00000000000E+00 -0.21565510729E+02  0.21565510729E+02  0.00000000000E+00 0.  1.
         23    2    1    2    0    0  0.22170021689E+02  0.23735181261E+02  0.24484252399E+03  0.26289820821E+03  0.90070736863E+02 0.  0.
         23    2    1    2    0    0 -0.22170021689E+02 -0.23735181261E+02  0.32050782632E+03  0.34558316356E+03  0.12509031740E+03 0.  0.
          5    1    4    4  502    0 -0.72828372163E+02 -0.27531777739E+02  0.20506830332E+03  0.21939109372E+03  0.41800000000E+01 0. -1.
         -5    1    4    4    0  502  0.50658350475E+02  0.37965964775E+01  0.11543952300E+03  0.12619206983E+03  0.41800000000E+01 0. -1.
        -11    1    3    3    0    0  0.24611771597E-01 -0.18541715258E+02  0.62312295543E+01  0.19560777904E+02  0.00000000000E+00 0.  1.
         11    1    3    3    0    0  0.22145409917E+02  0.42276896519E+02  0.23861129443E+03  0.24333743031E+03  0.00000000000E+00 0. -1.
</event>
<event>
 8    1  0.8061721E-006  0.1278323E+03  0.7561462E-02  0.1230708E+00
         -2   -1    0    0    0  501 -0.00000000000E+00  0.00000000000E+00  0.17057685362E+03  0.17057685362E+03  0.00000000000E+00 0.  1.
          2   -1    0    0  501    0  0.00000000000E+00 -0.00000000000E+00 -0.13895515396E+03  0.13895515396E+03  0.00000000000E+00 0. -1.
         23    2    1    2    0    0  0.87979680070E+02  0.45872822654E+02  0.10128955020E+02  0.14842799468E+03  0.10992512866E+03 0.  0.
         23    2    1    2    0    0 -0.87979680070E+02 -0.45872822654E+02  0.21492744641E+02  0.16110401290E+03  0.12509126643E+03 0.  0.
          5    1    4    4  502    0 -0.61298409269E+02 -0.55860783939E+02  0.67375844665E+02  0.10693408720E+03  0.41800000000E+01 0. -1.
         -5    1    4    4    0  502 -0.26681270802E+02  0.99879612853E+01 -0.45883100024E+02  0.54169925697E+02  0.41800000000E+01 0. -1.
        -11    1    3    3    0    0  0.86758956691E+02 -0.10547716675E+02 -0.11170114139E+02  0.88108696183E+02  0.00000000000E+00 0. -1.
         11    1    3    3    0    0  0.12207233795E+01  0.56420539329E+02  0.21299069159E+02  0.60319298494E+02  0.00000000000E+00 0.  1.
</event>
<event>
 8    1  0.8061721E-006  0.1512404E+03  0.7561462E-02  0.1198957E+00
          1   -1    0    0  501    0  0.00000000000E+00  0.00000000000E+00  0.26672784768E+03  0.26672784768E+03  0.00000000000E+00 0. -1.
         -1   -1    0    0    0  501 -0.00000000000E+00 -0.00000000000E+00 -0.97567711621E+02  0.97567711621E+02  0.00000000000E+00 0.  1.
         23    2    1    2    0    0  0.81077051010E+01 -0.11596001678E+03  0.44386215285E+02  0.15280730534E+03  0.88698794152E+02 0.  0.
         23    2    1    2    0    0 -0.81077051010E+01  0.11596001678E+03  0.12477392077E+03  0.21148825396E+03  0.12508513056E+03 0.  0.
          5    1    4    4  502    0  0.26560079493E+02  0.12247232864E+03  0.63230513565E+02  0.14042962419E+03  0.41800000000E+01 0.  1.
         -5    1    4    4    0  502 -0.34667784594E+02 -0.65123118596E+01  0.61543407209E+02  0.71058629773E+02  0.41800000000E+01 0.  1.
        -11    1    3    3    0    0  0.10558634768E+02  0.10615112817E+02 -0.65545112555E+01  0.16344020499E+02  0.00000000000E+00 0.  1.
         11    1    3    3    0    0 -0.24509296671E+01 -0.12657512960E+03  0.50940726541E+02  0.13646328484E+03  0.00000000000E+00 0. -1.
</event>
<event>
 8    1  0.8061721E-006  0.1273525E+03  0.7561462E-02  0.1231438E+00
         -2   -1    0    0    0  501 -0.00000000000E+00  0.00000000000E+00  0.35551382926E+03  0.35551382926E+03  0.00000000000E+00 0.  1.
          2   -1    0    0  501    0  0.00000000000E+00 -0.00000000000E+00 -0.68016303225E+02  0.68016303225E+02  0.00000000000E+00 0. -1.
         23    2    1    2    0    0  0.83666807529E+02 -0.54494261302E+02  0.19977987341E+03  0.24101477460E+03  0.90588986960E+02 0.  0.
         23    2    1    2    0    0 -0.83666807529E+02  0.54494261302E+02  0.87717652619E+02  0.18251535788E+03  0.12509080735E+03 0.  0.
          5    1    4    4  502    0 -0.73644101843E+02  0.90783125774E+02  0.44762546425E+02  0.12524451135E+03  0.41800000000E+01 0.  1.
         -5    1    4    4    0  502 -0.10022705686E+02 -0.36288864472E+02  0.42955106194E+02  0.57270846528E+02  0.41800000000E+01 0.  1.
        -11    1    3    3    0    0  0.32018709717E+02 -0.20267025551E+02  0.70162568063E+01  0.38538006645E+02  0.00000000000E+00 0. -1.
         11    1    3    3    0    0  0.51648097812E+02 -0.34227235752E+02  0.19276361661E+03  0.20247676796E+03  0.00000000000E+00 0.  1.
</event>
<event>
 8    1  0.8061721E-006  0.1334204E+03  0.7561462E-02  0.1222467E+00
          1   -1    0    0  501    0  0.00000000000E+00  0.00000000000E+00  0.75517241364E+02  0.75517241364E+02  0.00000000000E+00 0.  1.
         -1   -1    0    0    0  501 -0.00000000000E+00 -0.00000000000E+00 -0.25473600833E+03  0.25473600833E+03  0.00000000000E+00 0. -1.
         23    2    1    2    0    0  0.21259168435E+02  0.82353127294E+02 -0.10728926956E+03  0.16275572930E+03  0.88002558144E+02 0.  0.
         23    2    1    2    0    0 -0.21259168435E+02 -0.82353127294E+02 -0.71929497406E+02  0.16749752039E+03  0.12509027510E+03 0.  0.
          5    1    4    4  502    0  0.42768506912E+02  0.22605380932E+01 -0.86831662503E+01  0.43899031790E+02  0.41800000000E+01 0. -1.
         -5    1    4    4    0  502 -0.64027675347E+02 -0.84613665387E+02 -0.63246331156E+02  0.12359848860E+03  0.41800000000E+01 0. -1.
        -11    1    3    3    0    0  0.19242528730E+02  0.98998469248E+02 -0.10540893139E+03  0.14588356536E+03  0.00000000000E+00 0.  1.
         11    1    3    3    0    0  0.20166397046E+01 -0.16645341954E+02 -0.18803381728E+01  0.16872163943E+02  0.00000000000E+00 0. -1.
</event>
<event>
 7    1  0.8061721E-006  0.2264948E+03  0.7561462E-02  0.1129131E+00
         -2   -1    0    0    0  501 -0.00000000000E+00  0.00000000000E+00  0.37039733564E+03  0.37039733564E+03  0.00000000000E+00 0.  1.
          2   -1    0    0  501    0  0.00000000000E+00 -0.00000000000E+00 -0.17831281047E+03  0.17831281047E+03  0.00000000000E+00 0. -1.
         23    2    1    2    0    0 -0.14620691154E+03  0.14692788887E+03  0.70711115863E+01  0.24220212738E+03  0.12509038483E+03 0.  0.
          5    1    3    3  502    0 -0.65914103049E+02  0.10342784308E+03 -0.52088809035E+02  0.13331430581E+03  0.41800000000E+01 0.  1.
         -5    1    3    3    0  502 -0.80292808489E+02  0.43500045785E+02  0.59159920621E+02  0.10888782157E+03  0.41800000000E+01 0.  1.
        -11    1    1    2    0    0  0.29587344105E+02  0.19647774561E+02  0.53939144032E+02  0.64582329125E+02  0.00000000000E+00 0.  1.
         11    1    1    2    0    0  0.11661956743E+03 -0.16657566343E+03  0.13107426955E+03  0.24192568961E+03  0.00000000000E+00 0. -1.
</event>
<event>
 8    1  0.8061721E-006  0.1379971E+03  0.7561462E-02  0.1216050E+00
         -3   -1    0    0    0  501 -0.00000000000E+00  0.00000000000E+00  0.12390282835E+03  0.12390282835E+03  0.00000000000E+00 0.  1.
          3   -1    0    0  501    0  0.00000000000E+00 -0.00000000000E+00 -0.22522173575E+03  0.22522173575E+03  0.00000000000E+00 0. -1.
         23    2    1    2    0    0  0.27837499261E+02 -0.10097171613E+03  0.31705219290E+02  0.13861856843E+03  0.85086266576E+02 0.  0.
         23    2    1    2    0    0 -0.27837499261E+02  0.10097171613E+03 -0.13302412670E+03  0.21050599567E+03  0.12508853708E+03 0.  0.
          5    1    4    4  502    0  0.61999285566E+01  0.11309425595E+03 -0.13218472792E+03  0.17412358984E+03  0.41800000000E+01 0.  1.
         -5    1    4    4    0  502 -0.34037427818E+02 -0.12122539820E+02 -0.83939877534E+00  0.36382405837E+02  0.41800000000E+01 0.  1.
        -11    1    3    3    0    0 -0.10064906959E+02 -0.84257005633E+02  0.43761138935E+02  0.95475560388E+02  0.00000000000E+00 0.  1.
         11    1    3    3    0    0  0.37902406221E+02 -0.16714710493E+02 -0.12055919645E+02  0.43143008039E+02  0.00000000000E+00 0. -1.
</event>
<event>
 8    1  0.8061721E-006  0.9347938E+02  0.7561462E-02  0.1294638E+00
          2   -1    0    0  501    0  0.00000000000E+00  0.00000000000E+00  0.32279376712E+03  0.32279376712E+03  0.00000000000E+00 0. -1.
         -2   -1    0    0    0  501 -0.00000000000E+00 -0.00000000000E+00 -0.35844868763E+02  0.35844868763E+02  0.00000000000E+00 0.  1.
         23    2    1    2    0    0  0.14289132267E+02  0.84393189153E+01  0.10173314741E+03  0.13451999921E+03  0.86432606706E+02 0.  0.
         23    2    1    2    0    0 -0.14289132267E+02 -0.84393189153E+01  0.18521575094E+03  0.22411863667E+03  0.12509551350E+03 0.  0.
          5    1    4    4  502    0  0.40538568433E+02 -0.38182330306E+02  0.12682148530E+03  0.13857282349E+03  0.41800000000E+01 0.  1.
         -5    1    4    4    0  502 -0.54827700700E+02  0.29743011391E+02  0.58394265648E+02  0.85545813172E+02  0.41800000000E+01 0.  1.
        -11    1    3    3    0    0  0.13673303435E+02 -0.28522509096E+02  0.64014590408E+01  0.32271836481E+02  0.00000000000E+00 0. -1.
         11    1    3    3    0    0  0.61582883195E+00  0.36961828012E+02  0.95331688368E+02  0.10224816273E+03  0.00000000000E+00 0.  1.
</event>
<event>
 8    1  0.8061721E-006  0.9288941E+02  0.7561462E-02  0.1296002E+00
          2   -1    0    0  501    0  0.00000000000E+00  0.00000000000E+00  0.72042209102E+03  0.72042209102E+03  0.00000000000E+00 0. -1.
         -2   -1    0    0    0  501 -0.00000000000E+00 -0.00000000000E+00 -0.18301091706E+02  0.18301091706E+02  0.00000000000E+00 0.  1.
         23    2    1    2    0    0 -0.48776228733E+01  0.27418562256E+02  0.21171157067E+03  0.23184601445E+03  0.90306237331E+02 0.  0.
         23    2    1    2    0    0  0.48776228733E+01 -0.27418562256E+02  0.49040942864E+03  0.50687716827E+03  0.12508991667E+03 0.  0.
          5    1    4    4  502    0  0.42074663564E+02  0.49843591577E+01  0.59667382547E+02  0.73299318484E+02  0.41800000000E+01 0.  1.
         -5    1    4    4    0  502 -0.37197040691E+02 -0.32402921414E+02  0.43074204609E+03  0.43357784979E+03  0.41800000000E+01 0.  1.
        -11    1    3    3    0    0  0.42355499668E+02  0.12417512323E+02  0.11492490845E+03  0.12310937230E+03  0.00000000000E+00 0.  1.
         11    1    3    3    0    0 -0.47233122542E+02  0.15001049934E+02  0.96786662217E+02  0.10873664216E+03  0.00000000000E+00 0. -1.
</event>
<event>
 8    1  0.8061721E-006  0.1050115E+03  0.7561462E-02  0.1270097E+00
          1   -1    0    0  501    0  0.00000000000E+00  0.00000000000E+00  0.84801559779E+03  0.84801559779E+03  0.00000000000E+00 0. -1.
         -1   -1    0    0    0  501 -0.00000000000E+00 -0.00000000000E+00 -0.17951242843E+02  0.17951242843E+02  0.00000000000E+00 0.  1.
         23    2    1    2    0    0  0.43441321827E+02  0.89530981216E+01  0.22595525843E+03  0.24744886410E+03  0.90597213673E+02 0.  0.
         23    2    1    2    0    0 -0.43441321827E+02 -0.89530981216E+01  0.60410909652E+03  0.61851797653E+03  0.12509748355E+03 0.  0.
          5    1    4    4  502    0 -0.26275292961E+02 -0.65014660080E+02  0.25518191949E+03  0.26467448211E+03  0.41800000000E+01 0. -1.
         -5    1    4    4    0  502 -0.17166028866E+02  0.56061561958E+02  0.34892717703E+03  0.35384349443E+03  0.41800000000E+01 0. -1.
        -11    1    3    3    0    0  0.29933316646E+02  0.38346851556E+02  0.20041026290E+03  0.20622986677E+03  0.00000000000E+00 0. -1.
         11    1    3    3    0    0  0.13508005181E+02 -0.29393753434E+02  0.25544995528E+02  0.41218997337E+02  0.00000000000E+00 0.  1.
</event>
<event>
 8    1  0.8061721E-006  0.1215579E+03  0.7561462E-02  0.1240549E+00
         -2   -1    0    0    0  501 -0.00000000000E+00  0.00000000000E+00  0.75478850445E+02  0.75478850445E+02  0.00000000000E+00 0.  1.
          2   -1    0    0  501    0  0.00000000000E+00 -0.00000000000E+00 -0.29045205509E+03  0.29045205509E+03  0.00000000000E+00 0. -1.
         23    2    1    2    0    0 -0.81741794758E+02  0.13946590177E+02 -0.33504633266E+02  0.13044290642E+03  0.94955584337E+02 0.  0.
         23    2    1    2    0    0  0.81741794758E+02 -0.13946590177E+02 -0.18146857138E+03  0.23548799912E+03  0.12509007531E+03 0.  0.
          5    1    4    4  502    0  0.70367176048E+00  0.47652766752E+02 -0.50536944936E+02  0.69589773218E+02  0.41800000000E+01 0. -1.
         -5    1    4    4    0  502  0.81038122997E+02 -0.61599356929E+02 -0.13093162644E+03  0.16589822590E+03  0.41800000000E+01 0. -1.
        -11    1    3    3    0    0 -0.69401291637E+02 -0.62992428574E+01  0.19511284214E+02  0.72366497449E+02  0.00000000000E+00 0.  1.
         11    1    3    3    0    0 -0.12340503121E+02  0.20245833034E+02 -0.53015917480E+02  0.58076408969E+02  0.00000000000E+00 0. -1.
</event>
<event>
 8    1  0.8061721E-006  0.1110967E+03  0.7561462E-02  0.1258552E+00
         -2   -1    0    0    0  501 -0.00000000000E+00  0.00000000000E+00  0.26426107277E+03  0.26426107277E+03  0.00000000000E+00 0.  1.
          2   -1    0    0  501    0  0.00000000000E+00 -0.00000000000E+00 -0.60463418143E+02  0.60463418143E+02  0.00000000000E+00 0. -1.
         23    2    1    2    0    0 -0.38033908006E+02 -0.49130306692E+02  0.11541697784E+03  0.15944188547E+03  0.90775937754E+02 0.  0.
         23    2    1    2    0    0  0.38033908006E+02  0.49130306692E+02  0.88380676791E+02  0.16528260544E+03  0.12508729128E+03 0.  0.
          5    1    4    4  502    0 -0.40878013331E+01 -0.39607536122E+02  0.36206272055E+02  0.53979936768E+02  0.41800000000E+01 0. -1.
         -5    1    4    4    0  502  0.42121709339E+02  0.88737842814E+02  0.52174404736E+02  0.11130266868E+03  0.41800000000E+01 0. -1.
        -11    1    3    3    0    0  0.12628548663E+02 -0.24377068147E+02  0.95933281080E+02  0.99784348029E+02  0.00000000000E+00 0.  1.
         11    1    3    3    0    0 -0.50662456669E+02 -0.24753238545E+02  0.19483696758E+02  0.59657537441E+02  0.00000000000E+00 0. -1.
</event>
<event>
 8    1  0.8061721E-006  0.8081643E+02  0.7561462E-02  0.1326750E+00
          1   -1    0    0  501    0  0.00000000000E+00  0.00000000000E+00  0.80480743582E+03  0.80480743582E+03  0.00000000000E+00 0. -1.
         -1   -1    0    0    0  501 -0.00000000000E+00 -0.00000000000E+00 -0.17672018281E+02  0.17672018281E+02  0.00000000000E+00 0.  1.
         23    2    1    2    0    0 -0.45914407532E+02 -0.14453222926E+02  0.28703911535E+03  0.30473289782E+03  0.90297601326E+02 0.  0.
         23    2    1    2    0    0  0.45914407532E+02  0.14453222926E+02  0.50009630219E+03  0.51774655628E+03  0.12509259210E+03 0.  0.
          5    1    4    4  502    0  0.64301411767E+02  0.52330711041E+01  0.11380833973E+03  0.13088875880E+03  0.41800000000E+01 0. -1.
         -5    1    4    4    0  502 -0.18387004235E+02  0.92201518221E+01  0.38628796247E+03  0.38685779748E+03  0.41800000000E+01 0. -1.
        -11    1    3    3    0    0 -0.21968943544E+01  0.20131213706E+02  0.10849220911E+02  0.22973848273E+02  0.00000000000E+00 0.  1.
         11    1    3    3    0    0 -0.43717513178E+02 -0.34584436632E+02  0.27618989444E+03  0.28175904955E+03  0.00000000000E+00 0. -1.
</event>
<event>
 8    1  0.8061721E-006  0.1044295E+03  0.7561462E-02  0.1271248E+00
          2   -1    0    0  501    0  0.00000000000E+00  0.00000000000E+00  0.69960774169E+03  0.69960774169E+03  0.00000000000E+00 0. -1.
         -2   -1    0    0    0  501 -0.00000000000E+00 -0.00000000000E+00 -0.21983863859E+02  0.21983863859E+02  0.00000000000E+00 0.  1.
         23    2    1    2    0    0  0.49669961403E+02  0.53002101369E+01  0.16896802755E+03  0.19876684492E+03  0.91993842252E+02 0.  0.
         23    2    1    2    0    0 -0.49669961403E+02 -0.53002101369E+01  0.50865585028E+03  0.52282476063E+03  0.11008977704E+03 0.  0.
          5    1    4    4  502    0 -0.66655396041E+02  0.35669650806E+02  0.34529973357E+03  0.35350338643E+03  0.41800000000E+01 0. -1.
         -5    1    4    4    0  502  0.16985434638E+02 -0.40969860943E+02  0.16335611671E+03  0.16932137420E+03  0.41800000000E+01 0.  1.
        -11    1    3    3    0    0  0.38506470260E+02 -0.31745534879E+02  0.39513834569E+02  0.63654303539E+02  0.00000000000E+00 0.  1.
         11    1    3    3    0    0  0.11163491143E+02  0.37045745016E+02  0.12945419298E+03  0.13511254138E+03  0.00000000000E+00 0. -1.
</event>
<event>
 8    1  0.8061721E-006  0.1032270E+03  0.7561462E-02  0.1273653E+00
         -2   -1    0    0    0  501 -0.00000000000E+00  0.00000000000E+00  0.22704670176E+02  0.22704670176E+02  0.00000000000E+00 0. -1.
          2   -1    0    0  501    0  0.00000000000E+00 -0.00000000000E+00 -0.59705206889E+03  0.59705206889E+03  0.00000000000E+00 0.  1.
         23    2    1    2    0    0  0.33271845304E+02  0.27776779383E+02 -0.24314741886E+03  0.26307895060E+03  0.90616233573E+02 0.  0.
         23    2    1    2    0    0 -0.33271845304E+02 -0.27776779383E+02 -0.33119997986E+03  0.35667778847E+03  0.12508818077E+03 0.  0.
          5    1    4    4  502    0  0.36661468948E+02 -0.35167880403E+02 -0.21354749155E+03  0.21954691221E+03  0.41800000000E+01 0. -1.
         -5    1    4    4    0  502 -0.69933314253E+02  0.73911010203E+01 -0.11765248831E+03  0.13713087626E+03  0.41800000000E+01 0. -1.
        -11    1    3    3    0    0  0.15897767849E+02 -0.24912820202E+02 -0.27360056202E+02  0.40273568359E+02  0.00000000000E+00 0. -1.
         11    1    3    3    0    0  0.17374077455E+02  0.52689599585E+02 -0.21578736266E+03  0.22280538224E+03  0.00000000000E+00 0.  1.
</event>
<event>
 8    1  0.8061721E-006  0.1002232E+03  0.7561462E-02  0.1279827E+00
          2   -1    0    0  501    0  0.00000000000E+00  0.00000000000E+00  0.17630093708E+03  0.17630093708E+03  0.00000000000E+00 0. -1.
         -2   -1    0    0    0  501 -0.00000000000E+00 -0.00000000000E+00 -0.78437194862E+02  0.78437194862E+02  0.00000000000E+00 0.  1.
         23    2    1    2    0    0  0.41301138760E+02  0.23705430575E+02  0.22356046514E+02  0.10106206103E+03  0.86290299935E+02 0.  0.
         23    2    1    2    0    0 -0.41301138760E+02 -0.23705430575E+02  0.75507695704E+02  0.15367607091E+03  0.12508873314E+03 0.  0.
          5    1    4    4  502    0 -0.78318179760E+02 -0.37701540208E+02  0.73370819716E+02  0.11382395618E+03  0.41800000000E+01 0.  1.
         -5    1    4    4    0  502  0.37017041000E+02  0.13996109633E+02  0.21368759874E+01  0.39852114727E+02  0.41800000000E+01 0.  1.
        -11    1    3    3    0    0  0.54673576973E+02  0.25149656180E+02 -0.14436630451E+02  0.61887975599E+02  0.00000000000E+00 0.  1.
         11    1    3    3    0    0 -0.13372438213E+02 -0.14442256053E+01  0.36792676965E+02  0.39174085434E+02  0.00000000000E+00 0. -1.
</event>
<event>
 8    1  0.8061721E-006  0.1059605E+03  0.7561462E-02  0.1268239E+00
          1   -1    0    0  501    0  0.00000000000E+00  0.00000000000E+00  0.15215201960E+03  0.15215201960E+03  0.00000000000E+00 0. -1.
         -1   -1    0    0    0  501 -0.00000000000E+00 -0.00000000000E+00 -0.15398439307E+03  0.15398439307E+03  0.00000000000E+00 0.  1.
         23    2    1    2    0    0  0.27107938820E+02  0.36719526117E+02 -0.94917392492E+02  0.14364450362E+03  0.97679414804E+02 0.  0.
         23    2    1    2    0    0 -0.27107938820E+02 -0.36719526117E+02  0.93085019031E+02  0.16249190905E+03  0.12512248317E+03 0.  0.
          5    1    4    4  502    0 -0.65113519487E+02 -0.56218464947E+02  0.80186262407E+02  0.11767580592E+03  0.41800000000E+01 0.  1.
         -5    1    4    4    0  502  0.38005580667E+02  0.19498938830E+02  0.12898756624E+02  0.44816103130E+02  0.41800000000E+01 0.  1.
        -11    1    3    3    0    0 -0.18213638484E+01  0.50708273037E+02 -0.85025241903E+01  0.51448413369E+02  0.00000000000E+00 0. -1.
         11    1    3    3    0    0  0.28929302669E+02 -0.13988746919E+02 -0.86414868302E+02  0.92196090247E+02  0.00000000000E+00 0.  1.
</event>
<event>
 8    1  0.8061721E-006  0.1121381E+03  0.7561462E-02  0.1256661E+00
         -1   -1    0    0    0  501 -0.00000000000E+00  0.00000000000E+00  0.41141485534E+02  0.41141485534E+02  0.00000000000E+00 0.  1.
          1   -1    0    0  501    0  0.00000000000E+00 -0.00000000000E+00 -0.41034956867E+03  0.41034956867E+03  0.00000000000E+00 0. -1.
         23    2    1    2    0    0  0.11415419922E+02 -0.70771453935E+02 -0.14536148200E+03  0.18523197242E+03  0.89677269424E+02 0.  0.
         23    2    1    2    0    0 -0.11415419922E+02  0.70771453935E+02 -0.22384660114E+03  0.26625908179E+03  0.12509071625E+03 0.  0.
          5    1    4    4  502    0 -0.12946625894E+02  0.10244497725E+03 -0.12402354343E+03  0.16143698526E+03  0.41800000000E+01 0.  1.
         -5    1    4    4    0  502  0.15312059716E+01 -0.31673523312E+02 -0.99823057711E+02  0.10482209653E+03  0.41800000000E+01 0.  1.
        -11    1    3    3    0    0 -0.41427722900E+01 -0.73098430826E+02 -0.50184968585E+02  0.88764149426E+02  0.00000000000E+00 0.  1.
         11    1    3    3    0    0  0.15558192212E+02  0.23269768905E+01 -0.95176513416E+02  0.96467822990E+02  0.00000000000E+00 0. -1.
</event>
<event>
 8    1  0.8061721E-006  0.1273485E+03  0.7561462E-02  0.1231444E+00
         -2   -1    0    0    0  501 -0.00000000000E+00  0.00000000000E+00  0.39339081880E+02  0.39339081880E+02  0.00000000000E+00 0.  1.
          2   -1    0    0  501    0  0.00000000000E+00 -0.00000000000E+00 -0.59462362113E+03  0.59462362113E+03  0.00000000000E+00 0. -1.
         23    2    1    2    0    0 -0.24023973180E+02  0.86488641142E+02 -0.13558527386E+03  0.18691441779E+03  0.92174816285E+02 0.  0.
         23    2    1    2    0    0  0.24023973180E+02 -0.86488641142E+02 -0.41969926539E+03  0.44704828522E+03  0.12508900676E+03 0.  0.
          5    1    4    4  502    0 -0.40225498697E+02 -0.77798742234E+02 -0.26934151748E+03  0.28325440946E+03  0.41800000000E+01 0. -1.
         -5    1    4    4    0  502  0.64249471877E+02 -0.86898989086E+01 -0.15035774791E+03  0.16379387576E+03  0.41800000000E+01 0. -1.
        -11    1    3    3    0    0 -0.35269328818E+02  0.36299717284E+02 -0.10530952921E+02  0.51696189411E+02  0.00000000000E+00 0.  1.
         11    1    3    3    0    0  0.11245355638E+02  0.50188923858E+02 -0.12505432094E+03  0.13521822838E+03  0.00000000000E+00 0. -1.
</event>
<event>
 8    1  0.8061721E-006  0.7850750E+02  0.7561462E-02  0.1333341E+00
          1   -1    0    0  501    0  0.00000000000E+00  0.00000000000E+00  0.17113989748E+03  0.17113989748E+03  0.00000000000E+00 0. -1.
         -1   -1    0    0    0  501 -0.00000000000E+00 -0.00000000000E+00 -0.80035447837E+02  0.80035447837E+02  0.00000000000E+00 0.  1.
         23    2    1    2    0    0 -0.21197561011E+02 -0.41797347277E+02  0.27803791369E+02  0.10335829834E+03  0.87826716826E+02 0.  0.
         23    2    1    2    0    0  0.21197561011E+02  0.41797347277E+02  0.63300658275E+02  0.14781704698E+03  0.12508617513E+03 0.  0.
          5    1    4    4  502    0 -0.45115940553E+01 -0.40638659129E+01  0.88890172537E+02  0.89195317482E+02  0.41800000000E+01 0.  1.
         -5    1    4    4    0  502  0.25709155066E+02  0.45861213190E+02 -0.25589514262E+02  0.58621729500E+02  0.41800000000E+01 0.  1.
        -11    1    3    3    0    0 -0.53988780406E+02 -0.31622350224E+02  0.63884386012E+01  0.62893350930E+02  0.00000000000E+00 0.  1.
         11    1    3    3    0    0  0.32791219396E+02 -0.10174997053E+02  0.21415352768E+02  0.40464947407E+02  0.00000000000E+00 0. -1.
</event>
<event>
 7    1  0.8061721E-006  0.1946377E+03  0.7561462E-02  0.1154344E+00
          2   -1    0    0  501    0  0.00000000000E+00  0.00000000000E+00  0.11609645832E+04  0.11609645832E+04  0.00000000000E+00 0. -1.
         -2   -1    0    0    0  501 -0.00000000000E+00 -0.00000000000E+00 -0.81600675962E+02  0.81600675962E+02  0.00000000000E+00 0.  1.
         23    2    1    2    0    0 -0.13312638948E+03  0.73176676224E+02  0.44547887321E+02  0.17961663371E+03  0.84853752552E+02 0.  0.
          5    1    1    2  502    0  0.11133071491E+03  0.31743638701E+02  0.32396679017E+03  0.34405543189E+03  0.41800000000E+01 0. -1.
         -5    1    1    2    0  502  0.21795674570E+02 -0.10492031493E+03  0.71084922976E+03  0.71889319357E+03  0.41800000000E+01 0.  1.
        -11    1    3    3    0    0 -0.14039540053E+03  0.63500995454E+02  0.24250165336E+02  0.15598498464E+03  0.00000000000E+00 0.  1.
         11    1    3    3    0    0  0.72690110534E+01  0.96756807708E+01  0.20297721985E+02  0.23631649072E+02  0.00000000000E+00 0. -1.
</event>
<event>
 8    1  0.8061721E-006  0.1073569E+03  0.7561462E-02  0.1265544E+00
         -2   -1    0    0    0  501 -0.00000000000E+00  0.00000000000E+00  0.13072201681E+02  0.13072201681E+02  0.00000000000E+00 0.  1.
          2   -1    0    0  501    0  0.00000000000E+00 -0.00000000000E+00 -0.10555818534E+04  0.10555818534E+04  0.00000000000E+00 0. -1.
         23    2    1    2    0    0 -0.22819318241E+02  0.72639363619E+01 -0.26388195966E+03  0.27967829347E+03  0.89514094682E+02 0.  0.
         23    2    1    2    0    0  0.22819318241E+02 -0.72639363619E+01 -0.77862769206E+03  0.78897576161E+03  0.12509269968E+03 0.  0.
          5    1    4    4  502    0  0.57491294323E+02 -0.43492884428E+02 -0.34764379018E+03  0.35506415923E+03  0.41800000000E+01 0.  1.
         -5    1    4    4    0  502 -0.34671976082E+02  0.36228948066E+02 -0.43098390188E+03  0.43391160238E+03  0.41800000000E+01 0.  1.
        -11    1    3    3    0    0 -0.16861621024E+02  0.48071354109E+02 -0.13155942985E+03  0.14107818021E+03  0.00000000000E+00 0. -1.
         11    1    3    3    0    0 -0.59576972166E+01 -0.40807417747E+02 -0.13232252982E+03  0.13860011326E+03  0.00000000000E+00 0.  1.
</event>
<event>
 8    1  0.8061721E-006  0.1079070E+03  0.7561462E-02  0.1264496E+00
         -2   -1    0    0    0  501 -0.00000000000E+00  0.00000000000E+00  0.18312598794E+03  0.18312598794E+03  0.00000000000E+00 0.  1.
          2   -1    0    0  501    0  0.00000000000E+00 -0.00000000000E+00 -0.10052354883E+03  0.10052354883E+03  0.00000000000E+00 0. -1.
         23    2    1    2    0    0 -0.74528901168E+01 -0.53315111247E+02  0.99493063584E+02  0.14642635263E+03  0.92971825762E+02 0.  0.
         23    2    1    2    0    0  0.74528901168E+01  0.53315111247E+02 -0.16890624477E+02  0.13722318413E+03  0.12508741907E+03 0.  0.
          5    1    4    4  502    0  0.23582242050E+02 -0.35004570515E+02  0.96721131121E+01  0.43502462794E+02  0.41800000000E+01 0. -1.
         -5    1    4    4    0  502 -0.16129351933E+02  0.88319681762E+02 -0.26562737589E+02  0.93720721340E+02  0.41800000000E+01 0. -1.
        -11    1    3    3    0    0  0.25631289956E+02 -0.69367824563E+01  0.82960721066E+02  0.87106619814E+02  0.00000000000E+00 0.  1.
         11    1    3    3    0    0 -0.33084180073E+02 -0.46378328790E+02  0.16532342518E+02  0.59319732818E+02  0.00000000000E+00 0. -1.
</event>
<event>
 8    1  0.8061721E-006  0.2476140E+03  0.7561462E-02  0.1114822E+00
          2   -1    0    0  501    0  0.00000000000E+00  0.00000000000E+00  0.39784716322E+03  0.39784716322E+03  0.00000000000E+00 0. -1.
         -2   -1    0    0    0  501 -0.00000000000E+00 -0.00000000000E+00 -0.16654562210E+03  0.16654562210E+03  0.00000000000E+00 0.  1.
         23    2    1    2    0    0 -0.34160966089E+02 -0.22928463286E+03  0.93999274123E+02  0.26734514218E+03  0.94335290538E+02 0.  0.
         23    2    1    2    0    0  0.34160966089E+02  0.22928463286E+03  0.13730226700E+03  0.29704764314E+03  0.12508787034E+03 0.  0.
          5    1    4    4  502    0 -0.44198261698E+02  0.12670861629E+03  0.69585755687E+02  0.15122238450E+03  0.41800000000E+01 0.  1.
         -5    1    4    4    0  502  0.78359227787E+02  0.10257601657E+03  0.67716511309E+02  0.14582525864E+03  0.41800000000E+01 0.  1.
        -11    1    3    3    0    0 -0.15948779315E+02 -0.11069390723E+03 -0.47717535649E+01  0.11193870775E+03  0.00000000000E+00 0.  1.
         11    1    3    3    0    0 -0.18212186774E+02 -0.11859072562E+03  0.98771027688E+02  0.15540643443E+03  0.00000000000E+00 0. -1.
</event>
<event>
 8    1  0.8061721E-006  0.1088333E+03  0.7561462E-02  0.1262746E+00
          2   -1    0    0  501    0  0.00000000000E+00  0.00000000000E+00  0.10239803130E+04  0.10239803130E+04  0.00000000000E+00 0. -1.
         -2   -1    0    0    0  501 -0.00000000000E+00 -0.00000000000E+00 -0.12547531201E+02  0.12547531201E+02  0.00000000000E+00 0.  1.
         23    2    1    2    0    0  0.32712110796E+02  0.19305260696E+01  0.43810785521E+03  0.44880146531E+03  0.91708523852E+02 0.  0.
         23    2    1    2    0    0 -0.32712110796E+02 -0.19305260696E+01  0.57332492657E+03  0.58772637887E+03  0.12508803247E+03 0.  0.
          5    1    4    4  502    0  0.35477927161E+02  0.30315730539E+02  0.31886900986E+03  0.32229279341E+03  0.41800000000E+01 0.  1.
         -5    1    4    4    0  502 -0.68190037957E+02 -0.32246256608E+02  0.25445591671E+03  0.26543358546E+03  0.41800000000E+01 0.  1.
        -11    1    3    3    0    0 -0.22570204829E+02 -0.25079447326E+02  0.11328705809E+03  0.11820469684E+03  0.00000000000E+00 0.  1.
         11    1    3    3    0    0  0.55282315625E+02  0.27009973396E+02  0.32482079712E+03  0.33059676847E+03  0.00000000000E+00 0. -1.
</event>
<event>
 8    1  0.8061721E-006  0.8583887E+02  0.7561462E-02  0.1313253E+00
          2   -1    0    0  501    0  0.00000000000E+00  0.00000000000E+00  0.24587980883E+03  0.24587980883E+03  0.00000000000E+00 0. -1.
         -2   -1    0    0    0  501 -0.00000000000E+00 -0.00000000000E+00 -0.81079027986E+02  0.81079027986E+02  0.00000000000E+00 0.  1.
         23    2    1    2    0    0 -0.16739596594E+02 -0.45475095661E+00 -0.17189929597E+02  0.10548212067E+03  0.10271593454E+03 0.  0.
         23    2    1    2    0    0  0.16739596594E+02  0.45475095661E+00  0.18199071044E+03  0.22147671615E+03  0.12510354198E+03 0.  0.
          5    1    4    4  502    0  0.70962057504E+02 -0.36805680229E+01  0.93195796681E+02  0.11726930163E+03  0.41800000000E+01 0.  1.
         -5    1    4    4    0  502 -0.54222460910E+02  0.41353189795E+01  0.88794913761E+02  0.10420741452E+03  0.41800000000E+01 0.  1.
        -11    1    3    3    0    0 -0.17543529282E+02 -0.19880733208E+02 -0.56063681799E+02  0.62017379736E+02  0.00000000000E+00 0.  1.
         11    1    3    3    0    0  0.80393268825E+00  0.19425982251E+02  0.38873752201E+02  0.43464740933E+02  0.00000000000E+00 0. -1.
</event>
<event>
 8    1  0.8061721E-006  0.1065849E+03  0.7561462E-02  0.1267028E+00
         -1   -1    0    0    0  501 -0.00000000000E+00  0.00000000000E+00  0.37189466194E+02  0.37189466194E+02  0.00000000000E+00 0. -1.
          1   -1    0    0  501    0  0.00000000000E+00 -0.00000000000E+00 -0.53206890717E+03  0.53206890717E+03  0.00000000000E+00 0.  1.
         23    2    1    2    0    0 -0.54102205135E+02 -0.28706451044E+02 -0.96719282623E+02  0.14743962431E+03  0.92912400973E+02 0.  0.
         23    2    1    2    0    0  0.54102205135E+02  0.28706451044E+02 -0.39816015835E+03  0.42181874905E+03  0.12509371054E+03 0.  0.
          5    1    4    4  502    0  0.76215913691E+02  0.61762800277E+02 -0.25753176097E+03  0.27561492940E+03  0.41800000000E+01 0. -1.
         -5    1    4    4    0  502 -0.22113708556E+02 -0.33056349233E+02 -0.14062839737E+03  0.14620381965E+03  0.41800000000E+01 0. -1.
        -11    1    3    3    0    0 -0.23527727880E+02 -0.36512033127E+02 -0.10599481911E+03  0.11454948372E+03  0.00000000000E+00 0.  1.
         11    1    3    3    0    0 -0.30574477255E+02  0.78055820826E+01  0.92755364882E+01  0.32890140593E+02  0.00000000000E+00 0. -1.
</event>
<event>
 8    1  0.8061721E-006  0.1883924E+03  0.7561462E-02  0.1159919E+00
         -2   -1    0    0    0  501 -0.00000000000E+00  0.00000000000E+00  0.34399167694E+02  0.34399167694E+02  0.00000000000E+00 0.  1.
          2   -1    0    0  501    0  0.00000000000E+00 -0.00000000000E+00 -0.10970325174E+04  0.10970325174E+04  0.00000000000E+00 0. -1.
         23    2    1    2    0    0  0.13235565272E+03 -0.84977275346E+02 -0.41508394096E+03  0.45341466937E+03  0.92471769913E+02 0.  0.
         23    2    1    2    0    0 -0.13235565272E+03  0.84977275346E+02 -0.64754940879E+03  0.67801701576E+03  0.12509068991E+03 0.  0.
          5    1    4    4  502    0 -0.12142517284E+03  0.11244769817E+03 -0.47793228285E+03  0.50579175242E+03  0.41800000000E+01 0. -1.
         -5    1    4    4    0  502 -0.10930479885E+02 -0.27470422828E+02 -0.16961712594E+03  0.17222526334E+03  0.41800000000E+01 0. -1.
        -11    1    3    3    0    0  0.89698505832E+02 -0.10165958585E+03 -0.33047696081E+03  0.35720514410E+03  0.00000000000E+00 0.  1.
         11    1    3    3    0    0  0.42657146893E+02  0.16682310500E+02 -0.84606980142E+02  0.96209525274E+02  0.00000000000E+00 0. -1.
</event>
<event>
 8    1  0.8061721E-006  0.1170441E+03  0.7561462E-02  0.1248055E+00
         -2   -1    0    0    0  501 -0.00000000000E+00  0.00000000000E+00  0.11465342604E+03  0.11465342604E+03  0.00000000000E+00 0.  1.
          2   -1    0    0  501    0  0.00000000000E+00 -0.00000000000E+00 -0.14190825652E+03  0.14190825652E+03  0.00000000000E+00 0. -1.
         23    2    1    2    0    0 -0.33325478980E+02  0.55724458387E+02  0.10463095040E+02  0.11285245579E+03  0.91708219963E+02 0.  0.
         23    2    1    2    0    0  0.33325478980E+02 -0.55724458387E+02 -0.37717925516E+02  0.14370922676E+03  0.12253120884E+03 0.  0.
          5    1    4    4  502    0 -0.42970794743E+02 -0.11058977114E+02 -0.32289654192E+02  0.55035300885E+02  0.41800000000E+01 0. -1.
         -5    1    4    4    0  502  0.76296273722E+02 -0.44665481273E+02 -0.54282713236E+01  0.88673925879E+02  0.41800000000E+01 0.  1.
        -11    1    3    3    0    0 -0.58760424741E+02  0.40576978045E+02 -0.15960750197E+02  0.73171197953E+02  0.00000000000E+00 0.  1.
         11    1    3    3    0    0  0.25434945762E+02  0.15147480342E+02  0.26423845236E+02  0.39681257839E+02  0.00000000000E+00 0. -1.
</event>
<event>
 8    1  0.8061721E-006  0.1620024E+03  0.7561462E-02  0.1186454E+00
         -1   -1    0    0    0  501 -0.00000000000E+00  0.00000000000E+00  0.40681854680E+03  0.40681854680E+03  0.00000000000E+00 0.  1.
          1   -1    0    0  501    0  0.00000000000E+00 -0.00000000000E+00 -0.75233499178E+02  0.75233499178E+02  0.00000000000E+00 0. -1.
         23    2    1    2    0    0 -0.11244646142E+03  0.64803716827E+02  0.22115720657E+03  0.27066344325E+03  0.86628292675E+02 0.  0.
         23    2    1    2    0    0  0.11244646142E+03 -0.64803716827E+02  0.11042784105E+03  0.21138860272E+03  0.12508838828E+03 0.  0.
          5    1    4    4  502    0  0.13316040723E+03 -0.50624251575E+02  0.59470518260E+02  0.15443032035E+03  0.41800000000E+01 0.  1.
         -5    1    4    4    0  502 -0.20713945805E+02 -0.14179465252E+02  0.50957322787E+02  0.56958282376E+02  0.41800000000E+01 0.  1.
        -11    1    3    3    0    0 -0.49260913832E+02 -0.17498976596E+02  0.74793806481E+02  0.91252207104E+02  0.00000000000E+00 0.  1.
         11    1    3    3    0    0 -0.63185547592E+02  0.82302693423E+02  0.14636340009E+03  0.17941123615E+03  0.00000000000E+00 0. -1.
</event>
<event>
 8    1  0.8061721E-006  0.1056326E+03  0.7561462E-02  0.1268878E+00
         -2   -1    0    0    0  501 -0.00000000000E+00  0.00000000000E+00  0.41324573924E+02  0.41324573924E+02  0.00000000000E+00 0.  1.
          2   -1    0    0  501    0  0.00000000000E+00 -0.00000000000E+00 -0.31405284552E+03  0.31405284552E+03  0.00000000000E+00 0. -1.
         23    2    1    2    0    0  0.67351212823E+01 -0.18988832363E+01 -0.62262440492E+02  0.11044565062E+03  0.90954178726E+02 0.  0.
         23    2    1    2    0    0 -0.67351212823E+01  0.18988832363E+01 -0.21046583110E+03  0.24493176883E+03  0.12508692059E+03 0.  0.
          5    1    4    4  502    0 -0.37265341267E+02  0.50733533425E+02 -0.77239490339E+02  0.99729676332E+02  0.41800000000E+01 0. -1.
         -5    1    4    4    0  502  0.30530219985E+02 -0.48834650189E+02 -0.13322634076E+03  0.14520209249E+03  0.41800000000E+01 0. -1.
        -11    1    3    3    0    0 -0.40285247375E+02 -0.12601662399E+02 -0.36331670365E+02  0.55692848040E+02  0.00000000000E+00 0.  1.
         11    1    3    3    0    0  0.47020368658E+02  0.10702779163E+02 -0.25930770128E+02  0.54752802576E+02  0.00000000000E+00 0. -1.
</event>
<event>
 8    1  0.8061721E-006  0.5945600E+02  0.7561462E-02  0.1400129E+00
          4   -1    0    0  501    0  0.00000000000E+00  0.00000000000E+00  0.12317137214E+03  0.12317137214E+03  0.00000000000E+00 0. -1.
         -4   -1    0    0    0  501 -0.00000000000E+00 -0.00000000000E+00 -0.12473104577E+03  0.12473104577E+03  0.00000000000E+00 0.  1.
         23    2    1    2    0    0 -0.12642268393E+02  0.41012018309E+02 -0.10037222787E+02  0.11538569266E+03  0.10663629604E+03 0.  0.
         23    2    1    2    0    0  0.12642268393E+02 -0.41012018309E+02  0.84775491533E+01  0.13251672524E+03  0.12508797318E+03 0.  0.
          5    1    4    4  502    0 -0.16509210092E+01 -0.31439353703E+02  0.65508624760E+02  0.72801173201E+02  0.41800000000E+01 0.  1.
         -5    1    4    4    0  502  0.14293189402E+02 -0.95726646057E+01 -0.57031075607E+02  0.59715552043E+02  0.41800000000E+01 0.  1.
        -11    1    3    3    0    0 -0.33617827129E+02  0.32666825662E+02 -0.50592877202E+02  0.68970421365E+02  0.00000000000E+00 0.  1.
         11    1    3    3    0    0  0.20975558736E+02  0.83451926467E+01  0.40555654415E+02  0.46415271298E+02  0.00000000000E+00 0. -1.
</event>
<event>
 8    1  0.8061721E-006  0.9936585E+02  0.7561462E-02  0.1281635E+00
         -2   -1    0    0    0  501 -0.00000000000E+00  0.00000000000E+00  0.51758623819E+02  0.51758623819E+02  0.00000000000E+00 0.  1.
          2   -1    0    0  501    0  0.00000000000E+00 -0.00000000000E+00 -0.23743628246E+03  0.23743628246E+03  0.00000000000E+00 0. -1.
         23    2    1    2    0    0  0.32140231642E+01 -0.16932745236E+02 -0.61366662636E+02  0.11200105668E+03  0.92094091056E+02 0.  0.
         23    2    1    2    0    0 -0.32140231642E+01  0.16932745236E+02 -0.12431099601E+03  0.17719384960E+03  0.12508952316E+03 0.  0.
          5    1    4    4  502    0 -0.61246026900E+02  0.63847987281E+01 -0.89050336589E+02  0.10834794097E+03  0.41800000000E+01 0.  1.
         -5    1    4    4    0  502  0.58032003736E+02  0.10547946508E+02 -0.35260659418E+02  0.68845908635E+02  0.41800000000E+01 0.  1.
        -11    1    3    3    0    0  0.18167687610E+02  0.26396451521E+02 -0.57720963820E+02  0.66019294076E+02  0.00000000000E+00 0. -1.
         11    1    3    3    0    0 -0.14953664446E+02 -0.43329196757E+02 -0.36456988166E+01  0.45981762600E+02  0.00000000000E+00 0.  1.
</event>
<event>
 8    1  0.8061721E-006  0.1262137E+03  0.7561462E-02  0.1233185E+00
          1   -1    0    0  501    0  0.00000000000E+00  0.00000000000E+00  0.25141668258E+03  0.25141668258E+03  0.00000000000E+00 0. -1.
         -1   -1    0    0    0  501 -0.00000000000E+00 -0.00000000000E+00 -0.67869814774E+02  0.67869814774E+02  0.00000000000E+00 0.  1.
         23    2    1    2    0    0 -0.36195371559E+02  0.53767629185E+02  0.45503332525E+02  0.12203849371E+03  0.92853528766E+02 0.  0.
         23    2    1    2    0    0  0.36195371559E+02 -0.53767629185E+02  0.13804353529E+03  0.19724800365E+03  0.12509873876E+03 0.  0.
          5    1    4    4  502    0 -0.26972253284E+02 -0.70116133612E+02  0.79916182875E+02  0.10976266818E+03  0.41800000000E+01 0. -1.
         -5    1    4    4    0  502  0.63167624843E+02  0.16348504426E+02  0.58127352410E+02  0.87485335477E+02  0.41800000000E+01 0. -1.
        -11    1    3    3    0    0  0.30448842617E+02  0.99022785354E+01  0.22054686525E+02  0.38879253267E+02  0.00000000000E+00 0. -1.
         11    1    3    3    0    0 -0.66644214177E+02  0.43865350650E+02  0.23448646000E+02  0.83159240438E+02  0.00000000000E+00 0.  1.
</event>
<event>
 7    1  0.8061721E-006  0.1440986E+03  0.7561462E-02  0.1207918E+00
         -1   -1    0    0    0  501 -0.00000000000E+00  0.00000000000E+00  0.12853245607E+03  0.12853245607E+03  0.00000000000E+00 0.  1.
          1   -1    0    0  501    0  0.00000000000E+00 -0.00000000000E+00 -0.38439080821E+03  0.38439080821E+03  0.00000000000E+00 0. -1.
         23    2    1    2    0    0 -0.74418029813E+02 -0.10601270868E+02  0.47535575331E+02  0.12643584035E+03  0.89866349090E+02 0.  0.
          5    1    1    2  502    0  0.60674669616E+02  0.79877532977E+02 -0.29922103676E+03  0.31561453871E+03  0.41800000000E+01 0. -1.
         -5    1    1    2    0  502  0.13743360197E+02 -0.69276262108E+02 -0.41728907122E+01  0.70872885211E+02  0.41800000000E+01 0.  1.
        -11    1    3    3    0    0 -0.82081571079E+02  0.20843207423E+02  0.36802566868E+02  0.92337709168E+02  0.00000000000E+00 0. -1.
         11    1    3    3    0    0  0.76635412655E+01 -0.31444478291E+02  0.10733008463E+02  0.34098131186E+02  0.00000000000E+00 0.  1.
</event>
<event>
 8    1  0.8061721E-006  0.8833474E+02  0.7561462E-02  0.1306935E+00
          1   -1    0    0  501    0  0.00000000000E+00  0.00000000000E+00  0.50955645647E+02  0.50955645647E+02  0.00000000000E+00 0. -1.
         -1   -1    0    0    0  501 -0.00000000000E+00 -0.00000000000E+00 -0.27456285076E+03  0.27456285076E+03  0.00000000000E+00 0.  1.
         23    2    1    2    0    0  0.44787978691E+01 -0.49640726825E+01 -0.16189252688E+03  0.18587468443E+03  0.91079670635E+02 0.  0.
         23    2    1    2    0    0 -0.44787978691E+01  0.49640726825E+01 -0.61714678237E+02  0.13964381198E+03  0.12508793334E+03 0.  0.
          5    1    4    4  502    0  0.35937218151E+02  0.27389176853E+02  0.16842282183E+02  0.48402329761E+02  0.41800000000E+01 0. -1.
         -5    1    4    4    0  502 -0.40416016020E+02 -0.22425104171E+02 -0.78556960419E+02  0.91241482224E+02  0.41800000000E+01 0. -1.
        -11    1    3    3    0    0 -0.23395692185E+02 -0.36146803248E+02 -0.11624491393E+03  0.12396301792E+03  0.00000000000E+00 0.  1.
         11    1    3    3    0    0  0.27874490054E+02  0.31182730565E+02 -0.45647612954E+02  0.61911666507E+02  0.00000000000E+00 0. -1.
</event>
<event>
 8    1  0.8061721E-006  0.7682018E+02  0.7561462E-02  0.1338325E+00
         -2   -1    0    0    0  501 -0.00000000000E+00  0.00000000000E+00  0.32608515357E+02  0.32608515357E+02  0.00000000000E+00 0.  1.
          2   -1    0    0  501    0  0.00000000000E+00 -0.00000000000E+00 -0.47262725957E+03  0.47262725957E+03  0.00000000000E+00 0. -1.
         23    2    1    2    0    0 -0.36517423838E+02 -0.45499561307E+02 -0.15180396275E+03  0.18567520073E+03  0.89594111054E+02 0.  0.
         23    2    1    2    0    0  0.36517423838E+02  0.45499561307E+02 -0.28821478146E+03  0.31956057420E+03  0.12508983974E+03 0.  0.
          5    1    4    4  502    0  0.20984041590E+02  0.22385888622E+02 -0.28971034731E+03  0.29136062834E+03  0.41800000000E+01 0.  1.
         -5    1    4    4    0  502  0.15533382249E+02  0.23113672685E+02  0.14955658468E+01  0.28199945856E+02  0.41800000000E+01 0.  1.
        -11    1    3    3    0    0 -0.75592179734E+01 -0.61137233677E+02 -0.13571602264E+03  0.14904275198E+03  0.00000000000E+00 0. -1.
         11    1    3    3    0    0 -0.28958205865E+02  0.15637672370E+02 -0.16087940116E+02  0.36632448748E+02  0.00000000000E+00 0.  1.
</event>
<event>
 8    1  0.8061721E-006  0.9315471E+02  0.7561462E-02  0.1295387E+00
          1   -1    0    0  501    0  0.00000000000E+00  0.00000000000E+00  0.69853334103E+02  0.69853334103E+02  0.00000000000E+00 0. -1.
         -1   -1    0    0    0  501 -0.00000000000E+00 -0.00000000000E+00 -0.18771405178E+03  0.18771405178E+03  0.00000000000E+00 0.  1.
         23    2    1    2    0    0 -0.33322568172E+02 -0.13833571645E+02 -0.59223158433E+02  0.11477786358E+03  0.91459358294E+02 0.  0.
         23    2    1    2    0    0  0.33322568172E+02  0.13833571645E+02 -0.58637559239E+02  0.14278952230E+03  0.12509485629E+03 0.  0.
          5    1    4    4  502    0  0.32976724263E+01  0.49519092302E+02  0.18018981067E+02  0.52963867160E+02  0.41800000000E+01 0.  1.
         -5    1    4    4    0  502  0.30024895745E+02 -0.35685520657E+02 -0.76656540306E+02  0.89825655137E+02  0.41800000000E+01 0.  1.
        -11    1    3    3    0    0  0.27286523110E+02 -0.95954923581E+01 -0.43120583625E+02  0.51923140787E+02  0.00000000000E+00 0.  1.
         11    1    3    3    0    0 -0.60609091282E+02 -0.42380792868E+01 -0.16102574808E+02  0.62854722794E+02  0.00000000000E+00 0. -1.
</event>
<event>
 7    1  0.8061721E-006  0.1970179E+03  0.7561462E-02  0.1152280E+00
         -2   -1    0    0    0  501 -0.00000000000E+00  0.00000000000E+00  0.79726010960E+02  0.79726010960E+02  0.00000000000E+00 0.  1.
          2   -1    0    0  501    0  0.00000000000E+00 -0.00000000000E+00 -0.93637047568E+03  0.93637047568E+03  0.00000000000E+00 0. -1.
         23    2    1    2    0    0 -0.94167944433E+02  0.47572729501E+02 -0.63916683516E+02  0.15304904537E+03  0.90597469643E+02 0.  0.
          5    1    1    2  502    0  0.15734546434E+03  0.29552057632E+02 -0.72492864509E+03  0.74240819778E+03  0.41800000000E+01 0. -1.
         -5    1    1    2    0  502 -0.63177519905E+02 -0.77124787133E+02 -0.67799136106E+02  0.12063924348E+03  0.41800000000E+01 0.  1.
        -11    1    3    3    0    0  0.15497346179E+02  0.85415304252E+01  0.41898674245E+01  0.18184621790E+02  0.00000000000E+00 0. -1.
         11    1    3    3    0    0 -0.10966529061E+03  0.39031199075E+02 -0.68106550941E+02  0.13486442358E+03  0.00000000000E+00 0.  1.
</event>
<event>
 8    1  0.8061721E-006  0.9516787E+02  0.7561462E-02  0.1290798E+00
         -1   -1    0    0    0  501 -0.00000000000E+00  0.00000000000E+00  0.95167982408E+02  0.95167982408E+02  0.00000000000E+00 0.  1.
          1   -1    0    0  501    0  0.00000000000E+00 -0.00000000000E+00 -0.13177402096E+03  0.13177402096E+03  0.00000000000E+00 0. -1.
         23    2    1    2    0    0 -0.16560963775E+02 -0.15407279528E+02  0.25791787305E+02  0.97036496623E+02  0.90770125046E+02 0.  0.
         23    2    1    2    0    0  0.16560963775E+02  0.15407279528E+02 -0.62397825853E+02  0.12990550674E+03  0.11167050742E+03 0.  0.
          5    1    4    4  502    0  0.50958220253E+02 -0.26050513297E+02 -0.45685435502E+02  0.73348489224E+02  0.41800000000E+01 0. -1.
         -5    1    4    4    0  502 -0.34397256478E+02  0.41457792826E+02 -0.16712390351E+02  0.56557017517E+02  0.41800000000E+01 0.  1.
        -11    1    3    3    0    0 -0.28907328029E+02  0.24033429487E+02  0.38489120165E+02  0.53801967601E+02  0.00000000000E+00 0.  1.
         11    1    3    3    0    0  0.12346364253E+02 -0.39440709016E+02 -0.12697332860E+02  0.43234529021E+02  0.00000000000E+00 0. -1.
</event>
<event>
 8    1  0.8061721E-006  0.8780840E+02  0.7561462E-02  0.1308247E+00
          1   -1    0    0  501    0  0.00000000000E+00  0.00000000000E+00  0.26225942836E+03  0.26225942836E+03  0.00000000000E+00 0. -1.
         -1   -1    0    0    0  501 -0.00000000000E+00 -0.00000000000E+00 -0.74378883741E+02  0.74378883741E+02  0.00000000000E+00 0.  1.
         23    2    1    2    0    0 -0.42655947025E+02  0.48129192793E+01 -0.63575077919E+01  0.10165767320E+03  0.91930248597E+02 0.  0.
         23    2    1    2    0    0  0.42655947025E+02 -0.48129192793E+01  0.19423805241E+03  0.23498063890E+03  0.12507911754E+03 0.  0.
          5    1    4    4  502    0 -0.41277039959E+02 -0.11562969029E+02  0.37951619037E+02  0.57404651972E+02  0.41800000000E+01 0.  1.
         -5    1    4    4    0  502  0.83932986984E+02  0.67500497500E+01  0.15628643337E+03  0.17757598692E+03  0.41800000000E+01 0.  1.
        -11    1    3    3    0    0 -0.24069989414E+02  0.13637924323E+02 -0.47891006336E+02  0.55307376163E+02  0.00000000000E+00 0.  1.
         11    1    3    3    0    0 -0.18585957612E+02 -0.88250050440E+01  0.41533498544E+02  0.46350297040E+02  0.00000000000E+00 0. -1.
</event>
<event>
 8    1  0.8061721E-006  0.1787634E+03  0.7561462E-02  0.1169005E+00
         -1   -1    0    0    0  501 -0.00000000000E+00  0.00000000000E+00  0.47411454398E+02  0.47411454398E+02  0.00000000000E+00 0.  1.
          1   -1    0    0  501    0  0.00000000000E+00 -0.00000000000E+00 -0.95936030595E+03  0.95936030595E+03  0.00000000000E+00 0. -1.
         23    2    1    2    0    0  0.33137314738E+01 -0.17794832678E+03 -0.33731581022E+03  0.39233882359E+03  0.92039170219E+02 0.  0.
         23    2    1    2    0    0 -0.33137314738E+01  0.17794832678E+03 -0.57463304133E+03  0.61443293675E+03  0.12509242086E+03 0.  0.
          5    1    4    4  502    0  0.16922338483E+01  0.11115964063E+03 -0.50735340524E+03  0.51940762371E+03  0.41800000000E+01 0.  1.
         -5    1    4    4    0  502 -0.50059653222E+01  0.66788686147E+02 -0.67279636090E+02  0.95025313041E+02  0.41800000000E+01 0.  1.
        -11    1    3    3    0    0  0.11855154627E+02 -0.83808022403E+02 -0.24893119138E+03  0.26292787481E+03  0.00000000000E+00 0. -1.
         11    1    3    3    0    0 -0.85414231531E+01 -0.94140304378E+02 -0.88384618842E+02  0.12941094879E+03  0.00000000000E+00 0.  1.
</event>
<event>
 8    1  0.8061721E-006  0.1029238E+03  0.7561462E-02  0.1274265E+00
          2   -1    0    0  501    0  0.00000000000E+00  0.00000000000E+00  0.59566550845E+03  0.59566550845E+03  0.00000000000E+00 0.  1.
         -2   -1    0    0    0  501 -0.00000000000E+00 -0.00000000000E+00 -0.23236439589E+02  0.23236439589E+02  0.00000000000E+00 0. -1.
         23    2    1    2    0    0 -0.44213180553E+02  0.24181914923E+01  0.21020415581E+03  0.23300017665E+03  0.90236590230E+02 0.  0.
         23    2    1    2    0    0  0.44213180553E+02 -0.24181914923E+01  0.36222491306E+03  0.38590177139E+03  0.12550950776E+03 0.  0.
          5    1    4    4  502    0  0.36681329011E+02 -0.59610656423E+02  0.25003885803E+03  0.25968414118E+03  0.41800000000E+01 0. -1.
         -5    1    4    4    0  502  0.75318515421E+01  0.57192464930E+02  0.11218605503E+03  0.12621763021E+03  0.41800000000E+01 0. -1.
        -11    1    3    3    0    0 -0.25388810326E+02  0.33209791108E+02  0.18324502556E+03  0.18795271030E+03  0.00000000000E+00 0.  1.
         11    1    3    3    0    0 -0.18824370228E+02 -0.30791599615E+02  0.26959130247E+02  0.45047466355E+02  0.00000000000E+00 0. -1.
</event>
<event>
 8    1  0.8061721E-006  0.1035418E+03  0.7561462E-02  0.1273020E+00
         -3   -1    0    0    0  501 -0.00000000000E+00  0.00000000000E+00  0.75124689353E+02  0.75124689353E+02  0.00000000000E+00 0.  1.
          3   -1    0    0  501    0  0.00000000000E+00 -0.00000000000E+00 -0.29827807809E+03  0.29827807809E+03  0.00000000000E+00 0. -1.
         23    2    1    2    0    0  0.49873347545E+02  0.63965403626E+01  0.10738864658E+02  0.10343933092E+03  0.89755810081E+02 0.  0.
         23    2    1    2    0    0 -0.49873347545E+02 -0.63965403626E+01 -0.23389225339E+03  0.26996343652E+03  0.12508558804E+03 0.  0.
          5    1    4    4  502    0 -0.32858655154E+02  0.58316717897E+02 -0.13073573748E+03  0.14693480275E+03  0.41800000000E+01 0.  1.
         -5    1    4    4    0  502 -0.17014692392E+02 -0.64713258260E+02 -0.10315651592E+03  0.12302863377E+03  0.41800000000E+01 0.  1.
        -11    1    3    3    0    0 -0.10215777941E+02 -0.56712315884E+01  0.35472873794E+02  0.37347687504E+02  0.00000000000E+00 0.  1.
         11    1    3    3    0    0  0.60089125487E+02  0.12067771951E+02 -0.24734009136E+02  0.66091643417E+02  0.00000000000E+00 0. -1.
</event>
<event>
 8    1  0.8061721E-006  0.7308341E+02  0.7561462E-02  0.1349911E+00
          1   -1    0    0  501    0  0.00000000000E+00  0.00000000000E+00  0.22528724072E+03  0.22528724072E+03  0.00000000000E+00 0. -1.
         -1   -1    0    0    0  501 -0.00000000000E+00 -0.00000000000E+00 -0.64463277711E+02  0.64463277711E+02  0.00000000000E+00 0.  1.
         23    2    1    2    0    0  0.12953626241E+02 -0.34573574414E+01  0.74828600499E+01  0.91405151258E+02  0.90106374517E+02 0.  0.
         23    2    1    2    0    0 -0.12953626241E+02  0.34573574414E+01  0.15334110295E+03  0.19834536717E+03  0.12509053149E+03 0.  0.
          5    1    4    4  502    0  0.24216308834E+02 -0.20517318500E+02  0.15045542275E+03  0.15382358924E+03  0.41800000000E+01 0.  1.
         -5    1    4    4    0  502 -0.37169935074E+02  0.23974675941E+02  0.28856802069E+01  0.44521777931E+02  0.41800000000E+01 0.  1.
        -11    1    3    3    0    0 -0.23301635822E+02  0.16299150545E+02 -0.25781390517E+02  0.38383702759E+02  0.00000000000E+00 0.  1.
         11    1    3    3    0    0  0.36255262063E+02 -0.19756507986E+02  0.33264250567E+02  0.53021448498E+02  0.00000000000E+00 0. -1.
</event>
<event>
 8    1  0.8061721E-006  0.2096067E+03  0.7561462E-02  0.1141878E+00
          1   -1    0    0  501    0  0.00000000000E+00  0.00000000000E+00  0.11868631404E+04  0.11868631404E+04  0.00000000000E+00 0. -1.
         -1   -1    0    0    0  501 -0.00000000000E+00 -0.00000000000E+00 -0.55446082154E+02  0.55446082154E+02  0.00000000000E+00 0.  1.
         23    2    1    2    0    0 -0.48870843791E+02  0.17521433299E+03  0.19380188654E+03  0.27905438264E+03  0.84992678417E+02 0.  0.
         23    2    1    2    0    0  0.48870843791E+02 -0.17521433299E+03  0.93761517171E+03  0.96325483992E+03  0.12509698057E+03 0.  0.
          5    1    4    4  502    0 -0.37685855491E+02 -0.23041048032E+02  0.15104311251E+03  0.15742492762E+03  0.41800000000E+01 0. -1.
         -5    1    4    4    0  502  0.86556699283E+02 -0.15217328496E+03  0.78657205919E+03  0.80582991230E+03  0.41800000000E+01 0. -1.
        -11    1    3    3    0    0 -0.29456420710E+02  0.17772605601E+03  0.18255579293E+03  0.25647777533E+03  0.00000000000E+00 0. -1.
         11    1    3    3    0    0 -0.19414423081E+02 -0.25117230161E+01  0.11246093606E+02  0.22576607307E+02  0.00000000000E+00 0.  1.
</event>
<event>
 8    1  0.8061721E-006  0.9358024E+02  0.7561462E-02  0.1294406E+00
          2   -1    0    0  501    0  0.00000000000E+00  0.00000000000E+00  0.15031514282E+03  0.15031514282E+03  0.00000000000E+00 0. -1.
         -2   -1    0    0    0  501 -0.00000000000E+00 -0.00000000000E+00 -0.80539913715E+02  0.80539913715E+02  0.00000000000E+00 0.  1.
         23    2    1    2    0    0 -0.34147509331E+01  0.13403755631E+02  0.16146483687E+02  0.92655275676E+02  0.90182980580E+02 0.  0.
         23    2    1    2    0    0  0.34147509331E+01 -0.13403755631E+02  0.53628745419E+02  0.13819978086E+03  0.12661680736E+03 0.  0.
          5    1    4    4  502    0 -0.48175910349E+02 -0.60196810871E+01  0.68295144678E+02  0.83897878906E+02  0.41800000000E+01 0. -1.
         -5    1    4    4    0  502  0.51590661282E+02 -0.73840745443E+01 -0.14666399259E+02  0.54301901952E+02  0.41800000000E+01 0.  1.
        -11    1    3    3    0    0 -0.27707736362E+02 -0.27202024910E+02 -0.78287905994E+01  0.39610084268E+02  0.00000000000E+00 0. -1.
         11    1    3    3    0    0  0.24292985429E+02  0.40605780541E+02  0.23975274286E+02  0.53045191408E+02  0.00000000000E+00 0.  1.
</event>
<event>
 8    1  0.8061721E-006  0.1083009E+03  0.7561462E-02  0.1263749E+00
         -2   -1    0    0    0  501 -0.00000000000E+00  0.00000000000E+00  0.37712991557E+02  0.37712991557E+02  0.00000000000E+00 0.  1.
          2   -1    0    0  501    0  0.00000000000E+00 -0.00000000000E+00 -0.44093389764E+03  0.44093389764E+03  0.00000000000E+00 0. -1.
         23    2    1    2    0    0  0.57831287681E+02 -0.97875923024E+01 -0.11022377985E+03  0.15471076303E+03  0.91355808540E+02 0.  0.
         23    2    1    2    0    0 -0.57831287681E+02  0.97875923024E+01 -0.29299712624E+03  0.32393612617E+03  0.12508814116E+03 0.  0.
          5    1    4    4  502    0 -0.82684797629E+02  0.51612587653E+01 -0.10314340125E+03  0.13236105157E+03  0.41800000000E+01 0. -1.
         -5    1    4    4    0  502  0.24853509948E+02  0.46263335371E+01 -0.18985372499E+03  0.19157507460E+03  0.41800000000E+01 0. -1.
        -11    1    3    3    0    0 -0.23034419982E+02 -0.14167659628E+02 -0.34533311233E+02  0.43861790523E+02  0.00000000000E+00 0. -1.
         11    1    3    3    0    0  0.80865707662E+02  0.43800673260E+01 -0.75690468617E+02  0.11084897250E+03  0.00000000000E+00 0.  1.
</event>
<event>
 8    1  0.8061721E-006  0.8720201E+02  0.7561462E-02  0.1309772E+00
         -2   -1    0    0    0  501 -0.00000000000E+00  0.00000000000E+00  0.44630601508E+02  0.44630601508E+02  0.00000000000E+00 0.  1.
          2   -1    0    0  501    0  0.00000000000E+00 -0.00000000000E+00 -0.60009071274E+03  0.60009071274E+03  0.00000000000E+00 0. -1.
         23    2    1    2    0    0  0.44305919203E+02  0.64448090156E+02 -0.76632965715E+02  0.14368250089E+03  0.93034825878E+02 0.  0.
         23    2    1    2    0    0 -0.44305919203E+02 -0.64448090156E+02 -0.47882714552E+03  0.50103881336E+03  0.12509151214E+03 0.  0.
          5    1    4    4  502    0 -0.46095030777E+02 -0.19849282078E+02 -0.53947851896E+02  0.73801009380E+02  0.41800000000E+01 0. -1.
         -5    1    4    4    0  502  0.17891115739E+01 -0.44598808078E+02 -0.42487929362E+03  0.42723780398E+03  0.41800000000E+01 0. -1.
        -11    1    3    3    0    0  0.25271987977E+02  0.25707529318E+02  0.17539114077E+02  0.40089536821E+02  0.00000000000E+00 0.  1.
         11    1    3    3    0    0  0.19033931226E+02  0.38740560837E+02 -0.94172079792E+02  0.10359296407E+03  0.00000000000E+00 0. -1.
</event>
<event>
 8    1  0.8061721E-006  0.1403227E+03  0.7561462E-02  0.1212895E+00
         -2   -1    0    0    0  501 -0.00000000000E+00  0.00000000000E+00  0.17974108803E+03  0.17974108803E+03  0.00000000000E+00 0.  1.
          2   -1    0    0  501    0  0.00000000000E+00 -0.00000000000E+00 -0.11930483783E+03  0.11930483783E+03  0.00000000000E+00 0. -1.
         23    2    1    2    0    0 -0.87325600588E+02 -0.20530363650E+02  0.69709756623E+02  0.14484610552E+03  0.89853702012E+02 0.  0.
         23    2    1    2    0    0  0.87325600588E+02  0.20530363650E+02 -0.92735064201E+01  0.15419982034E+03  0.12507729739E+03 0.  0.
          5    1    4    4  502    0 -0.31521796656E+02  0.13843277875E+02 -0.47601696266E+01  0.35005594148E+02  0.41800000000E+01 0.  1.
         -5    1    4    4    0  502  0.11884739724E+03  0.66870857748E+01 -0.45133367935E+01  0.11919422619E+03  0.41800000000E+01 0.  1.
        -11    1    3    3    0    0 -0.15829942905E+02  0.33625345938E+02  0.23218813266E+02  0.43821961062E+02  0.00000000000E+00 0. -1.
         11    1    3    3    0    0 -0.71495657683E+02 -0.54155709589E+02  0.46490943357E+02  0.10102414446E+03  0.00000000000E+00 0.  1.
</event>
<event>
 7    1  0.8061721E-006  0.1417665E+03  0.7561462E-02  0.1210972E+00
         -1   -1    0    0    0  501 -0.00000000000E+00  0.00000000000E+00  0.56755804521E+03  0.56755804521E+03  0.00000000000E+00 0.  1.
          1   -1    0    0  501    0  0.00000000000E+00 -0.00000000000E+00 -0.96346344376E+02  0.96346344376E+02  0.00000000000E+00 0. -1.
         23    2    1    2    0    0  0.48196384265E+02  0.83871710096E+02  0.41099405072E+03  0.42921543031E+03  0.77151932400E+02 0.  0.
          5    1    1    2  502    0 -0.89813523959E+02 -0.33360507578E+02 -0.48695750359E+02  0.10755529301E+03  0.41800000000E+01 0. -1.
         -5    1    1    2    0  502  0.41617139694E+02 -0.50511202519E+02  0.10891340047E+03  0.12713366626E+03  0.41800000000E+01 0.  1.
        -11    1    3    3    0    0 -0.19387982864E+02  0.96051203535E+01  0.10362340401E+03  0.10585821685E+03  0.00000000000E+00 0. -1.
         11    1    3    3    0    0  0.67584367129E+02  0.74266589743E+02  0.30737064671E+03  0.32335721346E+03  0.00000000000E+00 0.  1.
</event>
<event>
 8    1  0.9584818E-006  0.1902470E+03  0.7561462E-02  0.1158239E+00
          1   -1    0    0  501    0  0.00000000000E+00  0.00000000000E+00  0.13813481137E+04  0.13813481137E+04  0.00000000000E+00 0. -1.
         -1   -1    0    0    0  501 -0.00000000000E+00 -0.00000000000E+00 -0.33365577880E+02  0.33365577880E+02  0.00000000000E+00 0.  1.
         23    2    1    2    0    0 -0.13419494490E+03  0.10959331953E+03  0.43620672323E+03  0.47823015494E+03  0.91699491736E+02 0.  0.
         23    2    1    2    0    0  0.13419494490E+03 -0.10959331953E+03  0.91177581255E+03  0.93648353660E+03  0.12508918036E+03 0.  0.
          5    1    4    4  502    0  0.58806712537E+02 -0.10494128007E+03  0.72576683122E+03  0.73568054711E+03  0.41800000000E+01 0.  1.
         -5    1    4    4    0  502  0.75388232363E+02 -0.46520394550E+01  0.18600898133E+03  0.20080298948E+03  0.41800000000E+01 0.  1.
        -11    1    3    3    0    0 -0.82740676300E+02  0.10373663759E+03  0.37647451073E+03  0.39917460681E+03  0.00000000000E+00 0. -1.
         11    1    3    3    0    0 -0.51454268600E+02  0.58566819348E+01  0.59732212502E+02  0.79055548135E+02  0.00000000000E+00 0.  1.
</event>
<event>
 8    1  0.8061721E-006  0.1028799E+03  0.7561462E-02  0.1274354E+00
         -2   -1    0    0    0  501 -0.00000000000E+00  0.00000000000E+00  0.13619438662E+02  0.13619438662E+02  0.00000000000E+00 0.  1.
          2   -1    0    0  501    0  0.00000000000E+00 -0.00000000000E+00 -0.99723067777E+03  0.99723067777E+03  0.00000000000E+00 0. -1.
         23    2    1    2    0    0 -0.72456950683E+01 -0.16911909377E+02 -0.26688485161E+03  0.28302668790E+03  0.92401673533E+02 0.  0.
         23    2    1    2    0    0  0.72456950683E+01  0.16911909377E+02 -0.71672638750E+03  0.72782342852E+03  0.12526657894E+03 0.  0.
          5    1    4    4  502    0  0.58531230911E+02  0.31557498033E+02 -0.50796078832E+03  0.51231183428E+03  0.41800000000E+01 0. -1.
         -5    1    4    4    0  502 -0.51285535842E+02 -0.14645588656E+02 -0.20876559918E+03  0.21551159425E+03  0.41800000000E+01 0. -1.
        -11    1    3    3    0    0 -0.35568385182E+02  0.18657399225E+02 -0.67696823719E+02  0.78715109807E+02  0.00000000000E+00 0.  1.
         11    1    3    3    0    0  0.28322690114E+02 -0.35569308602E+02 -0.19918802789E+03  0.20431157810E+03  0.00000000000E+00 0. -1.
</event>
<event>
 8    1  0.8061721E-006  0.2232949E+03  0.7561462E-02  0.1131450E+00
          2   -1    0    0  501    0  0.00000000000E+00  0.00000000000E+00  0.15253337861E+04  0.15253337861E+04  0.00000000000E+00 0.  1.
         -2   -1    0    0    0  501 -0.00000000000E+00 -0.00000000000E+00 -0.36400891831E+02  0.36400891831E+02  0.00000000000E+00 0. -1.
         23    2    1    2    0    0 -0.19682886008E+03 -0.69268156440E+02  0.71633300566E+03  0.75173562914E+03  0.91835741729E+02 0.  0.
         23    2    1    2    0    0  0.19682886008E+03  0.69268156440E+02  0.77259988861E+03  0.80999904880E+03  0.12509273963E+03 0.  0.
          5    1    4    4  502    0  0.27857537218E+02 -0.29392201455E+02  0.73502846494E+02  0.84024310345E+02  0.41800000000E+01 0.  1.
         -5    1    4    4    0  502  0.16897132287E+03  0.98660357895E+02  0.69909704212E+03  0.72597473845E+03  0.41800000000E+01 0.  1.
        -11    1    3    3    0    0 -0.93284375518E+02 -0.46140785194E+02  0.50086750178E+03  0.51156544168E+03  0.00000000000E+00 0.  1.
         11    1    3    3    0    0 -0.10354448457E+03 -0.23127371246E+02  0.21546550387E+03  0.24017018746E+03  0.00000000000E+00 0. -1.
</event>
<event>
 8    1  0.8061721E-006  0.1078186E+03  0.7561462E-02  0.1264664E+00
         -2   -1    0    0    0  501 -0.00000000000E+00  0.00000000000E+00  0.28910589214E+02  0.28910589214E+02  0.00000000000E+00 0.  1.
          2   -1    0    0  501    0  0.00000000000E+00 -0.00000000000E+00 -0.49631374739E+03  0.49631374739E+03  0.00000000000E+00 0. -1.
         23    2    1    2    0    0 -0.39100476036E+02  0.23371677682E+02 -0.15839789062E+03  0.18874438650E+03  0.91975372445E+02 0.  0.
         23    2    1    2    0    0  0.39100476036E+02 -0.23371677682E+02 -0.30900526756E+03  0.33647995011E+03  0.12513759988E+03 0.  0.
          5    1    4    4  502    0 -0.34778060688E+02 -0.23279318166E+02 -0.20231416456E+03  0.20663962287E+03  0.41800000000E+01 0. -1.
         -5    1    4    4    0  502  0.73878536723E+02 -0.92359515494E-01 -0.10669110300E+03  0.12984032724E+03  0.41800000000E+01 0. -1.
        -11    1    3    3    0    0 -0.16335604052E+02 -0.34075478956E+02 -0.39004747378E+02  0.54308015466E+02  0.00000000000E+00 0.  1.
         11    1    3    3    0    0 -0.22764871984E+02  0.57447156637E+02 -0.11939314325E+03  0.13443637103E+03  0.00000000000E+00 0. -1.
</event>
<event>
 8    1  0.8061721E-006  0.1188639E+03  0.7561462E-02  0.1244983E+00
         -2   -1    0    0    0  501 -0.00000000000E+00  0.00000000000E+00  0.46570270384E+02  0.46570270384E+02  0.00000000000E+00 0.  1.
          2   -1    0    0  501    0  0.00000000000E+00 -0.00000000000E+00 -0.31572632832E+03  0.31572632832E+03  0.00000000000E+00 0. -1.
         23    2    1    2    0    0 -0.95151696984E+01  0.49094577621E+02 -0.85221544295E+02  0.13430638514E+03  0.90965254201E+02 0.  0.
         23    2    1    2    0    0  0.95151696984E+01 -0.49094577621E+02 -0.18393451364E+03  0.22799021356E+03  0.12508723422E+03 0.  0.
          5    1    4    4  502    0  0.65056703498E+02 -0.90152460122E+01 -0.97424583595E+02  0.11756985676E+03  0.41800000000E+01 0.  1.
         -5    1    4    4    0  502 -0.55541533800E+02 -0.40079331609E+02 -0.86509930048E+02  0.11042035680E+03  0.41800000000E+01 0.  1.
        -11    1    3    3    0    0 -0.63768450887E+01  0.75970705576E+02 -0.56853107176E+02  0.95102513398E+02  0.00000000000E+00 0.  1.
         11    1    3    3    0    0 -0.31383246096E+01 -0.26876127955E+02 -0.28368437119E+02  0.39203871744E+02  0.00000000000E+00 0. -1.
</event>
<event>
 8    1  0.8061721E-006  0.1194291E+03  0.7561462E-02  0.1244042E+00
          2   -1    0    0  501    0  0.00000000000E+00  0.00000000000E+00  0.15950644745E+04  0.15950644745E+04  0.00000000000E+00 0. -1.
         -2   -1    0    0    0  501 -0.00000000000E+00 -0.00000000000E+00 -0.12431376421E+02  0.12431376421E+02  0.00000000000E+00 0.  1.
         23    2    1    2    0    0 -0.12541874022E+01 -0.67599574938E+02  0.38449614167E+03  0.40095109481E+03  0.91395962477E+02 0.  0.
         23    2    1    2    0    0  0.12541874022E+01  0.67599574938E+02  0.11981369564E+04  0.12065447561E+04  0.12508719620E+03 0.  0.
          5    1    4    4  502    0  0.51146152850E+02  0.55415816388E+02  0.42246080550E+03  0.42915899879E+03  0.41800000000E+01 0. -1.
         -5    1    4    4    0  502 -0.49891965448E+02  0.12183758550E+02  0.77567615090E+03  0.77738575731E+03  0.41800000000E+01 0. -1.
        -11    1    3    3    0    0  0.38380184605E+02 -0.64288527094E+01  0.10107679776E+03  0.10830922289E+03  0.00000000000E+00 0.  1.
         11    1    3    3    0    0 -0.39634372007E+02 -0.61170722228E+02  0.28341934391E+03  0.29264187193E+03  0.00000000000E+00 0. -1.
</event>
<event>
 8    1  0.8061721E-006  0.7016390E+02  0.7561462E-02  0.1359537E+00
         -1   -1    0    0    0  501 -0.00000000000E+00  0.00000000000E+00  0.18336626736E+02  0.18336626736E+02  0.00000000000E+00 0.  1.
          1   -1    0    0  501    0  0.00000000000E+00 -0.00000000000E+00 -0.84820562158E+03  0.84820562158E+03  0.00000000000E+00 0. -1.
         23    2    1    2    0    0 -0.38353596150E+02 -0.45544840595E+01 -0.20593498198E+03  0.22902150927E+03  0.92465632759E+02 0.  0.
         23    2    1    2    0    0  0.38353596150E+02  0.45544840595E+01 -0.62393401287E+03  0.63752073905E+03  0.12508916278E+03 0.  0.
          5    1    4    4  502    0  0.10702553077E+02  0.62415207239E+01 -0.11829123042E+00  0.13076223313E+02  0.41800000000E+01 0.  1.
         -5    1    4    4    0  502  0.27651043074E+02 -0.16870366644E+01 -0.62381572164E+03  0.62444451574E+03  0.41800000000E+01 0.  1.
        -11    1    3    3    0    0 -0.36921426170E+02  0.40128748270E+02 -0.97130655195E+02  0.11139062944E+03  0.00000000000E+00 0. -1.
         11    1    3    3    0    0 -0.14321699800E+01 -0.44683232329E+02 -0.10880432678E+03  0.11763087983E+03  0.00000000000E+00 0.  1.
</event>
<event>
 7    1  0.8061721E-006  0.1260749E+03  0.7561462E-02  0.1233399E+00
         -3   -1    0    0    0  501 -0.00000000000E+00  0.00000000000E+00  0.42634906903E+03  0.42634906903E+03  0.00000000000E+00 0.  1.
          3   -1    0    0  501    0  0.00000000000E+00 -0.00000000000E+00 -0.16521891682E+03  0.16521891682E+03  0.00000000000E+00 0. -1.
         23    2    1    2    0    0 -0.87429631077E+01 -0.93371778705E+02  0.36163052795E+03  0.38502237495E+03  0.93117463458E+02 0.  0.
          5    1    1    2  502    0 -0.54880577032E+02  0.71840430094E+02 -0.10557601804E+03  0.13905643861E+03  0.41800000000E+01 0. -1.
         -5    1    1    2    0  502  0.63623540140E+02  0.21531348611E+02  0.50756423088E+01  0.67489172301E+02  0.41800000000E+01 0.  1.
        -11    1    3    3    0    0  0.23132328143E+01 -0.11005720801E+02 -0.25067816868E+01  0.11522191234E+02  0.00000000000E+00 0. -1.
         11    1    3    3    0    0 -0.11056195922E+02 -0.82366057904E+02  0.36413730964E+03  0.37350018371E+03  0.00000000000E+00 0.  1.
</event>
<event>
 8    1  0.8061721E-006  0.1289434E+03  0.7561462E-02  0.1229032E+00
         -2   -1    0    0    0  501 -0.00000000000E+00  0.00000000000E+00  0.16238427931E+03  0.16238427931E+03  0.00000000000E+00 0. -1.
          2   -1    0    0  501    0  0.00000000000E+00 -0.00000000000E+00 -0.15469912462E+03  0.15469912462E+03  0.00000000000E+00 0.  1.
         23    2    1    2    0    0 -0.64148348039E+02 -0.61490359315E+02  0.75935700321E+02  0.14915035606E+03  0.92647305870E+02 0.  0.
         23    2    1    2    0    0  0.64148348039E+02  0.61490359315E+02 -0.68250545627E+02  0.16793304787E+03  0.12508915519E+03 0.  0.
          5    1    4    4  502    0 -0.20292117640E+02 -0.24803248685E+02 -0.18871367796E+02  0.37424218177E+02  0.41800000000E+01 0.  1.
         -5    1    4    4    0  502  0.84440465680E+02  0.86293608000E+02 -0.49379177831E+02  0.13050882970E+03  0.41800000000E+01 0.  1.
        -11    1    3    3    0    0 -0.17152999408E+02  0.95136198001E+01  0.59211522101E+02  0.62375786167E+02  0.00000000000E+00 0. -1.
         11    1    3    3    0    0 -0.46995348631E+02 -0.71003979115E+02  0.16724178220E+02  0.86774569894E+02  0.00000000000E+00 0.  1.
</event>
<event>
 8    1  0.8061721E-006  0.1270113E+03  0.7561462E-02  0.1231959E+00
         -3   -1    0    0    0  501 -0.00000000000E+00  0.00000000000E+00  0.82574531642E+02  0.82574531642E+02  0.00000000000E+00 0.  1.
          3   -1    0    0  501    0  0.00000000000E+00 -0.00000000000E+00 -0.23436389972E+03  0.23436389972E+03  0.00000000000E+00 0. -1.
         23    2    1    2    0    0 -0.25214359640E+02  0.81166506784E+02 -0.90338227322E+02  0.15369771200E+03  0.90764671554E+02 0.  0.
         23    2    1    2    0    0  0.25214359640E+02 -0.81166506784E+02 -0.61451140759E+02  0.16324071937E+03  0.12509006357E+03 0.  0.
          5    1    4    4  502    0 -0.28225640780E+02  0.45557243846E+01 -0.54762125801E+02  0.61917721570E+02  0.41800000000E+01 0. -1.
         -5    1    4    4    0  502  0.53440000420E+02 -0.85722231169E+02 -0.66890149580E+01  0.10132299780E+03  0.41800000000E+01 0. -1.
        -11    1    3    3    0    0  0.20715402251E+02  0.74850007707E+02 -0.51173890997E+02  0.93007626913E+02  0.00000000000E+00 0.  1.
         11    1    3    3    0    0 -0.45929761891E+02  0.63164990769E+01 -0.39164336325E+02  0.60690085086E+02  0.00000000000E+00 0. -1.
</event>
<event>
 8    1  0.8061721E-006  0.1041576E+03  0.7561462E-02  0.1271788E+00
          1   -1    0    0  501    0  0.00000000000E+00  0.00000000000E+00  0.91845504631E+03  0.91845504631E+03  0.00000000000E+00 0. -1.
         -1   -1    0    0    0  501 -0.00000000000E+00 -0.00000000000E+00 -0.18507989970E+02  0.18507989970E+02  0.00000000000E+00 0.  1.
         23    2    1    2    0    0 -0.31651654118E+01  0.51764683368E+02  0.21613329668E+03  0.23987019164E+03  0.90191497307E+02 0.  0.
         23    2    1    2    0    0  0.31651654118E+01 -0.51764683368E+02  0.68381375966E+03  0.69709284464E+03  0.12509026915E+03 0.  0.
          5    1    4    4  502    0 -0.48811360373E+02 -0.39973238508E+02  0.18677328319E+03  0.19718554818E+03  0.41800000000E+01 0. -1.
         -5    1    4    4    0  502  0.51976525785E+02 -0.11791444860E+02  0.49704047647E+03  0.49990729646E+03  0.41800000000E+01 0. -1.
        -11    1    3    3    0    0 -0.34249651622E+02  0.49850312559E+02  0.18941294122E+03  0.19883499340E+03  0.00000000000E+00 0. -1.
         11    1    3    3    0    0  0.31084486210E+02  0.19143708086E+01  0.26720355456E+02  0.41035198236E+02  0.00000000000E+00 0.  1.
</event>
<event>
 8    1  0.8061721E-006  0.7823071E+02  0.7561462E-02  0.1334149E+00
          2   -1    0    0  501    0  0.00000000000E+00  0.00000000000E+00  0.13059904635E+03  0.13059904635E+03  0.00000000000E+00 0.  1.
         -2   -1    0    0    0  501 -0.00000000000E+00 -0.00000000000E+00 -0.86702529989E+02  0.86702529989E+02  0.00000000000E+00 0. -1.
         23    2    1    2    0    0  0.25527505552E+02 -0.22736954220E+01  0.17423448075E+02  0.86898148801E+02  0.81184287221E+02 0.  0.
         23    2    1    2    0    0 -0.25527505552E+02  0.22736954220E+01  0.26473068284E+02  0.13040342754E+03  0.12508959724E+03 0.  0.
          5    1    4    4  502    0 -0.74302948321E+01  0.37025808828E+02 -0.38706795831E+02  0.54238438807E+02  0.41800000000E+01 0. -1.
         -5    1    4    4    0  502 -0.18097210720E+02 -0.34752113406E+02  0.65179864116E+02  0.76164988730E+02  0.41800000000E+01 0. -1.
        -11    1    3    3    0    0  0.44589729390E+02  0.20741980561E+02  0.26239431720E+02  0.55740304104E+02  0.00000000000E+00 0.  1.
         11    1    3    3    0    0 -0.19062223837E+02 -0.23015675983E+02 -0.88159836443E+01  0.31157844697E+02  0.00000000000E+00 0. -1.
</event>
<event>
 8    1  0.8061721E-006  0.1264522E+03  0.7561462E-02  0.1232817E+00
          2   -1    0    0  501    0  0.00000000000E+00  0.00000000000E+00  0.54138497537E+02  0.54138497537E+02  0.00000000000E+00 0. -1.
         -2   -1    0    0    0  501 -0.00000000000E+00 -0.00000000000E+00 -0.39123603412E+03  0.39123603412E+03  0.00000000000E+00 0.  1.
         23    2    1    2    0    0 -0.87117121364E+02 -0.31639933148E+02 -0.19806072623E+03  0.23664169470E+03  0.90447565986E+02 0.  0.
         23    2    1    2    0    0  0.87117121364E+02  0.31639933148E+02 -0.13903681035E+03  0.20873283695E+03  0.12509070463E+03 0.  0.
          5    1    4    4  502    0  0.76871087407E+02  0.75692427157E+02 -0.80656887123E+02  0.13476465949E+03  0.41800000000E+01 0.  1.
         -5    1    4    4    0  502  0.10246033957E+02 -0.44052494010E+02 -0.58379923228E+02  0.73968177458E+02  0.41800000000E+01 0.  1.
        -11    1    3    3    0    0 -0.30096720883E+02  0.66683234632E+01 -0.43756546720E+01  0.31135598589E+02  0.00000000000E+00 0. -1.
         11    1    3    3    0    0 -0.57020400482E+02 -0.38308256611E+02 -0.19368507156E+03  0.20550609611E+03  0.00000000000E+00 0.  1.
</event>
<event>
 7    1  0.8061721E-006  0.8598027E+02  0.7561462E-02  0.1312889E+00
          2   -1    0    0  501    0  0.00000000000E+00  0.00000000000E+00  0.30125187257E+03  0.30125187257E+03  0.00000000000E+00 0. -1.
         -2   -1    0    0    0  501 -0.00000000000E+00 -0.00000000000E+00 -0.28272359705E+03  0.28272359705E+03  0.00000000000E+00 0.  1.
         23    2    1    2    0    0 -0.54255486265E+02 -0.17231446977E+02 -0.19805038454E+03  0.22572609971E+03  0.92128913581E+02 0.  0.
          5    1    1    2  502    0  0.55115536651E+02 -0.17747226917E+01  0.28334914069E+03  0.28869547961E+03  0.41800000000E+01 0. -1.
         -5    1    1    2    0  502 -0.86005038563E+00  0.19006169669E+02 -0.66770480627E+02  0.69553890296E+02  0.41800000000E+01 0.  1.
        -11    1    3    3    0    0  0.69368256588E+01 -0.33216530691E+02 -0.12292710719E+03  0.12752462956E+03  0.00000000000E+00 0. -1.
         11    1    3    3    0    0 -0.61192311924E+02  0.15985083714E+02 -0.75123277351E+02  0.98201470152E+02  0.00000000000E+00 0.  1.
</event>
<event>
 8    1  0.8061721E-006  0.1343095E+03  0.7561462E-02  0.1221198E+00
          2   -1    0    0  501    0  0.00000000000E+00  0.00000000000E+00  0.34780299852E+03  0.34780299852E+03  0.00000000000E+00 0. -1.
         -2   -1    0    0    0  501 -0.00000000000E+00 -0.00000000000E+00 -0.59568969142E+02  0.59568969142E+02  0.00000000000E+00 0.  1.
         23    2    1    2    0    0 -0.70405175090E+02 -0.59377590888E+02  0.10129027036E+03  0.16430925243E+03  0.90858266476E+02 0.  0.
         23    2    1    2    0    0  0.70405175090E+02  0.59377590888E+02  0.18694375902E+03  0.24306271523E+03  0.12509567346E+03 0.  0.
          5    1    4    4  502    0  0.14590225265E+02  0.89905561651E+02  0.11861721551E+03  0.14961083151E+03  0.41800000000E+01 0.  1.
         -5    1    4    4    0  502  0.55814949825E+02 -0.30527970763E+02  0.68326543507E+02  0.93451883718E+02  0.41800000000E+01 0.  1.
        -11    1    3    3    0    0 -0.57079949177E+02 -0.45483250961E+01  0.11720249992E+02  0.58448029215E+02  0.00000000000E+00 0.  1.
         11    1    3    3    0    0 -0.13325225913E+02 -0.54829265792E+02  0.89570020368E+02  0.10586122322E+03  0.00000000000E+00 0. -1.
</event>
<event>
 8    1  0.8061721E-006  0.2898916E+03  0.7561462E-02  0.1090406E+00
         -2   -1    0    0    0  501 -0.00000000000E+00  0.00000000000E+00  0.44043333469E+02  0.44043333469E+02  0.00000000000E+00 0.  1.
          2   -1    0    0  501    0  0.00000000000E+00 -0.00000000000E+00 -0.23973399694E+04  0.23973399694E+04  0.00000000000E+00 0. -1.
         23    2    1    2    0    0  0.14211261116E+03  0.24844440291E+03 -0.75112533092E+03  0.80904712680E+03  0.91909602555E+02 0.  0.
         23    2    1    2    0    0 -0.14211261116E+03 -0.24844440291E+03 -0.16021713050E+04  0.16323361761E+04  0.12509150861E+03 0.  0.
          5    1    4    4  502    0 -0.13458089124E+03 -0.23139189635E+03 -0.15822340240E+04  0.16047230930E+04  0.41800000000E+01 0. -1.
         -5    1    4    4    0  502 -0.75317199218E+01 -0.17052506556E+02 -0.19937281020E+02  0.27613083118E+02  0.41800000000E+01 0. -1.
        -11    1    3    3    0    0  0.82304364649E+02  0.82349096443E+02 -0.39122672687E+03  0.40818345623E+03  0.00000000000E+00 0. -1.
         11    1    3    3    0    0  0.59808246509E+02  0.16609530647E+03 -0.35989860405E+03  0.40086367056E+03  0.00000000000E+00 0.  1.
</event>
<event>
 8    1  0.8061721E-006  0.8740035E+02  0.7561462E-02  0.1309272E+00
          2   -1    0    0  501    0  0.00000000000E+00  0.00000000000E+00  0.49063437690E+03  0.49063437690E+03  0.00000000000E+00 0. -1.
         -2   -1    0    0    0  501 -0.00000000000E+00 -0.00000000000E+00 -0.30988953626E+02  0.30988953626E+02  0.00000000000E+00 0.  1.
         23    2    1    2    0    0  0.50719432389E+02 -0.56715408911E+01  0.13975578800E+03  0.17437472872E+03  0.90940851868E+02 0.  0.
         23    2    1    2    0    0 -0.50719432389E+02  0.56715408911E+01  0.31988963527E+03  0.34724860180E+03  0.12509030939E+03 0.  0.
          5    1    4    4  502    0 -0.34379694050E+02  0.29432582797E+02  0.26900912583E+02  0.52814503604E+02  0.41800000000E+01 0.  1.
         -5    1    4    4    0  502 -0.16339738339E+02 -0.23761041906E+02  0.29298872268E+03  0.29443409820E+03  0.41800000000E+01 0.  1.
        -11    1    3    3    0    0 -0.24614345375E+02 -0.33631067501E+01  0.16241683271E+02  0.29681117916E+02  0.00000000000E+00 0.  1.
         11    1    3    3    0    0  0.75333777764E+02 -0.23084341410E+01  0.12351410473E+03  0.14469361080E+03  0.00000000000E+00 0. -1.
</event>
<event>
 8    1  0.8061721E-006  0.1571239E+03  0.7561462E-02  0.1191983E+00
         -2   -1    0    0    0  501 -0.00000000000E+00  0.00000000000E+00  0.11671787997E+03  0.11671787997E+03  0.00000000000E+00 0. -1.
          2   -1    0    0  501    0  0.00000000000E+00 -0.00000000000E+00 -0.24128316849E+03  0.24128316849E+03  0.00000000000E+00 0.  1.
         23    2    1    2    0    0  0.12583700592E+03  0.21646117786E+02 -0.53474240465E+02  0.16563455484E+03  0.90949463376E+02 0.  0.
         23    2    1    2    0    0 -0.12583700592E+03 -0.21646117786E+02 -0.71091048052E+02  0.19236649362E+03  0.12508966496E+03 0.  0.
          5    1    4    4  502    0 -0.72474761079E+01 -0.49845223585E+02 -0.44927358408E+02  0.67624050143E+02  0.41800000000E+01 0. -1.
         -5    1    4    4    0  502 -0.11858952982E+03  0.28199105799E+02 -0.26163689644E+02  0.12474244348E+03  0.41800000000E+01 0. -1.
        -11    1    3    3    0    0  0.34467356705E+02 -0.21572937178E+02  0.15228626540E+02  0.43420057152E+02  0.00000000000E+00 0. -1.
         11    1    3    3    0    0  0.91369649217E+02  0.43219054964E+02 -0.68702867005E+02  0.12221449769E+03  0.00000000000E+00 0.  1.
</event>
<event>
 8    1  0.8061721E-006  0.1064708E+03  0.7561462E-02  0.1267249E+00
          1   -1    0    0  501    0  0.00000000000E+00  0.00000000000E+00  0.91499828855E+03  0.91499828855E+03  0.00000000000E+00 0. -1.
         -1   -1    0    0    0  501 -0.00000000000E+00 -0.00000000000E+00 -0.29193616753E+02  0.29193616753E+02  0.00000000000E+00 0.  1.
         23    2    1    2    0    0  0.68757022680E+02  0.37183085177E+02  0.14982499362E+03  0.19357548469E+03  0.94413079442E+02 0.  0.
         23    2    1    2    0    0 -0.68757022680E+02 -0.37183085177E+02  0.73597967818E+03  0.75061642061E+03  0.12509522057E+03 0.  0.
          5    1    4    4  502    0  0.20422601499E+01 -0.24572876487E+02  0.22907379451E+02  0.33914856902E+02  0.41800000000E+01 0. -1.
         -5    1    4    4    0  502 -0.70799282830E+02 -0.12610208690E+02  0.71307229873E+03  0.71670156371E+03  0.41800000000E+01 0. -1.
        -11    1    3    3    0    0  0.58626830429E+02  0.64261183706E+02  0.13621709210E+03  0.16162209366E+03  0.00000000000E+00 0. -1.
         11    1    3    3    0    0  0.10130192251E+02 -0.27078098529E+02  0.13607901520E+02  0.31953391037E+02  0.00000000000E+00 0.  1.
</event>
<event>
 8    1  0.8061721E-006  0.1738496E+03  0.7561462E-02  0.1173892E+00
         -2   -1    0    0    0  501 -0.00000000000E+00  0.00000000000E+00  0.24609624774E+02  0.24609624774E+02  0.00000000000E+00 0.  1.
          2   -1    0    0  501    0  0.00000000000E+00 -0.00000000000E+00 -0.16261980442E+04  0.16261980442E+04  0.00000000000E+00 0. -1.
         23    2    1    2    0    0  0.10863701739E+03 -0.89684773985E+02 -0.39113885326E+03  0.42578418603E+03  0.91963092110E+02 0.  0.
         23    2    1    2    0    0 -0.10863701739E+03  0.89684773985E+02 -0.12104495662E+04  0.12250234830E+04  0.12509604834E+03 0.  0.
          5    1    4    4  502    0 -0.74446479162E+02 -0.13321446808E+02 -0.37763647419E+03  0.38515778356E+03  0.41800000000E+01 0.  1.
         -5    1    4    4    0  502 -0.34190538224E+02  0.10300622079E+03 -0.83281309201E+03  0.83986569941E+03  0.41800000000E+01 0.  1.
        -11    1    3    3    0    0  0.11322461141E+03 -0.50647598508E+02 -0.24717516225E+03  0.27655117555E+03  0.00000000000E+00 0. -1.
         11    1    3    3    0    0 -0.45875940207E+01 -0.39037175477E+02 -0.14396369101E+03  0.14923301048E+03  0.00000000000E+00 0.  1.
</event>
<event>
 8    1  0.8061721E-006  0.1640445E+03  0.7561462E-02  0.1184205E+00
          2   -1    0    0  501    0  0.00000000000E+00  0.00000000000E+00  0.13296009595E+04  0.13296009595E+04  0.00000000000E+00 0. -1.
         -2   -1    0    0    0  501 -0.00000000000E+00 -0.00000000000E+00 -0.26292899548E+02  0.26292899548E+02  0.00000000000E+00 0.  1.
         23    2    1    2    0    0  0.89346033358E+02 -0.10456111344E+03  0.38484504138E+03  0.41880350735E+03  0.91514653304E+02 0.  0.
         23    2    1    2    0    0 -0.89346033358E+02  0.10456111344E+03  0.91846301858E+03  0.93709035171E+03  0.12509304796E+03 0.  0.
          5    1    4    4  502    0  0.13567657077E+01  0.93293843500E+02  0.41486345210E+03  0.42524667939E+03  0.41800000000E+01 0.  1.
         -5    1    4    4    0  502 -0.90702799066E+02  0.11267269942E+02  0.50359956649E+03  0.51184367232E+03  0.41800000000E+01 0.  1.
        -11    1    3    3    0    0  0.18061986106E+02 -0.50789902732E+02  0.54704447964E+02  0.76801212156E+02  0.00000000000E+00 0.  1.
         11    1    3    3    0    0  0.71284047252E+02 -0.53771210710E+02  0.33014059342E+03  0.34200229519E+03  0.00000000000E+00 0. -1.
</event>
<event>
 7    1  0.8061721E-006  0.1356195E+03  0.7561462E-02  0.1219348E+00
          1   -1    0    0  501    0  0.00000000000E+00  0.00000000000E+00  0.16858316998E+03  0.16858316998E+03  0.00000000000E+00 0. -1.
         -1   -1    0    0    0  501 -0.00000000000E+00 -0.00000000000E+00 -0.13994649107E+03  0.13994649107E+03  0.00000000000E+00 0.  1.
         23    2    1    2    0    0  0.85717145661E+02  0.38478528512E+01 -0.31035958416E+02  0.12895455542E+03  0.91125252362E+02 0.  0.
          5    1    1    2  502    0 -0.75551387599E+02  0.60540689842E+02  0.98141922959E+01  0.97401119424E+02  0.41800000000E+01 0. -1.
         -5    1    1    2    0  502 -0.10165758062E+02 -0.64388542693E+02  0.49858445025E+02  0.82173986197E+02  0.41800000000E+01 0.  1.
        -11    1    3    3    0    0  0.59553441555E+02 -0.29636078037E+02 -0.49203720790E+02  0.82740048719E+02  0.00000000000E+00 0.  1.
         11    1    3    3    0    0  0.26163704106E+02  0.33483930888E+02  0.18167762374E+02  0.46214506705E+02  0.00000000000E+00 0. -1.
</event>
<event>
 8    1  0.8061721E-006  0.4387113E+03  0.7561462E-02  0.1031143E+00
         -2   -1    0    0    0  501 -0.00000000000E+00  0.00000000000E+00  0.71440499003E+02  0.71440499003E+02  0.00000000000E+00 0.  1.
          2   -1    0    0  501    0  0.00000000000E+00 -0.00000000000E+00 -0.29106753741E+04  0.29106753741E+04  0.00000000000E+00 0. -1.
         23    2    1    2    0    0 -0.32401615787E+03 -0.27959273148E+03 -0.10411308799E+04  0.11295544410E+04  0.93707843449E+02 0.  0.
         23    2    1    2    0    0  0.32401615787E+03  0.27959273148E+03 -0.17981039952E+04  0.18525614322E+04  0.12508923343E+03 0.  0.
          5    1    4    4  502    0  0.19853678464E+01  0.42155178422E+02 -0.25079333662E+03  0.25435363345E+03  0.41800000000E+01 0.  1.
         -5    1    4    4    0  502  0.32203079002E+03  0.23743755306E+03 -0.15473106586E+04  0.15982077987E+04  0.41800000000E+01 0.  1.
        -11    1    3    3    0    0 -0.25940636238E+03 -0.26023973311E+03 -0.82461895915E+03  0.90278059755E+03  0.00000000000E+00 0.  1.
         11    1    3    3    0    0 -0.64609795494E+02 -0.19352998366E+02 -0.21651192077E+03  0.22677384341E+03  0.00000000000E+00 0. -1.
</event>
<event>
 8    1  0.8638740E-006  0.1779954E+03  0.7561462E-02  0.1169757E+00
          1   -1    0    0  501    0  0.00000000000E+00  0.00000000000E+00  0.44012709510E+03  0.44012709510E+03  0.00000000000E+00 0. -1.
         -1   -1    0    0    0  501 -0.00000000000E+00 -0.00000000000E+00 -0.94085541099E+02  0.94085541099E+02  0.00000000000E+00 0.  1.
         23    2    1    2    0    0  0.48604901738E+02  0.15861510099E+03  0.10628805542E+03  0.21695837117E+03  0.90843807489E+02 0.  0.
         23    2    1    2    0    0 -0.48604901738E+02 -0.15861510099E+03  0.23975349858E+03  0.31725426503E+03  0.12508933552E+03 0.  0.
          5    1    4    4  502    0 -0.47461991079E+02 -0.40548684103E+02  0.16559084005E+02  0.64718714780E+02  0.41800000000E+01 0.  1.
         -5    1    4    4    0  502 -0.11429106597E+01 -0.11806641689E+03  0.22319441457E+03  0.25253555025E+03  0.41800000000E+01 0.  1.
        -11    1    3    3    0    0  0.29918285490E+02  0.21363803419E+02 -0.77104138109E+01  0.37562832486E+02  0.00000000000E+00 0.  1.
         11    1    3    3    0    0  0.18686616248E+02  0.13725129757E+03  0.11399846923E+03  0.17939553868E+03  0.00000000000E+00 0. -1.
</event>
<event>
 8    1  0.8061721E-006  0.1185169E+03  0.7561462E-02  0.1245564E+00
          2   -1    0    0  501    0  0.00000000000E+00  0.00000000000E+00  0.63377912914E+03  0.63377912914E+03  0.00000000000E+00 0. -1.
         -2   -1    0    0    0  501 -0.00000000000E+00 -0.00000000000E+00 -0.25657699265E+02  0.25657699265E+02  0.00000000000E+00 0.  1.
         23    2    1    2    0    0 -0.55288605768E+02  0.29868666634E+02  0.20585338530E+03  0.23350642744E+03  0.90557541059E+02 0.  0.
         23    2    1    2    0    0  0.55288605768E+02 -0.29868666634E+02  0.40226804458E+03  0.42593040097E+03  0.12509260411E+03 0.  0.
          5    1    4    4  502    0  0.75243691421E+00  0.45249175821E+02  0.16411022158E+03  0.17028708495E+03  0.41800000000E+01 0.  1.
         -5    1    4    4    0  502  0.54536168854E+02 -0.75117842455E+02  0.23815782300E+03  0.25564331602E+03  0.41800000000E+01 0.  1.
        -11    1    3    3    0    0 -0.37556085565E+01 -0.23896973516E+02  0.10721800185E+03  0.10991301042E+03  0.00000000000E+00 0. -1.
         11    1    3    3    0    0 -0.51532997211E+02  0.53765640150E+02  0.98635383441E+02  0.12359341701E+03  0.00000000000E+00 0.  1.
</event>
<event>
 8    1  0.8061721E-006  0.9623624E+02  0.7561462E-02  0.1288416E+00
         -2   -1    0    0    0  501 -0.00000000000E+00  0.00000000000E+00  0.10206257048E+03  0.10206257048E+03  0.00000000000E+00 0.  1.
          2   -1    0    0  501    0  0.00000000000E+00 -0.00000000000E+00 -0.13400756526E+03  0.13400756526E+03  0.00000000000E+00 0. -1.
         23    2    1    2    0    0  0.30803104994E+02  0.26863774398E+02  0.12424097400E+02  0.97189975101E+02  0.87298564775E+02 0.  0.
         23    2    1    2    0    0 -0.30803104994E+02 -0.26863774398E+02 -0.44369092176E+02  0.13888016063E+03  0.12509432051E+03 0.  0.
          5    1    4    4  502    0 -0.18495896146E+01 -0.56095546170E+02  0.22207760399E+02  0.60504448628E+02  0.41800000000E+01 0. -1.
         -5    1    4    4    0  502 -0.28953515379E+02  0.29231771772E+02 -0.66576852574E+02  0.78375712006E+02  0.41800000000E+01 0. -1.
        -11    1    3    3    0    0  0.57085178753E+02  0.35437589498E+02  0.16652753161E+02  0.69223222769E+02  0.00000000000E+00 0. -1.
         11    1    3    3    0    0 -0.26282073759E+02 -0.85738150995E+01 -0.42286557616E+01  0.27966752332E+02  0.00000000000E+00 0.  1.
</event>
<event>
 8    1  0.8061721E-006  0.1098664E+03  0.7561462E-02  0.1260817E+00
          2   -1    0    0  501    0  0.00000000000E+00  0.00000000000E+00  0.63653385116E+02  0.63653385116E+02  0.00000000000E+00 0.  1.
         -2   -1    0    0    0  501 -0.00000000000E+00 -0.00000000000E+00 -0.26448551140E+03  0.26448551140E+03  0.00000000000E+00 0. -1.
         23    2    1    2    0    0  0.11361239894E+02  0.49574849699E+02 -0.15230244112E+03  0.18464630976E+03  0.91167333192E+02 0.  0.
         23    2    1    2    0    0 -0.11361239894E+02 -0.49574849699E+02 -0.48529685163E+02  0.14349258676E+03  0.12509295991E+03 0.  0.
          5    1    4    4  502    0 -0.67874754085E+02 -0.35154140698E+02 -0.26620900838E+02  0.81049001300E+02  0.41800000000E+01 0. -1.
         -5    1    4    4    0  502  0.56513514191E+02 -0.14420709001E+02 -0.21908784325E+02  0.62443585458E+02  0.41800000000E+01 0. -1.
        -11    1    3    3    0    0  0.38180726684E+02  0.42163731070E+02 -0.41521046927E+02  0.70424040254E+02  0.00000000000E+00 0.  1.
         11    1    3    3    0    0 -0.26819486789E+02  0.74111186294E+01 -0.11078139420E+03  0.11422226951E+03  0.00000000000E+00 0. -1.
</event>
<event>
 8    1  0.8061721E-006  0.7236921E+02  0.7561462E-02  0.1352217E+00
         -1   -1    0    0    0  501 -0.00000000000E+00  0.00000000000E+00  0.12405722926E+02  0.12405722926E+02  0.00000000000E+00 0.  1.
          1   -1    0    0  501    0  0.00000000000E+00 -0.00000000000E+00 -0.10124017554E+04  0.10124017554E+04  0.00000000000E+00 0. -1.
         23    2    1    2    0    0  0.16630242468E+02 -0.14669686052E+01 -0.24791781712E+03  0.26433375890E+03  0.90168592578E+02 0.  0.
         23    2    1    2    0    0 -0.16630242468E+02  0.14669686052E+01 -0.75207821533E+03  0.76047371940E+03  0.11144469016E+03 0.  0.
          5    1    4    4  502    0 -0.16605289853E+02 -0.28471260359E+02 -0.69578472979E+03  0.69657749815E+03  0.41800000000E+01 0. -1.
         -5    1    4    4    0  502 -0.24952614604E-01  0.29938228964E+02 -0.56293485540E+02  0.63896221252E+02  0.41800000000E+01 0.  1.
        -11    1    3    3    0    0 -0.32305351115E+02  0.52936661406E+00 -0.43830360718E+02  0.54451964707E+02  0.00000000000E+00 0.  1.
         11    1    3    3    0    0  0.48935593583E+02 -0.19963352192E+01 -0.20408745640E+03  0.20988179419E+03  0.00000000000E+00 0. -1.
</event>
<event>
 8    1  0.8061721E-006  0.1242374E+03  0.7561462E-02  0.1236266E+00
         -2   -1    0    0    0  501 -0.00000000000E+00  0.00000000000E+00  0.60032280692E+02  0.60032280692E+02  0.00000000000E+00 0. -1.
          2   -1    0    0  501    0  0.00000000000E+00 -0.00000000000E+00 -0.31590466901E+03  0.31590466901E+03  0.00000000000E+00 0.  1.
         23    2    1    2    0    0 -0.63152092693E+02 -0.33354375411E+01 -0.50303957349E+02  0.12712822005E+03  0.98141654022E+02 0.  0.
         23    2    1    2    0    0  0.63152092693E+02  0.33354375411E+01 -0.20556843097E+03  0.24880872965E+03  0.12509233463E+03 0.  0.
          5    1    4    4  502    0  0.33218044549E+00  0.55697581714E+02 -0.61379902735E+02  0.82989733174E+02  0.41800000000E+01 0. -1.
         -5    1    4    4    0  502  0.62819912248E+02 -0.52362144173E+02 -0.14418852824E+03  0.16581899648E+03  0.41800000000E+01 0. -1.
        -11    1    3    3    0    0  0.15459653280E+02 -0.24816505802E+02 -0.32492469139E+02  0.43710643904E+02  0.00000000000E+00 0. -1.
         11    1    3    3    0    0 -0.78611745973E+02  0.21481068261E+02 -0.17811488210E+02  0.83417576151E+02  0.00000000000E+00 0.  1.
</event>
<event>
 8    1  0.8061721E-006  0.1698589E+03  0.7561462E-02  0.1177995E+00
          1   -1    0    0  501    0  0.00000000000E+00  0.00000000000E+00  0.83475936131E+03  0.83475936131E+03  0.00000000000E+00 0. -1.
         -1   -1    0    0    0  501 -0.00000000000E+00 -0.00000000000E+00 -0.50698556038E+02  0.50698556038E+02  0.00000000000E+00 0.  1.
         23    2    1    2    0    0 -0.16489640963E+01 -0.16689351660E+03  0.26277798346E+03  0.32399551575E+03  0.89803455810E+02 0.  0.
         23    2    1    2    0    0  0.16489640963E+01  0.16689351660E+03  0.52128282182E+03  0.56146240160E+03  0.12509229839E+03 0.  0.
          5    1    4    4  502    0  0.18822287384E+02  0.89899084503E+02  0.11335207906E+03  0.14595304082E+03  0.41800000000E+01 0. -1.
         -5    1    4    4    0  502 -0.17173323287E+02  0.76994432094E+02  0.40793074276E+03  0.41550936078E+03  0.41800000000E+01 0. -1.
        -11    1    3    3    0    0 -0.73202829733E+01 -0.14175518386E+02 -0.40877985885E+01  0.16469425055E+02  0.00000000000E+00 0.  1.
         11    1    3    3    0    0  0.56713188771E+01 -0.15271799821E+03  0.26686578204E+03  0.30752609070E+03  0.00000000000E+00 0. -1.
</event>
<event>
 8    1  0.8061721E-006  0.1133273E+03  0.7561462E-02  0.1254529E+00
         -2   -1    0    0    0  501 -0.00000000000E+00  0.00000000000E+00  0.15470364195E+03  0.15470364195E+03  0.00000000000E+00 0.  1.
          2   -1    0    0  501    0  0.00000000000E+00 -0.00000000000E+00 -0.13352084187E+03  0.13352084187E+03  0.00000000000E+00 0. -1.
         23    2    1    2    0    0  0.80829329679E+02 -0.14401049623E+02  0.58611402730E+02  0.13398859392E+03  0.88186597651E+02 0.  0.
         23    2    1    2    0    0 -0.80829329679E+02  0.14401049623E+02 -0.37428602647E+02  0.15423588990E+03  0.12508812362E+03 0.  0.
          5    1    4    4  502    0 -0.17886647426E+02 -0.44297926169E+02  0.18620230911E+02  0.51443404030E+02  0.41800000000E+01 0. -1.
         -5    1    4    4    0  502 -0.62942682253E+02  0.58698975792E+02 -0.56048833558E+02  0.10279248587E+03  0.41800000000E+01 0. -1.
        -11    1    3    3    0    0  0.20357028407E+02  0.15004385834E+02 -0.18754626066E+02  0.31484539043E+02  0.00000000000E+00 0. -1.
         11    1    3    3    0    0  0.60472301272E+02 -0.29405435458E+02  0.77366028796E+02  0.10250405488E+03  0.00000000000E+00 0.  1.
</event>
<event>
 8    1  0.8061721E-006  0.1390450E+03  0.7561462E-02  0.1214620E+00
         -3   -1    0    0    0  501 -0.00000000000E+00  0.00000000000E+00  0.41609399059E+02  0.41609399059E+02  0.00000000000E+00 0.  1.
          3   -1    0    0  501    0  0.00000000000E+00 -0.00000000000E+00 -0.59063803043E+03  0.59063803043E+03  0.00000000000E+00 0. -1.
         23    2    1    2    0    0 -0.56721287597E+02  0.90731314115E+02 -0.21458692514E+03  0.25948883233E+03  0.99183818418E+02 0.  0.
         23    2    1    2    0    0  0.56721287597E+02 -0.90731314115E+02 -0.33444170623E+03  0.37275859716E+03  0.12509292970E+03 0.  0.
          5    1    4    4  502    0  0.57742908728E+02 -0.78183446219E+01 -0.24001723022E+03  0.24702451948E+03  0.41800000000E+01 0. -1.
         -5    1    4    4    0  502 -0.10216211311E+01 -0.82912969493E+02 -0.94424476011E+02  0.12573407768E+03  0.41800000000E+01 0. -1.
        -11    1    3    3    0    0 -0.77233406104E+02  0.52904785528E+02 -0.18478611490E+03  0.20714686484E+03  0.00000000000E+00 0. -1.
         11    1    3    3    0    0  0.20512118507E+02  0.37826528587E+02 -0.29800810236E+02  0.52341967496E+02  0.00000000000E+00 0.  1.
</event>
<event>
 8    1  0.8061721E-006  0.9430604E+02  0.7561462E-02  0.1292747E+00
         -1   -1    0    0    0  501 -0.00000000000E+00  0.00000000000E+00  0.28150963877E+02  0.28150963877E+02  0.00000000000E+00 0.  1.
          1   -1    0    0  501    0  0.00000000000E+00 -0.00000000000E+00 -0.53911806343E+03  0.53911806343E+03  0.00000000000E+00 0. -1.
         23    2    1    2    0    0 -0.41134180668E+02  0.37993639991E+02 -0.18601902548E+03  0.21460171087E+03  0.91188151469E+02 0.  0.
         23    2    1    2    0    0  0.41134180668E+02 -0.37993639991E+02 -0.32494807407E+03  0.35266731644E+03  0.12508975874E+03 0.  0.
          5    1    4    4  502    0  0.40324463009E+01  0.20541226702E+02 -0.10077101625E+01  0.21370318139E+02  0.41800000000E+01 0.  1.
         -5    1    4    4    0  502  0.37101734367E+02 -0.58534866694E+02 -0.32394036391E+03  0.33129699830E+03  0.41800000000E+01 0.  1.
        -11    1    3    3    0    0  0.23920068196E+02  0.17475183838E+02 -0.10288141450E+03  0.10706137100E+03  0.00000000000E+00 0. -1.
         11    1    3    3    0    0 -0.65054248863E+02  0.20518456153E+02 -0.83137610985E+02  0.10754033987E+03  0.00000000000E+00 0.  1.
</event>
<event>
 8    1  0.8061721E-006  0.1032972E+03  0.7561462E-02  0.1273511E+00
         -1   -1    0    0    0  501 -0.00000000000E+00  0.00000000000E+00  0.28561533773E+03  0.28561533773E+03  0.00000000000E+00 0.  1.
          1   -1    0    0  501    0  0.00000000000E+00 -0.00000000000E+00 -0.10876016102E+03  0.10876016102E+03  0.00000000000E+00 0. -1.
         23    2    1    2    0    0  0.87246042540E+01  0.90424869342E+02  0.20022564095E+03  0.23801793258E+03  0.91156202328E+02 0.  0.
         23    2    1    2    0    0 -0.87246042540E+01 -0.90424869342E+02 -0.23370464240E+02  0.15635756617E+03  0.12509490071E+03 0.  0.
          5    1    4    4  502    0 -0.22617757325E+02 -0.41298076380E-01 -0.54912589275E+02  0.59535111597E+02  0.41800000000E+01 0. -1.
         -5    1    4    4    0  502  0.13893153071E+02 -0.90383571266E+02  0.31542125035E+02  0.96822454569E+02  0.41800000000E+01 0. -1.
        -11    1    3    3    0    0  0.98089655148E+00  0.72744516936E+02  0.20550896252E+03  0.21800610216E+03  0.00000000000E+00 0.  1.
         11    1    3    3    0    0  0.77437077025E+01  0.17680352406E+02 -0.52833215696E+01  0.20011830426E+02  0.00000000000E+00 0. -1.
</event>
<event>
 8    1  0.8061721E-006  0.7315676E+02  0.7561462E-02  0.1349676E+00
         -1   -1    0    0    0  501 -0.00000000000E+00  0.00000000000E+00  0.23595749073E+03  0.23595749073E+03  0.00000000000E+00 0.  1.
          1   -1    0    0  501    0  0.00000000000E+00 -0.00000000000E+00 -0.69514262758E+02  0.69514262758E+02  0.00000000000E+00 0. -1.
         23    2    1    2    0    0 -0.10831260258E+02  0.31270200436E+02  0.14538876643E+03  0.17436593959E+03  0.90390518597E+02 0.  0.
         23    2    1    2    0    0  0.10831260258E+02 -0.31270200436E+02  0.21054461550E+02  0.13110581390E+03  0.12510116887E+03 0.  0.
          5    1    4    4  502    0  0.21755986608E+02  0.12640326525E+02  0.63805692697E+02  0.68714915619E+02  0.41800000000E+01 0. -1.
         -5    1    4    4    0  502 -0.10924726350E+02 -0.43910526961E+02 -0.42751231148E+02  0.62390898282E+02  0.41800000000E+01 0. -1.
        -11    1    3    3    0    0  0.15474276589E+02  0.43635855848E+02  0.29524290816E+02  0.54911063546E+02  0.00000000000E+00 0. -1.
         11    1    3    3    0    0 -0.26305536846E+02 -0.12365655412E+02  0.11586447561E+03  0.11945487605E+03  0.00000000000E+00 0.  1.
</event>
<event>
 8    1  0.8061721E-006  0.1063911E+03  0.7561462E-02  0.1267403E+00
         -1   -1    0    0    0  501 -0.00000000000E+00  0.00000000000E+00  0.21257455921E+03  0.21257455921E+03  0.00000000000E+00 0.  1.
          1   -1    0    0  501    0  0.00000000000E+00 -0.00000000000E+00 -0.58702373712E+02  0.58702373712E+02  0.00000000000E+00 0. -1.
         23    2    1    2    0    0  0.28501518147E+02  0.11665614526E+02  0.66940221501E+02  0.11584540537E+03  0.89390948041E+02 0.  0.
         23    2    1    2    0    0 -0.28501518147E+02 -0.11665614526E+02  0.86931964000E+02  0.15543152756E+03  0.12511342971E+03 0.  0.
          5    1    4    4  502    0  0.33246801583E+02  0.31899264083E+02  0.96468206248E+01  0.47259352648E+02  0.41800000000E+01 0. -1.
         -5    1    4    4    0  502 -0.61748319731E+02 -0.43564878609E+02  0.77285143376E+02  0.10817217491E+03  0.41800000000E+01 0. -1.
        -11    1    3    3    0    0  0.34150003258E+02 -0.32002129938E+02  0.50480975844E+02  0.68838128717E+02  0.00000000000E+00 0.  1.
         11    1    3    3    0    0 -0.56484851108E+01  0.43667744464E+02  0.16459245657E+02  0.47007276652E+02  0.00000000000E+00 0. -1.
</event>
<event>
 8    1  0.8061721E-006  0.1260412E+03  0.7561462E-02  0.1233451E+00
          2   -1    0    0  501    0  0.00000000000E+00  0.00000000000E+00  0.35578924333E+03  0.35578924333E+03  0.00000000000E+00 0. -1.
         -2   -1    0    0    0  501 -0.00000000000E+00 -0.00000000000E+00 -0.54848843053E+02  0.54848843053E+02  0.00000000000E+00 0.  1.
         23    2    1    2    0    0 -0.26974429989E+02  0.78340735459E+02  0.93426260671E+02  0.15456092559E+03  0.91080858754E+02 0.  0.
         23    2    1    2    0    0  0.26974429989E+02 -0.78340735459E+02  0.20751413960E+03  0.25607716079E+03  0.12509397842E+03 0.  0.
          5    1    4    4  502    0  0.11418047989E+02  0.27677903733E+02  0.10928568774E+02  0.32145671410E+02  0.41800000000E+01 0.  1.
         -5    1    4    4    0  502  0.15556382000E+02 -0.10601863919E+03  0.19658557083E+03  0.22393148938E+03  0.41800000000E+01 0.  1.
        -11    1    3    3    0    0  0.28344547376E+02  0.26567818795E+02  0.60611525287E+02  0.71993189671E+02  0.00000000000E+00 0. -1.
         11    1    3    3    0    0 -0.55318977366E+02  0.51772916665E+02  0.32814735384E+02  0.82567735921E+02  0.00000000000E+00 0.  1.
</event>
<event>
 8    1  0.8061721E-006  0.1886307E+03  0.7561462E-02  0.1159702E+00
         -2   -1    0    0    0  501 -0.00000000000E+00  0.00000000000E+00  0.75240672418E+02  0.75240672418E+02  0.00000000000E+00 0.  1.
          2   -1    0    0  501    0  0.00000000000E+00 -0.00000000000E+00 -0.57097579785E+03  0.57097579785E+03  0.00000000000E+00 0. -1.
         23    2    1    2    0    0 -0.20967187018E+02 -0.16331726560E+03 -0.14040434226E+03  0.23509742777E+03  0.91898144947E+02 0.  0.
         23    2    1    2    0    0  0.20967187018E+02  0.16331726560E+03 -0.35533078318E+03  0.41111904250E+03  0.12508696757E+03 0.  0.
          5    1    4    4  502    0  0.33750925587E+01 -0.18503624534E+02 -0.67450944990E+02  0.70148968279E+02  0.41800000000E+01 0.  1.
         -5    1    4    4    0  502  0.17592094459E+02  0.18182089014E+03 -0.28787983819E+03  0.34097007422E+03  0.41800000000E+01 0.  1.
        -11    1    3    3    0    0 -0.32314146448E+02 -0.39927402926E+02 -0.50844456514E+01  0.51616403910E+02  0.00000000000E+00 0.  1.
         11    1    3    3    0    0  0.11346959430E+02 -0.12338986268E+03 -0.13531989661E+03  0.18348102386E+03  0.00000000000E+00 0. -1.
</event>
<event>
 8    1  0.8061721E-006  0.1230972E+03  0.7561462E-02  0.1238073E+00
          2   -1    0    0  501    0  0.00000000000E+00  0.00000000000E+00  0.82345248658E+03  0.82345248658E+03  0.00000000000E+00 0. -1.
         -2   -1    0    0    0  501 -0.00000000000E+00 -0.00000000000E+00 -0.23598410562E+02  0.23598410562E+02  0.00000000000E+00 0.  1.
         23    2    1    2    0    0  0.42485033960E+02 -0.67201267034E+02  0.25260148487E+03  0.28008780536E+03  0.91217762243E+02 0.  0.
         23    2    1    2    0    0 -0.42485033960E+02  0.67201267034E+02  0.54725259114E+03  0.56696309178E+03  0.12506302623E+03 0.  0.
          5    1    4    4  502    0  0.28470273647E+02 -0.19691445550E+02  0.16070394105E+03  0.16444311654E+03  0.41800000000E+01 0.  1.
         -5    1    4    4    0  502 -0.70955307606E+02  0.86892712584E+02  0.38654865010E+03  0.40251997524E+03  0.41800000000E+01 0.  1.
        -11    1    3    3    0    0  0.27645270253E+02 -0.76643330111E+02  0.24918887920E+03  0.26217085753E+03  0.00000000000E+00 0. -1.
         11    1    3    3    0    0  0.14839763707E+02  0.94420630766E+01  0.34126056658E+01  0.17916947827E+02  0.00000000000E+00 0.  1.
</event>
<event>
 8    1  0.8061721E-006  0.9190212E+02  0.7561462E-02  0.1298310E+00
          2   -1    0    0  501    0  0.00000000000E+00  0.00000000000E+00  0.11777154092E+03  0.11777154092E+03  0.00000000000E+00 0. -1.
         -2   -1    0    0    0  501 -0.00000000000E+00 -0.00000000000E+00 -0.10545725689E+03  0.10545725689E+03  0.00000000000E+00 0.  1.
         23    2    1    2    0    0 -0.86062813053E+01 -0.99487414650E+01 -0.18211579761E+02  0.93799349996E+02  0.91069264231E+02 0.  0.
         23    2    1    2    0    0  0.86062813053E+01  0.99487414650E+01  0.30525863791E+02  0.12942944782E+03  0.12508840101E+03 0.  0.
          5    1    4    4  502    0 -0.40027966500E+02  0.47013207722E+02  0.28426270404E+02  0.68102900463E+02  0.41800000000E+01 0. -1.
         -5    1    4    4    0  502  0.48634247805E+02 -0.37064466257E+02  0.20995933872E+01  0.61326547358E+02  0.41800000000E+01 0. -1.
        -11    1    3    3    0    0  0.17678049587E+02 -0.24785793819E+02  0.26156962359E+02  0.40137709106E+02  0.00000000000E+00 0. -1.
         11    1    3    3    0    0 -0.26284330893E+02  0.14837052354E+02 -0.44368542120E+02  0.53661640889E+02  0.00000000000E+00 0.  1.
</event>
<event>
 8    1  0.8061721E-006  0.2505337E+03  0.7561462E-02  0.1112968E+00
          3   -1    0    0  501    0  0.00000000000E+00  0.00000000000E+00  0.13299691647E+03  0.13299691647E+03  0.00000000000E+00 0. -1.
         -3   -1    0    0    0  501 -0.00000000000E+00 -0.00000000000E+00 -0.55694569835E+03  0.55694569835E+03  0.00000000000E+00 0.  1.
         23    2    1    2    0    0  0.24172536409E+03 -0.40907370757E+02 -0.26783064717E+03  0.37492245174E+03  0.93429249296E+02 0.  0.
         23    2    1    2    0    0 -0.24172536409E+03  0.40907370757E+02 -0.15611813471E+03  0.31502016308E+03  0.12149183733E+03 0.  0.
          5    1    4    4  502    0 -0.13560343900E+03 -0.12036618570E+02 -0.25540181946E+02  0.13857469519E+03  0.41800000000E+01 0. -1.
         -5    1    4    4    0  502 -0.10612192509E+03  0.52943989326E+02 -0.13057795276E+03  0.17644546789E+03  0.41800000000E+01 0.  1.
        -11    1    3    3    0    0  0.12365083024E+03 -0.32353438012E+02 -0.20317255927E+03  0.24003200122E+03  0.00000000000E+00 0.  1.
         11    1    3    3    0    0  0.11807453385E+03 -0.85539327448E+01 -0.64658087906E+02  0.13489045052E+03  0.00000000000E+00 0. -1.
</event>
<event>
 8    1  0.8061721E-006  0.2266519E+03  0.7561462E-02  0.1129019E+00
         -1   -1    0    0    0  501 -0.00000000000E+00  0.00000000000E+00  0.39471364190E+02  0.39471364190E+02  0.00000000000E+00 0.  1.
          1   -1    0    0  501    0  0.00000000000E+00 -0.00000000000E+00 -0.13891418057E+04  0.13891418057E+04  0.00000000000E+00 0. -1.
         23    2    1    2    0    0 -0.75873648926E+02  0.18591485495E+03 -0.49172237035E+03  0.53864514507E+03  0.89591064901E+02 0.  0.
         23    2    1    2    0    0  0.75873648926E+02 -0.18591485495E+03 -0.85794807112E+03  0.88996802478E+03  0.12508816291E+03 0.  0.
          5    1    4    4  502    0  0.96540351737E+01 -0.16329743856E+03 -0.65968074929E+03  0.67967302229E+03  0.41800000000E+01 0. -1.
         -5    1    4    4    0  502  0.66219613752E+02 -0.22617416391E+02 -0.19826732183E+03  0.21029500249E+03  0.41800000000E+01 0. -1.
        -11    1    3    3    0    0 -0.81166119409E+02  0.81513506283E+02 -0.24321949313E+03  0.26905039023E+03  0.00000000000E+00 0.  1.
         11    1    3    3    0    0  0.52924704836E+01  0.10440134867E+03 -0.24850287722E+03  0.26959475483E+03  0.00000000000E+00 0. -1.
</event>
<event>
 8    1  0.8061721E-006  0.9285514E+02  0.7561462E-02  0.1296081E+00
         -1   -1    0    0    0  501 -0.00000000000E+00  0.00000000000E+00  0.86598454489E+02  0.86598454489E+02  0.00000000000E+00 0.  1.
          1   -1    0    0  501    0  0.00000000000E+00 -0.00000000000E+00 -0.14590506045E+03  0.14590506045E+03  0.00000000000E+00 0. -1.
         23    2    1    2    0    0  0.60184473872E+01  0.24003670737E+02 -0.17253104290E+01  0.92588227194E+02  0.89203168111E+02 0.  0.
         23    2    1    2    0    0 -0.60184473872E+01 -0.24003670737E+02 -0.57581295535E+02  0.13991528775E+03  0.12509310226E+03 0.  0.
          5    1    4    4  502    0 -0.62242194519E+02 -0.26575478964E+02 -0.15607127166E+02  0.69580181654E+02  0.41800000000E+01 0.  1.
         -5    1    4    4    0  502  0.56223747132E+02  0.25718082264E+01 -0.41974168369E+02  0.70335106095E+02  0.41800000000E+01 0.  1.
        -11    1    3    3    0    0 -0.24583204367E+02  0.17512133543E+02 -0.35470084379E+02  0.46573980333E+02  0.00000000000E+00 0. -1.
         11    1    3    3    0    0  0.30601651755E+02  0.64915371938E+01  0.33744773950E+02  0.46014246861E+02  0.00000000000E+00 0.  1.
</event>
<event>
 8    1  0.8061721E-006  0.1851061E+03  0.7561462E-02  0.1162951E+00
         -1   -1    0    0    0  501 -0.00000000000E+00  0.00000000000E+00  0.63043219047E+02  0.63043219047E+02  0.00000000000E+00 0.  1.
          1   -1    0    0  501    0  0.00000000000E+00 -0.00000000000E+00 -0.70728000969E+03  0.70728000969E+03  0.00000000000E+00 0. -1.
         23    2    1    2    0    0 -0.70173361219E+02 -0.14078206018E+03 -0.15100708646E+03  0.23771842111E+03  0.94673219458E+02 0.  0.
         23    2    1    2    0    0  0.70173361219E+02  0.14078206018E+03 -0.49322970419E+03  0.53260480763E+03  0.12509376851E+03 0.  0.
          5    1    4    4  502    0  0.51588223812E+02  0.15538132348E+03 -0.47507298319E+03  0.50251021112E+03  0.41800000000E+01 0. -1.
         -5    1    4    4    0  502  0.18585137407E+02 -0.14599263301E+02 -0.18156720997E+02  0.30094596504E+02  0.41800000000E+01 0. -1.
        -11    1    3    3    0    0 -0.26074673357E+02 -0.13554304609E+03 -0.12522428475E+03  0.18636772098E+03  0.00000000000E+00 0. -1.
         11    1    3    3    0    0 -0.44098687862E+02 -0.52390140908E+01 -0.25782801710E+02  0.51350700130E+02  0.00000000000E+00 0.  1.
</event>
<event>
 8    1  0.8061721E-006  0.1114745E+03  0.7561462E-02  0.1257863E+00
          2   -1    0    0  501    0  0.00000000000E+00  0.00000000000E+00  0.12712403521E+03  0.12712403521E+03  0.00000000000E+00 0. -1.
         -2   -1    0    0    0  501 -0.00000000000E+00 -0.00000000000E+00 -0.16123770790E+03  0.16123770790E+03  0.00000000000E+00 0.  1.
         23    2    1    2    0    0  0.10314299112E+02  0.73828034095E+02 -0.72176613145E+02  0.13785399342E+03  0.90759553944E+02 0.  0.
         23    2    1    2    0    0 -0.10314299112E+02 -0.73828034095E+02  0.38062940456E+02  0.15050774970E+03  0.12508729711E+03 0.  0.
          5    1    4    4  502    0  0.38580404181E+02  0.16513270614E+02  0.17511424535E+02  0.45664626160E+02  0.41800000000E+01 0. -1.
         -5    1    4    4    0  502 -0.48894703293E+02 -0.90341304709E+02  0.20551515922E+02  0.10484312354E+03  0.41800000000E+01 0. -1.
        -11    1    3    3    0    0  0.17140115209E+02  0.41042805414E+02 -0.89653064130E+02  0.10007980482E+03  0.00000000000E+00 0.  1.
         11    1    3    3    0    0 -0.68258160962E+01  0.32785228681E+02  0.17476450985E+02  0.37774188596E+02  0.00000000000E+00 0. -1.
</event>
<event>
 8    1  0.8061721E-006  0.3762600E+03  0.7561462E-02  0.1052325E+00
         -2   -1    0    0    0  501 -0.00000000000E+00  0.00000000000E+00  0.12409790339E+03  0.12409790339E+03  0.00000000000E+00 0.  1.
          2   -1    0    0  501    0  0.00000000000E+00 -0.00000000000E+00 -0.16004315538E+04  0.16004315538E+04  0.00000000000E+00 0. -1.
         23    2    1    2    0    0 -0.11165308240E+03  0.35032263071E+03 -0.29125465279E+03  0.47743194324E+03  0.88992310070E+02 0.  0.
         23    2    1    2    0    0  0.11165308240E+03 -0.35032263071E+03 -0.11850789976E+04  0.12470975139E+04  0.12509045646E+03 0.  0.
          5    1    4    4  502    0 -0.83975285137E+01 -0.92922440891E+02 -0.18184495506E+03  0.20442641362E+03  0.41800000000E+01 0. -1.
         -5    1    4    4    0  502  0.12005061091E+03 -0.25740018982E+03 -0.10032340425E+04  0.10426711003E+04  0.41800000000E+01 0. -1.
        -11    1    3    3    0    0  0.68346846759E+01  0.75361136879E+02 -0.35149021033E+02  0.83435409425E+02  0.00000000000E+00 0.  1.
         11    1    3    3    0    0 -0.11848776707E+03  0.27496149383E+03 -0.25610563176E+03  0.39399653381E+03  0.00000000000E+00 0. -1.
</event>
<event>
 7    1  0.8061721E-006  0.1766571E+03  0.7561462E-02  0.1171078E+00
          1   -1    0    0  501    0  0.00000000000E+00  0.00000000000E+00  0.61488407906E+03  0.61488407906E+03  0.00000000000E+00 0. -1.
         -1   -1    0    0    0  501 -0.00000000000E+00 -0.00000000000E+00 -0.55451882084E+02  0.55451882084E+02  0.00000000000E+00 0.  1.
         23    2    1    2    0    0 -0.73408292831E+02 -0.48816725618E+02  0.12884839013E+03  0.18087746498E+03  0.91339474185E+02 0.  0.
          5    1    1    2  502    0  0.62788664805E+02 -0.80821269456E+02  0.19893158923E+03  0.22375375665E+03  0.41800000000E+01 0. -1.
         -5    1    1    2    0  502  0.10619628026E+02  0.12963799507E+03  0.23165221762E+03  0.26570473951E+03  0.41800000000E+01 0.  1.
        -11    1    3    3    0    0 -0.24591820926E+02  0.23156096022E+02  0.13400772280E+02  0.36339278160E+02  0.00000000000E+00 0. -1.
         11    1    3    3    0    0 -0.48816471904E+02 -0.71972821641E+02  0.11544761785E+03  0.14453818682E+03  0.00000000000E+00 0.  1.
</event>
<event>
 8    1  0.8061721E-006  0.1605111E+03  0.7561462E-02  0.1188121E+00
         -1   -1    0    0    0  501 -0.00000000000E+00  0.00000000000E+00  0.17176893237E+03  0.17176893237E+03  0.00000000000E+00 0.  1.
          1   -1    0    0  501    0  0.00000000000E+00 -0.00000000000E+00 -0.18626607443E+03  0.18626607443E+03  0.00000000000E+00 0. -1.
         23    2    1    2    0    0 -0.11726833727E+03 -0.78689720341E+02 -0.26784232409E+02  0.16897199751E+03  0.88826830544E+02 0.  0.
         23    2    1    2    0    0  0.11726833727E+03  0.78689720341E+02  0.12287090343E+02  0.18906300929E+03  0.12509961582E+03 0.  0.
          5    1    4    4  502    0  0.79144385582E+01  0.63757488790E+02  0.39207962928E+02  0.75381645454E+02  0.41800000000E+01 0.  1.
         -5    1    4    4    0  502  0.10935389871E+03  0.14932231551E+02 -0.26920872585E+02  0.11368136384E+03  0.41800000000E+01 0.  1.
        -11    1    3    3    0    0 -0.63725544982E+01 -0.19444867967E+02 -0.37569992707E+02  0.42781031931E+02  0.00000000000E+00 0. -1.
         11    1    3    3    0    0 -0.11089578277E+03 -0.59244852374E+02  0.10785760298E+02  0.12619096558E+03  0.00000000000E+00 0.  1.
</event>
<event>
 8    1  0.8061721E-006  0.6980890E+02  0.7561462E-02  0.1360744E+00
          3   -1    0    0  501    0  0.00000000000E+00  0.00000000000E+00  0.73477172445E+02  0.73477172445E+02  0.00000000000E+00 0. -1.
         -3   -1    0    0    0  501 -0.00000000000E+00 -0.00000000000E+00 -0.22172132718E+03  0.22172132718E+03  0.00000000000E+00 0.  1.
         23    2    1    2    0    0 -0.16222781298E+02 -0.57939530929E+02 -0.99824771048E+02  0.14818846185E+03  0.91513209065E+02 0.  0.
         23    2    1    2    0    0  0.16222781298E+02  0.57939530929E+02 -0.48419383688E+02  0.14701003778E+03  0.12508935452E+03 0.  0.
          5    1    4    4  502    0 -0.50958493630E+01  0.16099360747E+02  0.41766942691E+02  0.45244966559E+02  0.41800000000E+01 0. -1.
         -5    1    4    4    0  502  0.21318630661E+02  0.41840170182E+02 -0.90186326380E+02  0.10176507122E+03  0.41800000000E+01 0. -1.
        -11    1    3    3    0    0  0.11713472685E+02 -0.40464809727E+02  0.97714382488E+00  0.42137407118E+02  0.00000000000E+00 0. -1.
         11    1    3    3    0    0 -0.27936253983E+02 -0.17474721202E+02 -0.10080191487E+03  0.10605105473E+03  0.00000000000E+00 0.  1.
</event>
<event>
 8    1  0.8061721E-006  0.1416041E+03  0.7561462E-02  0.1211187E+00
         -2   -1    0    0    0  501 -0.00000000000E+00  0.00000000000E+00  0.79740989535E+02  0.79740989535E+02  0.00000000000E+00 0.  1.
          2   -1    0    0  501    0  0.00000000000E+00 -0.00000000000E+00 -0.42380973458E+03  0.42380973458E+03  0.00000000000E+00 0. -1.
         23    2    1    2    0    0 -0.19195447573E+02 -0.12289251901E+03 -0.56642829862E+02  0.16630796784E+03  0.94757023789E+02 0.  0.
         23    2    1    2    0    0  0.19195447573E+02  0.12289251901E+03 -0.28742591519E+03  0.33724275628E+03  0.12509190024E+03 0.  0.
          5    1    4    4  502    0 -0.52151435019E+01  0.37194690098E+02 -0.22551402919E+03  0.22865846246E+03  0.41800000000E+01 0. -1.
         -5    1    4    4    0  502  0.24410591075E+02  0.85697828909E+02 -0.61911885999E+02  0.10858429382E+03  0.41800000000E+01 0. -1.
        -11    1    3    3    0    0  0.37424559117E+02 -0.66460075504E+02 -0.23997124611E+02  0.79958747181E+02  0.00000000000E+00 0. -1.
         11    1    3    3    0    0 -0.56620006690E+02 -0.56432443503E+02 -0.32645705251E+02  0.86349220661E+02  0.00000000000E+00 0.  1.
</event>
<event>
 8    1  0.8061721E-006  0.1088461E+03  0.7561462E-02  0.1262722E+00
          2   -1    0    0  501    0  0.00000000000E+00  0.00000000000E+00  0.45191035151E+03  0.45191035151E+03  0.00000000000E+00 0. -1.
         -2   -1    0    0    0  501 -0.00000000000E+00 -0.00000000000E+00 -0.32006804048E+02  0.32006804048E+02  0.00000000000E+00 0.  1.
         23    2    1    2    0    0 -0.78801672095E+01  0.40237489700E+01  0.83282229028E+02  0.12469720074E+03  0.92386008730E+02 0.  0.
         23    2    1    2    0    0  0.78801672095E+01 -0.40237489700E+01  0.33662131843E+03  0.35921995482E+03  0.12508707497E+03 0.  0.
          5    1    4    4  502    0 -0.40867001136E+02  0.41567831842E+02  0.15052024132E+03  0.16146768059E+03  0.41800000000E+01 0.  1.
         -5    1    4    4    0  502  0.48747168346E+02 -0.45591580811E+02  0.18610107711E+03  0.19775227423E+03  0.41800000000E+01 0.  1.
        -11    1    3    3    0    0  0.13756502020E+02  0.44445801069E+02  0.35919922193E+02  0.58778494289E+02  0.00000000000E+00 0.  1.
         11    1    3    3    0    0 -0.21636669229E+02 -0.40422052099E+02  0.47362306835E+02  0.65918706450E+02  0.00000000000E+00 0. -1.
</event>
<event>
 8    1  0.8061721E-006  0.9956551E+02  0.7561462E-02  0.1281212E+00
         -2   -1    0    0    0  501 -0.00000000000E+00  0.00000000000E+00  0.91062171160E+02  0.91062171160E+02  0.00000000000E+00 0. -1.
          2   -1    0    0  501    0  0.00000000000E+00 -0.00000000000E+00 -0.18606481218E+03  0.18606481218E+03  0.00000000000E+00 0.  1.
         23    2    1    2    0    0  0.40208975952E+02 -0.51326088276E+02 -0.83991948749E+01  0.11160385644E+03  0.90187278550E+02 0.  0.
         23    2    1    2    0    0 -0.40208975952E+02  0.51326088276E+02 -0.86603446147E+02  0.16552312690E+03  0.12508644839E+03 0.  0.
          5    1    4    4  502    0 -0.61981463903E+02  0.63691650040E+02 -0.15873599324E+02  0.90375725214E+02  0.41800000000E+01 0.  1.
         -5    1    4    4    0  502  0.21772487951E+02 -0.12365561764E+02 -0.70729846822E+02  0.75147401691E+02  0.41800000000E+01 0.  1.
        -11    1    3    3    0    0  0.19010043646E+02 -0.59187261301E+02  0.28454124078E+02  0.68367761678E+02  0.00000000000E+00 0. -1.
         11    1    3    3    0    0  0.21198932306E+02  0.78611730247E+01 -0.36853318953E+02  0.43236094760E+02  0.00000000000E+00 0.  1.
</event>
<event>
 8    1  0.8061721E-006  0.1276022E+03  0.7561462E-02  0.1231058E+00
          2   -1    0    0  501    0  0.00000000000E+00  0.00000000000E+00  0.27034033690E+03  0.27034033690E+03  0.00000000000E+00 0.  1.
         -2   -1    0    0    0  501 -0.00000000000E+00 -0.00000000000E+00 -0.74369618848E+02  0.74369618848E+02  0.00000000000E+00 0. -1.
         23    2    1    2    0    0  0.69870278386E+02  0.16979477724E+02  0.21114360984E+02  0.11806424939E+03  0.91231531171E+02 0.  0.
         23    2    1    2    0    0 -0.69870278386E+02 -0.16979477724E+02  0.17485635707E+03  0.22664570635E+03  0.12499348837E+03 0.  0.
          5    1    4    4  502    0 -0.63917339578E+02  0.44667185416E+02  0.12332317314E+03  0.14596801425E+03  0.41800000000E+01 0.  1.
         -5    1    4    4    0  502 -0.59529388080E+01 -0.61646663140E+02  0.51533183927E+02  0.80677692099E+02  0.41800000000E+01 0.  1.
        -11    1    3    3    0    0 -0.53333371484E+01 -0.27268336785E+02 -0.18227049483E+01  0.27844728936E+02  0.00000000000E+00 0.  1.
         11    1    3    3    0    0  0.75203615535E+02  0.44247814509E+02  0.22937065932E+02  0.90219520459E+02  0.00000000000E+00 0. -1.
</event>
<event>
 7    1  0.8061721E-006  0.1470951E+03  0.7561462E-02  0.1204089E+00
          1   -1    0    0  501    0  0.00000000000E+00  0.00000000000E+00  0.38818351268E+03  0.38818351268E+03  0.00000000000E+00 0. -1.
         -1   -1    0    0    0  501 -0.00000000000E+00 -0.00000000000E+00 -0.13818775340E+03  0.13818775340E+03  0.00000000000E+00 0.  1.
         23    2    1    2    0    0 -0.16655256192E+02 -0.54902290549E+02 -0.53294947914E+02  0.12084867418E+03  0.92045594739E+02 0.  0.
          5    1    1    2  502    0 -0.67167827344E+02 -0.23959736250E+02  0.27876826306E+03  0.28777561203E+03  0.41800000000E+01 0. -1.
         -5    1    1    2    0  502  0.83823083536E+02  0.78862026799E+02  0.24522444137E+02  0.11774697988E+03  0.41800000000E+01 0.  1.
        -11    1    3    3    0    0  0.10250720276E+02 -0.73928671283E+02 -0.43868177248E+02  0.86573336998E+02  0.00000000000E+00 0.  1.
         11    1    3    3    0    0 -0.26905976468E+02  0.19026380734E+02 -0.94267706662E+01  0.34275337179E+02  0.00000000000E+00 0. -1.
</event>
<event>
 8    1  0.8061721E-006  0.1632323E+03  0.7561462E-02  0.1185095E+00
         -3   -1    0    0    0  501 -0.00000000000E+00  0.00000000000E+00  0.31860810904E+03  0.31860810904E+03  0.00000000000E+00 0.  1.
          3   -1    0    0  501    0  0.00000000000E+00 -0.00000000000E+00 -0.96574360165E+02  0.96574360165E+02  0.00000000000E+00 0. -1.
         23    2    1    2    0    0  0.79492576366E+02  0.93312430459E+02  0.17903525134E+03  0.23484249060E+03  0.89839272002E+02 0.  0.
         23    2    1    2    0    0 -0.79492576366E+02 -0.93312430459E+02  0.42998497541E+02  0.18033997861E+03  0.12508939891E+03 0.  0.
          5    1    4    4  502    0 -0.11334887036E+03 -0.73707237718E+02  0.39061930410E+02  0.14079783418E+03  0.41800000000E+01 0.  1.
         -5    1    4    4    0  502  0.33856293991E+02 -0.19605192741E+02  0.39365671309E+01  0.39542144428E+02  0.41800000000E+01 0.  1.
        -11    1    3    3    0    0 -0.20060555914E+02  0.12627348244E+02  0.31583410760E+02  0.39489082826E+02  0.00000000000E+00 0. -1.
         11    1    3    3    0    0  0.99553132279E+02  0.80685082215E+02  0.14745184058E+03  0.19535340777E+03  0.00000000000E+00 0.  1.
</event>
<event>
 8    1  0.8061721E-006  0.1209353E+03  0.7561462E-02  0.1241562E+00
         -2   -1    0    0    0  501 -0.00000000000E+00  0.00000000000E+00  0.38307165357E+02  0.38307165357E+02  0.00000000000E+00 0.  1.
          2   -1    0    0  501    0  0.00000000000E+00 -0.00000000000E+00 -0.48958086800E+03  0.48958086800E+03  0.00000000000E+00 0. -1.
         23    2    1    2    0    0  0.70481687220E+02  0.27988112578E+02 -0.13714585846E+03  0.18136764968E+03  0.91292032392E+02 0.  0.
         23    2    1    2    0    0 -0.70481687220E+02 -0.27988112578E+02 -0.31412784419E+03  0.34652038368E+03  0.12509624749E+03 0.  0.
          5    1    4    4  502    0 -0.75138377364E+02  0.32128333818E+02 -0.21930034756E+03  0.23406862333E+03  0.41800000000E+01 0. -1.
         -5    1    4    4    0  502  0.46566901436E+01 -0.60116446396E+02 -0.94827496626E+02  0.11245176035E+03  0.41800000000E+01 0. -1.
        -11    1    3    3    0    0  0.52855681742E+01 -0.18688094996E+02 -0.81465442055E+02  0.83748435058E+02  0.00000000000E+00 0.  1.
         11    1    3    3    0    0  0.65196119046E+02  0.46676207574E+02 -0.55680416406E+02  0.97619214621E+02  0.00000000000E+00 0. -1.
</event>
<event>
 7    1  0.8061721E-006  0.7525800E+02  0.7561462E-02  0.1343074E+00
          2   -1    0    0  501    0  0.00000000000E+00  0.00000000000E+00  0.25263161523E+04  0.25263161523E+04  0.00000000000E+00 0. -1.
         -2   -1    0    0    0  501 -0.00000000000E+00 -0.00000000000E+00 -0.47366655863E+01  0.47366655863E+01  0.00000000000E+00 0.  1.
         23    2    1    2    0    0 -0.13080117048E+02 -0.37796753629E+02  0.22512847460E+04  0.22546839997E+04  0.11712065048E+03 0.  0.
          5    1    3    3  502    0 -0.19146773595E+02  0.24517032712E+02  0.16166773500E+04  0.16169820068E+04  0.41800000000E+01 0. -1.
         -5    1    3    3    0  502  0.60666565468E+01 -0.62313786341E+02  0.63460739605E+03  0.63770199295E+03  0.41800000000E+01 0.  1.
        -11    1    1    2    0    0 -0.47457989676E+01  0.38255934899E+02  0.20932228638E+03  0.21284233305E+03  0.00000000000E+00 0. -1.
         11    1    1    2    0    0  0.17825916015E+02 -0.45918126991E+00  0.60972454271E+02  0.63526485099E+02  0.00000000000E+00 0.  1.
</event>
<event>
 8    1  0.8061721E-006  0.9471028E+02  0.7561462E-02  0.1291830E+00
          1   -1    0    0  501    0  0.00000000000E+00  0.00000000000E+00  0.34027046692E+03  0.34027046692E+03  0.00000000000E+00 0. -1.
         -1   -1    0    0    0  501 -0.00000000000E+00 -0.00000000000E+00 -0.56692880397E+02  0.56692880397E+02  0.00000000000E+00 0.  1.
         23    2    1    2    0    0 -0.12067991508E+02  0.22690054520E+02  0.76589603145E+01  0.92924970133E+02  0.88971430291E+02 0.  0.
         23    2    1    2    0    0  0.12067991508E+02 -0.22690054520E+02  0.27591862621E+03  0.30403837719E+03  0.12509105291E+03 0.  0.
          5    1    4    4  502    0  0.48999596285E+02 -0.39195658450E+02  0.69819918725E+02  0.93965703999E+02  0.41800000000E+01 0.  1.
         -5    1    4    4    0  502 -0.36931604777E+02  0.16505603930E+02  0.20609870749E+03  0.21007267319E+03  0.41800000000E+01 0.  1.
        -11    1    3    3    0    0 -0.73663115544E+01 -0.31054648492E+02 -0.13919526753E+02  0.34819634747E+02  0.00000000000E+00 0.  1.
         11    1    3    3    0    0 -0.47016799534E+01  0.53744703012E+02  0.21578487067E+02  0.58105335386E+02  0.00000000000E+00 0. -1.
</event>
<event>
 8    1  0.8061721E-006  0.5196211E+02  0.7561462E-02  0.1435037E+00
         -1   -1    0    0    0  501 -0.00000000000E+00  0.00000000000E+00  0.24070404305E+03  0.24070404305E+03  0.00000000000E+00 0.  1.
          1   -1    0    0  501    0  0.00000000000E+00 -0.00000000000E+00 -0.59208739173E+02  0.59208739173E+02  0.00000000000E+00 0. -1.
         23    2    1    2    0    0  0.18338443682E+02  0.17668458623E+02  0.13433131359E+03  0.16381083306E+03  0.90225352690E+02 0.  0.
         23    2    1    2    0    0 -0.18338443682E+02 -0.17668458623E+02  0.47163990284E+02  0.13610194917E+03  0.12510325991E+03 0.  0.
          5    1    4    4  502    0 -0.54802337659E+01 -0.21080591629E+02 -0.41121902443E+02  0.46721596357E+02  0.41800000000E+01 0.  1.
         -5    1    4    4    0  502 -0.12858209916E+02  0.34121330064E+01  0.88285892728E+02  0.89380352811E+02  0.41800000000E+01 0.  1.
        -11    1    3    3    0    0 -0.16287071191E+02  0.27363459817E+02  0.12154614015E+03  0.12564828612E+03  0.00000000000E+00 0.  1.
         11    1    3    3    0    0  0.34625514873E+02 -0.96950011943E+01  0.12785173447E+02  0.38162546933E+02  0.00000000000E+00 0. -1.
</event>
<event>
 8    1  0.8061721E-006  0.8099534E+02  0.7561462E-02  0.1326250E+00
          1   -1    0    0  501    0  0.00000000000E+00  0.00000000000E+00  0.39688784682E+03  0.39688784682E+03  0.00000000000E+00 0. -1.
         -1   -1    0    0    0  501 -0.00000000000E+00 -0.00000000000E+00 -0.50726974614E+02  0.50726974614E+02  0.00000000000E+00 0.  1.
         23    2    1    2    0    0  0.19790567267E+02  0.76076992463E+02  0.12759531788E+03  0.18380128949E+03  0.10640946170E+03 0.  0.
         23    2    1    2    0    0 -0.19790567267E+02 -0.76076992463E+02  0.21856555433E+03  0.26381353195E+03  0.12508917924E+03 0.  0.
          5    1    4    4  502    0 -0.57248683857E+00 -0.50995003057E+02  0.91433765378E+01  0.51979725014E+02  0.41800000000E+01 0.  1.
         -5    1    4    4    0  502 -0.19218080428E+02 -0.25081989406E+02  0.20942217779E+03  0.21183380693E+03  0.41800000000E+01 0.  1.
        -11    1    3    3    0    0  0.56790476517E+01  0.36311515687E+02  0.13591262661E+03  0.14079424642E+03  0.00000000000E+00 0. -1.
         11    1    3    3    0    0  0.14111519615E+02  0.39765476775E+02 -0.83173087311E+01  0.43007043069E+02  0.00000000000E+00 0.  1.
</event>
<event>
 8    1  0.8061721E-006  0.2154682E+03  0.7561462E-02  0.1137308E+00
         -2   -1    0    0    0  501 -0.00000000000E+00  0.00000000000E+00  0.35341383935E+02  0.35341383935E+02  0.00000000000E+00 0.  1.
          2   -1    0    0  501    0  0.00000000000E+00 -0.00000000000E+00 -0.14393192095E+04  0.14393192095E+04  0.00000000000E+00 0. -1.
         23    2    1    2    0    0  0.43555498057E+02 -0.18797709654E+03 -0.53212165325E+03  0.57298820787E+03  0.89048089654E+02 0.  0.
         23    2    1    2    0    0 -0.43555498057E+02  0.18797709654E+03 -0.87185617235E+03  0.90167238560E+03  0.12508970961E+03 0.  0.
          5    1    4    4  502    0 -0.86803535824E+02  0.14344086427E+03 -0.63018333797E+03  0.65211858372E+03  0.41800000000E+01 0. -1.
         -5    1    4    4    0  502  0.43248037767E+02  0.44536232265E+02 -0.24167283438E+03  0.24955380188E+03  0.41800000000E+01 0. -1.
        -11    1    3    3    0    0  0.79164605127E+01 -0.14480596554E+03 -0.28704972979E+03  0.32160377078E+03  0.00000000000E+00 0.  1.
         11    1    3    3    0    0  0.35639037544E+02 -0.43171131001E+02 -0.24507192345E+03  0.25138443710E+03  0.00000000000E+00 0. -1.
</event>
<event>
 8    1  0.8061721E-006  0.1241753E+03  0.7561462E-02  0.1236364E+00
         -1   -1    0    0    0  501 -0.00000000000E+00  0.00000000000E+00  0.15610224488E+03  0.15610224488E+03  0.00000000000E+00 0. -1.
          1   -1    0    0  501    0  0.00000000000E+00 -0.00000000000E+00 -0.10772151898E+03  0.10772151898E+03  0.00000000000E+00 0.  1.
         23    2    1    2    0    0 -0.44095947705E+02 -0.52322779259E+02  0.37739131821E+02  0.12084298714E+03  0.92177327125E+02 0.  0.
         23    2    1    2    0    0  0.44095947705E+02  0.52322779259E+02  0.10641594082E+02  0.14298077673E+03  0.12509249840E+03 0.  0.
          5    1    4    4  502    0  0.61431191432E+02  0.84984809472E+02  0.12696397778E+02  0.10571130516E+03  0.41800000000E+01 0.  1.
         -5    1    4    4    0  502 -0.17335243726E+02 -0.32662030214E+02 -0.20548036957E+01  0.37269471568E+02  0.41800000000E+01 0.  1.
        -11    1    3    3    0    0 -0.19338574166E+02 -0.72009559993E+02  0.41078546492E+01  0.74674169905E+02  0.00000000000E+00 0.  1.
         11    1    3    3    0    0 -0.24757373540E+02  0.19686780735E+02  0.33631277172E+02  0.46168817231E+02  0.00000000000E+00 0. -1.
</event>
<event>
 8    1  0.8061721E-006  0.1083323E+03  0.7561462E-02  0.1263690E+00
          1   -1    0    0  501    0  0.00000000000E+00  0.00000000000E+00  0.24018174905E+03  0.24018174905E+03  0.00000000000E+00 0. -1.
         -1   -1    0    0    0  501 -0.00000000000E+00 -0.00000000000E+00 -0.85826527343E+02  0.85826527343E+02  0.00000000000E+00 0.  1.
         23    2    1    2    0    0  0.26219000656E+01 -0.50136377208E+02 -0.16688218804E+02  0.10823899705E+03  0.94428031628E+02 0.  0.
         23    2    1    2    0    0 -0.26219000656E+01  0.50136377208E+02  0.17104344051E+03  0.21776927933E+03  0.12508824806E+03 0.  0.
          5    1    4    4  502    0  0.57065479075E+02  0.45408202804E+02  0.76422153618E+02  0.10571750918E+03  0.41800000000E+01 0. -1.
         -5    1    4    4    0  502 -0.59687379141E+02  0.47281744038E+01  0.94621286889E+02  0.11205177015E+03  0.41800000000E+01 0. -1.
        -11    1    3    3    0    0 -0.32082295012E+02 -0.26463060163E+02  0.25433882825E+02  0.48748842058E+02  0.00000000000E+00 0. -1.
         11    1    3    3    0    0  0.34704195078E+02 -0.23673317045E+02 -0.42122101629E+02  0.59490154997E+02  0.00000000000E+00 0.  1.
</event>
<event>
 8    1  0.8061721E-006  0.7807516E+02  0.7561462E-02  0.1334604E+00
          4   -1    0    0  501    0  0.00000000000E+00  0.00000000000E+00  0.68557129853E+02  0.68557129853E+02  0.00000000000E+00 0. -1.
         -4   -1    0    0    0  501 -0.00000000000E+00 -0.00000000000E+00 -0.20908180509E+03  0.20908180509E+03  0.00000000000E+00 0.  1.
         23    2    1    2    0    0  0.26898822577E+02  0.41644208259E+02 -0.44259859333E+02  0.11218327474E+03  0.90379008882E+02 0.  0.
         23    2    1    2    0    0 -0.26898822577E+02 -0.41644208259E+02 -0.96264815901E+02  0.16545566020E+03  0.12510345308E+03 0.  0.
          5    1    4    4  502    0 -0.22459534590E+02 -0.46135492227E+02  0.15242892968E+02  0.53691084205E+02  0.41800000000E+01 0. -1.
         -5    1    4    4    0  502 -0.44392879868E+01  0.44912839683E+01 -0.11150770887E+03  0.11176457599E+03  0.41800000000E+01 0. -1.
        -11    1    3    3    0    0 -0.21491353998E+02 -0.12191273865E+02  0.42138341215E+01  0.25065152166E+02  0.00000000000E+00 0. -1.
         11    1    3    3    0    0  0.48390176574E+02  0.53835482123E+02 -0.48473693454E+02  0.87118122578E+02  0.00000000000E+00 0.  1.
</event>
<event>
 8    1  0.8061721E-006  0.7474677E+02  0.7561462E-02  0.1344657E+00
          2   -1    0    0  501    0  0.00000000000E+00  0.00000000000E+00  0.33293026328E+02  0.33293026328E+02  0.00000000000E+00 0.  1.
         -2   -1    0    0    0  501 -0.00000000000E+00 -0.00000000000E+00 -0.37630097257E+03  0.37630097257E+03  0.00000000000E+00 0. -1.
         23    2    1    2    0    0 -0.66774853448E-01  0.14779310375E+02 -0.19147953787E+03  0.21254682577E+03  0.91067597138E+02 0.  0.
         23    2    1    2    0    0  0.66774853448E-01 -0.14779310375E+02 -0.15152840837E+03  0.19704717313E+03  0.12509315497E+03 0.  0.
          5    1    4    4  502    0  0.24119363464E+02 -0.44724490099E+02 -0.12149995102E+02  0.52412961083E+02  0.41800000000E+01 0. -1.
         -5    1    4    4    0  502 -0.24052588611E+02  0.29945179724E+02 -0.13937841327E+03  0.14463421204E+03  0.41800000000E+01 0. -1.
        -11    1    3    3    0    0 -0.29037889366E+02  0.79773543884E+01 -0.17683316724E+03  0.17937894592E+03  0.00000000000E+00 0. -1.
         11    1    3    3    0    0  0.28971114513E+02  0.68019559870E+01 -0.14646370628E+02  0.33167879853E+02  0.00000000000E+00 0.  1.
</event>
<event>
 7    1  0.8061721E-006  0.3850143E+03  0.7561462E-02  0.1049096E+00
         -2   -1    0    0    0  501 -0.00000000000E+00  0.00000000000E+00  0.11857181823E+03  0.11857181823E+03  0.00000000000E+00 0.  1.
          2   -1    0    0  501    0  0.00000000000E+00 -0.00000000000E+00 -0.15728017307E+04  0.15728017307E+04  0.00000000000E+00 0. -1.
         23    2    1    2    0    0  0.34677553215E+03 -0.52780389782E+02 -0.46862762579E+03  0.59239490795E+03  0.90999099235E+02 0.  0.
          5    1    1    2  502    0 -0.35730578210E+03  0.95203135332E+02 -0.98806701324E+03  0.10549999782E+04  0.41800000000E+01 0. -1.
         -5    1    1    2    0  502  0.10530249950E+02 -0.42422745550E+02  0.24647265848E+01  0.43978662794E+02  0.41800000000E+01 0.  1.
        -11    1    3    3    0    0  0.78184985030E+02  0.14303261568E+02 -0.15406474056E+03  0.17335922087E+03  0.00000000000E+00 0. -1.
         11    1    3    3    0    0  0.26859054712E+03 -0.67083651350E+02 -0.31456288523E+03  0.41903568708E+03  0.00000000000E+00 0.  1.
</event>
<event>
 8    1  0.1712008E-005  0.1811462E+03  0.7561462E-02  0.1166698E+00
          1   -1    0    0  501    0  0.00000000000E+00  0.00000000000E+00  0.84417664654E+03  0.84417664654E+03  0.00000000000E+00 0. -1.
         -1   -1    0    0    0  501 -0.00000000000E+00 -0.00000000000E+00 -0.68473019822E+02  0.68473019822E+02  0.00000000000E+00 0.  1.
         23    2    1    2    0    0  0.87755704877E+02 -0.13366913642E+03  0.97228691101E+02  0.20445169516E+03  0.82332104998E+02 0.  0.
         23    2    1    2    0    0 -0.87755704877E+02  0.13366913642E+03  0.67847493562E+03  0.70819797120E+03  0.12509047277E+03 0.  0.
          5    1    4    4  502    0 -0.11562753820E+03  0.76664464018E+02  0.49039037088E+03  0.50965415321E+03  0.41800000000E+01 0.  1.
         -5    1    4    4    0  502  0.27871833325E+02  0.57004672399E+02  0.18808456474E+03  0.19854381799E+03  0.41800000000E+01 0.  1.
        -11    1    3    3    0    0  0.21892003162E+02 -0.34063202288E+02  0.71695844983E+02  0.82339879405E+02  0.00000000000E+00 0. -1.
         11    1    3    3    0    0  0.65863701714E+02 -0.99605934129E+02  0.25532846118E+02  0.12211181576E+03  0.00000000000E+00 0.  1.
</event>
<event>
 8    1  0.8061721E-006  0.1082839E+03  0.7561462E-02  0.1263781E+00
          3   -1    0    0  501    0  0.00000000000E+00  0.00000000000E+00  0.15077183684E+03  0.15077183684E+03  0.00000000000E+00 0. -1.
         -3   -1    0    0    0  501 -0.00000000000E+00 -0.00000000000E+00 -0.94936200359E+02  0.94936200359E+02  0.00000000000E+00 0.  1.
         23    2    1    2    0    0  0.56596862261E+02 -0.72037750948E+01  0.38041268850E+02  0.10706679342E+03  0.82225670712E+02 0.  0.
         23    2    1    2    0    0 -0.56596862261E+02  0.72037750948E+01  0.17794367629E+02  0.13864124378E+03  0.12509858418E+03 0.  0.
          5    1    4    4  502    0  0.98196520196E+01 -0.48665856853E+02 -0.59396425851E+00  0.49825860580E+02  0.41800000000E+01 0. -1.
         -5    1    4    4    0  502 -0.66416514280E+02  0.55869631948E+02  0.18388331888E+02  0.88815383199E+02  0.41800000000E+01 0. -1.
        -11    1    3    3    0    0  0.65645968100E+02  0.36208906076E+01  0.54493452631E+02  0.85393444457E+02  0.00000000000E+00 0. -1.
         11    1    3    3    0    0 -0.90491058393E+01 -0.10824665702E+02 -0.16452183781E+02  0.21673348962E+02  0.00000000000E+00 0.  1.
</event>
<event>
 7    1  0.8061721E-006  0.1422717E+03  0.7561462E-02  0.1210304E+00
         -2   -1    0    0    0  501 -0.00000000000E+00  0.00000000000E+00  0.37972999717E+02  0.37972999717E+02  0.00000000000E+00 0.  1.
          2   -1    0    0  501    0  0.00000000000E+00 -0.00000000000E+00 -0.71383547393E+03  0.71383547393E+03  0.00000000000E+00 0. -1.
         23    2    1    2    0    0  0.18034508700E+02 -0.12740117039E+02 -0.83730330630E+02  0.12575679805E+03  0.91194571675E+02 0.  0.
          5    1    1    2  502    0 -0.65352328718E+02 -0.71380049588E+02 -0.39245011043E+03  0.40422840069E+03  0.41800000000E+01 0. -1.
         -5    1    1    2    0  502  0.47317820018E+02  0.84120166627E+02 -0.19968203315E+03  0.22182327490E+03  0.41800000000E+01 0.  1.
        -11    1    3    3    0    0  0.36421804142E+02  0.28283126862E+02 -0.27228520857E+02  0.53552548306E+02  0.00000000000E+00 0.  1.
         11    1    3    3    0    0 -0.18387295442E+02 -0.41023243901E+02 -0.56501809773E+02  0.72204249747E+02  0.00000000000E+00 0. -1.
</event>
<event>
 8    1  0.8061721E-006  0.1097312E+03  0.7561462E-02  0.1261068E+00
         -2   -1    0    0    0  501 -0.00000000000E+00  0.00000000000E+00  0.82540930437E+02  0.82540930437E+02  0.00000000000E+00 0.  1.
          2   -1    0    0  501    0  0.00000000000E+00 -0.00000000000E+00 -0.29274108427E+03  0.29274108427E+03  0.00000000000E+00 0. -1.
         23    2    1    2    0    0  0.34176443385E+02 -0.34201084170E+01  0.23133449242E+02  0.10831463382E+03  0.10008584816E+03 0.  0.
         23    2    1    2    0    0 -0.34176443385E+02  0.34201084170E+01 -0.23333360308E+03  0.26696738089E+03  0.12508911108E+03 0.  0.
          5    1    4    4  502    0  0.39124587027E+02  0.78344743172E+01 -0.28181347100E+02  0.49028287980E+02  0.41800000000E+01 0.  1.
         -5    1    4    4    0  502 -0.73301030412E+02 -0.44143659002E+01 -0.20515225598E+03  0.21793909291E+03  0.41800000000E+01 0.  1.
        -11    1    3    3    0    0  0.59429569715E+02 -0.32126174873E+02  0.13632517650E+02  0.68918868287E+02  0.00000000000E+00 0.  1.
         11    1    3    3    0    0 -0.25253126330E+02  0.28706066456E+02  0.95009315912E+01  0.39395765533E+02  0.00000000000E+00 0. -1.
</event>
<event>
 8    1  0.8061721E-006  0.2520080E+03  0.7561462E-02  0.1112042E+00
         -2   -1    0    0    0  501 -0.00000000000E+00  0.00000000000E+00  0.28934654225E+02  0.28934654225E+02  0.00000000000E+00 0.  1.
          2   -1    0    0  501    0  0.00000000000E+00 -0.00000000000E+00 -0.24898419353E+04  0.24898419353E+04  0.00000000000E+00 0. -1.
         23    2    1    2    0    0 -0.11375221616E+03 -0.21333052523E+03 -0.10150663151E+04  0.10475345287E+04  0.92301055964E+02 0.  0.
         23    2    1    2    0    0  0.11375221616E+03  0.21333052523E+03 -0.14458409660E+04  0.14712420609E+04  0.12509046007E+03 0.  0.
          5    1    4    4  502    0 -0.21576511498E+01  0.12153957346E+02 -0.91954233307E+01  0.15949995232E+02  0.41800000000E+01 0. -1.
         -5    1    4    4    0  502  0.11590986731E+03  0.20117656788E+03 -0.14366455426E+04  0.14552920657E+04  0.41800000000E+01 0. -1.
        -11    1    3    3    0    0 -0.11108006980E+03 -0.11318740419E+03 -0.62789480926E+03  0.64761258625E+03  0.00000000000E+00 0. -1.
         11    1    3    3    0    0 -0.26721463634E+01 -0.10014312104E+03 -0.38717150588E+03  0.39992194241E+03  0.00000000000E+00 0.  1.
</event>
<event>
 8    1  0.8061721E-006  0.1364181E+03  0.7561462E-02  0.1218232E+00
         -1   -1    0    0    0  501 -0.00000000000E+00  0.00000000000E+00  0.51476554660E+02  0.51476554660E+02  0.00000000000E+00 0.  1.
          1   -1    0    0  501    0  0.00000000000E+00 -0.00000000000E+00 -0.39444618912E+03  0.39444618912E+03  0.00000000000E+00 0. -1.
         23    2    1    2    0    0  0.26702677704E+02 -0.92017532435E+02 -0.14686985418E+03  0.19435522489E+03  0.83802983854E+02 0.  0.
         23    2    1    2    0    0 -0.26702677704E+02  0.92017532435E+02 -0.19609978028E+03  0.25156751890E+03  0.12510329118E+03 0.  0.
          5    1    4    4  502    0 -0.62335224998E+02  0.46668966978E+01 -0.88125451789E+02  0.10812505655E+03  0.41800000000E+01 0.  1.
         -5    1    4    4    0  502  0.35632547295E+02  0.87350635737E+02 -0.10797432850E+03  0.14344246235E+03  0.41800000000E+01 0.  1.
        -11    1    3    3    0    0 -0.21743966406E+02 -0.30296090095E+02 -0.13583635848E+02  0.39688390154E+02  0.00000000000E+00 0.  1.
         11    1    3    3    0    0  0.48446644110E+02 -0.61721442339E+02 -0.13328621833E+03  0.15466683473E+03  0.00000000000E+00 0. -1.
</event>
<event>
 7    1  0.8061721E-006  0.2816286E+03  0.7561462E-02  0.1094803E+00
         -1   -1    0    0    0  501 -0.00000000000E+00  0.00000000000E+00  0.84324090007E+03  0.84324090007E+03  0.00000000000E+00 0.  1.
          1   -1    0    0  501    0  0.00000000000E+00 -0.00000000000E+00 -0.11998465357E+03  0.11998465357E+03  0.00000000000E+00 0. -1.
         23    2    1    2    0    0  0.37261776319E+01 -0.22449508682E+03  0.53627151237E+03  0.58848788464E+03  0.91208151967E+02 0.  0.
          5    1    1    2  502    0  0.81032276317E+02  0.22449599726E+03  0.12355033312E+03  0.26878772257E+03  0.41800000000E+01 0. -1.
         -5    1    1    2    0  502 -0.84758453949E+02 -0.91044303106E-03  0.63434401015E+02  0.10594994643E+03  0.41800000000E+01 0.  1.
        -11    1    3    3    0    0 -0.40057817859E+02 -0.10057944207E+03  0.19952915591E+03  0.22700823112E+03  0.00000000000E+00 0.  1.
         11    1    3    3    0    0  0.43783995491E+02 -0.12391564474E+03  0.33674235647E+03  0.36147965353E+03  0.00000000000E+00 0. -1.
</event>
<event>
 8    1  0.8061721E-006  0.1267645E+03  0.7561462E-02  0.1232337E+00
         -2   -1    0    0    0  501 -0.00000000000E+00  0.00000000000E+00  0.11180244446E+03  0.11180244446E+03  0.00000000000E+00 0.  1.
          2   -1    0    0  501    0  0.00000000000E+00 -0.00000000000E+00 -0.34156431305E+03  0.34156431305E+03  0.00000000000E+00 0. -1.
         23    2    1    2    0    0  0.66634751984E+02  0.13413973853E+02  0.62031917848E+02  0.12869692184E+03  0.89971184232E+02 0.  0.
         23    2    1    2    0    0 -0.66634751984E+02 -0.13413973853E+02 -0.29179378644E+03  0.32466983567E+03  0.12508702381E+03 0.  0.
          5    1    4    4  502    0 -0.94657387719E+02  0.21144979526E+02 -0.21312797340E+03  0.23419679045E+03  0.41800000000E+01 0. -1.
         -5    1    4    4    0  502  0.28022635735E+02 -0.34558953379E+02 -0.78665813034E+02  0.90473045226E+02  0.41800000000E+01 0. -1.
        -11    1    3    3    0    0 -0.13910486809E+02  0.26719220549E+02  0.93645788160E+01  0.31545423225E+02  0.00000000000E+00 0.  1.
         11    1    3    3    0    0  0.80545238794E+02 -0.13305246696E+02  0.52667339032E+02  0.97151498613E+02  0.00000000000E+00 0. -1.
</event>
<event>
 8    1  0.8061721E-006  0.1247931E+03  0.7561462E-02  0.1235393E+00
          1   -1    0    0  501    0  0.00000000000E+00  0.00000000000E+00  0.95244591891E+03  0.95244591891E+03  0.00000000000E+00 0. -1.
         -1   -1    0    0    0  501 -0.00000000000E+00 -0.00000000000E+00 -0.27404021456E+02  0.27404021456E+02  0.00000000000E+00 0.  1.
         23    2    1    2    0    0 -0.59164814525E+02  0.48104273832E+02  0.15344604545E+03  0.19446974742E+03  0.91969002155E+02 0.  0.
         23    2    1    2    0    0  0.59164814525E+02 -0.48104273832E+02  0.77159585200E+03  0.78538019295E+03  0.12508953678E+03 0.  0.
          5    1    4    4  502    0  0.59807514720E+02  0.19051129157E+02  0.55549546763E+03  0.55904612626E+03  0.41800000000E+01 0.  1.
         -5    1    4    4    0  502 -0.64270019556E+00 -0.67155402989E+02  0.21610038438E+03  0.22633406669E+03  0.41800000000E+01 0.  1.
        -11    1    3    3    0    0 -0.21624520808E+01  0.60925462748E+02  0.81875021911E+02  0.10207892742E+03  0.00000000000E+00 0.  1.
         11    1    3    3    0    0 -0.57002362444E+02 -0.12821188916E+02  0.71571023542E+02  0.92390820000E+02  0.00000000000E+00 0. -1.
</event>
<event>
 8    1  0.8061721E-006  0.1040678E+03  0.7561462E-02  0.1271967E+00
          2   -1    0    0  501    0  0.00000000000E+00  0.00000000000E+00  0.58595240628E+03  0.58595240628E+03  0.00000000000E+00 0.  1.
         -2   -1    0    0    0  501 -0.00000000000E+00 -0.00000000000E+00 -0.24469773513E+02  0.24469773513E+02  0.00000000000E+00 0. -1.
         23    2    1    2    0    0 -0.92227161378E+01  0.20817196502E+02  0.13224294022E+03  0.16274855772E+03  0.92089541418E+02 0.  0.
         23    2    1    2    0    0  0.92227161378E+01 -0.20817196502E+02  0.42923969255E+03  0.44767362207E+03  0.12508614663E+03 0.  0.
          5    1    4    4  502    0  0.41987151737E+02 -0.59246093938E+02  0.30379168629E+03  0.31237778669E+03  0.41800000000E+01 0. -1.
         -5    1    4    4    0  502 -0.32764435599E+02  0.38428897436E+02  0.12544800625E+03  0.13529583538E+03  0.41800000000E+01 0. -1.
        -11    1    3    3    0    0 -0.39518222589E+02 -0.10770069661E+02  0.10095571257E+03  0.10894833737E+03  0.00000000000E+00 0.  1.
         11    1    3    3    0    0  0.30295506451E+02  0.31587266163E+02  0.31287227655E+02  0.53800220345E+02  0.00000000000E+00 0. -1.
</event>
<event>
 8    1  0.8061721E-006  0.8692656E+02  0.7561462E-02  0.1310470E+00
         -2   -1    0    0    0  501 -0.00000000000E+00  0.00000000000E+00  0.38725140378E+02  0.38725140378E+02  0.00000000000E+00 0.  1.
          2   -1    0    0  501    0  0.00000000000E+00 -0.00000000000E+00 -0.47108856550E+03  0.47108856550E+03  0.00000000000E+00 0. -1.
         23    2    1    2    0    0  0.27270925544E+02  0.58344277066E+02 -0.10542984139E+03  0.15389116769E+03  0.91756645498E+02 0.  0.
         23    2    1    2    0    0 -0.27270925544E+02 -0.58344277066E+02 -0.32693358374E+03  0.35592253819E+03  0.12509007541E+03 0.  0.
          5    1    4    4  502    0 -0.34085400016E+02  0.13691230443E+02 -0.23165546249E+02  0.43627734508E+02  0.41800000000E+01 0.  1.
         -5    1    4    4    0  502  0.68144744722E+01 -0.72035507509E+02 -0.30376803749E+03  0.31229480368E+03  0.41800000000E+01 0.  1.
        -11    1    3    3    0    0  0.72399602638E+01  0.16132480373E+02  0.15959814270E+02  0.23819941627E+02  0.00000000000E+00 0.  1.
         11    1    3    3    0    0  0.20030965280E+02  0.42211796694E+02 -0.12138965566E+03  0.13007122607E+03  0.00000000000E+00 0. -1.
</event>
<event>
 8    1  0.8061721E-006  0.1010892E+03  0.7561462E-02  0.1278022E+00
         -1   -1    0    0    0  501 -0.00000000000E+00  0.00000000000E+00  0.12431361149E+02  0.12431361149E+02  0.00000000000E+00 0.  1.
          1   -1    0    0  501    0  0.00000000000E+00 -0.00000000000E+00 -0.11763716138E+04  0.11763716138E+04  0.00000000000E+00 0. -1.
         23    2    1    2    0    0  0.29478077098E+02 -0.85628073545E+01 -0.29280982597E+03  0.30820251528E+03  0.91153264017E+02 0.  0.
         23    2    1    2    0    0 -0.29478077098E+02  0.85628073545E+01 -0.87113042666E+03  0.88060045965E+03  0.12508665228E+03 0.  0.
          5    1    4    4  502    0  0.28226949875E+02 -0.26464285715E+02 -0.59636622911E+03  0.59763473020E+03  0.41800000000E+01 0. -1.
         -5    1    4    4    0  502 -0.57705026973E+02  0.35027093070E+02 -0.27476419756E+03  0.28296572946E+03  0.41800000000E+01 0. -1.
        -11    1    3    3    0    0  0.52983303307E+02 -0.32437093866E+02 -0.17392603967E+03  0.18468801467E+03  0.00000000000E+00 0. -1.
         11    1    3    3    0    0 -0.23505226209E+02  0.23874286512E+02 -0.11888378630E+03  0.12351450061E+03  0.00000000000E+00 0.  1.
</event>
<event>
 7    1  0.8061721E-006  0.1646451E+03  0.7561462E-02  0.1183550E+00
          1   -1    0    0  501    0  0.00000000000E+00  0.00000000000E+00  0.34033196989E+02  0.34033196989E+02  0.00000000000E+00 0. -1.
         -1   -1    0    0    0  501 -0.00000000000E+00 -0.00000000000E+00 -0.11151195262E+04  0.11151195262E+04  0.00000000000E+00 0.  1.
         23    2    1    2    0    0 -0.14415842942E+02 -0.77063659230E+02 -0.61324701656E+03  0.62529222020E+03  0.93658065450E+02 0.  0.
          5    1    1    2  502    0  0.36458817304E+02  0.13828062714E+03 -0.41796683117E+03  0.44177428802E+03  0.41800000000E+01 0. -1.
         -5    1    1    2    0  502 -0.22042974361E+02 -0.61216967914E+02 -0.49872481510E+02  0.82086214989E+02  0.41800000000E+01 0.  1.
        -11    1    3    3    0    0 -0.44651889112E+02 -0.78979086315E+02 -0.49360190757E+03  0.50187083043E+03  0.00000000000E+00 0.  1.
         11    1    3    3    0    0  0.30236046170E+02  0.19154270843E+01 -0.11964510899E+03  0.12342138978E+03  0.00000000000E+00 0. -1.
</event>
<event>
 8    1  0.8061721E-006  0.9597789E+02  0.7561462E-02  0.1288989E+00
          2   -1    0    0  501    0  0.00000000000E+00  0.00000000000E+00  0.10239558837E+04  0.10239558837E+04  0.00000000000E+00 0. -1.
         -2   -1    0    0    0  501 -0.00000000000E+00 -0.00000000000E+00 -0.25253682524E+02  0.25253682524E+02  0.00000000000E+00 0.  1.
         23    2    1    2    0    0 -0.81924126538E+02  0.49012202853E+02  0.25026558583E+03  0.28441098546E+03  0.95618966011E+02 0.  0.
         23    2    1    2    0    0  0.81924126538E+02 -0.49012202853E+02  0.74843661536E+03  0.76479858078E+03  0.12508294613E+03 0.  0.
          5    1    4    4  502    0  0.10497895371E+02 -0.94242673686E+01  0.54970350202E+03  0.54990038657E+03  0.41800000000E+01 0.  1.
         -5    1    4    4    0  502  0.71426231167E+02 -0.39587935485E+02  0.19873311334E+03  0.21489819421E+03  0.41800000000E+01 0.  1.
        -11    1    3    3    0    0 -0.46842410423E+02  0.28624929945E+02  0.34441726959E+02  0.64806099902E+02  0.00000000000E+00 0.  1.
         11    1    3    3    0    0 -0.35081716115E+02  0.20387272908E+02  0.21582385887E+03  0.21960488556E+03  0.00000000000E+00 0. -1.
</event>
<event>
 8    1  0.8061721E-006  0.2614789E+03  0.7561462E-02  0.1106258E+00
         -2   -1    0    0    0  501 -0.00000000000E+00  0.00000000000E+00  0.82350176408E+02  0.82350176408E+02  0.00000000000E+00 0.  1.
          2   -1    0    0  501    0  0.00000000000E+00 -0.00000000000E+00 -0.90231024999E+03  0.90231024999E+03  0.00000000000E+00 0. -1.
         23    2    1    2    0    0 -0.11335645441E+03 -0.22390641607E+03 -0.40713668987E+03  0.48560518904E+03  0.84073458732E+02 0.  0.
         23    2    1    2    0    0  0.11335645441E+03  0.22390641607E+03 -0.41282338371E+03  0.49905523737E+03  0.12509682205E+03 0.  0.
          5    1    4    4  502    0  0.27369533458E+02  0.16585317515E+03 -0.19321089790E+03  0.25613334523E+03  0.41800000000E+01 0.  1.
         -5    1    4    4    0  502  0.85986920948E+02  0.58053240922E+02 -0.21961248581E+03  0.24292189214E+03  0.41800000000E+01 0.  1.
        -11    1    3    3    0    0 -0.16763960173E+02 -0.31347838212E+02 -0.12893418521E+03  0.13374506136E+03  0.00000000000E+00 0. -1.
         11    1    3    3    0    0 -0.96592494232E+02 -0.19255857786E+03 -0.27820250466E+03  0.35186012768E+03  0.00000000000E+00 0.  1.
</event>
<event>
 7    1  0.8061721E-006  0.1334516E+03  0.7561462E-02  0.1222422E+00
          2   -1    0    0  501    0  0.00000000000E+00  0.00000000000E+00  0.81048530700E+03  0.81048530700E+03  0.00000000000E+00 0. -1.
         -2   -1    0    0    0  501 -0.00000000000E+00 -0.00000000000E+00 -0.29282366532E+02  0.29282366532E+02  0.00000000000E+00 0.  1.
         23    2    1    2    0    0 -0.67293731661E+02  0.78362388810E+02  0.34902623601E+03  0.37508354748E+03  0.90549676234E+02 0.  0.
          5    1    1    2  502    0  0.38303732275E+02  0.11334618837E+02  0.29774941444E+03  0.30044606120E+03  0.41800000000E+01 0. -1.
         -5    1    1    2    0  502  0.28989999387E+02 -0.89697007647E+02  0.13442729001E+03  0.16423806485E+03  0.41800000000E+01 0.  1.
        -11    1    3    3    0    0 -0.81034053879E+02  0.84726014729E+02  0.33299863907E+03  0.35303414719E+03  0.00000000000E+00 0. -1.
         11    1    3    3    0    0  0.13740322217E+02 -0.63636259193E+01  0.16027596941E+02  0.22049400291E+02  0.00000000000E+00 0.  1.
</event>
<event>
 8    1  0.8061721E-006  0.1581574E+03  0.7561462E-02  0.1190793E+00
          1   -1    0    0  501    0  0.00000000000E+00  0.00000000000E+00  0.84047356975E+03  0.84047356975E+03  0.00000000000E+00 0. -1.
         -1   -1    0    0    0  501 -0.00000000000E+00 -0.00000000000E+00 -0.78620664259E+02  0.78620664259E+02  0.00000000000E+00 0.  1.
         23    2    1    2    0    0 -0.94832802274E+02  0.11406688775E+03  0.44373287332E+02  0.17583910358E+03  0.83341984928E+02 0.  0.
         23    2    1    2    0    0  0.94832802274E+02 -0.11406688775E+03  0.71747961816E+03  0.74325513043E+03  0.12508665462E+03 0.  0.
          5    1    4    4  502    0  0.65614844991E+02 -0.91496446118E+02  0.68407242437E+03  0.69328887322E+03  0.41800000000E+01 0. -1.
         -5    1    4    4    0  502  0.29217957283E+02 -0.22570441632E+02  0.33407193791E+02  0.49966257216E+02  0.41800000000E+01 0. -1.
        -11    1    3    3    0    0 -0.55475778746E+02  0.11438842749E+03  0.48921392132E+02  0.13621885691E+03  0.00000000000E+00 0. -1.
         11    1    3    3    0    0 -0.39357023528E+02 -0.32153973842E+00 -0.45481048004E+01  0.39620246668E+02  0.00000000000E+00 0.  1.
</event>
<event>
 8    1  0.8061721E-006  0.1291376E+03  0.7561462E-02  0.1228741E+00
          2   -1    0    0  501    0  0.00000000000E+00  0.00000000000E+00  0.13873682162E+03  0.13873682162E+03  0.00000000000E+00 0.  1.
         -2   -1    0    0    0  501 -0.00000000000E+00 -0.00000000000E+00 -0.14420443801E+03  0.14420443801E+03  0.00000000000E+00 0. -1.
         23    2    1    2    0    0  0.54449952864E+02 -0.11881037964E+02 -0.49459592165E+02  0.13910354883E+03  0.11746314149E+03 0.  0.
         23    2    1    2    0    0 -0.54449952864E+02  0.11881037964E+02  0.43991975766E+02  0.14383771080E+03  0.12509211281E+03 0.  0.
          5    1    4    4  502    0  0.20797278774E+02  0.42268245529E+02  0.40891479083E+02  0.62519731654E+02  0.41800000000E+01 0. -1.
         -5    1    4    4    0  502 -0.75247231639E+02 -0.30387207565E+02  0.31004966827E+01  0.81317979147E+02  0.41800000000E+01 0. -1.
        -11    1    3    3    0    0 -0.18877452308E+02 -0.45347819710E+02 -0.14250098834E+02  0.51145364158E+02  0.00000000000E+00 0.  1.
         11    1    3    3    0    0  0.73327405172E+02  0.33466781746E+02 -0.35209493331E+02  0.87958184670E+02  0.00000000000E+00 0. -1.
</event>
<event>
 8    1  0.8061721E-006  0.1569125E+03  0.7561462E-02  0.1192227E+00
         -2   -1    0    0    0  501 -0.00000000000E+00  0.00000000000E+00  0.45457665419E+02  0.45457665419E+02  0.00000000000E+00 0.  1.
          2   -1    0    0  501    0  0.00000000000E+00 -0.00000000000E+00 -0.75309642526E+03  0.75309642526E+03  0.00000000000E+00 0. -1.
         23    2    1    2    0    0  0.13638751735E+03 -0.53592915933E+01 -0.20538725970E+03  0.26326523705E+03  0.92164969992E+02 0.  0.
         23    2    1    2    0    0 -0.13638751735E+03  0.53592915933E+01 -0.50225150013E+03  0.53528885363E+03  0.12508921032E+03 0.  0.
          5    1    4    4  502    0 -0.12329247122E+03  0.42605472356E+02 -0.27262017264E+03  0.30225070829E+03  0.41800000000E+01 0. -1.
         -5    1    4    4    0  502 -0.13095046130E+02 -0.37246180763E+02 -0.22963132750E+03  0.23303814534E+03  0.41800000000E+01 0. -1.
        -11    1    3    3    0    0  0.39382458715E+02  0.18802872570E+02 -0.13262336695E+03  0.13961906579E+03  0.00000000000E+00 0. -1.
         11    1    3    3    0    0  0.97005058634E+02 -0.24162164163E+02 -0.72763892757E+02  0.12364617126E+03  0.00000000000E+00 0.  1.
</event>
<event>
 8    1  0.8061721E-006  0.2242454E+03  0.7561462E-02  0.1130757E+00
         -2   -1    0    0    0  501 -0.00000000000E+00  0.00000000000E+00  0.29226325230E+03  0.29226325230E+03  0.00000000000E+00 0.  1.
          2   -1    0    0  501    0  0.00000000000E+00 -0.00000000000E+00 -0.21950114564E+03  0.21950114564E+03  0.00000000000E+00 0. -1.
         23    2    1    2    0    0 -0.90235798764E+02  0.18052114644E+03  0.14330222774E+03  0.26406895313E+03  0.92013585097E+02 0.  0.
         23    2    1    2    0    0  0.90235798764E+02 -0.18052114644E+03 -0.70540121077E+02  0.24769544481E+03  0.12508693379E+03 0.  0.
          5    1    4    4  502    0 -0.21121899784E+02 -0.42516673782E+01  0.10032213610E+02  0.24131494689E+02  0.41800000000E+01 0. -1.
         -5    1    4    4    0  502  0.11135769855E+03 -0.17626947906E+03 -0.80572334687E+02  0.22356395012E+03  0.41800000000E+01 0. -1.
        -11    1    3    3    0    0 -0.22950588477E+02  0.13459747758E+03  0.65564260579E+02  0.15146578078E+03  0.00000000000E+00 0. -1.
         11    1    3    3    0    0 -0.67285210287E+02  0.45923668860E+02  0.77737967163E+02  0.11260317235E+03  0.00000000000E+00 0.  1.
</event>
<event>
 8    1  0.8061721E-006  0.9740956E+02  0.7561462E-02  0.1285840E+00
         -1   -1    0    0    0  501 -0.00000000000E+00  0.00000000000E+00  0.20945527288E+03  0.20945527288E+03  0.00000000000E+00 0.  1.
          1   -1    0    0  501    0  0.00000000000E+00 -0.00000000000E+00 -0.65745866565E+02  0.65745866565E+02  0.00000000000E+00 0. -1.
         23    2    1    2    0    0 -0.36567930191E+02  0.24164717274E+02  0.56755367783E+02  0.11666889053E+03  0.92028860507E+02 0.  0.
         23    2    1    2    0    0  0.36567930191E+02 -0.24164717274E+02  0.86954038536E+02  0.15853224892E+03  0.12510124720E+03 0.  0.
          5    1    4    4  502    0  0.13048725473E+01  0.32765130146E+02  0.85227188414E+02  0.91413360570E+02  0.41800000000E+01 0.  1.
         -5    1    4    4    0  502  0.35263057644E+02 -0.56929847420E+02  0.17268501220E+01  0.67118888347E+02  0.41800000000E+01 0.  1.
        -11    1    3    3    0    0 -0.34035609271E+02  0.54483988806E+02  0.57527547537E+02  0.86234253405E+02  0.00000000000E+00 0.  1.
         11    1    3    3    0    0 -0.25323209202E+01 -0.30319271532E+02 -0.77217975488E+00  0.30434637126E+02  0.00000000000E+00 0. -1.
</event>
<event>
 8    1  0.8061721E-006  0.2827187E+03  0.7561462E-02  0.1094213E+00
         -2   -1    0    0    0  501 -0.00000000000E+00  0.00000000000E+00  0.87990984849E+02  0.87990984849E+02  0.00000000000E+00 0.  1.
          2   -1    0    0  501    0  0.00000000000E+00 -0.00000000000E+00 -0.13683838204E+04  0.13683838204E+04  0.00000000000E+00 0. -1.
         23    2    1    2    0    0 -0.25362712055E+03 -0.76170353928E+02 -0.22004788534E+03  0.35632591077E+03  0.91752077609E+02 0.  0.
         23    2    1    2    0    0  0.25362712055E+03  0.76170353928E+02 -0.10603449502E+04  0.11000488945E+04  0.12509003841E+03 0.  0.
          5    1    4    4  502    0 -0.96343143181E+01  0.21446363952E+02 -0.93497311031E+02  0.96498632680E+02  0.41800000000E+01 0. -1.
         -5    1    4    4    0  502  0.26326143487E+03  0.54723989976E+02 -0.96684763917E+03  0.10035502618E+04  0.41800000000E+01 0. -1.
        -11    1    3    3    0    0 -0.11718864177E+03 -0.69035390799E+02 -0.68510268493E+02  0.15229156192E+03  0.00000000000E+00 0.  1.
         11    1    3    3    0    0 -0.13643847878E+03 -0.71349631296E+01 -0.15153761684E+03  0.20403434885E+03  0.00000000000E+00 0. -1.
</event>
<event>
 8    1  0.8061721E-006  0.1269529E+03  0.7561462E-02  0.1232048E+00
          2   -1    0    0  501    0  0.00000000000E+00  0.00000000000E+00  0.58070755619E+03  0.58070755619E+03  0.00000000000E+00 0. -1.
         -2   -1    0    0    0  501 -0.00000000000E+00 -0.00000000000E+00 -0.38032327918E+02  0.38032327918E+02  0.00000000000E+00 0.  1.
         23    2    1    2    0    0 -0.88569646844E+02 -0.51442964306E+02  0.21075929154E+03  0.25146445933E+03  0.91235598416E+02 0.  0.
         23    2    1    2    0    0  0.88569646844E+02  0.51442964306E+02  0.33191593673E+03  0.36727542478E+03  0.11929831377E+03 0.  0.
          5    1    4    4  502    0  0.68740719991E+02  0.71382442352E+02  0.32237280771E+03  0.33728687969E+03  0.41800000000E+01 0. -1.
         -5    1    4    4    0  502  0.19828926853E+02 -0.19939478046E+02  0.95431290257E+01  0.29988545088E+02  0.41800000000E+01 0.  1.
        -11    1    3    3    0    0 -0.38704671280E+02 -0.64066615706E+02  0.73586824143E+02  0.10496477273E+03  0.00000000000E+00 0.  1.
         11    1    3    3    0    0 -0.49864975564E+02  0.12623651401E+02  0.13717246740E+03  0.14649968660E+03  0.00000000000E+00 0. -1.
</event>
<event>
 8    1  0.8061721E-006  0.1308551E+03  0.7561462E-02  0.1226192E+00
         -1   -1    0    0    0  501 -0.00000000000E+00  0.00000000000E+00  0.55077929235E+02  0.55077929235E+02  0.00000000000E+00 0.  1.
          1   -1    0    0  501    0  0.00000000000E+00 -0.00000000000E+00 -0.36427972677E+03  0.36427972677E+03  0.00000000000E+00 0. -1.
         23    2    1    2    0    0  0.78131577509E+02 -0.18572854736E+02 -0.70438686386E+02  0.13810277015E+03  0.87528693849E+02 0.  0.
         23    2    1    2    0    0 -0.78131577509E+02  0.18572854736E+02 -0.23876311115E+03  0.28125488586E+03  0.12508794200E+03 0.  0.
          5    1    4    4  502    0  0.26495159007E+01 -0.45212903713E+02 -0.79106018345E+02  0.91249444574E+02  0.41800000000E+01 0.  1.
         -5    1    4    4    0  502 -0.80781093410E+02  0.63785758449E+02 -0.15965709281E+03  0.19000544128E+03  0.41800000000E+01 0.  1.
        -11    1    3    3    0    0  0.22353418185E+02  0.31251787691E+02 -0.44843665711E+02  0.59053398656E+02  0.00000000000E+00 0. -1.
         11    1    3    3    0    0  0.55778159324E+02 -0.49824642427E+02 -0.25595020675E+02  0.79049371496E+02  0.00000000000E+00 0.  1.
</event>
<event>
 8    1  0.8061721E-006  0.9982441E+02  0.7561462E-02  0.1280666E+00
          1   -1    0    0  501    0  0.00000000000E+00  0.00000000000E+00  0.65357897218E+03  0.65357897218E+03  0.00000000000E+00 0. -1.
         -1   -1    0    0    0  501 -0.00000000000E+00 -0.00000000000E+00 -0.28831401961E+02  0.28831401961E+02  0.00000000000E+00 0.  1.
         23    2    1    2    0    0 -0.37334973878E+02 -0.12842091252E+02  0.11651258489E+03  0.15752039147E+03  0.98380240439E+02 0.  0.
         23    2    1    2    0    0  0.37334973878E+02  0.12842091252E+02  0.50823498533E+03  0.52488998267E+03  0.12509146260E+03 0.  0.
          5    1    4    4  502    0 -0.28661232564E+02 -0.33975321848E+02  0.11432327896E+03  0.12273171252E+03  0.41800000000E+01 0. -1.
         -5    1    4    4    0  502  0.65996206442E+02  0.46817413100E+02  0.39391170637E+03  0.40215827014E+03  0.41800000000E+01 0. -1.
        -11    1    3    3    0    0 -0.30372401606E+02  0.22600912418E+02  0.25205880183E+01  0.37942553755E+02  0.00000000000E+00 0.  1.
         11    1    3    3    0    0 -0.69625722722E+01 -0.35443003670E+02  0.11399199687E+03  0.11957783772E+03  0.00000000000E+00 0. -1.
</event>
<event>
 8    1  0.8061721E-006  0.2356985E+03  0.7561462E-02  0.1122692E+00
          1   -1    0    0  501    0  0.00000000000E+00  0.00000000000E+00  0.10754052884E+04  0.10754052884E+04  0.00000000000E+00 0. -1.
         -1   -1    0    0    0  501 -0.00000000000E+00 -0.00000000000E+00 -0.56456341612E+02  0.56456341612E+02  0.00000000000E+00 0.  1.
         23    2    1    2    0    0 -0.49315366729E+02 -0.20802948732E+03  0.36204473179E+03  0.42980844949E+03  0.89166375092E+02 0.  0.
         23    2    1    2    0    0  0.49315366729E+02  0.20802948732E+03  0.65690421501E+03  0.70205318054E+03  0.12508895879E+03 0.  0.
          5    1    4    4  502    0 -0.16568069078E+02 -0.49180053906E+01  0.11040564121E+03  0.11182828667E+03  0.41800000000E+01 0. -1.
         -5    1    4    4    0  502  0.65883435807E+02  0.21294749271E+03  0.54649857381E+03  0.59022489386E+03  0.41800000000E+01 0. -1.
        -11    1    3    3    0    0 -0.12912007336E+02 -0.18928463834E+03  0.31188443190E+03  0.36505793116E+03  0.00000000000E+00 0.  1.
         11    1    3    3    0    0 -0.36403359392E+02 -0.18744848976E+02  0.50160299887E+02  0.64750518322E+02  0.00000000000E+00 0. -1.
</event>
<event>
 8    1  0.8061721E-006  0.1306649E+03  0.7561462E-02  0.1226472E+00
          2   -1    0    0  501    0  0.00000000000E+00  0.00000000000E+00  0.20759567469E+04  0.20759567469E+04  0.00000000000E+00 0. -1.
         -2   -1    0    0    0  501 -0.00000000000E+00 -0.00000000000E+00 -0.12676370751E+02  0.12676370751E+02  0.00000000000E+00 0.  1.
         23    2    1    2    0    0  0.93841224825E+02 -0.51719820890E+02  0.64076130048E+03  0.65661010084E+03  0.95292523252E+02 0.  0.
         23    2    1    2    0    0 -0.93841224825E+02  0.51719820890E+02  0.14225190757E+04  0.14320230169E+04  0.12509310403E+03 0.  0.
          5    1    4    4  502    0 -0.46072338046E+02 -0.20638891182E+01  0.13956093985E+03  0.14704301514E+03  0.41800000000E+01 0. -1.
         -5    1    4    4    0  502 -0.47768886779E+02  0.53783710008E+02  0.12829581359E+04  0.12849800017E+04  0.41800000000E+01 0. -1.
        -11    1    3    3    0    0  0.19506117241E+02  0.27898188326E+02  0.13196885289E+03  0.13628857493E+03  0.00000000000E+00 0.  1.
         11    1    3    3    0    0  0.74335107584E+02 -0.79618009216E+02  0.50879244758E+03  0.52032152591E+03  0.00000000000E+00 0. -1.
</event>
<event>
 8    1  0.8061721E-006  0.8389136E+02  0.7561462E-02  0.1318357E+00
          1   -1    0    0  501    0  0.00000000000E+00  0.00000000000E+00  0.99853459616E+02  0.99853459616E+02  0.00000000000E+00 0. -1.
         -1   -1    0    0    0  501 -0.00000000000E+00 -0.00000000000E+00 -0.19245702407E+03  0.19245702407E+03  0.00000000000E+00 0.  1.
         23    2    1    2    0    0 -0.76339002575E+02 -0.12185326659E+02 -0.84758914200E+02  0.14503320981E+03  0.88738001499E+02 0.  0.
         23    2    1    2    0    0  0.76339002575E+02  0.12185326659E+02 -0.78446502562E+01  0.14727727388E+03  0.12511167557E+03 0.  0.
          5    1    4    4  502    0  0.31959962351E+02 -0.14579561750E+01 -0.65570548568E+02  0.73078957773E+02  0.41800000000E+01 0. -1.
         -5    1    4    4    0  502  0.44379040224E+02  0.13643282834E+02  0.57725898311E+02  0.74198316110E+02  0.41800000000E+01 0. -1.
        -11    1    3    3    0    0 -0.66768547200E+02 -0.26371948354E+02 -0.99330848002E+02  0.12255666412E+03  0.00000000000E+00 0.  1.
         11    1    3    3    0    0 -0.95704553754E+01  0.14186621696E+02  0.14571933802E+02  0.22476545686E+02  0.00000000000E+00 0. -1.
</event>
<event>
 8    1  0.8061721E-006  0.1247478E+03  0.7561462E-02  0.1235464E+00
          1   -1    0    0  501    0  0.00000000000E+00  0.00000000000E+00  0.45836377866E+03  0.45836377866E+03  0.00000000000E+00 0. -1.
         -1   -1    0    0    0  501 -0.00000000000E+00 -0.00000000000E+00 -0.74383899214E+02  0.74383899214E+02  0.00000000000E+00 0.  1.
         23    2    1    2    0    0  0.71583110247E+02  0.56208698131E+02  0.11425473981E+02  0.12935654690E+03  0.91208636395E+02 0.  0.
         23    2    1    2    0    0 -0.71583110247E+02 -0.56208698131E+02  0.37255440547E+03  0.40339113097E+03  0.12507621714E+03 0.  0.
          5    1    4    4  502    0  0.30804685513E+02 -0.28435436669E+02  0.16454696676E+03  0.16985487740E+03  0.41800000000E+01 0. -1.
         -5    1    4    4    0  502 -0.10238779576E+03 -0.27773261462E+02  0.20800743871E+03  0.23353625357E+03  0.41800000000E+01 0. -1.
        -11    1    3    3    0    0  0.67040978693E+01  0.30794817237E+02  0.42625511037E+02  0.53011318491E+02  0.00000000000E+00 0. -1.
         11    1    3    3    0    0  0.64879012378E+02  0.25413880894E+02 -0.31200037057E+02  0.76345228414E+02  0.00000000000E+00 0.  1.
</event>
<event>
 8    1  0.8061721E-006  0.1705061E+03  0.7561462E-02  0.1177321E+00
          1   -1    0    0  501    0  0.00000000000E+00  0.00000000000E+00  0.16620875754E+04  0.16620875754E+04  0.00000000000E+00 0.  1.
         -1   -1    0    0    0  501 -0.00000000000E+00 -0.00000000000E+00 -0.81606979774E+02  0.81606979774E+02  0.00000000000E+00 0. -1.
         23    2    1    2    0    0 -0.76996914994E+02  0.13109513036E+03  0.29601865271E+02  0.18036838598E+03  0.92423082129E+02 0.  0.
         23    2    1    2    0    0  0.76996914994E+02 -0.13109513036E+03  0.15508787304E+04  0.15633261692E+04  0.12509762945E+03 0.  0.
          5    1    4    4  502    0  0.10224672195E+03 -0.73727459017E+02  0.12228226219E+04  0.12293098745E+04  0.41800000000E+01 0. -1.
         -5    1    4    4    0  502 -0.25249806953E+02 -0.57367671347E+02  0.32805610844E+03  0.33401629474E+03  0.41800000000E+01 0. -1.
        -11    1    3    3    0    0 -0.50731132581E+02  0.83298951801E+02  0.63288153218E+02  0.11626587428E+03  0.00000000000E+00 0.  1.
         11    1    3    3    0    0 -0.26265782413E+02  0.47796178563E+02 -0.33686287946E+02  0.64102511703E+02  0.00000000000E+00 0. -1.
</event>
<event>
 8    1  0.8061721E-006  0.9215011E+02  0.7561462E-02  0.1297727E+00
         -1   -1    0    0    0  501 -0.00000000000E+00  0.00000000000E+00  0.17030907185E+02  0.17030907185E+02  0.00000000000E+00 0.  1.
          1   -1    0    0  501    0  0.00000000000E+00 -0.00000000000E+00 -0.82660314611E+03  0.82660314611E+03  0.00000000000E+00 0. -1.
         23    2    1    2    0    0  0.22729390547E+02  0.35633233386E+02 -0.38748414951E+03  0.40137749043E+03  0.95778761680E+02 0.  0.
         23    2    1    2    0    0 -0.22729390547E+02 -0.35633233386E+02 -0.42208808942E+03  0.44225656286E+03  0.12508460997E+03 0.  0.
          5    1    4    4  502    0 -0.27548735384E+02  0.22051894626E+02 -0.31827315638E+02  0.47703975710E+02  0.41800000000E+01 0. -1.
         -5    1    4    4    0  502  0.48193448369E+01 -0.57685128012E+02 -0.39026077378E+03  0.39455258715E+03  0.41800000000E+01 0. -1.
        -11    1    3    3    0    0 -0.30314749664E+02  0.14877583347E+02 -0.58906294742E+02  0.67899028666E+02  0.00000000000E+00 0.  1.
         11    1    3    3    0    0  0.53044140211E+02  0.20755650039E+02 -0.32857785477E+03  0.33347846177E+03  0.00000000000E+00 0. -1.
</event>
<event>
 8    1  0.8061721E-006  0.9701414E+02  0.7561462E-02  0.1286703E+00
         -1   -1    0    0    0  501 -0.00000000000E+00  0.00000000000E+00  0.60430129181E+03  0.60430129181E+03  0.00000000000E+00 0.  1.
          1   -1    0    0  501    0  0.00000000000E+00 -0.00000000000E+00 -0.32940459311E+02  0.32940459311E+02  0.00000000000E+00 0. -1.
         23    2    1    2    0    0 -0.56646912361E+02  0.39706685713E+02  0.38943250559E+03  0.40587585450E+03  0.91060635212E+02 0.  0.
         23    2    1    2    0    0  0.56646912361E+02 -0.39706685713E+02  0.18192832691E+03  0.23136589663E+03  0.12508704336E+03 0.  0.
          5    1    4    4  502    0  0.40030286500E+02 -0.56532302465E+02  0.19287123203E+03  0.20497587566E+03  0.41800000000E+01 0. -1.
         -5    1    4    4    0  502  0.16616625861E+02  0.16825616752E+02 -0.10942905115E+02  0.26390020964E+02  0.41800000000E+01 0. -1.
        -11    1    3    3    0    0 -0.66514297357E+02  0.52304210061E+02  0.37466443919E+03  0.38410066928E+03  0.00000000000E+00 0.  1.
         11    1    3    3    0    0  0.98673849961E+01 -0.12597524348E+02  0.14768066396E+02  0.21775185222E+02  0.00000000000E+00 0. -1.
</event>
<event>
 7    1  0.8061721E-006  0.1157358E+03  0.7561462E-02  0.1250302E+00
         -2   -1    0    0    0  501 -0.00000000000E+00  0.00000000000E+00  0.39639941996E+02  0.39639941996E+02  0.00000000000E+00 0.  1.
          2   -1    0    0  501    0  0.00000000000E+00 -0.00000000000E+00 -0.15802720536E+04  0.15802720536E+04  0.00000000000E+00 0. -1.
         23    2    1    2    0    0 -0.30148498385E+02  0.16602637830E+02 -0.29457244943E+02  0.10205813215E+03  0.91452465903E+02 0.  0.
          5    1    1    2  502    0  0.71530855103E+02  0.24568041559E+02 -0.59341933602E+03  0.59823426236E+03  0.41800000000E+01 0. -1.
         -5    1    1    2    0  502 -0.41382356719E+02 -0.41170679389E+02 -0.91775553067E+03  0.91961960112E+03  0.41800000000E+01 0.  1.
        -11    1    3    3    0    0  0.42596303641E+01  0.49448556180E+02 -0.98107639864E+01  0.50592047291E+02  0.00000000000E+00 0. -1.
         11    1    3    3    0    0 -0.34408128749E+02 -0.32845918350E+02 -0.19646480956E+02  0.51466084854E+02  0.00000000000E+00 0.  1.
</event>
<event>
 8    1  0.8061721E-006  0.1397069E+03  0.7561462E-02  0.1213724E+00
         -1   -1    0    0    0  501 -0.00000000000E+00  0.00000000000E+00  0.73398378790E+02  0.73398378790E+02  0.00000000000E+00 0.  1.
          1   -1    0    0  501    0  0.00000000000E+00 -0.00000000000E+00 -0.27137275751E+03  0.27137275751E+03  0.00000000000E+00 0. -1.
         23    2    1    2    0    0 -0.41463870447E+02 -0.80875761041E+02 -0.84094919155E+02  0.15274050818E+03  0.89429112337E+02 0.  0.
         23    2    1    2    0    0  0.41463870447E+02  0.80875761041E+02 -0.11387945957E+03  0.19203062813E+03  0.12508832700E+03 0.  0.
          5    1    4    4  502    0 -0.22795415734E+02  0.85795331382E+02 -0.54190497897E+02  0.10408915567E+03  0.41800000000E+01 0. -1.
         -5    1    4    4    0  502  0.64259286181E+02 -0.49195703407E+01 -0.59688961669E+02  0.87941472457E+02  0.41800000000E+01 0. -1.
        -11    1    3    3    0    0 -0.67520638472E+02 -0.71307131894E+02 -0.74876010341E+02  0.12349154061E+03  0.00000000000E+00 0. -1.
         11    1    3    3    0    0  0.26056768025E+02 -0.95686291476E+01 -0.92189088141E+01  0.29248967561E+02  0.00000000000E+00 0.  1.
</event>
<event>
 8    1  0.8061721E-006  0.1401522E+03  0.7561462E-02  0.1213124E+00
          2   -1    0    0  501    0  0.00000000000E+00  0.00000000000E+00  0.63637828282E+03  0.63637828282E+03  0.00000000000E+00 0.  1.
         -2   -1    0    0    0  501 -0.00000000000E+00 -0.00000000000E+00 -0.30898647504E+02  0.30898647504E+02  0.00000000000E+00 0. -1.
         23    2    1    2    0    0 -0.88502320193E+02  0.85546866045E+01  0.26903893455E+03  0.29748373832E+03  0.90602333948E+02 0.  0.
         23    2    1    2    0    0  0.88502320193E+02 -0.85546866045E+01  0.33644070077E+03  0.36979319201E+03  0.12509522925E+03 0.  0.
          5    1    4    4  502    0  0.17996974847E+02 -0.62086872923E+02  0.14776201774E+03  0.16133740167E+03  0.41800000000E+01 0.  1.
         -5    1    4    4    0  502  0.70505345345E+02  0.53532186319E+02  0.18867868303E+03  0.20845579033E+03  0.41800000000E+01 0.  1.
        -11    1    3    3    0    0 -0.93973808716E+02 -0.21460532536E+02  0.20752168079E+03  0.22881625637E+03  0.00000000000E+00 0. -1.
         11    1    3    3    0    0  0.54714885236E+01  0.30015219140E+02  0.61517253760E+02  0.68667481946E+02  0.00000000000E+00 0.  1.
</event>
<event>
 8    1  0.8061721E-006  0.1085843E+03  0.7561462E-02  0.1263214E+00
          2   -1    0    0  501    0  0.00000000000E+00  0.00000000000E+00  0.15832247900E+03  0.15832247900E+03  0.00000000000E+00 0. -1.
         -2   -1    0    0    0  501 -0.00000000000E+00 -0.00000000000E+00 -0.94781833250E+02  0.94781833250E+02  0.00000000000E+00 0.  1.
         23    2    1    2    0    0  0.28627829258E+02  0.17004717069E+02  0.37327524359E+02  0.12103989909E+03  0.11022068810E+03 0.  0.
         23    2    1    2    0    0 -0.28627829258E+02 -0.17004717069E+02  0.26213121390E+02  0.13206441316E+03  0.12508064790E+03 0.  0.
          5    1    4    4  502    0 -0.24830994296E+02  0.46003850146E+02 -0.17367124270E+02  0.55245107579E+02  0.41800000000E+01 0. -1.
         -5    1    4    4    0  502 -0.37968349620E+01 -0.63008567215E+02  0.43580245661E+02  0.76819305582E+02  0.41800000000E+01 0. -1.
        -11    1    3    3    0    0  0.41213973922E+02  0.50790916318E+02 -0.48068833962E+01  0.65585173285E+02  0.00000000000E+00 0.  1.
         11    1    3    3    0    0 -0.12586144665E+02 -0.33786199248E+02  0.42134407755E+02  0.55454725804E+02  0.00000000000E+00 0. -1.
</event>
<event>
 8    1  0.8061721E-006  0.1154950E+03  0.7561462E-02  0.1250720E+00
          1   -1    0    0  501    0  0.00000000000E+00  0.00000000000E+00  0.26433161431E+03  0.26433161431E+03  0.00000000000E+00 0. -1.
         -1   -1    0    0    0  501 -0.00000000000E+00 -0.00000000000E+00 -0.72098916751E+02  0.72098916751E+02  0.00000000000E+00 0.  1.
         23    2    1    2    0    0 -0.73573311007E+02 -0.40931233067E+02  0.70223954213E+02  0.14246154184E+03  0.90969715975E+02 0.  0.
         23    2    1    2    0    0  0.73573311007E+02  0.40931233067E+02  0.12200874334E+03  0.19396898922E+03  0.12509771139E+03 0.  0.
          5    1    4    4  502    0  0.93882393795E+02 -0.65151003812E+01  0.54299060457E+02  0.10872999018E+03  0.41800000000E+01 0. -1.
         -5    1    4    4    0  502 -0.20309082788E+02  0.47446333449E+02  0.67709682887E+02  0.85238999044E+02  0.41800000000E+01 0. -1.
        -11    1    3    3    0    0 -0.59766302714E+02 -0.38211200821E+02  0.97859694493E-01  0.70937411743E+02  0.00000000000E+00 0.  1.
         11    1    3    3    0    0 -0.13807008293E+02 -0.27200322468E+01  0.70126094518E+02  0.71524130094E+02  0.00000000000E+00 0. -1.
</event>
<event>
 8    1  0.8061721E-006  0.1686624E+03  0.7561462E-02  0.1179250E+00
          1   -1    0    0  501    0  0.00000000000E+00  0.00000000000E+00  0.50313926096E+03  0.50313926096E+03  0.00000000000E+00 0. -1.
         -1   -1    0    0    0  501 -0.00000000000E+00 -0.00000000000E+00 -0.80955961336E+02  0.80955961336E+02  0.00000000000E+00 0.  1.
         23    2    1    2    0    0  0.15722927633E+03 -0.10468743444E+02  0.11164437637E+03  0.21407946486E+03  0.92384579736E+02 0.  0.
         23    2    1    2    0    0 -0.15722927633E+03  0.10468743444E+02  0.31053892326E+03  0.37001575744E+03  0.12508636205E+03 0.  0.
          5    1    4    4  502    0 -0.10251619074E+03 -0.32152783912E+02  0.26746140258E+03  0.28826454022E+03  0.41800000000E+01 0. -1.
         -5    1    4    4    0  502 -0.54713085591E+02  0.42621527356E+02  0.43077520673E+02  0.81751217216E+02  0.41800000000E+01 0. -1.
        -11    1    3    3    0    0  0.91015857407E+01 -0.80877600347E+01  0.53603136704E+02  0.54968600035E+02  0.00000000000E+00 0.  1.
         11    1    3    3    0    0  0.14812769059E+03 -0.23809834092E+01  0.58041239665E+02  0.15911086482E+03  0.00000000000E+00 0. -1.
</event>
<event>
 8    1  0.8061721E-006  0.1012130E+03  0.7561462E-02  0.1277766E+00
          1   -1    0    0  501    0  0.00000000000E+00  0.00000000000E+00  0.41371063176E+03  0.41371063176E+03  0.00000000000E+00 0. -1.
         -1   -1    0    0    0  501 -0.00000000000E+00 -0.00000000000E+00 -0.16644834883E+03  0.16644834883E+03  0.00000000000E+00 0.  1.
         23    2    1    2    0    0  0.19084838302E+02  0.61096657186E+01 -0.14202762674E+03  0.17012862983E+03  0.91489588816E+02 0.  0.
         23    2    1    2    0    0 -0.19084838302E+02 -0.61096657186E+01  0.38928990967E+03  0.41003035075E+03  0.12718763972E+03 0.  0.
          5    1    4    4  502    0  0.40946556224E+02 -0.21930250812E+02  0.66046019869E+02  0.80852368597E+02  0.41800000000E+01 0. -1.
         -5    1    4    4    0  502 -0.60031394526E+02  0.15820585094E+02  0.32324388980E+03  0.32917798216E+03  0.41800000000E+01 0.  1.
        -11    1    3    3    0    0 -0.17817675000E+02 -0.34417557802E+02 -0.55153835999E+02  0.67409075449E+02  0.00000000000E+00 0. -1.
         11    1    3    3    0    0  0.36902513301E+02  0.40527223521E+02 -0.86873790743E+02  0.10271955438E+03  0.00000000000E+00 0.  1.
</event>
<event>
 8    1  0.8061721E-006  0.7668741E+02  0.7561462E-02  0.1338724E+00
         -1   -1    0    0    0  501 -0.00000000000E+00  0.00000000000E+00  0.20106085064E+02  0.20106085064E+02  0.00000000000E+00 0.  1.
          1   -1    0    0  501    0  0.00000000000E+00 -0.00000000000E+00 -0.65372764930E+03  0.65372764930E+03  0.00000000000E+00 0. -1.
         23    2    1    2    0    0 -0.24091780644E+02  0.20515252489E+01 -0.21717707719E+03  0.23833878316E+03  0.95157080931E+02 0.  0.
         23    2    1    2    0    0  0.24091780644E+02 -0.20515252489E+01 -0.41644448705E+03  0.43549495121E+03  0.12508085018E+03 0.  0.
          5    1    4    4  502    0 -0.82212358471E+01 -0.17874092654E+02 -0.28462046423E+01  0.20313669977E+02  0.41800000000E+01 0.  1.
         -5    1    4    4    0  502  0.32313016491E+02  0.15822567405E+02 -0.41359828241E+03  0.41518128123E+03  0.41800000000E+01 0.  1.
        -11    1    3    3    0    0  0.20877514780E+02  0.35370781882E+02 -0.74405368414E+02  0.84988950359E+02  0.00000000000E+00 0.  1.
         11    1    3    3    0    0 -0.44969295424E+02 -0.33319256633E+02 -0.14277170877E+03  0.15334983280E+03  0.00000000000E+00 0. -1.
</event>
<event>
 8    1  0.8061721E-006  0.1126542E+03  0.7561462E-02  0.1255732E+00
         -2   -1    0    0    0  501 -0.00000000000E+00  0.00000000000E+00  0.18865703592E+03  0.18865703592E+03  0.00000000000E+00 0.  1.
          2   -1    0    0  501    0  0.00000000000E+00 -0.00000000000E+00 -0.79112275696E+02  0.79112275696E+02  0.00000000000E+00 0. -1.
         23    2    1    2    0    0 -0.19219035145E+02 -0.37424476309E+02  0.87898142074E+02  0.13403048968E+03  0.92022421421E+02 0.  0.
         23    2    1    2    0    0  0.19219035145E+02  0.37424476309E+02  0.21646618147E+02  0.13373882194E+03  0.12509010223E+03 0.  0.
          5    1    4    4  502    0  0.38500915403E+02 -0.35048215301E+02  0.26309692375E+02  0.58483931088E+02  0.41800000000E+01 0. -1.
         -5    1    4    4    0  502 -0.19281880258E+02  0.72472691610E+02 -0.46630742277E+01  0.75254890849E+02  0.41800000000E+01 0. -1.
        -11    1    3    3    0    0 -0.24200064993E+02  0.25319674907E+02  0.16095046328E+02  0.38545811697E+02  0.00000000000E+00 0.  1.
         11    1    3    3    0    0  0.49810298480E+01 -0.62744151217E+02  0.71803095746E+02  0.95484677980E+02  0.00000000000E+00 0. -1.
</event>
<event>
 8    1  0.8061721E-006  0.3286035E+03  0.7561462E-02  0.1071756E+00
          1   -1    0    0  501    0  0.00000000000E+00  0.00000000000E+00  0.19451673707E+04  0.19451673707E+04  0.00000000000E+00 0. -1.
         -1   -1    0    0    0  501 -0.00000000000E+00 -0.00000000000E+00 -0.57922560344E+02  0.57922560344E+02  0.00000000000E+00 0.  1.
         23    2    1    2    0    0  0.23555108106E+03 -0.20206660716E+03  0.73198258097E+03  0.80034568019E+03  0.91866661212E+02 0.  0.
         23    2    1    2    0    0 -0.23555108106E+03  0.20206660716E+03  0.11552622294E+04  0.12027442509E+04  0.12509072222E+03 0.  0.
          5    1    4    4  502    0 -0.96039322433E+02  0.16194456511E+03  0.60448239295E+03  0.63313981821E+03  0.41800000000E+01 0. -1.
         -5    1    4    4    0  502 -0.13951175863E+03  0.40122042057E+02  0.55077983644E+03  0.56960443264E+03  0.41800000000E+01 0. -1.
        -11    1    3    3    0    0  0.11117042369E+03 -0.15482477452E+03  0.43326010285E+03  0.47333274831E+03  0.00000000000E+00 0.  1.
         11    1    3    3    0    0  0.12438065738E+03 -0.47241832643E+02  0.29872247812E+03  0.32701293188E+03  0.00000000000E+00 0. -1.
</event>
<event>
 8    1  0.8061721E-006  0.9850619E+02  0.7561462E-02  0.1283469E+00
          1   -1    0    0  501    0  0.00000000000E+00  0.00000000000E+00  0.59325857903E+02  0.59325857903E+02  0.00000000000E+00 0. -1.
         -1   -1    0    0    0  501 -0.00000000000E+00 -0.00000000000E+00 -0.39463571690E+03  0.39463571690E+03  0.00000000000E+00 0.  1.
         23    2    1    2    0    0 -0.18894075394E+02  0.42912956440E+02 -0.29918109144E+03  0.31559611650E+03  0.88842981486E+02 0.  0.
         23    2    1    2    0    0  0.18894075394E+02 -0.42912956440E+02 -0.36128767549E+02  0.13836545829E+03  0.12506480036E+03 0.  0.
          5    1    4    4  502    0  0.85170335429E+01  0.26892520771E+02 -0.57774971155E+02  0.64429552425E+02  0.41800000000E+01 0. -1.
         -5    1    4    4    0  502  0.10377041851E+02 -0.69805477211E+02  0.21646203606E+02  0.73935905870E+02  0.41800000000E+01 0. -1.
        -11    1    3    3    0    0 -0.53338142407E+02  0.23795710250E+02 -0.14174627599E+03  0.15330753413E+03  0.00000000000E+00 0.  1.
         11    1    3    3    0    0  0.34444067014E+02  0.19117246190E+02 -0.15743481545E+03  0.16228858238E+03  0.00000000000E+00 0. -1.
</event>
<event>
 8    1  0.8061721E-006  0.1253690E+03  0.7561462E-02  0.1234494E+00
         -3   -1    0    0    0  501 -0.00000000000E+00  0.00000000000E+00  0.36366833616E+02  0.36366833616E+02  0.00000000000E+00 0.  1.
          3   -1    0    0  501    0  0.00000000000E+00 -0.00000000000E+00 -0.11569841536E+04  0.11569841536E+04  0.00000000000E+00 0. -1.
         23    2    1    2    0    0  0.67166036866E+02  0.32284838854E+02 -0.79929727946E+02  0.14252657803E+03  0.91495774259E+02 0.  0.
         23    2    1    2    0    0 -0.67166036866E+02 -0.32284838854E+02 -0.10406875920E+04  0.10508244092E+04  0.12509071666E+03 0.  0.
          5    1    4    4  502    0  0.27829024269E+01 -0.62817248318E+02 -0.32394374123E+03  0.33001631946E+03  0.41800000000E+01 0. -1.
         -5    1    4    4    0  502 -0.69948939293E+02  0.30532409464E+02 -0.71674385080E+03  0.72080808972E+03  0.41800000000E+01 0. -1.
        -11    1    3    3    0    0  0.35647937566E+02 -0.26610715752E+02 -0.95592369293E+01  0.45500380836E+02  0.00000000000E+00 0.  1.
         11    1    3    3    0    0  0.31518099300E+02  0.58895554607E+02 -0.70370491017E+02  0.97026197194E+02  0.00000000000E+00 0. -1.
</event>
<event>
 8    1  0.8061721E-006  0.1026182E+03  0.7561462E-02  0.1274885E+00
          1   -1    0    0  501    0  0.00000000000E+00  0.00000000000E+00  0.10898525322E+04  0.10898525322E+04  0.00000000000E+00 0. -1.
         -1   -1    0    0    0  501 -0.00000000000E+00 -0.00000000000E+00 -0.18170503505E+02  0.18170503505E+02  0.00000000000E+00 0.  1.
         23    2    1    2    0    0  0.18070678219E+02  0.41670087686E+02  0.19116280952E+03  0.21750381572E+03  0.93283141520E+02 0.  0.
         23    2    1    2    0    0 -0.18070678219E+02 -0.41670087686E+02  0.88051921917E+03  0.89051921998E+03  0.12508972860E+03 0.  0.
          5    1    4    4  502    0  0.20192917570E+02 -0.75585169396E+02  0.62579393622E+03  0.63067931214E+03  0.41800000000E+01 0. -1.
         -5    1    4    4    0  502 -0.38263595789E+02  0.33915081710E+02  0.25472528296E+03  0.25983990784E+03  0.41800000000E+01 0. -1.
        -11    1    3    3    0    0  0.22530030230E+01  0.54912463875E+02  0.18892174818E+03  0.19675335232E+03  0.00000000000E+00 0. -1.
         11    1    3    3    0    0  0.15817675196E+02 -0.13242376188E+02  0.22410613378E+01  0.20750463408E+02  0.00000000000E+00 0.  1.
</event>
<event>
 8    1  0.8061721E-006  0.1306961E+03  0.7561462E-02  0.1226426E+00
          2   -1    0    0  501    0  0.00000000000E+00  0.00000000000E+00  0.25747045406E+04  0.25747045406E+04  0.00000000000E+00 0. -1.
         -2   -1    0    0    0  501 -0.00000000000E+00 -0.00000000000E+00 -0.13480932015E+02  0.13480932015E+02  0.00000000000E+00 0.  1.
         23    2    1    2    0    0 -0.69110166105E+02  0.45895101965E+02  0.33084780311E+03  0.35276459659E+03  0.90000090762E+02 0.  0.
         23    2    1    2    0    0  0.69110166105E+02 -0.45895101965E+02  0.22303758055E+04  0.22354208760E+04  0.12509070271E+03 0.  0.
          5    1    4    4  502    0 -0.36015873432E+02 -0.16190910557E+02  0.71972429107E+03  0.72081885123E+03  0.41800000000E+01 0.  1.
         -5    1    4    4    0  502  0.10512603954E+03 -0.29704191408E+02  0.15106515144E+04  0.15146020248E+04  0.41800000000E+01 0.  1.
        -11    1    3    3    0    0 -0.52328272559E+01  0.48160861695E+02  0.21563142616E+03  0.22100625111E+03  0.00000000000E+00 0. -1.
         11    1    3    3    0    0 -0.63877338849E+02 -0.22657597296E+01  0.11521637695E+03  0.13175834548E+03  0.00000000000E+00 0.  1.
</event>
<event>
 8    1  0.8061721E-006  0.2975876E+03  0.7561462E-02  0.1086453E+00
          2   -1    0    0  501    0  0.00000000000E+00  0.00000000000E+00  0.37866834071E+03  0.37866834071E+03  0.00000000000E+00 0. -1.
         -2   -1    0    0    0  501 -0.00000000000E+00 -0.00000000000E+00 -0.27267048890E+03  0.27267048890E+03  0.00000000000E+00 0.  1.
         23    2    1    2    0    0 -0.16818676843E+03  0.22216884115E+03 -0.66478680799E+02  0.30056706910E+03  0.90969033063E+02 0.  0.
         23    2    1    2    0    0  0.16818676843E+03 -0.22216884115E+03  0.17247653260E+03  0.35077176051E+03  0.12508753182E+03 0.  0.
          5    1    4    4  502    0  0.11271474915E+03 -0.22286079836E+03  0.14284754463E+03  0.28774023620E+03  0.41800000000E+01 0. -1.
         -5    1    4    4    0  502  0.55472019281E+02  0.69195721246E+00  0.29628987974E+02  0.63031524306E+02  0.41800000000E+01 0. -1.
        -11    1    3    3    0    0 -0.11201403731E+03  0.20028192869E+03 -0.70731690091E+02  0.24013114645E+03  0.00000000000E+00 0. -1.
         11    1    3    3    0    0 -0.56172731124E+02  0.21886912461E+02  0.42530092914E+01  0.60435922654E+02  0.00000000000E+00 0.  1.
</event>
<event>
 8    1  0.8061721E-006  0.1498987E+03  0.7561462E-02  0.1200598E+00
         -2   -1    0    0    0  501 -0.00000000000E+00  0.00000000000E+00  0.23563518834E+02  0.23563518834E+02  0.00000000000E+00 0.  1.
          2   -1    0    0  501    0  0.00000000000E+00 -0.00000000000E+00 -0.17235801559E+04  0.17235801559E+04  0.00000000000E+00 0. -1.
         23    2    1    2    0    0  0.14051873243E+03 -0.38609839526E+02 -0.42949312672E+03  0.46218918208E+03  0.88984606889E+02 0.  0.
         23    2    1    2    0    0 -0.14051873243E+03  0.38609839526E+02 -0.12705235104E+04  0.12849544927E+04  0.12506727779E+03 0.  0.
          5    1    4    4  502    0 -0.14194482401E+03  0.33139554626E+02 -0.12695025945E+04  0.12778500980E+04  0.41800000000E+01 0.  1.
         -5    1    4    4    0  502  0.14260915884E+01  0.54702848994E+01 -0.10209158508E+01  0.71043946451E+01  0.41800000000E+01 0.  1.
        -11    1    3    3    0    0  0.34813040450E+02 -0.12640915350E+01 -0.26158787088E+02  0.43564066094E+02  0.00000000000E+00 0.  1.
         11    1    3    3    0    0  0.10570569198E+03 -0.37345747991E+02 -0.40333433963E+03  0.41862511599E+03  0.00000000000E+00 0. -1.
</event>
<event>
 7    1  0.8061721E-006  0.1474658E+03  0.7561462E-02  0.1203622E+00
         -2   -1    0    0    0  501 -0.00000000000E+00  0.00000000000E+00  0.25291151144E+03  0.25291151144E+03  0.00000000000E+00 0.  1.
          2   -1    0    0  501    0  0.00000000000E+00 -0.00000000000E+00 -0.11826349038E+03  0.11826349038E+03  0.00000000000E+00 0. -1.
         23    2    1    2    0    0  0.10013578757E+03 -0.41164287673E+02  0.35779817069E+02  0.14622979100E+03  0.91549341526E+02 0.  0.
          5    1    1    2  502    0 -0.85768380086E+01 -0.33803193487E+02 -0.32665366163E+02  0.47965785585E+02  0.41800000000E+01 0. -1.
         -5    1    1    2    0  502 -0.91558949563E+02  0.74967481160E+02  0.13153357016E+03  0.17697942523E+03  0.41800000000E+01 0.  1.
        -11    1    3    3    0    0  0.78525538407E+02 -0.70114519272E+02  0.21884333417E+02  0.10752316050E+03  0.00000000000E+00 0.  1.
         11    1    3    3    0    0  0.21610249164E+02  0.28950231599E+02  0.13895483652E+02  0.38706630498E+02  0.00000000000E+00 0. -1.
</event>
<event>
 8    1  0.8061721E-006  0.1548634E+03  0.7561462E-02  0.1194621E+00
         -2   -1    0    0    0  501 -0.00000000000E+00  0.00000000000E+00  0.17308093418E+02  0.17308093418E+02  0.00000000000E+00 0.  1.
          2   -1    0    0  501    0  0.00000000000E+00 -0.00000000000E+00 -0.14359070872E+04  0.14359070872E+04  0.00000000000E+00 0. -1.
         23    2    1    2    0    0  0.65287180013E+02  0.94554532510E+02 -0.66196035637E+03  0.67774635513E+03  0.89138280240E+02 0.  0.
         23    2    1    2    0    0 -0.65287180013E+02 -0.94554532510E+02 -0.75663863737E+03  0.77546882544E+03  0.12508755403E+03 0.  0.
          5    1    4    4  502    0 -0.92430087034E+01  0.27953397874E+02 -0.22743162794E+03  0.22936748560E+03  0.41800000000E+01 0.  1.
         -5    1    4    4    0  502 -0.56044171310E+02 -0.12250793038E+03 -0.52920700943E+03  0.54610133984E+03  0.41800000000E+01 0.  1.
        -11    1    3    3    0    0  0.17894248015E+02  0.96135591295E+02 -0.46290134602E+03  0.47311722879E+03  0.00000000000E+00 0.  1.
         11    1    3    3    0    0  0.47392931998E+02 -0.15810587855E+01 -0.19905901034E+03  0.20462912635E+03  0.00000000000E+00 0. -1.
</event>
<event>
 8    1  0.8061721E-006  0.2270523E+03  0.7561462E-02  0.1128732E+00
         -2   -1    0    0    0  501 -0.00000000000E+00  0.00000000000E+00  0.39844340717E+03  0.39844340717E+03  0.00000000000E+00 0.  1.
          2   -1    0    0  501    0  0.00000000000E+00 -0.00000000000E+00 -0.13497611084E+03  0.13497611084E+03  0.00000000000E+00 0. -1.
         23    2    1    2    0    0  0.20317919343E+03 -0.52832279562E+01  0.15194296977E+03  0.26999023992E+03  0.92186584980E+02 0.  0.
         23    2    1    2    0    0 -0.20317919343E+03  0.52832279562E+01  0.11152432656E+03  0.26342927809E+03  0.12509041531E+03 0.  0.
          5    1    4    4  502    0 -0.14882469910E+02  0.39794871682E+02  0.17767719317E+01  0.42728784692E+02  0.41800000000E+01 0.  1.
         -5    1    4    4    0  502 -0.18829672352E+03 -0.34511643726E+02  0.10974755463E+03  0.22070049340E+03  0.41800000000E+01 0.  1.
        -11    1    3    3    0    0  0.10624959058E+03 -0.44735016381E+02  0.56633594173E+02  0.12844283233E+03  0.00000000000E+00 0.  1.
         11    1    3    3    0    0  0.96929602853E+02  0.39451788425E+02  0.95309375593E+02  0.14154740759E+03  0.00000000000E+00 0. -1.
</event>
<event>
 8    1  0.8061721E-006  0.1462672E+03  0.7561462E-02  0.1205136E+00
         -2   -1    0    0    0  501 -0.00000000000E+00  0.00000000000E+00  0.26009392441E+03  0.26009392441E+03  0.00000000000E+00 0.  1.
          2   -1    0    0  501    0  0.00000000000E+00 -0.00000000000E+00 -0.11440363603E+03  0.11440363603E+03  0.00000000000E+00 0. -1.
         23    2    1    2    0    0 -0.12692183742E+03  0.12694622275E+02  0.10791483877E+03  0.19189146193E+03  0.94373801902E+02 0.  0.
         23    2    1    2    0    0  0.12692183742E+03 -0.12694622275E+02  0.37775449606E+02  0.18260609852E+03  0.12509075256E+03 0.  0.
          5    1    4    4  502    0  0.79383553742E+02 -0.36854705954E+02  0.76703421134E+02  0.11645129956E+03  0.41800000000E+01 0. -1.
         -5    1    4    4    0  502  0.47538283674E+02  0.24160083679E+02 -0.38927971528E+02  0.66154798959E+02  0.41800000000E+01 0. -1.
        -11    1    3    3    0    0 -0.10099811863E+03  0.44521353287E+02  0.10224110224E+03  0.15045269640E+03  0.00000000000E+00 0.  1.
         11    1    3    3    0    0 -0.25923718782E+02 -0.31826731012E+02  0.56737365328E+01  0.41438765530E+02  0.00000000000E+00 0. -1.
</event>
<event>
 8    1  0.8061721E-006  0.1547318E+03  0.7561462E-02  0.1194776E+00
          3   -1    0    0  501    0  0.00000000000E+00  0.00000000000E+00  0.56438978129E+02  0.56438978129E+02  0.00000000000E+00 0. -1.
         -3   -1    0    0    0  501 -0.00000000000E+00 -0.00000000000E+00 -0.53556708136E+03  0.53556708136E+03  0.00000000000E+00 0.  1.
         23    2    1    2    0    0  0.12906142511E+03 -0.39591425655E+02 -0.23768168758E+03  0.28841457943E+03  0.92011154682E+02 0.  0.
         23    2    1    2    0    0 -0.12906142511E+03  0.39591425655E+02 -0.24144641565E+03  0.30359148005E+03  0.12508829958E+03 0.  0.
          5    1    4    4  502    0 -0.39324237929E+02  0.60994576278E+02 -0.42372788529E+02  0.84140713283E+02  0.41800000000E+01 0. -1.
         -5    1    4    4    0  502 -0.89737187178E+02 -0.21403150623E+02 -0.19907362713E+03  0.21945076677E+03  0.41800000000E+01 0. -1.
        -11    1    3    3    0    0  0.19001397798E+02  0.12410529302E+02 -0.15429333326E+01  0.22747637220E+02  0.00000000000E+00 0.  1.
         11    1    3    3    0    0  0.11006002731E+03 -0.52001954956E+02 -0.23613875424E+03  0.26566694221E+03  0.00000000000E+00 0. -1.
</event>
<event>
 8    1  0.8061721E-006  0.2327842E+03  0.7561462E-02  0.1124695E+00
         -3   -1    0    0    0  501 -0.00000000000E+00  0.00000000000E+00  0.13594163029E+03  0.13594163029E+03  0.00000000000E+00 0.  1.
          3   -1    0    0  501    0  0.00000000000E+00 -0.00000000000E+00 -0.47068208856E+03  0.47068208856E+03  0.00000000000E+00 0. -1.
         23    2    1    2    0    0  0.39055911171E+02  0.22016200252E+03 -0.11019225127E+03  0.26594028544E+03  0.92656525009E+02 0.  0.
         23    2    1    2    0    0 -0.39055911171E+02 -0.22016200252E+03 -0.22454820700E+03  0.34068343341E+03  0.12508650201E+03 0.  0.
          5    1    4    4  502    0 -0.12387655332E+02 -0.57380851036E+02 -0.14704337131E+03  0.15838321097E+03  0.41800000000E+01 0.  1.
         -5    1    4    4    0  502 -0.26668255839E+02 -0.16278115149E+03 -0.77504835689E+02  0.18230022245E+03  0.41800000000E+01 0.  1.
        -11    1    3    3    0    0 -0.28071154146E+02  0.10223734811E+03 -0.55178332760E+02  0.11952034743E+03  0.00000000000E+00 0. -1.
         11    1    3    3    0    0  0.67127065318E+02  0.11792465442E+03 -0.55013918514E+02  0.14641993801E+03  0.00000000000E+00 0.  1.
</event>
<event>
 8    1  0.8061721E-006  0.1089445E+03  0.7561462E-02  0.1262537E+00
          2   -1    0    0  501    0  0.00000000000E+00  0.00000000000E+00  0.20842944652E+03  0.20842944652E+03  0.00000000000E+00 0. -1.
         -2   -1    0    0    0  501 -0.00000000000E+00 -0.00000000000E+00 -0.80105317683E+02  0.80105317683E+02  0.00000000000E+00 0.  1.
         23    2    1    2    0    0 -0.20455332020E+02 -0.28360622084E+02  0.93576256212E+01  0.11240430337E+03  0.10641624296E+03 0.  0.
         23    2    1    2    0    0  0.20455332020E+02  0.28360622084E+02  0.11896650321E+03  0.17613046083E+03  0.12508463076E+03 0.  0.
          5    1    4    4  502    0  0.66327423721E+02 -0.13068031623E+02  0.57285972857E+02  0.88708825233E+02  0.41800000000E+01 0. -1.
         -5    1    4    4    0  502 -0.45872091701E+02  0.41428653707E+02  0.61680530358E+02  0.87421635596E+02  0.41800000000E+01 0. -1.
        -11    1    3    3    0    0  0.18180817114E+02  0.19523487575E+02  0.36455170272E+02  0.45173976110E+02  0.00000000000E+00 0. -1.
         11    1    3    3    0    0 -0.38636149134E+02 -0.47884109659E+02 -0.27097544651E+02  0.67230327263E+02  0.00000000000E+00 0.  1.
</event>
<event>
 8    1  0.8061721E-006  0.7068592E+02  0.7561462E-02  0.1357776E+00
         -2   -1    0    0    0  501 -0.00000000000E+00  0.00000000000E+00  0.36006799796E+02  0.36006799796E+02  0.00000000000E+00 0.  1.
          2   -1    0    0  501    0  0.00000000000E+00 -0.00000000000E+00 -0.37091895817E+03  0.37091895817E+03  0.00000000000E+00 0. -1.
         23    2    1    2    0    0 -0.88229647820E+01  0.29978754137E+02 -0.98443100201E+02  0.13759361667E+03  0.90908684762E+02 0.  0.
         23    2    1    2    0    0  0.88229647820E+01 -0.29978754137E+02 -0.23646905818E+03  0.26933214129E+03  0.12508243862E+03 0.  0.
          5    1    4    4  502    0 -0.39497624709E+02 -0.91364612715E+01 -0.17960945346E+02  0.44537683370E+02  0.41800000000E+01 0.  1.
         -5    1    4    4    0  502  0.48320589491E+02 -0.20842292866E+02 -0.21850811283E+03  0.22479445792E+03  0.41800000000E+01 0.  1.
        -11    1    3    3    0    0 -0.13582441883E+02 -0.34880001925E+01  0.14218301409E+02  0.19970201997E+02  0.00000000000E+00 0.  1.
         11    1    3    3    0    0  0.47594771013E+01  0.33466754330E+02 -0.11266140161E+03  0.11762341468E+03  0.00000000000E+00 0. -1.
</event>
<event>
 8    1  0.8061721E-006  0.8748267E+02  0.7561462E-02  0.1309065E+00
         -3   -1    0    0    0  501 -0.00000000000E+00  0.00000000000E+00  0.21965166224E+02  0.21965166224E+02  0.00000000000E+00 0.  1.
          3   -1    0    0  501    0  0.00000000000E+00 -0.00000000000E+00 -0.53405515291E+03  0.53405515291E+03  0.00000000000E+00 0. -1.
         23    2    1    2    0    0  0.16881413383E+02  0.39249350949E+01 -0.17979103483E+03  0.20052727494E+03  0.87097557689E+02 0.  0.
         23    2    1    2    0    0 -0.16881413383E+02 -0.39249350949E+01 -0.33229895185E+03  0.35549304420E+03  0.12510924760E+03 0.  0.
          5    1    4    4  502    0 -0.38126992619E+02  0.47944018036E+02 -0.10774124260E+03  0.12400783922E+03  0.41800000000E+01 0.  1.
         -5    1    4    4    0  502  0.21245579236E+02 -0.51868953131E+02 -0.22455770925E+03  0.23148520497E+03  0.41800000000E+01 0.  1.
        -11    1    3    3    0    0 -0.19898729517E+02 -0.23891482031E+01 -0.35189717361E+01  0.20348234017E+02  0.00000000000E+00 0.  1.
         11    1    3    3    0    0  0.36780142900E+02  0.63140832980E+01 -0.17627206310E+03  0.18017904092E+03  0.00000000000E+00 0. -1.
</event>
<event>
 8    1  0.8061721E-006  0.1065694E+03  0.7561462E-02  0.1267058E+00
          1   -1    0    0  501    0  0.00000000000E+00  0.00000000000E+00  0.30922722203E+02  0.30922722203E+02  0.00000000000E+00 0.  1.
         -1   -1    0    0    0  501 -0.00000000000E+00 -0.00000000000E+00 -0.44733596896E+03  0.44733596896E+03  0.00000000000E+00 0. -1.
         23    2    1    2    0    0  0.39200873447E+02  0.17736651290E+02 -0.21591084718E+03  0.23805133677E+03  0.90551906263E+02 0.  0.
         23    2    1    2    0    0 -0.39200873447E+02 -0.17736651290E+02 -0.20050239958E+03  0.24020735440E+03  0.12508822324E+03 0.  0.
          5    1    4    4  502    0 -0.73649410085E+02  0.22726626664E+02 -0.13745747524E+03  0.15764759771E+03  0.41800000000E+01 0.  1.
         -5    1    4    4    0  502  0.34448536638E+02 -0.40463277953E+02 -0.63044924338E+02  0.82559756686E+02  0.41800000000E+01 0.  1.
        -11    1    3    3    0    0  0.56146059950E+02 -0.25592855096E+01 -0.19871741938E+03  0.20651281499E+03  0.00000000000E+00 0. -1.
         11    1    3    3    0    0 -0.16945186503E+02  0.20295936799E+02 -0.17193427798E+02  0.31538521773E+02  0.00000000000E+00 0.  1.
</event>
<event>
 8    1  0.8061721E-006  0.1864974E+03  0.7561462E-02  0.1161659E+00
          1   -1    0    0  501    0  0.00000000000E+00  0.00000000000E+00  0.12552128498E+04  0.12552128498E+04  0.00000000000E+00 0. -1.
         -1   -1    0    0    0  501 -0.00000000000E+00 -0.00000000000E+00 -0.29968131169E+02  0.29968131169E+02  0.00000000000E+00 0.  1.
         23    2    1    2    0    0  0.14487606243E+03 -0.33914227672E+02  0.49602912704E+03  0.53049918928E+03  0.11508799524E+03 0.  0.
         23    2    1    2    0    0 -0.14487606243E+03  0.33914227672E+02  0.72921559155E+03  0.75468179165E+03  0.12509987763E+03 0.  0.
          5    1    4    4  502    0 -0.12806671836E+03  0.73883119782E+02  0.61239367685E+03  0.63000260919E+03  0.41800000000E+01 0.  1.
         -5    1    4    4    0  502 -0.16809344080E+02 -0.39968892109E+02  0.11682191470E+03  0.12467918246E+03  0.41800000000E+01 0.  1.
        -11    1    3    3    0    0  0.11773503031E+03  0.21628402274E+02  0.25548079143E+03  0.28213429415E+03  0.00000000000E+00 0.  1.
         11    1    3    3    0    0  0.27141032125E+02 -0.55542629947E+02  0.24054833561E+03  0.24836489513E+03  0.00000000000E+00 0. -1.
</event>
<event>
 8    1  0.8061721E-006  0.9125188E+02  0.7561462E-02  0.1299848E+00
         -1   -1    0    0    0  501 -0.00000000000E+00  0.00000000000E+00  0.16462044766E+02  0.16462044766E+02  0.00000000000E+00 0.  1.
          1   -1    0    0  501    0  0.00000000000E+00 -0.00000000000E+00 -0.91869265808E+03  0.91869265808E+03  0.00000000000E+00 0. -1.
         23    2    1    2    0    0 -0.21217045620E+02  0.24733132750E+02 -0.21665896740E+03  0.23750166168E+03  0.91673552706E+02 0.  0.
         23    2    1    2    0    0  0.21217045620E+02 -0.24733132750E+02 -0.68557164591E+03  0.69765304116E+03  0.12509753509E+03 0.  0.
          5    1    4    4  502    0 -0.42820235432E+02  0.18977451024E+02 -0.17484611283E+03  0.18105897322E+03  0.41800000000E+01 0.  1.
         -5    1    4    4    0  502  0.64037281052E+02 -0.43710583773E+02 -0.51072553308E+03  0.51659406794E+03  0.41800000000E+01 0.  1.
        -11    1    3    3    0    0  0.14789749343E+02  0.12402309057E+01  0.17107192032E+01  0.14939926991E+02  0.00000000000E+00 0.  1.
         11    1    3    3    0    0 -0.36006794963E+02  0.23492901844E+02 -0.21836968661E+03  0.22256173469E+03  0.00000000000E+00 0. -1.
</event>
<event>
 8    1  0.8061721E-006  0.1317559E+03  0.7561462E-02  0.1224873E+00
         -3   -1    0    0    0  501 -0.00000000000E+00  0.00000000000E+00  0.69766334021E+02  0.69766334021E+02  0.00000000000E+00 0.  1.
          3   -1    0    0  501    0  0.00000000000E+00 -0.00000000000E+00 -0.43322339316E+03  0.43322339316E+03  0.00000000000E+00 0. -1.
         23    2    1    2    0    0 -0.79881990937E+02  0.13894253953E+02 -0.14167330738E+02  0.12321737304E+03  0.91693102190E+02 0.  0.
         23    2    1    2    0    0  0.79881990937E+02 -0.13894253953E+02 -0.34928972840E+03  0.37977235415E+03  0.12509813682E+03 0.  0.
          5    1    4    4  502    0  0.91495073448E+02  0.35226216815E+02 -0.24153301530E+03  0.26070654901E+03  0.41800000000E+01 0. -1.
         -5    1    4    4    0  502 -0.11613082511E+02 -0.49120470769E+02 -0.10775671310E+03  0.11906580513E+03  0.41800000000E+01 0. -1.
        -11    1    3    3    0    0 -0.73661793589E+02 -0.23116205556E+02 -0.29539037420E+02  0.82661802096E+02  0.00000000000E+00 0. -1.
         11    1    3    3    0    0 -0.62201973476E+01  0.37010459509E+02  0.15371706682E+02  0.40555570942E+02  0.00000000000E+00 0.  1.
</event>
<event>
 8    1  0.8061721E-006  0.1449377E+03  0.7561462E-02  0.1206835E+00
         -1   -1    0    0    0  501 -0.00000000000E+00  0.00000000000E+00  0.14453611358E+02  0.14453611358E+02  0.00000000000E+00 0.  1.
          1   -1    0    0  501    0  0.00000000000E+00 -0.00000000000E+00 -0.27043294073E+04  0.27043294073E+04  0.00000000000E+00 0. -1.
         23    2    1    2    0    0 -0.10990643900E+03 -0.21782335727E+02 -0.51007453938E+03  0.53320927701E+03  0.10762063875E+03 0.  0.
         23    2    1    2    0    0  0.10990643900E+03  0.21782335727E+02 -0.21798012566E+04  0.21855737417E+04  0.11245072959E+03 0.  0.
          5    1    4    4  502    0  0.54362662907E+02 -0.38501945928E+02 -0.13696359098E+04  0.13712613525E+04  0.41800000000E+01 0. -1.
         -5    1    4    4    0  502  0.55543776092E+02  0.60284281655E+02 -0.81016534682E+03  0.81431238923E+03  0.41800000000E+01 0.  1.
        -11    1    3    3    0    0 -0.11488013120E+03 -0.40402305463E+02 -0.49178989158E+03  0.50664295939E+03  0.00000000000E+00 0.  1.
         11    1    3    3    0    0  0.49736922012E+01  0.18619969737E+02 -0.18284647793E+02  0.26566317622E+02  0.00000000000E+00 0. -1.
</event>
<event>
 8    1  0.8061721E-006  0.8153181E+02  0.7561462E-02  0.1324760E+00
          3   -1    0    0  501    0  0.00000000000E+00  0.00000000000E+00  0.35734164832E+03  0.35734164832E+03  0.00000000000E+00 0. -1.
         -3   -1    0    0    0  501 -0.00000000000E+00 -0.00000000000E+00 -0.41754997448E+02  0.41754997448E+02  0.00000000000E+00 0.  1.
         23    2    1    2    0    0 -0.12839263670E+02 -0.26063986061E+02  0.59879274073E+02  0.11295399940E+03  0.91262809821E+02 0.  0.
         23    2    1    2    0    0  0.12839263670E+02  0.26063986061E+02  0.25570737680E+03  0.28614264636E+03  0.12508866239E+03 0.  0.
          5    1    4    4  502    0 -0.17688324708E+02  0.35957253363E+02  0.25006841906E+03  0.25329328359E+03  0.41800000000E+01 0. -1.
         -5    1    4    4    0  502  0.30527588377E+02 -0.98932673020E+01  0.56389577323E+01  0.32849362769E+02  0.41800000000E+01 0. -1.
        -11    1    3    3    0    0 -0.55007317192E+01 -0.57686995111E+02  0.55423831900E+02  0.80186336722E+02  0.00000000000E+00 0. -1.
         11    1    3    3    0    0 -0.73385319504E+01  0.31623009050E+02  0.44554421725E+01  0.32767662680E+02  0.00000000000E+00 0.  1.
</event>
<event>
 8    1  0.8061721E-006  0.9514409E+02  0.7561462E-02  0.1290852E+00
         -1   -1    0    0    0  501 -0.00000000000E+00  0.00000000000E+00  0.91727856230E+02  0.91727856230E+02  0.00000000000E+00 0.  1.
          1   -1    0    0  501    0  0.00000000000E+00 -0.00000000000E+00 -0.16024157477E+03  0.16024157477E+03  0.00000000000E+00 0. -1.
         23    2    1    2    0    0  0.41708267305E+02  0.35588450964E+02 -0.17734178376E+02  0.10626102926E+03  0.89279268889E+02 0.  0.
         23    2    1    2    0    0 -0.41708267305E+02 -0.35588450964E+02 -0.50779540164E+02  0.14570840174E+03  0.12508500803E+03 0.  0.
          5    1    4    4  502    0 -0.36319575974E+01 -0.49837764479E+02  0.27654837225E+02  0.57264791157E+02  0.41800000000E+01 0. -1.
         -5    1    4    4    0  502 -0.38076309708E+02  0.14249313515E+02 -0.78434377388E+02  0.88443610583E+02  0.41800000000E+01 0. -1.
        -11    1    3    3    0    0 -0.18598065529E+02  0.34225798393E+02  0.94724889294E+01  0.40087670967E+02  0.00000000000E+00 0. -1.
         11    1    3    3    0    0  0.60306332835E+02  0.13626525711E+01 -0.27206667305E+02  0.66173358294E+02  0.00000000000E+00 0.  1.
</event>
<event>
 8    1  0.8061721E-006  0.1159842E+03  0.7561462E-02  0.1249873E+00
         -2   -1    0    0    0  501 -0.00000000000E+00  0.00000000000E+00  0.50012507895E+02  0.50012507895E+02  0.00000000000E+00 0.  1.
          2   -1    0    0  501    0  0.00000000000E+00 -0.00000000000E+00 -0.30740037400E+03  0.30740037400E+03  0.00000000000E+00 0. -1.
         23    2    1    2    0    0 -0.45608724481E+01 -0.60351659672E+02 -0.12527293472E+03  0.16567163864E+03  0.89948092215E+02 0.  0.
         23    2    1    2    0    0  0.45608724481E+01  0.60351659672E+02 -0.13211493139E+03  0.19174124326E+03  0.12508886796E+03 0.  0.
          5    1    4    4  502    0 -0.19144691074E+02  0.89439443553E+02 -0.12221533902E+03  0.15270885617E+03  0.41800000000E+01 0.  1.
         -5    1    4    4    0  502  0.23705563523E+02 -0.29087783880E+02 -0.98995923634E+01  0.39032387090E+02  0.41800000000E+01 0.  1.
        -11    1    3    3    0    0  0.10420921002E+02 -0.78459932577E+02 -0.11594789027E+03  0.14038685791E+03  0.00000000000E+00 0. -1.
         11    1    3    3    0    0 -0.14981793450E+02  0.18108272905E+02 -0.93250444438E+01  0.25284780728E+02  0.00000000000E+00 0.  1.
</event>
<event>
 7    1  0.8061721E-006  0.1883769E+03  0.7561462E-02  0.1159933E+00
         -3   -1    0    0    0  501 -0.00000000000E+00  0.00000000000E+00  0.52482960408E+02  0.52482960408E+02  0.00000000000E+00 0.  1.
          3   -1    0    0  501    0  0.00000000000E+00 -0.00000000000E+00 -0.70156664460E+03  0.70156664460E+03  0.00000000000E+00 0. -1.
         23    2    1    2    0    0 -0.14003973127E+03 -0.16299662475E+02 -0.26700225300E+03  0.31715725005E+03  0.97065507878E+02 0.  0.
          5    1    1    2  502    0  0.54155589162E+02  0.85635464813E+02 -0.18396757262E+03  0.21006618206E+03  0.41800000000E+01 0. -1.
         -5    1    1    2    0  502  0.85884142111E+02 -0.69335802338E+02 -0.19811385858E+03  0.22682617290E+03  0.41800000000E+01 0.  1.
        -11    1    3    3    0    0 -0.71299369454E+01  0.24770526382E+02 -0.80248293401E+02  0.84286437650E+02  0.00000000000E+00 0. -1.
         11    1    3    3    0    0 -0.13290979433E+03 -0.41070188857E+02 -0.18675395960E+03  0.23287081240E+03  0.00000000000E+00 0.  1.
</event>
<event>
 8    1  0.8061721E-006  0.1753843E+03  0.7561462E-02  0.1172346E+00
         -2   -1    0    0    0  501 -0.00000000000E+00  0.00000000000E+00  0.27731994687E+02  0.27731994687E+02  0.00000000000E+00 0.  1.
          2   -1    0    0  501    0  0.00000000000E+00 -0.00000000000E+00 -0.16848673244E+04  0.16848673244E+04  0.00000000000E+00 0. -1.
         23    2    1    2    0    0  0.17166908738E+03  0.40691880339E+01 -0.50750725906E+03  0.54350607252E+03  0.91369573813E+02 0.  0.
         23    2    1    2    0    0 -0.17166908738E+03 -0.40691880339E+01 -0.11496280707E+04  0.11690932466E+04  0.12508990555E+03 0.  0.
          5    1    4    4  502    0 -0.13296992578E+03  0.18081448329E+02 -0.10642185540E+04  0.10726539717E+04  0.41800000000E+01 0. -1.
         -5    1    4    4    0  502 -0.38699161601E+02 -0.22150636363E+02 -0.85409516642E+02  0.96439274846E+02  0.41800000000E+01 0. -1.
        -11    1    3    3    0    0  0.74335952761E+02  0.25266618945E+01 -0.35404371117E+03  0.36177225891E+03  0.00000000000E+00 0. -1.
         11    1    3    3    0    0  0.97333134620E+02  0.15425261393E+01 -0.15346354788E+03  0.18173381362E+03  0.00000000000E+00 0.  1.
</event>
<event>
 8    1  0.8061721E-006  0.1183871E+03  0.7561462E-02  0.1245782E+00
         -2   -1    0    0    0  501 -0.00000000000E+00  0.00000000000E+00  0.27365491390E+02  0.27365491390E+02  0.00000000000E+00 0. -1.
          2   -1    0    0  501    0  0.00000000000E+00 -0.00000000000E+00 -0.25129258261E+04  0.25129258261E+04  0.00000000000E+00 0.  1.
         23    2    1    2    0    0  0.73670272158E+02  0.82342411927E+01 -0.11543828355E+03  0.16571283897E+03  0.92949642068E+02 0.  0.
         23    2    1    2    0    0 -0.73670272158E+02 -0.82342411927E+01 -0.23701220512E+04  0.23745784785E+04  0.12509716847E+03 0.  0.
          5    1    4    4  502    0 -0.44001683916E+02  0.55015001309E+02 -0.14938436029E+04  0.14955096057E+04  0.41800000000E+01 0. -1.
         -5    1    4    4    0  502 -0.29668588243E+02 -0.63249242502E+02 -0.87627844828E+03  0.87906887280E+03  0.41800000000E+01 0. -1.
        -11    1    3    3    0    0  0.29487455471E+02  0.34050726834E+02 -0.67055513699E+01  0.45540382599E+02  0.00000000000E+00 0. -1.
         11    1    3    3    0    0  0.44182816687E+02 -0.25816485641E+02 -0.10873273218E+03  0.12017245637E+03  0.00000000000E+00 0.  1.
</event>
<event>
 8    1  0.8061721E-006  0.1012293E+03  0.7561462E-02  0.1277732E+00
         -1   -1    0    0    0  501 -0.00000000000E+00  0.00000000000E+00  0.26768351243E+03  0.26768351243E+03  0.00000000000E+00 0.  1.
          1   -1    0    0  501    0  0.00000000000E+00 -0.00000000000E+00 -0.67275010010E+02  0.67275010010E+02  0.00000000000E+00 0. -1.
         23    2    1    2    0    0 -0.24889101545E+02 -0.67565570730E+02  0.12939116209E+03  0.17409892324E+03  0.91563030329E+02 0.  0.
         23    2    1    2    0    0  0.24889101545E+02  0.67565570730E+02  0.71017340332E+02  0.16085959920E+03  0.12509106404E+03 0.  0.
          5    1    4    4  502    0  0.22667997333E+02 -0.12354044988E+02 -0.24770007780E+02  0.36020635975E+02  0.41800000000E+01 0. -1.
         -5    1    4    4    0  502  0.22211042127E+01  0.79919615718E+02  0.95787348112E+02  0.12483896322E+03  0.41800000000E+01 0. -1.
        -11    1    3    3    0    0  0.10180031346E+02 -0.59365031792E+02  0.12377020116E+03  0.13764774874E+03  0.00000000000E+00 0.  1.
         11    1    3    3    0    0 -0.35069132892E+02 -0.82005389376E+01  0.56209609261E+01  0.36451174499E+02  0.00000000000E+00 0. -1.
</event>
<event>
 8    1  0.8061721E-006  0.1234891E+03  0.7561462E-02  0.1237450E+00
         -2   -1    0    0    0  501 -0.00000000000E+00  0.00000000000E+00  0.16536334245E+03  0.16536334245E+03  0.00000000000E+00 0. -1.
          2   -1    0    0  501    0  0.00000000000E+00 -0.00000000000E+00 -0.11525613008E+03  0.11525613008E+03  0.00000000000E+00 0.  1.
         23    2    1    2    0    0 -0.78804760006E+02 -0.21441776600E+02  0.48495465183E+02  0.13122137430E+03  0.90538936074E+02 0.  0.
         23    2    1    2    0    0  0.78804760006E+02  0.21441776600E+02  0.16117471897E+01  0.14939809823E+03  0.12508898449E+03 0.  0.
          5    1    4    4  502    0  0.38877422296E+02 -0.52038081222E+02 -0.57431285571E+01  0.65344255963E+02  0.41800000000E+01 0.  1.
         -5    1    4    4    0  502  0.39927337709E+02  0.73479857823E+02  0.73548757468E+01  0.84053842265E+02  0.41800000000E+01 0.  1.
        -11    1    3    3    0    0 -0.16951349964E+02  0.18056201158E+02 -0.19232012187E+02  0.31356737053E+02  0.00000000000E+00 0.  1.
         11    1    3    3    0    0 -0.61853410041E+02 -0.39497977758E+02  0.67727477370E+02  0.99864637243E+02  0.00000000000E+00 0. -1.
</event>
<event>
 8    1  0.8061721E-006  0.1628485E+03  0.7561462E-02  0.1185518E+00
          1   -1    0    0  501    0  0.00000000000E+00  0.00000000000E+00  0.17003225541E+04  0.17003225541E+04  0.00000000000E+00 0. -1.
         -1   -1    0    0    0  501 -0.00000000000E+00 -0.00000000000E+00 -0.16355195444E+02  0.16355195444E+02  0.00000000000E+00 0.  1.
         23    2    1    2    0    0  0.12228312801E+03  0.18175830745E+02  0.65746409284E+03  0.67521756728E+03  0.91521612563E+02 0.  0.
         23    2    1    2    0    0 -0.12228312801E+03 -0.18175830745E+02  0.10265032659E+04  0.10414601823E+04  0.12508729870E+03 0.  0.
          5    1    4    4  502    0 -0.13085356991E+02  0.44485637937E+02  0.37607624422E+03  0.37894724226E+03  0.41800000000E+01 0.  1.
         -5    1    4    4    0  502 -0.10919777102E+03 -0.62661468682E+02  0.65042702163E+03  0.66251294004E+03  0.41800000000E+01 0.  1.
        -11    1    3    3    0    0 -0.14781187610E+02  0.43629391229E+01  0.87104446068E+02  0.88457352830E+02  0.00000000000E+00 0. -1.
         11    1    3    3    0    0  0.13706431562E+03  0.13812891622E+02  0.57035964677E+03  0.58676021445E+03  0.00000000000E+00 0.  1.
</event>
<event>
 8    1  0.8061721E-006  0.7841908E+02  0.7561462E-02  0.1333599E+00
         -1   -1    0    0    0  501 -0.00000000000E+00  0.00000000000E+00  0.43762813663E+02  0.43762813663E+02  0.00000000000E+00 0.  1.
          1   -1    0    0  501    0  0.00000000000E+00 -0.00000000000E+00 -0.39103135453E+03  0.39103135453E+03  0.00000000000E+00 0. -1.
         23    2    1    2    0    0 -0.15964969068E+02  0.35055139489E+02 -0.54408184984E+02  0.11401373839E+03  0.92493993900E+02 0.  0.
         23    2    1    2    0    0  0.15964969068E+02 -0.35055139489E+02 -0.29286035589E+03  0.32078042980E+03  0.12509657490E+03 0.  0.
          5    1    4    4  502    0  0.88106101924E+01  0.23995382857E+02 -0.23908729229E+03  0.24048619708E+03  0.41800000000E+01 0. -1.
         -5    1    4    4    0  502  0.71543588756E+01 -0.59050522346E+02 -0.53773063599E+02  0.80294232726E+02  0.41800000000E+01 0. -1.
        -11    1    3    3    0    0 -0.31785534573E+02 -0.11402285352E+01 -0.65645301883E+02  0.72944677588E+02  0.00000000000E+00 0. -1.
         11    1    3    3    0    0  0.15820565505E+02  0.36195368024E+02  0.11237116899E+02  0.41069060806E+02  0.00000000000E+00 0.  1.
</event>
<event>
 8    1  0.8061721E-006  0.8229205E+02  0.7561462E-02  0.1322670E+00
         -2   -1    0    0    0  501 -0.00000000000E+00  0.00000000000E+00  0.28877042811E+02  0.28877042811E+02  0.00000000000E+00 0.  1.
          2   -1    0    0  501    0  0.00000000000E+00 -0.00000000000E+00 -0.64662364237E+03  0.64662364237E+03  0.00000000000E+00 0. -1.
         23    2    1    2    0    0 -0.66627216230E+02 -0.14110596822E+02 -0.16062883527E+03  0.19670792046E+03  0.90852013549E+02 0.  0.
         23    2    1    2    0    0  0.66627216230E+02  0.14110596822E+02 -0.45711776428E+03  0.47879276472E+03  0.12509023238E+03 0.  0.
          5    1    4    4  502    0  0.41763696664E+02  0.30705773604E+02 -0.44197376204E+03  0.44502284168E+03  0.41800000000E+01 0. -1.
         -5    1    4    4    0  502  0.24863519565E+02 -0.16595176783E+02 -0.15144002247E+02  0.33769923033E+02  0.41800000000E+01 0. -1.
        -11    1    3    3    0    0 -0.58563509912E+02  0.77693544485E+01 -0.34439631122E+02  0.68382276604E+02  0.00000000000E+00 0.  1.
         11    1    3    3    0    0 -0.80637063179E+01 -0.21879951270E+02 -0.12618920415E+03  0.12832564386E+03  0.00000000000E+00 0. -1.
</event>
<event>
 8    1  0.8061721E-006  0.1303937E+03  0.7561462E-02  0.1226873E+00
          2   -1    0    0  501    0  0.00000000000E+00  0.00000000000E+00  0.99206142129E+03  0.99206142129E+03  0.00000000000E+00 0. -1.
         -2   -1    0    0    0  501 -0.00000000000E+00 -0.00000000000E+00 -0.26732920503E+02  0.26732920503E+02  0.00000000000E+00 0.  1.
         23    2    1    2    0    0 -0.10266598337E+03 -0.55730172474E+02  0.34432243743E+03  0.37463470016E+03  0.90261073435E+02 0.  0.
         23    2    1    2    0    0  0.10266598337E+03  0.55730172474E+02  0.62100606336E+03  0.64415964164E+03  0.12508779685E+03 0.  0.
          5    1    4    4  502    0  0.71646525816E+02 -0.81569496815E+01  0.13625817610E+03  0.15421907613E+03  0.41800000000E+01 0. -1.
         -5    1    4    4    0  502  0.31019457554E+02  0.63887122155E+02  0.48474788726E+03  0.48994056550E+03  0.41800000000E+01 0. -1.
        -11    1    3    3    0    0 -0.36667490660E+02 -0.26454477373E+02  0.25875856802E+03  0.26267915938E+03  0.00000000000E+00 0. -1.
         11    1    3    3    0    0 -0.65998492710E+02 -0.29275695101E+02  0.85563869407E+02  0.11195554078E+03  0.00000000000E+00 0.  1.
</event>
<event>
 8    1  0.8061721E-006  0.8754754E+02  0.7561462E-02  0.1308902E+00
         -1   -1    0    0    0  501 -0.00000000000E+00  0.00000000000E+00  0.28465563518E+03  0.28465563518E+03  0.00000000000E+00 0.  1.
          1   -1    0    0  501    0  0.00000000000E+00 -0.00000000000E+00 -0.49513840688E+02  0.49513840688E+02  0.00000000000E+00 0. -1.
         23    2    1    2    0    0 -0.41716459684E+01 -0.39201984286E+02  0.14492492628E+03  0.17497957239E+03  0.89779832332E+02 0.  0.
         23    2    1    2    0    0  0.41716459684E+01  0.39201984286E+02  0.90216868216E+02  0.15918990349E+03  0.12509254118E+03 0.  0.
          5    1    4    4  502    0 -0.43844350376E+02 -0.75638735758E+01  0.79477907330E+02  0.91179764186E+02  0.41800000000E+01 0.  1.
         -5    1    4    4    0  502  0.48015996345E+02  0.46765857862E+02  0.10738960886E+02  0.68010139299E+02  0.41800000000E+01 0.  1.
        -11    1    3    3    0    0  0.22732415780E+02 -0.18025613002E+02  0.13673012267E+03  0.13977414602E+03  0.00000000000E+00 0.  1.
         11    1    3    3    0    0 -0.26904061749E+02 -0.21176371285E+02  0.81948036117E+01  0.35205426366E+02  0.00000000000E+00 0. -1.
</event>
<event>
 8    1  0.8061721E-006  0.1003145E+03  0.7561462E-02  0.1279636E+00
          2   -1    0    0  501    0  0.00000000000E+00  0.00000000000E+00  0.42157677048E+03  0.42157677048E+03  0.00000000000E+00 0. -1.
         -2   -1    0    0    0  501 -0.00000000000E+00 -0.00000000000E+00 -0.43335642796E+02  0.43335642796E+02  0.00000000000E+00 0.  1.
         23    2    1    2    0    0  0.58507678062E+02 -0.36939145009E+02  0.80670419489E+02  0.13478319971E+03  0.82892373087E+02 0.  0.
         23    2    1    2    0    0 -0.58507678062E+02  0.36939145009E+02  0.29757070820E+03  0.33012921357E+03  0.12509725197E+03 0.  0.
          5    1    4    4  502    0  0.16196301574E+02  0.45695491985E+02  0.43995329661E+02  0.65600759175E+02  0.41800000000E+01 0.  1.
         -5    1    4    4    0  502 -0.74703979637E+02 -0.87563469758E+01  0.25357537854E+03  0.26452845440E+03  0.41800000000E+01 0.  1.
        -11    1    3    3    0    0  0.17984555902E+02  0.46434494502E+01 -0.14319628754E+02  0.23453307687E+02  0.00000000000E+00 0.  1.
         11    1    3    3    0    0  0.40523122161E+02 -0.41582594459E+02  0.94990048243E+02  0.11132989202E+03  0.00000000000E+00 0. -1.
</event>
<event>
 8    1  0.8061721E-006  0.8937242E+02  0.7561462E-02  0.1304379E+00
         -1   -1    0    0    0  501 -0.00000000000E+00  0.00000000000E+00  0.72130210061E+02  0.72130210061E+02  0.00000000000E+00 0.  1.
          1   -1    0    0  501    0  0.00000000000E+00 -0.00000000000E+00 -0.20004096886E+03  0.20004096886E+03  0.00000000000E+00 0. -1.
         23    2    1    2    0    0  0.23302164280E+02  0.27573634323E+02 -0.13324080058E+02  0.98734047306E+02  0.90926260332E+02 0.  0.
         23    2    1    2    0    0 -0.23302164280E+02 -0.27573634323E+02 -0.11458667874E+03  0.17343713161E+03  0.12508811098E+03 0.  0.
          5    1    4    4  502    0  0.23200479505E+02 -0.44632574224E+02 -0.21720890873E+01  0.50522463342E+02  0.41800000000E+01 0. -1.
         -5    1    4    4    0  502 -0.46502643785E+02  0.17058939901E+02 -0.11241458965E+03  0.12291466827E+03  0.41800000000E+01 0. -1.
        -11    1    3    3    0    0  0.48371622790E+02  0.20283969952E+02  0.20230908193E+02  0.56218706626E+02  0.00000000000E+00 0.  1.
         11    1    3    3    0    0 -0.25069458510E+02  0.72896643710E+01 -0.33554988251E+02  0.42515340680E+02  0.00000000000E+00 0. -1.
</event>
<event>
 8    1  0.8061721E-006  0.1086952E+03  0.7561462E-02  0.1263005E+00
         -2   -1    0    0    0  501 -0.00000000000E+00  0.00000000000E+00  0.73390154191E+02  0.73390154191E+02  0.00000000000E+00 0.  1.
          2   -1    0    0  501    0  0.00000000000E+00 -0.00000000000E+00 -0.14897358064E+04  0.14897358064E+04  0.00000000000E+00 0. -1.
         23    2    1    2    0    0  0.69861172908E+02 -0.61627240559E+02  0.10341560166E+02  0.12825323078E+03  0.87541093668E+02 0.  0.
         23    2    1    2    0    0 -0.69861172908E+02  0.61627240559E+02 -0.14266872124E+04  0.14348727298E+04  0.12142836791E+03 0.  0.
          5    1    4    4  502    0 -0.38623479616E+02  0.39825449544E+02 -0.13255740273E+04  0.13267410500E+04  0.41800000000E+01 0. -1.
         -5    1    4    4    0  502 -0.31237693292E+02  0.21801791016E+02 -0.10111318509E+03  0.10813167978E+03  0.41800000000E+01 0.  1.
        -11    1    3    3    0    0 -0.16407326966E+02 -0.24563857849E+02 -0.11759022999E+02  0.31793994913E+02  0.00000000000E+00 0. -1.
         11    1    3    3    0    0  0.86268499874E+02 -0.37063382710E+02  0.22100583165E+02  0.96459235870E+02  0.00000000000E+00 0.  1.
</event>
<event>
 8    1  0.8061721E-006  0.1376281E+03  0.7561462E-02  0.1216557E+00
          2   -1    0    0  501    0  0.00000000000E+00  0.00000000000E+00  0.24781282945E+03  0.24781282945E+03  0.00000000000E+00 0.  1.
         -2   -1    0    0    0  501 -0.00000000000E+00 -0.00000000000E+00 -0.99001687543E+02  0.99001687543E+02  0.00000000000E+00 0. -1.
         23    2    1    2    0    0  0.10242229727E+03 -0.47297533153E+02  0.63941884365E+02  0.15819222995E+03  0.90602612658E+02 0.  0.
         23    2    1    2    0    0 -0.10242229727E+03  0.47297533153E+02  0.84869257537E+02  0.18862228704E+03  0.12509273629E+03 0.  0.
          5    1    4    4  502    0 -0.11256192996E+02  0.37554272639E+02  0.88378978513E+02  0.96774694612E+02  0.41800000000E+01 0. -1.
         -5    1    4    4    0  502 -0.91166104270E+02  0.97432605140E+01 -0.35097209761E+01  0.91847592427E+02  0.41800000000E+01 0. -1.
        -11    1    3    3    0    0  0.11877594836E+03 -0.46870599856E+02  0.61225145984E+02  0.14160895996E+03  0.00000000000E+00 0. -1.
         11    1    3    3    0    0 -0.16353651094E+02 -0.42693329755E+00  0.27167383812E+01  0.16583269991E+02  0.00000000000E+00 0.  1.
</event>
<event>
 8    1  0.8061721E-006  0.1194133E+03  0.7561462E-02  0.1244068E+00
         -2   -1    0    0    0  501 -0.00000000000E+00  0.00000000000E+00  0.14729719161E+03  0.14729719161E+03  0.00000000000E+00 0.  1.
          2   -1    0    0  501    0  0.00000000000E+00 -0.00000000000E+00 -0.11374778947E+03  0.11374778947E+03  0.00000000000E+00 0. -1.
         23    2    1    2    0    0  0.59412739174E+02 -0.23732678684E+02  0.46039716944E+02  0.11998867661E+03  0.90468300329E+02 0.  0.
         23    2    1    2    0    0 -0.59412739174E+02  0.23732678684E+02 -0.12490314798E+02  0.14105630447E+03  0.12509100469E+03 0.  0.
          5    1    4    4  502    0  0.29613134499E+02  0.34682490944E+02  0.13198089640E+02  0.47659992479E+02  0.41800000000E+01 0. -1.
         -5    1    4    4    0  502 -0.89025873673E+02 -0.10949812260E+02 -0.25688404438E+02  0.93396311996E+02  0.41800000000E+01 0. -1.
        -11    1    3    3    0    0 -0.17378384722E+02  0.92208838794E+01 -0.71513378954E+01  0.20932620208E+02  0.00000000000E+00 0. -1.
         11    1    3    3    0    0  0.76791123896E+02 -0.32953562564E+02  0.53191054839E+02  0.99056056401E+02  0.00000000000E+00 0.  1.
</event>
<event>
 8    1  0.8061721E-006  0.2995286E+03  0.7561462E-02  0.1085476E+00
          2   -1    0    0  501    0  0.00000000000E+00  0.00000000000E+00  0.17292021512E+04  0.17292021512E+04  0.00000000000E+00 0. -1.
         -2   -1    0    0    0  501 -0.00000000000E+00 -0.00000000000E+00 -0.58147571641E+02  0.58147571641E+02  0.00000000000E+00 0.  1.
         23    2    1    2    0    0 -0.23638525419E+03  0.16906197411E+03  0.65604126137E+03  0.72416420765E+03  0.97794291975E+02 0.  0.
         23    2    1    2    0    0  0.23638525419E+03 -0.16906197411E+03  0.10150133182E+04  0.10631855152E+04  0.12510581166E+03 0.  0.
          5    1    4    4  502    0  0.82717804896E+02 -0.32790945304E+02  0.15309362827E+03  0.17712315704E+03  0.41800000000E+01 0.  1.
         -5    1    4    4    0  502  0.15366744929E+03 -0.13627102880E+03  0.86191968991E+03  0.88606235815E+03  0.41800000000E+01 0.  1.
        -11    1    3    3    0    0 -0.74322528664E+02  0.58621346947E+01  0.12654971683E+03  0.14687761477E+03  0.00000000000E+00 0. -1.
         11    1    3    3    0    0 -0.16206272552E+03  0.16319983941E+03  0.52949154453E+03  0.57728659288E+03  0.00000000000E+00 0.  1.
</event>
<event>
 8    1  0.8061721E-006  0.1284261E+03  0.7561462E-02  0.1229810E+00
         -2   -1    0    0    0  501 -0.00000000000E+00  0.00000000000E+00  0.71627860727E+02  0.71627860727E+02  0.00000000000E+00 0.  1.
          2   -1    0    0  501    0  0.00000000000E+00 -0.00000000000E+00 -0.82250778887E+03  0.82250778887E+03  0.00000000000E+00 0. -1.
         23    2    1    2    0    0 -0.67092830266E+02 -0.24205930869E+02  0.13941771252E+02  0.11587633930E+03  0.90252856257E+02 0.  0.
         23    2    1    2    0    0  0.67092830266E+02  0.24205930869E+02 -0.76482169940E+03  0.77825931030E+03  0.12509175524E+03 0.  0.
          5    1    4    4  502    0 -0.53912887105E+01 -0.42873100150E+02 -0.29257644632E+03  0.29577967822E+03  0.41800000000E+01 0.  1.
         -5    1    4    4    0  502  0.72484118977E+02  0.67079031019E+02 -0.47224525308E+03  0.48247963207E+03  0.41800000000E+01 0.  1.
        -11    1    3    3    0    0 -0.19473875710E+02  0.34125554566E+02 -0.28927212065E-01  0.39291044099E+02  0.00000000000E+00 0. -1.
         11    1    3    3    0    0 -0.47618954557E+02 -0.58331485435E+02  0.13970698464E+02  0.76585295205E+02  0.00000000000E+00 0.  1.
</event>
<event>
 8    1  0.8061721E-006  0.1350159E+03  0.7561462E-02  0.1220197E+00
         -2   -1    0    0    0  501 -0.00000000000E+00  0.00000000000E+00  0.41374965593E+03  0.41374965593E+03  0.00000000000E+00 0.  1.
          2   -1    0    0  501    0  0.00000000000E+00 -0.00000000000E+00 -0.49727069463E+02  0.49727069463E+02  0.00000000000E+00 0. -1.
         23    2    1    2    0    0 -0.79504550728E+02  0.14893662205E+02  0.24173586795E+03  0.27078119050E+03  0.91342369767E+02 0.  0.
         23    2    1    2    0    0  0.79504550728E+02 -0.14893662205E+02  0.12228671852E+03  0.19269553490E+03  0.12503892547E+03 0.  0.
          5    1    4    4  502    0  0.45146003515E+02 -0.69792910754E+02  0.58759644490E+02  0.10187924345E+03  0.41800000000E+01 0.  1.
         -5    1    4    4    0  502  0.34358547213E+02  0.54899248549E+02  0.63527074031E+02  0.90816291450E+02  0.41800000000E+01 0.  1.
        -11    1    3    3    0    0 -0.93537555282E+01 -0.34736658005E+02  0.76497238878E+02  0.84533754843E+02  0.00000000000E+00 0.  1.
         11    1    3    3    0    0 -0.70150795200E+02  0.49630320210E+02  0.16523862907E+03  0.18624743566E+03  0.00000000000E+00 0. -1.
</event>
<event>
 8    1  0.8061721E-006  0.9197795E+02  0.7561462E-02  0.1298131E+00
          2   -1    0    0  501    0  0.00000000000E+00  0.00000000000E+00  0.12881089118E+03  0.12881089118E+03  0.00000000000E+00 0. -1.
         -2   -1    0    0    0  501 -0.00000000000E+00 -0.00000000000E+00 -0.10176753999E+03  0.10176753999E+03  0.00000000000E+00 0.  1.
         23    2    1    2    0    0  0.27728640378E+02  0.46454839029E+01 -0.11646448779E+02  0.96658163133E+02  0.91742589418E+02 0.  0.
         23    2    1    2    0    0 -0.27728640378E+02 -0.46454839029E+01  0.38689799970E+02  0.13392026804E+03  0.12508908647E+03 0.  0.
          5    1    4    4  502    0 -0.47437620162E+01  0.43082506845E+02 -0.25600292829E+02  0.50511910150E+02  0.41800000000E+01 0.  1.
         -5    1    4    4    0  502 -0.22984878362E+02 -0.47727990748E+02  0.64290092799E+02  0.83408357892E+02  0.41800000000E+01 0.  1.
        -11    1    3    3    0    0  0.25403386463E+02 -0.37373540543E+02  0.14082122085E+02  0.47333072359E+02  0.00000000000E+00 0. -1.
         11    1    3    3    0    0  0.23252539150E+01  0.42019024446E+02 -0.25728570863E+02  0.49325090774E+02  0.00000000000E+00 0.  1.
</event>
<event>
 8    1  0.8061721E-006  0.7126462E+02  0.7561462E-02  0.1355845E+00
          1   -1    0    0  501    0  0.00000000000E+00  0.00000000000E+00  0.15718484593E+03  0.15718484593E+03  0.00000000000E+00 0.  1.
         -1   -1    0    0    0  501 -0.00000000000E+00 -0.00000000000E+00 -0.81655094983E+02  0.81655094983E+02  0.00000000000E+00 0. -1.
         23    2    1    2    0    0 -0.21272186615E+01 -0.74208430307E+01 -0.43502623755E+01  0.90219510597E+02  0.89783302117E+02 0.  0.
         23    2    1    2    0    0  0.21272186615E+01  0.74208430307E+01  0.79880013324E+02  0.14862043032E+03  0.12509045451E+03 0.  0.
          5    1    4    4  502    0 -0.27945673691E+02 -0.12316070234E+02  0.10174948659E+03  0.10631592866E+03  0.41800000000E+01 0.  1.
         -5    1    4    4    0  502  0.30072892352E+02  0.19736913265E+02 -0.21869473270E+02  0.42304501661E+02  0.41800000000E+01 0.  1.
        -11    1    3    3    0    0  0.11982608525E+01 -0.41366508301E+02 -0.26875307878E+02  0.49344766811E+02  0.00000000000E+00 0. -1.
         11    1    3    3    0    0 -0.33254795140E+01  0.33945665271E+02  0.22525045502E+02  0.40874743786E+02  0.00000000000E+00 0.  1.
</event>
<event>
 8    1  0.8061721E-006  0.1538527E+03  0.7561462E-02  0.1195817E+00
          2   -1    0    0  501    0  0.00000000000E+00  0.00000000000E+00  0.61228391814E+03  0.61228391814E+03  0.00000000000E+00 0. -1.
         -2   -1    0    0    0  501 -0.00000000000E+00 -0.00000000000E+00 -0.43370184786E+02  0.43370184786E+02  0.00000000000E+00 0.  1.
         23    2    1    2    0    0  0.10970988524E+03 -0.49423577923E+02  0.25777017623E+03  0.29936368949E+03  0.93242725485E+02 0.  0.
         23    2    1    2    0    0 -0.10970988524E+03  0.49423577923E+02  0.31114355712E+03  0.35629041344E+03  0.12511433408E+03 0.  0.
          5    1    4    4  502    0 -0.10160723902E+03  0.76360200561E+02  0.29983049402E+03  0.32568498399E+03  0.41800000000E+01 0.  1.
         -5    1    4    4    0  502 -0.81026462211E+01 -0.26936622638E+02  0.11313063106E+02  0.30605429449E+02  0.41800000000E+01 0.  1.
        -11    1    3    3    0    0  0.11250088216E+03 -0.10407597775E+02  0.19678613520E+03  0.22691308817E+03  0.00000000000E+00 0. -1.
         11    1    3    3    0    0 -0.27909969121E+01 -0.39015980148E+02  0.60984041029E+02  0.72450601315E+02  0.00000000000E+00 0.  1.
</event>
<event>
 8    1  0.8061721E-006  0.1410529E+03  0.7561462E-02  0.1211919E+00
          2   -1    0    0  501    0  0.00000000000E+00  0.00000000000E+00  0.65661818761E+03  0.65661818761E+03  0.00000000000E+00 0. -1.
         -2   -1    0    0    0  501 -0.00000000000E+00 -0.00000000000E+00 -0.32679108949E+02  0.32679108949E+02  0.00000000000E+00 0.  1.
         23    2    1    2    0    0  0.88857534632E+02 -0.32425722892E+02  0.35741447873E+03  0.38005903483E+03  0.88049255441E+02 0.  0.
         23    2    1    2    0    0 -0.88857534632E+02  0.32425722892E+02  0.26652459993E+03  0.30923826173E+03  0.12508337693E+03 0.  0.
          5    1    4    4  502    0 -0.18004610366E+02 -0.44957403687E+02  0.11535770051E+03  0.12518069183E+03  0.41800000000E+01 0. -1.
         -5    1    4    4    0  502 -0.70852924265E+02  0.77383126579E+02  0.15116689942E+03  0.18405756990E+03  0.41800000000E+01 0. -1.
        -11    1    3    3    0    0 -0.91507885150E+01  0.16563704187E+02  0.39648906706E+02  0.43933233774E+02  0.00000000000E+00 0.  1.
         11    1    3    3    0    0  0.98008323147E+02 -0.48989427079E+02  0.31776557202E+03  0.33612580105E+03  0.00000000000E+00 0. -1.
</event>
<event>
 7    1  0.8061721E-006  0.1102849E+03  0.7561462E-02  0.1260043E+00
          1   -1    0    0  501    0  0.00000000000E+00  0.00000000000E+00  0.24661568908E+03  0.24661568908E+03  0.00000000000E+00 0. -1.
         -1   -1    0    0    0  501 -0.00000000000E+00 -0.00000000000E+00 -0.80956089525E+02  0.80956089525E+02  0.00000000000E+00 0.  1.
         23    2    1    2    0    0  0.39758907797E+02  0.63338068756E+01  0.50651698427E+01  0.99510249508E+02  0.90861135547E+02 0.  0.
          5    1    1    2  502    0  0.59378041082E+02  0.89827625270E+01  0.46390935048E+02  0.76000217368E+02  0.41800000000E+01 0. -1.
         -5    1    1    2    0  502 -0.99136948879E+02 -0.15316569403E+02  0.11420349467E+03  0.15206131173E+03  0.41800000000E+01 0.  1.
        -11    1    3    3    0    0 -0.70865470536E+00  0.17875313628E+02  0.40642297637E+02  0.44405240524E+02  0.00000000000E+00 0. -1.
         11    1    3    3    0    0  0.40467562502E+02 -0.11541506752E+02 -0.35577127795E+02  0.55105008984E+02  0.00000000000E+00 0.  1.
</event>
<event>
 8    1  0.8061721E-006  0.9487718E+02  0.7561462E-02  0.1291453E+00
          1   -1    0    0  501    0  0.00000000000E+00  0.00000000000E+00  0.60452643110E+03  0.60452643110E+03  0.00000000000E+00 0. -1.
         -1   -1    0    0    0  501 -0.00000000000E+00 -0.00000000000E+00 -0.23913274259E+02  0.23913274259E+02  0.00000000000E+00 0.  1.
         23    2    1    2    0    0 -0.27838208388E+02 -0.42612064461E+02  0.21607907953E+03  0.23969440048E+03  0.90401787199E+02 0.  0.
         23    2    1    2    0    0  0.27838208388E+02  0.42612064461E+02  0.36453407731E+03  0.38874530487E+03  0.12508822750E+03 0.  0.
          5    1    4    4  502    0  0.33064006195E+02 -0.16068393656E+02  0.26300413206E+02  0.45393897334E+02  0.41800000000E+01 0.  1.
         -5    1    4    4    0  502 -0.52257978067E+01  0.58680458117E+02  0.33823366410E+03  0.34335140754E+03  0.41800000000E+01 0.  1.
        -11    1    3    3    0    0 -0.44314762001E+02  0.37685237495E+01  0.15498376104E+03  0.16123884795E+03  0.00000000000E+00 0. -1.
         11    1    3    3    0    0  0.16476553612E+02 -0.46380588210E+02  0.61095318486E+02  0.78455552529E+02  0.00000000000E+00 0.  1.
</event>
<event>
 7    1  0.8061721E-006  0.1435324E+03  0.7561462E-02  0.1208653E+00
          1   -1    0    0  501    0  0.00000000000E+00  0.00000000000E+00  0.77654256685E+03  0.77654256685E+03  0.00000000000E+00 0. -1.
         -1   -1    0    0    0  501 -0.00000000000E+00 -0.00000000000E+00 -0.31444391800E+02  0.31444391800E+02  0.00000000000E+00 0.  1.
         23    2    1    2    0    0 -0.84108951803E+02  0.29069429109E+02  0.29130208602E+03  0.31754360782E+03  0.89764637032E+02 0.  0.
          5    1    1    2  502    0  0.29062276336E+02  0.55902853773E+02  0.29783254552E+03  0.30445269343E+03  0.41800000000E+01 0. -1.
         -5    1    1    2    0  502  0.55046675468E+02 -0.84972282881E+02  0.15596354350E+03  0.18599065740E+03  0.41800000000E+01 0.  1.
        -11    1    3    3    0    0  0.16808079189E+02 -0.21711934199E+01  0.18963041761E+02  0.25432706497E+02  0.00000000000E+00 0.  1.
         11    1    3    3    0    0 -0.10091703099E+03  0.31240622528E+02  0.27233904426E+03  0.29211090132E+03  0.00000000000E+00 0. -1.
</event>
<event>
 8    1  0.8061721E-006  0.7505221E+02  0.7561462E-02  0.1343709E+00
         -1   -1    0    0    0  501 -0.00000000000E+00  0.00000000000E+00  0.49822553964E+02  0.49822553964E+02  0.00000000000E+00 0.  1.
          1   -1    0    0  501    0  0.00000000000E+00 -0.00000000000E+00 -0.25623197295E+03  0.25623197295E+03  0.00000000000E+00 0. -1.
         23    2    1    2    0    0  0.12766001526E+02 -0.99585949247E+01 -0.50864597693E+02  0.10579595299E+03  0.91342388643E+02 0.  0.
         23    2    1    2    0    0 -0.12766001526E+02  0.99585949247E+01 -0.15554482129E+03  0.20025857392E+03  0.12508861095E+03 0.  0.
          5    1    4    4  502    0 -0.38405715203E+02 -0.35975351586E+01  0.31065707541E+01  0.38923828195E+02  0.41800000000E+01 0.  1.
         -5    1    4    4    0  502  0.25639713678E+02  0.13556130083E+02 -0.15865139205E+03  0.16133474573E+03  0.41800000000E+01 0.  1.
        -11    1    3    3    0    0  0.36554133369E+02  0.21617910557E+02 -0.14232375354E+01  0.42491932509E+02  0.00000000000E+00 0.  1.
         11    1    3    3    0    0 -0.23788131844E+02 -0.31576505482E+02 -0.49441360157E+02  0.63304020483E+02  0.00000000000E+00 0. -1.
</event>
<event>
 8    1  0.8061721E-006  0.1085654E+03  0.7561462E-02  0.1263250E+00
         -2   -1    0    0    0  501 -0.00000000000E+00  0.00000000000E+00  0.10702845923E+03  0.10702845923E+03  0.00000000000E+00 0.  1.
          2   -1    0    0  501    0  0.00000000000E+00 -0.00000000000E+00 -0.11890108003E+03  0.11890108003E+03  0.00000000000E+00 0. -1.
         23    2    1    2    0    0 -0.16325346623E+01  0.42806446497E+02  0.15229687073E+02  0.90963375167E+02  0.78786643679E+02 0.  0.
         23    2    1    2    0    0  0.16325346623E+01 -0.42806446497E+02 -0.27102307870E+02  0.13496616410E+03  0.12508506437E+03 0.  0.
          5    1    4    4  502    0 -0.34409875262E+02 -0.72676976159E+02 -0.34113988100E+02  0.87448378848E+02  0.41800000000E+01 0. -1.
         -5    1    4    4    0  502  0.36042409924E+02  0.29870529662E+02  0.70116802300E+01  0.47517785250E+02  0.41800000000E+01 0. -1.
        -11    1    3    3    0    0  0.59025380888E+01 -0.22812231128E+02  0.55463979403E+01  0.24207444620E+02  0.00000000000E+00 0.  1.
         11    1    3    3    0    0 -0.75350727511E+01  0.65618677625E+02  0.96832891323E+01  0.66755930546E+02  0.00000000000E+00 0. -1.
</event>
<event>
 8    1  0.8061721E-006  0.8578595E+02  0.7561462E-02  0.1313390E+00
         -1   -1    0    0    0  501 -0.00000000000E+00  0.00000000000E+00  0.24375714424E+02  0.24375714424E+02  0.00000000000E+00 0.  1.
          1   -1    0    0  501    0  0.00000000000E+00 -0.00000000000E+00 -0.76039178652E+03  0.76039178652E+03  0.00000000000E+00 0. -1.
         23    2    1    2    0    0  0.23193839339E+00 -0.47109281980E+02 -0.13580663239E+03  0.16985471710E+03  0.90486713249E+02 0.  0.
         23    2    1    2    0    0 -0.23193839339E+00  0.47109281980E+02 -0.60020943971E+03  0.61491278385E+03  0.12508805692E+03 0.  0.
          5    1    4    4  502    0  0.24501766361E+02  0.31432556595E+02 -0.57398360472E+03  0.57538073748E+03  0.41800000000E+01 0.  1.
         -5    1    4    4    0  502 -0.24733704755E+02  0.15676725385E+02 -0.26225834983E+02  0.39532046370E+02  0.41800000000E+01 0.  1.
        -11    1    3    3    0    0  0.38779108764E+02 -0.49986043091E+02 -0.87853365580E+02  0.10826189368E+03  0.00000000000E+00 0.  1.
         11    1    3    3    0    0 -0.38547170370E+02  0.28767611113E+01 -0.47953266811E+02  0.61592823413E+02  0.00000000000E+00 0. -1.
</event>
<event>
 8    1  0.8061721E-006  0.1069935E+03  0.7561462E-02  0.1266241E+00
          3   -1    0    0  501    0  0.00000000000E+00  0.00000000000E+00  0.85686107306E+02  0.85686107306E+02  0.00000000000E+00 0. -1.
         -3   -1    0    0    0  501 -0.00000000000E+00 -0.00000000000E+00 -0.19735271783E+03  0.19735271783E+03  0.00000000000E+00 0.  1.
         23    2    1    2    0    0  0.29366338572E+02  0.50859656747E+02 -0.86213321028E+02  0.14252592811E+03  0.97117541853E+02 0.  0.
         23    2    1    2    0    0 -0.29366338572E+02 -0.50859656747E+02 -0.25453289499E+02  0.14051289703E+03  0.12508764031E+03 0.  0.
          5    1    4    4  502    0  0.26386734306E+02  0.78562009746E+01 -0.48761113468E+02  0.56152455224E+02  0.41800000000E+01 0.  1.
         -5    1    4    4    0  502 -0.55753072878E+02 -0.58715857722E+02  0.23307823969E+02  0.84360441805E+02  0.41800000000E+01 0.  1.
        -11    1    3    3    0    0  0.47977943493E+02 -0.30069860093E+01 -0.66840189412E+02  0.82331864714E+02  0.00000000000E+00 0.  1.
         11    1    3    3    0    0 -0.18611604921E+02  0.53866642756E+02 -0.19373131615E+02  0.60194063396E+02  0.00000000000E+00 0. -1.
</event>
<event>
 8    1  0.8061721E-006  0.7066084E+02  0.7561462E-02  0.1357860E+00
         -2   -1    0    0    0  501 -0.00000000000E+00  0.00000000000E+00  0.22792740335E+02  0.22792740335E+02  0.00000000000E+00 0.  1.
          2   -1    0    0  501    0  0.00000000000E+00 -0.00000000000E+00 -0.85107023928E+03  0.85107023928E+03  0.00000000000E+00 0. -1.
         23    2    1    2    0    0 -0.31465195068E+02  0.28165937911E+02 -0.13404324660E+03  0.16718616570E+03  0.90555195785E+02 0.  0.
         23    2    1    2    0    0  0.31465195068E+02 -0.28165937911E+02 -0.69423425235E+03  0.70667681392E+03  0.12509014203E+03 0.  0.
          5    1    4    4  502    0 -0.65005593745E+00  0.16124625940E+02 -0.57697141642E+03  0.57721219140E+03  0.41800000000E+01 0. -1.
         -5    1    4    4    0  502  0.32115251005E+02 -0.44290563851E+02 -0.11726283593E+03  0.12946462252E+03  0.41800000000E+01 0. -1.
        -11    1    3    3    0    0 -0.43758205449E+02  0.56385609165E+01 -0.16869686307E+02  0.47235158827E+02  0.00000000000E+00 0.  1.
         11    1    3    3    0    0  0.12293010381E+02  0.22527376995E+02 -0.11717356029E+03  0.11995100687E+03  0.00000000000E+00 0. -1.
</event>
<event>
 8    1  0.8061721E-006  0.2508828E+03  0.7561462E-02  0.1112748E+00
         -1   -1    0    0    0  501 -0.00000000000E+00  0.00000000000E+00  0.42662323384E+03  0.42662323384E+03  0.00000000000E+00 0.  1.
          1   -1    0    0  501    0  0.00000000000E+00 -0.00000000000E+00 -0.16577568222E+03  0.16577568222E+03  0.00000000000E+00 0. -1.
         23    2    1    2    0    0 -0.16040894569E+03  0.17125173010E+03  0.19486987089E+03  0.31843118447E+03  0.91465664286E+02 0.  0.
         23    2    1    2    0    0  0.16040894569E+03 -0.17125173010E+03  0.65977680727E+02  0.27396773159E+03  0.12508828356E+03 0.  0.
          5    1    4    4  502    0  0.11285032617E+03 -0.43195070633E+02 -0.28657380121E+01  0.12094087439E+03  0.41800000000E+01 0. -1.
         -5    1    4    4    0  502  0.47558619520E+02 -0.12805665946E+03  0.68843418740E+02  0.15302685721E+03  0.41800000000E+01 0. -1.
        -11    1    3    3    0    0 -0.12487563727E+03  0.85420980193E+02  0.15722529470E+03  0.21819821708E+03  0.00000000000E+00 0.  1.
         11    1    3    3    0    0 -0.35533308413E+02  0.85830749902E+02  0.37644576192E+02  0.10023296739E+03  0.00000000000E+00 0. -1.
</event>
<event>
 8    1  0.8061721E-006  0.1215864E+03  0.7561462E-02  0.1240503E+00
          1   -1    0    0  501    0  0.00000000000E+00  0.00000000000E+00  0.66349327232E+02  0.66349327232E+02  0.00000000000E+00 0.  1.
         -1   -1    0    0    0  501 -0.00000000000E+00 -0.00000000000E+00 -0.25286126462E+03  0.25286126462E+03  0.00000000000E+00 0. -1.
         23    2    1    2    0    0  0.36858648745E+01 -0.69564990168E+02 -0.92441988397E+02  0.14789112929E+03  0.92051026322E+02 0.  0.
         23    2    1    2    0    0 -0.36858648745E+01  0.69564990168E+02 -0.94069948995E+02  0.17131946257E+03  0.12509328316E+03 0.  0.
          5    1    4    4  502    0  0.10768472949E+02  0.98383392174E+02 -0.97044610721E+02  0.13867364831E+03  0.41800000000E+01 0. -1.
         -5    1    4    4    0  502 -0.14454337824E+02 -0.28818402006E+02  0.29746617260E+01  0.32645814256E+02  0.41800000000E+01 0. -1.
        -11    1    3    3    0    0 -0.41495319461E+02 -0.26832158122E+02 -0.60063966150E+02  0.77778572089E+02  0.00000000000E+00 0. -1.
         11    1    3    3    0    0  0.45181184335E+02 -0.42732832046E+02 -0.32378022247E+02  0.70112557201E+02  0.00000000000E+00 0.  1.
</event>
<event>
 8    1  0.8061721E-006  0.9007081E+02  0.7561462E-02  0.1302680E+00
          1   -1    0    0  501    0  0.00000000000E+00  0.00000000000E+00  0.58402196425E+03  0.58402196425E+03  0.00000000000E+00 0. -1.
         -1   -1    0    0    0  501 -0.00000000000E+00 -0.00000000000E+00 -0.24518612292E+02  0.24518612292E+02  0.00000000000E+00 0.  1.
         23    2    1    2    0    0  0.12796587570E+02 -0.46403886984E+02  0.18358298966E+03  0.20943959964E+03  0.88572898927E+02 0.  0.
         23    2    1    2    0    0 -0.12796587570E+02  0.46403886984E+02  0.37592036230E+03  0.39910097690E+03  0.12509355536E+03 0.  0.
          5    1    4    4  502    0  0.31495804983E+02 -0.21767353645E+01  0.21064370280E+02  0.38182509133E+02  0.41800000000E+01 0.  1.
         -5    1    4    4    0  502 -0.44292392553E+02  0.48580622349E+02  0.35485599202E+03  0.36091846777E+03  0.41800000000E+01 0.  1.
        -11    1    3    3    0    0  0.39949438319E+02 -0.34456935039E+02  0.16767458490E+03  0.17577828198E+03  0.00000000000E+00 0. -1.
         11    1    3    3    0    0 -0.27152850748E+02 -0.11946951945E+02  0.15908404756E+02  0.33661317657E+02  0.00000000000E+00 0.  1.
</event>
<event>
 7    1  0.8061721E-006  0.1260587E+03  0.7561462E-02  0.1233424E+00
          1   -1    0    0  501    0  0.00000000000E+00  0.00000000000E+00  0.12126821221E+04  0.12126821221E+04  0.00000000000E+00 0. -1.
         -1   -1    0    0    0  501 -0.00000000000E+00 -0.00000000000E+00 -0.15674080500E+02  0.15674080500E+02  0.00000000000E+00 0.  1.
         23    2    1    2    0    0 -0.57956297695E+02 -0.24866706186E+02  0.37704370308E+03  0.39284573185E+03  0.90490493881E+02 0.  0.
          5    1    1    2  502    0  0.34001854871E+02 -0.52957130320E+02  0.18776515862E+03  0.19807526594E+03  0.41800000000E+01 0. -1.
         -5    1    1    2    0  502  0.23954442824E+02  0.77823836506E+02  0.63219917986E+03  0.63743520477E+03  0.41800000000E+01 0.  1.
        -11    1    3    3    0    0 -0.81056893733E+02 -0.15200863342E+02  0.32166128270E+03  0.33206515484E+03  0.00000000000E+00 0.  1.
         11    1    3    3    0    0  0.23100596038E+02 -0.96658428442E+01  0.55382420377E+02  0.60780577013E+02  0.00000000000E+00 0. -1.
</event>
<event>
 8    1  0.8061721E-006  0.1823326E+03  0.7561462E-02  0.1165564E+00
         -2   -1    0    0    0  501 -0.00000000000E+00  0.00000000000E+00  0.22937643200E+03  0.22937643200E+03  0.00000000000E+00 0.  1.
          2   -1    0    0  501    0  0.00000000000E+00 -0.00000000000E+00 -0.15578548900E+03  0.15578548900E+03  0.00000000000E+00 0. -1.
         23    2    1    2    0    0  0.14807491646E+03  0.43486978290E+02  0.41877133010E+02  0.18399735153E+03  0.91016662944E+02 0.  0.
         23    2    1    2    0    0 -0.14807491646E+03 -0.43486978290E+02  0.31713809996E+02  0.20116456948E+03  0.12507645703E+03 0.  0.
          5    1    4    4  502    0 -0.16240129101E+03 -0.48880535859E+02  0.50085583180E+02  0.17688845115E+03  0.41800000000E+01 0. -1.
         -5    1    4    4    0  502  0.14326374552E+02  0.53935575689E+01 -0.18371773184E+02  0.24276118326E+02  0.41800000000E+01 0. -1.
        -11    1    3    3    0    0  0.62197289571E+02 -0.27233559445E+02  0.14502445525E+02  0.69429752385E+02  0.00000000000E+00 0. -1.
         11    1    3    3    0    0  0.85877626890E+02  0.70720537736E+02  0.27374687485E+02  0.11456759914E+03  0.00000000000E+00 0.  1.
</event>
<event>
 8    1  0.8061721E-006  0.1079090E+03  0.7561462E-02  0.1264492E+00
          1   -1    0    0  501    0  0.00000000000E+00  0.00000000000E+00  0.11945126292E+04  0.11945126292E+04  0.00000000000E+00 0. -1.
         -1   -1    0    0    0  501 -0.00000000000E+00 -0.00000000000E+00 -0.33843682763E+02  0.33843682763E+02  0.00000000000E+00 0.  1.
         23    2    1    2    0    0  0.19640305183E+02  0.80556531941E+02  0.10401783238E+03  0.16110098850E+03  0.90877514356E+02 0.  0.
         23    2    1    2    0    0 -0.19640305183E+02 -0.80556531941E+02  0.10566511141E+04  0.10672553235E+04  0.12508897715E+03 0.  0.
          5    1    4    4  502    0 -0.32476497869E+02 -0.52064304033E+01  0.68075903673E+02  0.75720742814E+02  0.41800000000E+01 0.  1.
         -5    1    4    4    0  502  0.12836192686E+02 -0.75350101538E+02  0.98857521040E+03  0.99153458067E+03  0.41800000000E+01 0.  1.
        -11    1    3    3    0    0 -0.20625790065E+02  0.54188113078E+02  0.96223945692E+02  0.11234243428E+03  0.00000000000E+00 0. -1.
         11    1    3    3    0    0  0.40266095248E+02  0.26368418863E+02  0.77938866882E+01  0.48758554220E+02  0.00000000000E+00 0.  1.
</event>
<event>
 8    1  0.8061721E-006  0.1851322E+03  0.7561462E-02  0.1162927E+00
         -2   -1    0    0    0  501 -0.00000000000E+00  0.00000000000E+00  0.75177784435E+02  0.75177784435E+02  0.00000000000E+00 0.  1.
          2   -1    0    0  501    0  0.00000000000E+00 -0.00000000000E+00 -0.59477812992E+03  0.59477812992E+03  0.00000000000E+00 0. -1.
         23    2    1    2    0    0  0.90430910714E+02 -0.15609326927E+03 -0.27521466197E+03  0.34144864306E+03  0.91110961800E+02 0.  0.
         23    2    1    2    0    0 -0.90430910714E+02  0.15609326927E+03 -0.24438568352E+03  0.32850727130E+03  0.12509918729E+03 0.  0.
          5    1    4    4  502    0 -0.98478580496E+02  0.14189110069E+03 -0.25542147713E+03  0.30836458722E+03  0.41800000000E+01 0.  1.
         -5    1    4    4    0  502  0.80476697822E+01  0.14202168587E+02  0.11035793607E+02  0.20142684082E+02  0.41800000000E+01 0.  1.
        -11    1    3    3    0    0  0.18962953130E+02 -0.25520934713E+02 -0.39653498471E+01  0.32041156337E+02  0.00000000000E+00 0.  1.
         11    1    3    3    0    0  0.71467957584E+02 -0.13057233456E+03 -0.27124931212E+03  0.30940748672E+03  0.00000000000E+00 0. -1.
</event>
<event>
 7    1  0.8061721E-006  0.1147452E+03  0.7561462E-02  0.1252026E+00
          2   -1    0    0  501    0  0.00000000000E+00  0.00000000000E+00  0.23255080946E+03  0.23255080946E+03  0.00000000000E+00 0. -1.
         -2   -1    0    0    0  501 -0.00000000000E+00 -0.00000000000E+00 -0.64338647465E+02  0.64338647465E+02  0.00000000000E+00 0.  1.
         23    2    1    2    0    0 -0.71534236228E+01 -0.30204357484E+02  0.41127185109E+02  0.10727591003E+03  0.94091449334E+02 0.  0.
          5    1    1    2  502    0 -0.14257004643E+02  0.79882389065E+02  0.10037187912E+03  0.12913730980E+03  0.41800000000E+01 0. -1.
         -5    1    1    2    0  502  0.21410428266E+02 -0.49678031581E+02  0.26713097759E+02  0.60476237087E+02  0.41800000000E+01 0.  1.
        -11    1    3    3    0    0 -0.33312575093E+02  0.18931493695E+02  0.42726224691E+00  0.38318555112E+02  0.00000000000E+00 0. -1.
         11    1    3    3    0    0  0.26159151470E+02 -0.49135851179E+02  0.40699922862E+02  0.68957354920E+02  0.00000000000E+00 0.  1.
</event>
<event>
 8    1  0.8061721E-006  0.1549140E+03  0.7561462E-02  0.1194561E+00
          2   -1    0    0  501    0  0.00000000000E+00  0.00000000000E+00  0.24930630415E+03  0.24930630415E+03  0.00000000000E+00 0. -1.
         -2   -1    0    0    0  501 -0.00000000000E+00 -0.00000000000E+00 -0.20081267428E+03  0.20081267428E+03  0.00000000000E+00 0.  1.
         23    2    1    2    0    0  0.13724893284E+03  0.26796859073E+02 -0.11355038105E+03  0.20220303187E+03  0.91853338743E+02 0.  0.
         23    2    1    2    0    0 -0.13724893284E+03 -0.26796859073E+02  0.16204401093E+03  0.24791594656E+03  0.12509481947E+03 0.  0.
          5    1    4    4  502    0 -0.37133587246E+02  0.30110864783E+02 -0.13089949206E+01  0.48007846728E+02  0.41800000000E+01 0. -1.
         -5    1    4    4    0  502 -0.10011534560E+03 -0.56907723856E+02  0.16335300585E+03  0.19990809983E+03  0.41800000000E+01 0. -1.
        -11    1    3    3    0    0  0.12787976804E+03  0.36628790361E+02 -0.12640547852E+03  0.18350272030E+03  0.00000000000E+00 0.  1.
         11    1    3    3    0    0  0.93691648035E+01 -0.98319312889E+01  0.12855097468E+02  0.18700311572E+02  0.00000000000E+00 0. -1.
</event>
<event>
 8    1  0.8061721E-006  0.1475513E+03  0.7561462E-02  0.1203515E+00
         -1   -1    0    0    0  501 -0.00000000000E+00  0.00000000000E+00  0.32738551385E+02  0.32738551385E+02  0.00000000000E+00 0.  1.
          1   -1    0    0  501    0  0.00000000000E+00 -0.00000000000E+00 -0.82997133640E+03  0.82997133640E+03  0.00000000000E+00 0. -1.
         23    2    1    2    0    0 -0.95636098029E+02 -0.32435794732E+02 -0.18537599763E+03  0.23008506248E+03  0.91523392920E+02 0.  0.
         23    2    1    2    0    0  0.95636098029E+02  0.32435794732E+02 -0.61185678738E+03  0.63262482530E+03  0.12508835798E+03 0.  0.
          5    1    4    4  502    0  0.44840987272E+02 -0.46607602895E+02 -0.29867259824E+03  0.30562358569E+03  0.41800000000E+01 0. -1.
         -5    1    4    4    0  502  0.50795110757E+02  0.79043397627E+02 -0.31318418914E+03  0.32700123962E+03  0.41800000000E+01 0. -1.
        -11    1    3    3    0    0 -0.92984241357E+02 -0.58622149702E+02 -0.15194399015E+03  0.18753560121E+03  0.00000000000E+00 0. -1.
         11    1    3    3    0    0 -0.26518566723E+01  0.26186354970E+02 -0.33432007482E+02  0.42549461274E+02  0.00000000000E+00 0.  1.
</event>
<event>
 8    1  0.8061721E-006  0.1592943E+03  0.7561462E-02  0.1189496E+00
          2   -1    0    0  501    0  0.00000000000E+00  0.00000000000E+00  0.20424126515E+03  0.20424126515E+03  0.00000000000E+00 0. -1.
         -2   -1    0    0    0  501 -0.00000000000E+00 -0.00000000000E+00 -0.15314784733E+03  0.15314784733E+03  0.00000000000E+00 0.  1.
         23    2    1    2    0    0 -0.74361193219E+02  0.91517818131E+02 -0.49304990781E+02  0.15830852308E+03  0.93410429133E+02 0.  0.
         23    2    1    2    0    0  0.74361193219E+02 -0.91517818131E+02  0.10039840860E+03  0.19908058941E+03  0.12509253590E+03 0.  0.
          5    1    4    4  502    0  0.10714365112E+03 -0.87320411381E+02  0.85561494309E+02  0.16261260077E+03  0.41800000000E+01 0. -1.
         -5    1    4    4    0  502 -0.32782457905E+02 -0.41974067501E+01  0.14836914295E+02  0.36467988641E+02  0.41800000000E+01 0. -1.
        -11    1    3    3    0    0  0.19853272636E+02  0.91958947212E+01 -0.20368124481E+02  0.29892765161E+02  0.00000000000E+00 0.  1.
         11    1    3    3    0    0 -0.94214465855E+02  0.82321923410E+02 -0.28936866300E+02  0.12841575792E+03  0.00000000000E+00 0. -1.
</event>
<event>
 8    1  0.1215696E-005  0.1110893E+03  0.7561462E-02  0.1258566E+00
          1   -1    0    0  501    0  0.00000000000E+00  0.00000000000E+00  0.45950278470E+03  0.45950278470E+03  0.00000000000E+00 0. -1.
         -1   -1    0    0    0  501 -0.00000000000E+00 -0.00000000000E+00 -0.40254120235E+02  0.40254120235E+02  0.00000000000E+00 0.  1.
         23    2    1    2    0    0 -0.68399871261E+02 -0.46482484300E+02  0.15957491649E+03  0.19989541704E+03  0.87492057044E+02 0.  0.
         23    2    1    2    0    0  0.68399871261E+02  0.46482484300E+02  0.25967374798E+03  0.29986148790E+03  0.12508913941E+03 0.  0.
          5    1    4    4  502    0  0.64333426306E+02 -0.20051977723E+01  0.42450708895E+02  0.77216226559E+02  0.41800000000E+01 0.  1.
         -5    1    4    4    0  502  0.40664449552E+01  0.48487682072E+02  0.21722303909E+03  0.22264526134E+03  0.41800000000E+01 0.  1.
        -11    1    3    3    0    0 -0.42380105172E+02 -0.64510704167E+02  0.67522982957E+02  0.10255270593E+03  0.00000000000E+00 0.  1.
         11    1    3    3    0    0 -0.26019766089E+02  0.18028219867E+02  0.92051933529E+02  0.97342711105E+02  0.00000000000E+00 0. -1.
</event>
<event>
 7    1  0.8061721E-006  0.2319141E+03  0.7561462E-02  0.1125300E+00
         -1   -1    0    0    0  501 -0.00000000000E+00  0.00000000000E+00  0.29736773650E+03  0.29736773650E+03  0.00000000000E+00 0.  1.
          1   -1    0    0  501    0  0.00000000000E+00 -0.00000000000E+00 -0.27090534781E+03  0.27090534781E+03  0.00000000000E+00 0. -1.
         23    2    1    2    0    0 -0.52639606577E+02 -0.89456443082E+02  0.12817514288E+03  0.18842023613E+03  0.91103977650E+02 0.  0.
          5    1    1    2  502    0  0.18295140681E+02  0.20590175673E+03 -0.14318195050E+03  0.25149311909E+03  0.41800000000E+01 0. -1.
         -5    1    1    2    0  502  0.34344465896E+02 -0.11644531365E+03  0.41469196320E+02  0.12835972909E+03  0.41800000000E+01 0.  1.
        -11    1    3    3    0    0 -0.37891019236E+02 -0.10651054040E+03  0.11882638042E+03  0.16401199114E+03  0.00000000000E+00 0.  1.
         11    1    3    3    0    0 -0.14748587341E+02  0.17054097321E+02  0.93487624622E+01  0.24408244992E+02  0.00000000000E+00 0. -1.
</event>
<event>
 8    1  0.8061721E-006  0.1078509E+03  0.7561462E-02  0.1264602E+00
          1   -1    0    0  501    0  0.00000000000E+00  0.00000000000E+00  0.69007428170E+02  0.69007428170E+02  0.00000000000E+00 0. -1.
         -1   -1    0    0    0  501 -0.00000000000E+00 -0.00000000000E+00 -0.23339156696E+03  0.23339156696E+03  0.00000000000E+00 0.  1.
         23    2    1    2    0    0  0.14837546653E+02 -0.63297440091E+02 -0.82732351044E+02  0.13948438901E+03  0.91567101932E+02 0.  0.
         23    2    1    2    0    0 -0.14837546653E+02  0.63297440091E+02 -0.81651787748E+02  0.16291460612E+03  0.12508971074E+03 0.  0.
          5    1    4    4  502    0 -0.24466281106E+02  0.82343791342E+02 -0.82953955355E+01  0.86402458708E+02  0.41800000000E+01 0.  1.
         -5    1    4    4    0  502  0.96287344533E+01 -0.19046351251E+02 -0.73356392213E+02  0.76512147412E+02  0.41800000000E+01 0.  1.
        -11    1    3    3    0    0  0.43606763607E+02 -0.62398628173E+01 -0.15420289830E+02  0.46671951520E+02  0.00000000000E+00 0.  1.
         11    1    3    3    0    0 -0.28769216954E+02 -0.57057577273E+02 -0.67312061215E+02  0.92812437493E+02  0.00000000000E+00 0. -1.
</event>
<event>
 8    1  0.8061721E-006  0.1218283E+03  0.7561462E-02  0.1240111E+00
          1   -1    0    0  501    0  0.00000000000E+00  0.00000000000E+00  0.99527155247E+02  0.99527155247E+02  0.00000000000E+00 0. -1.
         -1   -1    0    0    0  501 -0.00000000000E+00 -0.00000000000E+00 -0.18093041677E+03  0.18093041677E+03  0.00000000000E+00 0.  1.
         23    2    1    2    0    0  0.56847478716E+02 -0.26387467630E+02 -0.85135611263E+02  0.14049829730E+03  0.92540612469E+02 0.  0.
         23    2    1    2    0    0 -0.56847478716E+02  0.26387467630E+02  0.37323497448E+01  0.13995927471E+03  0.12508690522E+03 0.  0.
          5    1    4    4  502    0 -0.21621888961E+02 -0.50576112498E+02  0.11186883575E+01  0.55174025604E+02  0.41800000000E+01 0. -1.
         -5    1    4    4    0  502 -0.35225589755E+02  0.76963580128E+02  0.26136613873E+01  0.84785249104E+02  0.41800000000E+01 0. -1.
        -11    1    3    3    0    0  0.73763961274E+02 -0.16523396783E+01 -0.82093845684E+02  0.11037776818E+03  0.00000000000E+00 0.  1.
         11    1    3    3    0    0 -0.16916482558E+02 -0.24735127951E+02 -0.30417655792E+01  0.30120529125E+02  0.00000000000E+00 0. -1.
</event>
<event>
 8    1  0.8061721E-006  0.1224371E+03  0.7561462E-02  0.1239130E+00
          2   -1    0    0  501    0  0.00000000000E+00  0.00000000000E+00  0.21896048661E+04  0.21896048661E+04  0.00000000000E+00 0.  1.
         -2   -1    0    0    0  501 -0.00000000000E+00 -0.00000000000E+00 -0.11792064928E+02  0.11792064928E+02  0.00000000000E+00 0. -1.
         23    2    1    2    0    0  0.36780000006E+02  0.74461363182E+02  0.44677168772E+03  0.46385586631E+03  0.93059447407E+02 0.  0.
         23    2    1    2    0    0 -0.36780000006E+02 -0.74461363182E+02  0.17310411134E+04  0.17375410647E+04  0.12509337361E+03 0.  0.
          5    1    4    4  502    0 -0.72969604185E+02 -0.44767100894E+02  0.14554189274E+04  0.14579404594E+04  0.41800000000E+01 0.  1.
         -5    1    4    4    0  502  0.36189604178E+02 -0.29694262289E+02  0.27562218602E+03  0.27960060531E+03  0.41800000000E+01 0.  1.
        -11    1    3    3    0    0  0.30785038260E+02 -0.60982120843E+01  0.50678141086E+02  0.59608562768E+02  0.00000000000E+00 0. -1.
         11    1    3    3    0    0  0.59949617463E+01  0.80559575267E+02  0.39609354663E+03  0.40424730354E+03  0.00000000000E+00 0.  1.
</event>
<event>
 8    1  0.8061721E-006  0.1108860E+03  0.7561462E-02  0.1258938E+00
          1   -1    0    0  501    0  0.00000000000E+00  0.00000000000E+00  0.45816325837E+03  0.45816325837E+03  0.00000000000E+00 0. -1.
         -1   -1    0    0    0  501 -0.00000000000E+00 -0.00000000000E+00 -0.42980194497E+02  0.42980194497E+02  0.00000000000E+00 0.  1.
         23    2    1    2    0    0 -0.64788362383E+02  0.57659357689E+02  0.22392668841E+03  0.25670837596E+03  0.90740812648E+02 0.  0.
         23    2    1    2    0    0  0.64788362383E+02 -0.57659357689E+02  0.19125637547E+03  0.24443507690E+03  0.12508945693E+03 0.  0.
          5    1    4    4  502    0  0.70408829791E+02 -0.55799698216E+02  0.49819711878E+02  0.10281286751E+03  0.41800000000E+01 0.  1.
         -5    1    4    4    0  502 -0.56204674077E+01 -0.18596594724E+01  0.14143666359E+03  0.14162220939E+03  0.41800000000E+01 0.  1.
        -11    1    3    3    0    0 -0.85728534426E+02  0.58240865598E+02  0.19693295937E+03  0.22253981785E+03  0.00000000000E+00 0. -1.
         11    1    3    3    0    0  0.20940172043E+02 -0.58150790906E+00  0.26993729036E+02  0.34168558119E+02  0.00000000000E+00 0.  1.
</event>
<event>
 8    1  0.8061721E-006  0.1197107E+03  0.7561462E-02  0.1243575E+00
          1   -1    0    0  501    0  0.00000000000E+00  0.00000000000E+00  0.40092165610E+03  0.40092165610E+03  0.00000000000E+00 0. -1.
         -1   -1    0    0    0  501 -0.00000000000E+00 -0.00000000000E+00 -0.72690021812E+02  0.72690021812E+02  0.00000000000E+00 0.  1.
         23    2    1    2    0    0 -0.87340386073E+02 -0.42836617009E+02  0.39217013918E+02  0.14400495759E+03  0.98671854316E+02 0.  0.
         23    2    1    2    0    0  0.87340386073E+02  0.42836617009E+02  0.28901462037E+03  0.32960672032E+03  0.12509124868E+03 0.  0.
          5    1    4    4  502    0 -0.15447285607E+02  0.19079377905E+02  0.34383366776E+01  0.25138334332E+02  0.41800000000E+01 0. -1.
         -5    1    4    4    0  502  0.10278767168E+03  0.23757239103E+02  0.28557628370E+03  0.30446838599E+03  0.41800000000E+01 0. -1.
        -11    1    3    3    0    0 -0.18101198592E+02  0.11044975865E+02 -0.26823754594E+02  0.34192962622E+02  0.00000000000E+00 0.  1.
         11    1    3    3    0    0 -0.69239187481E+02 -0.53881592873E+02  0.66040768512E+02  0.10981199497E+03  0.00000000000E+00 0. -1.
</event>
<event>
 8    1  0.8061721E-006  0.8502885E+02  0.7561462E-02  0.1315357E+00
          1   -1    0    0  501    0  0.00000000000E+00  0.00000000000E+00  0.15204395977E+03  0.15204395977E+03  0.00000000000E+00 0. -1.
         -1   -1    0    0    0  501 -0.00000000000E+00 -0.00000000000E+00 -0.10124856236E+03  0.10124856236E+03  0.00000000000E+00 0.  1.
         23    2    1    2    0    0  0.23636479475E+02  0.16115608733E+02 -0.32859420427E+02  0.10011355115E+03  0.90136483217E+02 0.  0.
         23    2    1    2    0    0 -0.23636479475E+02 -0.16115608733E+02  0.83654817841E+02  0.15317897097E+03  0.12508905865E+03 0.  0.
          5    1    4    4  502    0 -0.61880738821E+02 -0.90199847279E+01  0.93755852564E+02  0.11277507815E+03  0.41800000000E+01 0. -1.
         -5    1    4    4    0  502  0.38244259346E+02 -0.70956240054E+01 -0.10101034722E+02  0.40403892825E+02  0.41800000000E+01 0. -1.
        -11    1    3    3    0    0 -0.20552641672E+02  0.12198730446E+02 -0.47685121791E+02  0.53339393926E+02  0.00000000000E+00 0.  1.
         11    1    3    3    0    0  0.44189121147E+02  0.39168782872E+01  0.14825701364E+02  0.46774157226E+02  0.00000000000E+00 0. -1.
</event>
<event>
 8    1  0.8061721E-006  0.1097383E+03  0.7561462E-02  0.1261055E+00
         -1   -1    0    0    0  501 -0.00000000000E+00  0.00000000000E+00  0.21136790299E+03  0.21136790299E+03  0.00000000000E+00 0.  1.
          1   -1    0    0  501    0  0.00000000000E+00 -0.00000000000E+00 -0.10172473318E+03  0.10172473318E+03  0.00000000000E+00 0. -1.
         23    2    1    2    0    0  0.54035141643E+01 -0.82912873931E+02  0.11208489417E+03  0.16290254902E+03  0.84086112696E+02 0.  0.
         23    2    1    2    0    0 -0.54035141643E+01  0.82912873931E+02 -0.24417243583E+01  0.15019008716E+03  0.12508939857E+03 0.  0.
          5    1    4    4  502    0  0.36536333372E+02  0.62224488706E+02  0.43616310762E+02  0.84419462303E+02  0.41800000000E+01 0. -1.
         -5    1    4    4    0  502 -0.41939847537E+02  0.20688385225E+02 -0.46058035121E+02  0.65770624855E+02  0.41800000000E+01 0. -1.
        -11    1    3    3    0    0 -0.24121804961E+02 -0.22418248260E+02  0.83519376552E+02  0.89777088331E+02  0.00000000000E+00 0.  1.
         11    1    3    3    0    0  0.29525319125E+02 -0.60494625671E+02  0.28565517616E+02  0.73125460690E+02  0.00000000000E+00 0. -1.
</event>
<event>
 8    1  0.8061721E-006  0.6852472E+02  0.7561462E-02  0.1365183E+00
          2   -1    0    0  501    0  0.00000000000E+00  0.00000000000E+00  0.50399933825E+03  0.50399933825E+03  0.00000000000E+00 0. -1.
         -2   -1    0    0    0  501 -0.00000000000E+00 -0.00000000000E+00 -0.27521285573E+02  0.27521285573E+02  0.00000000000E+00 0.  1.
         23    2    1    2    0    0  0.22815690727E+02  0.32043544535E+02  0.15540829328E+03  0.18470654360E+03  0.91746526573E+02 0.  0.
         23    2    1    2    0    0 -0.22815690727E+02 -0.32043544535E+02  0.32106975939E+03  0.34681408022E+03  0.12508745482E+03 0.  0.
          5    1    4    4  502    0  0.70751758615E+01  0.23644052278E+00 -0.99219249145E+01  0.12885302154E+02  0.41800000000E+01 0. -1.
         -5    1    4    4    0  502 -0.29890866588E+02 -0.32279985058E+02  0.33099168431E+03  0.33392877807E+03  0.41800000000E+01 0. -1.
        -11    1    3    3    0    0 -0.24192072982E+02  0.28662303316E+02  0.12009353777E+03  0.12581431493E+03  0.00000000000E+00 0. -1.
         11    1    3    3    0    0  0.47007763708E+02  0.33812412194E+01  0.35314755510E+02  0.58892228670E+02  0.00000000000E+00 0.  1.
</event>
<event>
 8    1  0.9546711E-006  0.9154480E+02  0.7561462E-02  0.1299153E+00
          2   -1    0    0  501    0  0.00000000000E+00  0.00000000000E+00  0.44676006445E+03  0.44676006445E+03  0.00000000000E+00 0.  1.
         -2   -1    0    0    0  501 -0.00000000000E+00 -0.00000000000E+00 -0.31146008819E+02  0.31146008819E+02  0.00000000000E+00 0. -1.
         23    2    1    2    0    0 -0.16052105283E+02  0.46807687333E+02  0.78016593911E+02  0.11449426216E+03  0.67629264857E+02 0.  0.
         23    2    1    2    0    0  0.16052105283E+02 -0.46807687333E+02  0.33759746172E+03  0.36341181110E+03  0.12508984217E+03 0.  0.
          5    1    4    4  502    0  0.68279231329E+02 -0.11088985908E+02  0.14640507333E+03  0.16197819896E+03  0.41800000000E+01 0.  1.
         -5    1    4    4    0  502 -0.52227126046E+02 -0.35718701426E+02  0.19119238838E+03  0.20143361215E+03  0.41800000000E+01 0.  1.
        -11    1    3    3    0    0 -0.12684386651E+02  0.22421031279E+02  0.85070718457E+02  0.88885451268E+02  0.00000000000E+00 0.  1.
         11    1    3    3    0    0 -0.33677186316E+01  0.24386656054E+02 -0.70541245462E+01  0.25608810894E+02  0.00000000000E+00 0. -1.
</event>
<event>
 8    1  0.8061721E-006  0.1928734E+03  0.7561462E-02  0.1155895E+00
          1   -1    0    0  501    0  0.00000000000E+00  0.00000000000E+00  0.21076316248E+04  0.21076316248E+04  0.00000000000E+00 0. -1.
         -1   -1    0    0    0  501 -0.00000000000E+00 -0.00000000000E+00 -0.24255864349E+02  0.24255864349E+02  0.00000000000E+00 0.  1.
         23    2    1    2    0    0  0.14355500354E+03  0.89278417949E+02  0.50300231842E+03  0.53808165756E+03  0.89117130310E+02 0.  0.
         23    2    1    2    0    0 -0.14355500354E+03 -0.89278417949E+02  0.15803734420E+04  0.15938058316E+04  0.11856701725E+03 0.  0.
          5    1    4    4  502    0 -0.13888786841E+03 -0.34227080470E+02  0.13114057759E+04  0.13191906285E+04  0.41800000000E+01 0. -1.
         -5    1    4    4    0  502 -0.46671351287E+01 -0.55051337480E+02  0.26896766615E+03  0.27461520304E+03  0.41800000000E+01 0.  1.
        -11    1    3    3    0    0 -0.10393567452E+02  0.82209805130E+01  0.73380849767E+02  0.74567820657E+02  0.00000000000E+00 0. -1.
         11    1    3    3    0    0  0.15394857099E+03  0.81057437436E+02  0.42962146866E+03  0.46351383691E+03  0.00000000000E+00 0.  1.
</event>
<event>
 8    1  0.8061721E-006  0.1148084E+03  0.7561462E-02  0.1251916E+00
         -2   -1    0    0    0  501 -0.00000000000E+00  0.00000000000E+00  0.19524769164E+02  0.19524769164E+02  0.00000000000E+00 0.  1.
          2   -1    0    0  501    0  0.00000000000E+00 -0.00000000000E+00 -0.83179765251E+03  0.83179765251E+03  0.00000000000E+00 0. -1.
         23    2    1    2    0    0  0.61076260827E+02  0.17404991093E+02 -0.28789001456E+03  0.30849797106E+03  0.90868555138E+02 0.  0.
         23    2    1    2    0    0 -0.61076260827E+02 -0.17404991093E+02 -0.52438286879E+03  0.54282445062E+03  0.12509095793E+03 0.  0.
          5    1    4    4  502    0 -0.87266737783E+01 -0.66353740037E+02 -0.29223195883E+03  0.29982655622E+03  0.41800000000E+01 0.  1.
         -5    1    4    4    0  502 -0.52349587048E+02  0.48948748945E+02 -0.23215090996E+03  0.24299789440E+03  0.41800000000E+01 0.  1.
        -11    1    3    3    0    0  0.14039433337E+02  0.37182558323E+02 -0.22005005458E+03  0.22361054281E+03  0.00000000000E+00 0. -1.
         11    1    3    3    0    0  0.47036827489E+02 -0.19777567230E+02 -0.67839959976E+02  0.84887428252E+02  0.00000000000E+00 0.  1.
</event>
<event>
 8    1  0.8061721E-006  0.9381946E+02  0.7561462E-02  0.1293857E+00
          1   -1    0    0  501    0  0.00000000000E+00  0.00000000000E+00  0.73473336109E+02  0.73473336109E+02  0.00000000000E+00 0. -1.
         -1   -1    0    0    0  501 -0.00000000000E+00 -0.00000000000E+00 -0.17752980784E+03  0.17752980784E+03  0.00000000000E+00 0.  1.
         23    2    1    2    0    0  0.21201917353E+02  0.45747935441E+01 -0.76838558790E+02  0.12116686081E+03  0.91141615122E+02 0.  0.
         23    2    1    2    0    0 -0.21201917353E+02 -0.45747935441E+01 -0.27217912945E+02  0.12983628314E+03  0.12508475366E+03 0.  0.
          5    1    4    4  502    0 -0.48486038250E+02 -0.29920511281E+02 -0.57948337391E+02  0.81373307091E+02  0.41800000000E+01 0.  1.
         -5    1    4    4    0  502  0.27284120897E+02  0.25345717737E+02  0.30730424447E+02  0.48462976048E+02  0.41800000000E+01 0.  1.
        -11    1    3    3    0    0  0.38907114121E+02  0.38521195937E+02 -0.38111030105E+02  0.66709044974E+02  0.00000000000E+00 0. -1.
         11    1    3    3    0    0 -0.17705196767E+02 -0.33946402393E+02 -0.38727528685E+02  0.54457815840E+02  0.00000000000E+00 0.  1.
</event>
<event>
 8    1  0.8061721E-006  0.1301219E+03  0.7561462E-02  0.1227275E+00
         -2   -1    0    0    0  501 -0.00000000000E+00  0.00000000000E+00  0.18603912227E+02  0.18603912227E+02  0.00000000000E+00 0.  1.
          2   -1    0    0  501    0  0.00000000000E+00 -0.00000000000E+00 -0.13515904926E+04  0.13515904926E+04  0.00000000000E+00 0. -1.
         23    2    1    2    0    0 -0.33894349004E+02  0.66354268433E+02 -0.28455897971E+03  0.31170488393E+03  0.10312325584E+03 0.  0.
         23    2    1    2    0    0  0.33894349004E+02 -0.66354268433E+02 -0.10484276006E+04  0.10584895209E+04  0.12509163121E+03 0.  0.
          5    1    4    4  502    0  0.66353470635E+02 -0.84150108178E+02 -0.83132352045E+03  0.83821255766E+03  0.41800000000E+01 0. -1.
         -5    1    4    4    0  502 -0.32459121631E+02  0.17795839745E+02 -0.21710408019E+03  0.22027696322E+03  0.41800000000E+01 0. -1.
        -11    1    3    3    0    0 -0.73615602684E+01 -0.22154758448E+02 -0.12635566320E+03  0.12849427814E+03  0.00000000000E+00 0. -1.
         11    1    3    3    0    0 -0.26532788736E+02  0.88509026881E+02 -0.15820331652E+03  0.18321060579E+03  0.00000000000E+00 0.  1.
</event>
<event>
 8    1  0.8061721E-006  0.1151880E+03  0.7561462E-02  0.1251253E+00
         -1   -1    0    0    0  501 -0.00000000000E+00  0.00000000000E+00  0.59399415677E+02  0.59399415677E+02  0.00000000000E+00 0.  1.
          1   -1    0    0  501    0  0.00000000000E+00 -0.00000000000E+00 -0.47817190944E+03  0.47817190944E+03  0.00000000000E+00 0. -1.
         23    2    1    2    0    0  0.62750031871E+02 -0.30216838081E+02 -0.21789016359E+02  0.11555918731E+03  0.89602124610E+02 0.  0.
         23    2    1    2    0    0 -0.62750031871E+02  0.30216838081E+02 -0.39698347740E+03  0.42201213780E+03  0.12509092421E+03 0.  0.
          5    1    4    4  502    0 -0.89406723937E+02  0.11446335430E+02 -0.36558538236E+03  0.37655640358E+03  0.41800000000E+01 0. -1.
         -5    1    4    4    0  502  0.26656692066E+02  0.18770502651E+02 -0.31398095037E+02  0.45455734222E+02  0.41800000000E+01 0. -1.
        -11    1    3    3    0    0  0.50475621816E+02  0.20953223099E+02 -0.29931231586E+02  0.62311351936E+02  0.00000000000E+00 0.  1.
         11    1    3    3    0    0  0.12274410055E+02 -0.51170061179E+02  0.81422152263E+01  0.53247835374E+02  0.00000000000E+00 0. -1.
</event>
<event>
 8    1  0.8061721E-006  0.1033107E+03  0.7561462E-02  0.1273484E+00
         -1   -1    0    0    0  501 -0.00000000000E+00  0.00000000000E+00  0.28130164523E+02  0.28130164523E+02  0.00000000000E+00 0.  1.
          1   -1    0    0  501    0  0.00000000000E+00 -0.00000000000E+00 -0.59369308824E+03  0.59369308824E+03  0.00000000000E+00 0. -1.
         23    2    1    2    0    0 -0.50899722273E+01 -0.13346869761E+02 -0.97478724865E+02  0.13710189655E+03  0.95345589759E+02 0.  0.
         23    2    1    2    0    0  0.50899722273E+01  0.13346869761E+02 -0.46808419885E+03  0.48472135621E+03  0.12509168320E+03 0.  0.
          5    1    4    4  502    0  0.42675869592E+01  0.67799302172E+02 -0.31257354821E+03  0.31989787920E+03  0.41800000000E+01 0.  1.
         -5    1    4    4    0  502  0.82238526812E+00 -0.54452432411E+02 -0.15551065064E+03  0.16482347702E+03  0.41800000000E+01 0.  1.
        -11    1    3    3    0    0  0.36057906257E+02 -0.21516241407E+02 -0.15037724604E+02  0.44601058386E+02  0.00000000000E+00 0. -1.
         11    1    3    3    0    0 -0.41147878484E+02  0.81693716464E+01 -0.82441000261E+02  0.92500838163E+02  0.00000000000E+00 0.  1.
</event>
<event>
 8    1  0.8061721E-006  0.2358391E+03  0.7561462E-02  0.1122596E+00
         -2   -1    0    0    0  501 -0.00000000000E+00  0.00000000000E+00  0.61803922310E+02  0.61803922310E+02  0.00000000000E+00 0.  1.
          2   -1    0    0  501    0  0.00000000000E+00 -0.00000000000E+00 -0.10412561939E+04  0.10412561939E+04  0.00000000000E+00 0. -1.
         23    2    1    2    0    0  0.16513042309E+03  0.15041430655E+03 -0.37060320231E+03  0.44257774384E+03  0.92929034905E+02 0.  0.
         23    2    1    2    0    0 -0.16513042309E+03 -0.15041430655E+03 -0.60884906932E+03  0.66048237242E+03  0.12508898759E+03 0.  0.
          5    1    4    4  502    0 -0.11206352654E+03 -0.15722352313E+03 -0.39061006480E+03  0.43574208579E+03  0.41800000000E+01 0. -1.
         -5    1    4    4    0  502 -0.53066896549E+02  0.68092165725E+01 -0.21823900452E+03  0.22474028663E+03  0.41800000000E+01 0. -1.
        -11    1    3    3    0    0  0.40245333279E+02  0.52782430954E+02 -0.44279637247E+02  0.79789461352E+02  0.00000000000E+00 0.  1.
         11    1    3    3    0    0  0.12488508981E+03  0.97631875599E+02 -0.32632356507E+03  0.36278828249E+03  0.00000000000E+00 0. -1.
</event>
<event>
 7    1  0.8061721E-006  0.8118234E+02  0.7561462E-02  0.1325729E+00
         -1   -1    0    0    0  501 -0.00000000000E+00  0.00000000000E+00  0.16229380738E+03  0.16229380738E+03  0.00000000000E+00 0.  1.
          1   -1    0    0  501    0  0.00000000000E+00 -0.00000000000E+00 -0.10956529489E+03  0.10956529489E+03  0.00000000000E+00 0. -1.
         23    2    1    2    0    0 -0.16142522657E+01 -0.40996692372E+02  0.76274013607E+02  0.12518563005E+03  0.90390166636E+02 0.  0.
          5    1    1    2  502    0  0.25717885693E+02  0.79958403342E+01 -0.75599667995E+02  0.80362462059E+02  0.41800000000E+01 0. -1.
         -5    1    1    2    0  502 -0.24103633427E+02  0.33000852038E+02  0.52054166878E+02  0.66311010164E+02  0.41800000000E+01 0.  1.
        -11    1    3    3    0    0 -0.11016994052E+02  0.25025031115E+02  0.54023657787E+01  0.27871345433E+02  0.00000000000E+00 0.  1.
         11    1    3    3    0    0  0.94027417860E+01 -0.66021723487E+02  0.70871647828E+02  0.97314284621E+02  0.00000000000E+00 0. -1.
</event>
<event>
 8    1  0.8061721E-006  0.9056134E+02  0.7561462E-02  0.1301498E+00
          2   -1    0    0  501    0  0.00000000000E+00  0.00000000000E+00  0.26664168640E+04  0.26664168640E+04  0.00000000000E+00 0. -1.
         -2   -1    0    0    0  501 -0.00000000000E+00 -0.00000000000E+00 -0.60683181169E+01  0.60683181169E+01  0.00000000000E+00 0.  1.
         23    2    1    2    0    0 -0.20443148113E+02 -0.33772826020E+01  0.51449546285E+03  0.52288960545E+03  0.90986976280E+02 0.  0.
         23    2    1    2    0    0  0.20443148113E+02  0.33772826020E+01  0.21458530830E+04  0.21495955767E+04  0.12508541449E+03 0.  0.
          5    1    4    4  502    0  0.31682817070E+01 -0.40321783959E+02  0.26066782352E+03  0.26382014875E+03  0.41800000000E+01 0. -1.
         -5    1    4    4    0  502  0.17274866406E+02  0.43699066561E+02  0.18851852595E+04  0.18857754279E+04  0.41800000000E+01 0. -1.
        -11    1    3    3    0    0 -0.29627862843E+02  0.39533335099E+02  0.26579206128E+03  0.27034443712E+03  0.00000000000E+00 0.  1.
         11    1    3    3    0    0  0.91847147299E+01 -0.42910617701E+02  0.24870340157E+03  0.25254516833E+03  0.00000000000E+00 0. -1.
</event>
<event>
 8    1  0.9335785E-006  0.2182185E+03  0.7561462E-02  0.1135218E+00
         -1   -1    0    0    0  501 -0.00000000000E+00  0.00000000000E+00  0.29034311798E+02  0.29034311798E+02  0.00000000000E+00 0.  1.
          1   -1    0    0  501    0  0.00000000000E+00 -0.00000000000E+00 -0.19039653090E+04  0.19039653090E+04  0.00000000000E+00 0. -1.
         23    2    1    2    0    0 -0.19447538159E+03 -0.17163831974E+02 -0.61335116921E+03  0.65028909464E+03  0.92525556833E+02 0.  0.
         23    2    1    2    0    0  0.19447538159E+03  0.17163831974E+02 -0.12615798280E+04  0.12827105261E+04  0.12508940937E+03 0.  0.
          5    1    4    4  502    0  0.20073830913E+03  0.32772051118E+02 -0.99592136701E+03  0.10164874410E+04  0.41800000000E+01 0.  1.
         -5    1    4    4    0  502 -0.62629275388E+01 -0.15608219144E+02 -0.26565846097E+03  0.26622308512E+03  0.41800000000E+01 0.  1.
        -11    1    3    3    0    0 -0.15823569685E+03 -0.50835041171E+02 -0.45590580426E+03  0.48525543740E+03  0.00000000000E+00 0.  1.
         11    1    3    3    0    0 -0.36239684749E+02  0.33671209197E+02 -0.15744536495E+03  0.16503365725E+03  0.00000000000E+00 0. -1.
</event>
<event>
 8    1  0.8061721E-006  0.2998649E+03  0.7561462E-02  0.1085308E+00
         -2   -1    0    0    0  501 -0.00000000000E+00  0.00000000000E+00  0.85268634526E+02  0.85268634526E+02  0.00000000000E+00 0.  1.
          2   -1    0    0  501    0  0.00000000000E+00 -0.00000000000E+00 -0.21359178867E+04  0.21359178867E+04  0.00000000000E+00 0. -1.
         23    2    1    2    0    0 -0.21565139546E+03 -0.19243118622E+03 -0.24931203388E+03  0.39252643311E+03  0.91570872311E+02 0.  0.
         23    2    1    2    0    0  0.21565139546E+03  0.19243118622E+03 -0.18013372183E+04  0.18286600881E+04  0.12508660230E+03 0.  0.
          5    1    4    4  502    0 -0.72777589928E+01  0.15674145909E+02 -0.30457622232E+03  0.30509472665E+03  0.41800000000E+01 0. -1.
         -5    1    4    4    0  502  0.22292915445E+03  0.17675704031E+03 -0.14967609960E+04  0.15235653615E+04  0.41800000000E+01 0. -1.
        -11    1    3    3    0    0 -0.13348222915E+03 -0.16173404124E+03 -0.13898650973E+03  0.25158031617E+03  0.00000000000E+00 0. -1.
         11    1    3    3    0    0 -0.82169166307E+02 -0.30697144980E+02 -0.11032552415E+03  0.14094611694E+03  0.00000000000E+00 0.  1.
</event>
<event>
 8    1  0.8061721E-006  0.1648814E+03  0.7561462E-02  0.1183293E+00
          1   -1    0    0  501    0  0.00000000000E+00  0.00000000000E+00  0.82818792423E+03  0.82818792423E+03  0.00000000000E+00 0. -1.
         -1   -1    0    0    0  501 -0.00000000000E+00 -0.00000000000E+00 -0.35917658996E+02  0.35917658996E+02  0.00000000000E+00 0.  1.
         23    2    1    2    0    0  0.52715061568E+02  0.11917005932E+03  0.29431652703E+03  0.33440193903E+03  0.90675564469E+02 0.  0.
         23    2    1    2    0    0 -0.52715061568E+02 -0.11917005932E+03  0.49795373821E+03  0.52970364419E+03  0.12509054531E+03 0.  0.
          5    1    4    4  502    0  0.24827143306E+02 -0.84114383401E+02  0.17625380964E+03  0.19691240274E+03  0.41800000000E+01 0.  1.
         -5    1    4    4    0  502 -0.77542204874E+02 -0.35055675918E+02  0.32169992857E+03  0.33279124146E+03  0.41800000000E+01 0.  1.
        -11    1    3    3    0    0  0.76306200647E+02  0.76784352262E+02  0.17737891926E+03  0.20780219924E+03  0.00000000000E+00 0.  1.
         11    1    3    3    0    0 -0.23591139079E+02  0.42385707057E+02  0.11693760777E+03  0.12659973979E+03  0.00000000000E+00 0. -1.
</event>
<event>
 8    1  0.8061721E-006  0.1120648E+03  0.7561462E-02  0.1256793E+00
         -2   -1    0    0    0  501 -0.00000000000E+00  0.00000000000E+00  0.78077121040E+01  0.78077121040E+01  0.00000000000E+00 0.  1.
          2   -1    0    0  501    0  0.00000000000E+00 -0.00000000000E+00 -0.20633077809E+04  0.20633077809E+04  0.00000000000E+00 0. -1.
         23    2    1    2    0    0  0.15521001104E+02 -0.18563517788E+02 -0.45045494265E+03  0.46083357047E+03  0.94193516969E+02 0.  0.
         23    2    1    2    0    0 -0.15521001104E+02  0.18563517788E+02 -0.16050451262E+04  0.16102819226E+04  0.12748532243E+03 0.  0.
          5    1    4    4  502    0  0.38439421117E+02  0.50843067179E+02 -0.97607023870E+03  0.97815805975E+03  0.41800000000E+01 0. -1.
         -5    1    4    4    0  502 -0.53960422222E+02 -0.32279549391E+02 -0.62897488749E+03  0.63212386284E+03  0.41800000000E+01 0.  1.
        -11    1    3    3    0    0  0.55316207890E+02 -0.14813485024E+02 -0.26129173453E+03  0.26749335081E+03  0.00000000000E+00 0. -1.
         11    1    3    3    0    0 -0.39795206785E+02 -0.37500327641E+01 -0.18916320813E+03  0.19334021966E+03  0.00000000000E+00 0.  1.
</event>
<event>
 8    1  0.8061721E-006  0.8981192E+02  0.7561462E-02  0.1303308E+00
         -2   -1    0    0    0  501 -0.00000000000E+00  0.00000000000E+00  0.22189354407E+02  0.22189354407E+02  0.00000000000E+00 0.  1.
          2   -1    0    0  501    0  0.00000000000E+00 -0.00000000000E+00 -0.61107877158E+03  0.61107877158E+03  0.00000000000E+00 0. -1.
         23    2    1    2    0    0 -0.18752011110E+02 -0.39470052572E+02 -0.22894858344E+03  0.24971303544E+03  0.89608165031E+02 0.  0.
         23    2    1    2    0    0  0.18752011110E+02  0.39470052572E+02 -0.35994083374E+03  0.38355509055E+03  0.12509029029E+03 0.  0.
          5    1    4    4  502    0  0.62397225887E+02  0.50359329163E+02 -0.16568764363E+03  0.18411774353E+03  0.41800000000E+01 0. -1.
         -5    1    4    4    0  502 -0.43645214777E+02 -0.10889276591E+02 -0.19425319011E+03  0.19943734702E+03  0.41800000000E+01 0. -1.
        -11    1    3    3    0    0 -0.27904383497E+02 -0.28920731950E+02 -0.23196859491E+03  0.23542406924E+03  0.00000000000E+00 0. -1.
         11    1    3    3    0    0  0.91523723872E+01 -0.10549320622E+02  0.30200114655E+01  0.14288966203E+02  0.00000000000E+00 0.  1.
</event>
<event>
 8    1  0.8061721E-006  0.1581741E+03  0.7561462E-02  0.1190774E+00
          3   -1    0    0  501    0  0.00000000000E+00  0.00000000000E+00  0.12236381848E+03  0.12236381848E+03  0.00000000000E+00 0. -1.
         -3   -1    0    0    0  501 -0.00000000000E+00 -0.00000000000E+00 -0.28346163722E+03  0.28346163722E+03  0.00000000000E+00 0.  1.
         23    2    1    2    0    0 -0.11558445522E+03  0.83833709581E+02 -0.12900773826E+03  0.21330559918E+03  0.92024045561E+02 0.  0.
         23    2    1    2    0    0  0.11558445522E+03 -0.83833709581E+02 -0.32090080471E+02  0.19251985651E+03  0.12508503003E+03 0.  0.
          5    1    4    4  502    0 -0.45691038925E+01 -0.34148438124E+02  0.32262221199E+02  0.47384763937E+02  0.41800000000E+01 0. -1.
         -5    1    4    4    0  502  0.12015355911E+03 -0.49685271457E+02 -0.64352301670E+02  0.14513509258E+03  0.41800000000E+01 0. -1.
        -11    1    3    3    0    0 -0.89777556810E+02  0.35072400922E+02 -0.31731656094E+02  0.10147404107E+03  0.00000000000E+00 0. -1.
         11    1    3    3    0    0 -0.25806898411E+02  0.48761308660E+02 -0.97276082168E+02  0.11183155811E+03  0.00000000000E+00 0.  1.
</event>
<event>
 8    1  0.8061721E-006  0.1315820E+03  0.7561462E-02  0.1225127E+00
          3   -1    0    0  501    0  0.00000000000E+00  0.00000000000E+00  0.29459372648E+03  0.29459372648E+03  0.00000000000E+00 0. -1.
         -3   -1    0    0    0  501 -0.00000000000E+00 -0.00000000000E+00 -0.93392939888E+02  0.93392939888E+02  0.00000000000E+00 0.  1.
         23    2    1    2    0    0 -0.13315585740E+02 -0.11906811095E+03  0.52432344499E+02  0.15966193764E+03  0.91587464819E+02 0.  0.
         23    2    1    2    0    0  0.13315585740E+02  0.11906811095E+03  0.14876844209E+03  0.22832472873E+03  0.12508242290E+03 0.  0.
          5    1    4    4  502    0  0.96566639719E+01  0.10399113540E+03  0.17128830602E+03  0.20066031890E+03  0.41800000000E+01 0. -1.
         -5    1    4    4    0  502  0.36589217681E+01  0.15076975549E+02 -0.22519863926E+02  0.27664409834E+02  0.41800000000E+01 0. -1.
        -11    1    3    3    0    0 -0.38304532760E+02 -0.26212610440E+02  0.42601018478E+02  0.63001467851E+02  0.00000000000E+00 0. -1.
         11    1    3    3    0    0  0.24988947020E+02 -0.92855500510E+02  0.98313260215E+01  0.96660469788E+02  0.00000000000E+00 0.  1.
</event>
<event>
 7    1  0.8061721E-006  0.8966299E+02  0.7561462E-02  0.1303670E+00
         -2   -1    0    0    0  501 -0.00000000000E+00  0.00000000000E+00  0.10909694943E+03  0.10909694943E+03  0.00000000000E+00 0.  1.
          2   -1    0    0  501    0  0.00000000000E+00 -0.00000000000E+00 -0.19570610531E+03  0.19570610531E+03  0.00000000000E+00 0. -1.
         23    2    1    2    0    0  0.38279919135E+02 -0.31683133223E+02 -0.16411379835E+03  0.20987406102E+03  0.12101491453E+03 0.  0.
          5    1    3    3  502    0  0.63341164225E+02 -0.60724929094E+02 -0.13687956971E+03  0.16264411794E+03  0.41800000000E+01 0. -1.
         -5    1    3    3    0  502 -0.25061245090E+02  0.29041795872E+02 -0.27234228646E+02  0.47229943075E+02  0.41800000000E+01 0.  1.
        -11    1    1    2    0    0 -0.10187080211E+02 -0.46624188199E+00  0.26616227671E+02  0.28502939500E+02  0.00000000000E+00 0.  1.
         11    1    1    2    0    0 -0.28092838923E+02  0.32149375105E+02  0.50888414804E+02  0.66426054223E+02  0.00000000000E+00 0. -1.
</event>
<event>
 8    1  0.8061721E-006  0.2676552E+03  0.7561462E-02  0.1102629E+00
         -2   -1    0    0    0  501 -0.00000000000E+00  0.00000000000E+00  0.77868602808E+02  0.77868602808E+02  0.00000000000E+00 0.  1.
          2   -1    0    0  501    0  0.00000000000E+00 -0.00000000000E+00 -0.10539001514E+04  0.10539001514E+04  0.00000000000E+00 0. -1.
         23    2    1    2    0    0 -0.16234973269E+03  0.20663857370E+03 -0.47970853077E+03  0.55640754746E+03  0.10203993599E+03 0.  0.
         23    2    1    2    0    0  0.16234973269E+03 -0.20663857370E+03 -0.49632301780E+03  0.57536120672E+03  0.12508814633E+03 0.  0.
          5    1    4    4  502    0  0.12618184215E+03 -0.18410271482E+03 -0.48030009747E+03  0.52964263699E+03  0.41800000000E+01 0. -1.
         -5    1    4    4    0  502  0.36167890545E+02 -0.22535858881E+02 -0.16022920335E+02  0.45718569729E+02  0.41800000000E+01 0. -1.
        -11    1    3    3    0    0 -0.13773876002E+03  0.13242984208E+03 -0.25610776925E+03  0.31953218704E+03  0.00000000000E+00 0.  1.
         11    1    3    3    0    0 -0.24610972678E+02  0.74208731619E+02 -0.22360076152E+03  0.23687536043E+03  0.00000000000E+00 0. -1.
</event>
<event>
 8    1  0.8061721E-006  0.1371651E+03  0.7561462E-02  0.1217195E+00
         -1   -1    0    0    0  501 -0.00000000000E+00  0.00000000000E+00  0.16634316298E+03  0.16634316298E+03  0.00000000000E+00 0.  1.
          1   -1    0    0  501    0  0.00000000000E+00 -0.00000000000E+00 -0.14453267172E+03  0.14453267172E+03  0.00000000000E+00 0. -1.
         23    2    1    2    0    0 -0.37124686153E+02 -0.96312242084E+02 -0.66510295902E+01  0.14621540965E+03  0.10334611520E+03 0.  0.
         23    2    1    2    0    0  0.37124686153E+02  0.96312242084E+02  0.28461520857E+02  0.16466042505E+03  0.12509479250E+03 0.  0.
          5    1    4    4  502    0  0.47133077614E+02  0.32361330147E+01 -0.28177227277E+02  0.55167273807E+02  0.41800000000E+01 0.  1.
         -5    1    4    4    0  502 -0.10008391461E+02  0.93076109070E+02  0.56638748135E+02  0.10949315124E+03  0.41800000000E+01 0.  1.
        -11    1    3    3    0    0 -0.60649046603E+02 -0.41331058377E+02 -0.33482067012E+02  0.80669771611E+02  0.00000000000E+00 0. -1.
         11    1    3    3    0    0  0.23524360449E+02 -0.54981183707E+02  0.26831037421E+02  0.65545638036E+02  0.00000000000E+00 0.  1.
</event>
<event>
 7    1  0.8061721E-006  0.2478108E+03  0.7561462E-02  0.1114696E+00
         -1   -1    0    0    0  501 -0.00000000000E+00  0.00000000000E+00  0.13046726100E+03  0.13046726100E+03  0.00000000000E+00 0.  1.
          1   -1    0    0  501    0  0.00000000000E+00 -0.00000000000E+00 -0.20829201991E+04  0.20829201991E+04  0.00000000000E+00 0. -1.
         23    2    1    2    0    0 -0.48289041721E+02 -0.12557933077E+03 -0.20322255471E+03  0.26220128650E+03  0.96685614418E+02 0.  0.
          5    1    1    2  502    0 -0.14219680065E+03  0.21223999935E+02 -0.17268149185E+04  0.17327947436E+04  0.41800000000E+01 0. -1.
         -5    1    1    2    0  502  0.19048584237E+03  0.10435533084E+03 -0.22415464854E+02  0.21839142996E+03  0.41800000000E+01 0.  1.
        -11    1    3    3    0    0 -0.11231304467E+02 -0.30866996213E+02  0.22624237100E+01  0.32924644512E+02  0.00000000000E+00 0.  1.
         11    1    3    3    0    0 -0.37057737253E+02 -0.94712334560E+02 -0.20548497842E+03  0.22927664199E+03  0.00000000000E+00 0. -1.
</event>
<event>
 7    1  0.8061721E-006  0.8129013E+02  0.7561462E-02  0.1325430E+00
          2   -1    0    0  501    0  0.00000000000E+00  0.00000000000E+00  0.11578964533E+03  0.11578964533E+03  0.00000000000E+00 0. -1.
         -2   -1    0    0    0  501 -0.00000000000E+00 -0.00000000000E+00 -0.19720136878E+03  0.19720136878E+03  0.00000000000E+00 0.  1.
         23    2    1    2    0    0 -0.13423961233E+01  0.38406124906E+00 -0.10339149845E+03  0.14560158756E+03  0.10250888166E+03 0.  0.
          5    1    1    2  502    0 -0.24595385355E+02 -0.19170140925E+02  0.88237434910E+02  0.93678944290E+02  0.41800000000E+01 0. -1.
         -5    1    1    2    0  502  0.25937781479E+02  0.18786079676E+02 -0.66257659916E+02  0.73710482261E+02  0.41800000000E+01 0.  1.
        -11    1    3    3    0    0 -0.38982469842E+02  0.31393005609E+02 -0.71696762542E+02  0.87439004541E+02  0.00000000000E+00 0.  1.
         11    1    3    3    0    0  0.37640073718E+02 -0.31008944360E+02 -0.31694735904E+02  0.58162583022E+02  0.00000000000E+00 0. -1.
</event>
<event>
 8    1  0.8061721E-006  0.3480092E+03  0.7561462E-02  0.1063435E+00
          2   -1    0    0  501    0  0.00000000000E+00  0.00000000000E+00  0.67168153021E+03  0.67168153021E+03  0.00000000000E+00 0. -1.
         -2   -1    0    0    0  501 -0.00000000000E+00 -0.00000000000E+00 -0.20213235158E+03  0.20213235158E+03  0.00000000000E+00 0.  1.
         23    2    1    2    0    0  0.14090195659E+03  0.30580934379E+03  0.11049816765E+03  0.36593868103E+03  0.91260928642E+02 0.  0.
         23    2    1    2    0    0 -0.14090195659E+03 -0.30580934379E+03  0.35905101098E+03  0.50787520076E+03  0.12508746915E+03 0.  0.
          5    1    4    4  502    0  0.23527912018E+02 -0.38696368441E+02  0.47202513827E+02  0.65547854930E+02  0.41800000000E+01 0.  1.
         -5    1    4    4    0  502 -0.16442986861E+03 -0.26711297535E+03  0.31184849716E+03  0.44232734583E+03  0.41800000000E+01 0.  1.
        -11    1    3    3    0    0  0.79119453175E+02  0.18293740077E+03  0.11154626516E+03  0.22840435579E+03  0.00000000000E+00 0. -1.
         11    1    3    3    0    0  0.61782503419E+02  0.12287194302E+03 -0.10480975173E+01  0.13753432523E+03  0.00000000000E+00 0.  1.
</event>
<event>
 8    1  0.8061721E-006  0.1393655E+03  0.7561462E-02  0.1214185E+00
         -1   -1    0    0    0  501 -0.00000000000E+00  0.00000000000E+00  0.60258289157E+02  0.60258289157E+02  0.00000000000E+00 0.  1.
          1   -1    0    0  501    0  0.00000000000E+00 -0.00000000000E+00 -0.46055552737E+03  0.46055552737E+03  0.00000000000E+00 0. -1.
         23    2    1    2    0    0 -0.85717425463E+02  0.39769650749E+02 -0.56173066044E+02  0.14266303282E+03  0.90929782999E+02 0.  0.
         23    2    1    2    0    0  0.85717425463E+02 -0.39769650749E+02 -0.34412417217E+03  0.37815078370E+03  0.12508983651E+03 0.  0.
          5    1    4    4  502    0  0.60686744549E+02  0.34213834445E+02 -0.22557064057E+03  0.23612084559E+03  0.41800000000E+01 0. -1.
         -5    1    4    4    0  502  0.25030680914E+02 -0.73983485194E+02 -0.11855353159E+03  0.14202993812E+03  0.41800000000E+01 0. -1.
        -11    1    3    3    0    0 -0.65553176728E+02 -0.19277438760E+02 -0.35014686696E+02  0.76778036630E+02  0.00000000000E+00 0. -1.
         11    1    3    3    0    0 -0.20164248734E+02  0.59047089509E+02 -0.21158379349E+02  0.65884996191E+02  0.00000000000E+00 0.  1.
</event>
<event>
 8    1  0.8061721E-006  0.1889270E+03  0.7561462E-02  0.1159433E+00
          2   -1    0    0  501    0  0.00000000000E+00  0.00000000000E+00  0.16387048741E+04  0.16387048741E+04  0.00000000000E+00 0. -1.
         -2   -1    0    0    0  501 -0.00000000000E+00 -0.00000000000E+00 -0.26151913835E+02  0.26151913835E+02  0.00000000000E+00 0.  1.
         23    2    1    2    0    0  0.16079244174E+03  0.42665795880E+02  0.52947385411E+03  0.56196256529E+03  0.88231418088E+02 0.  0.
         23    2    1    2    0    0 -0.16079244174E+03 -0.42665795880E+02  0.10830791061E+04  0.11028942226E+04  0.12506293099E+03 0.  0.
          5    1    4    4  502    0 -0.12976768194E+03  0.96959764834E+01  0.50152663804E+03  0.51815065792E+03  0.41800000000E+01 0.  1.
         -5    1    4    4    0  502 -0.31024759792E+02 -0.52361772363E+02  0.58155246810E+03  0.58474356472E+03  0.41800000000E+01 0.  1.
        -11    1    3    3    0    0  0.98230113418E+02 -0.17587373767E+02  0.24567193124E+03  0.26516630385E+03  0.00000000000E+00 0.  1.
         11    1    3    3    0    0  0.62562328317E+02  0.60253169646E+02  0.28380192288E+03  0.29679626144E+03  0.00000000000E+00 0. -1.
</event>
<event>
 8    1  0.8061721E-006  0.1919776E+03  0.7561462E-02  0.1156690E+00
         -2   -1    0    0    0  501 -0.00000000000E+00  0.00000000000E+00  0.38141834350E+03  0.38141834350E+03  0.00000000000E+00 0. -1.
          2   -1    0    0  501    0  0.00000000000E+00 -0.00000000000E+00 -0.12198469754E+03  0.12198469754E+03  0.00000000000E+00 0.  1.
         23    2    1    2    0    0  0.94440629278E+02  0.15879627460E+03  0.14204766980E+03  0.25126790026E+03  0.93929377304E+02 0.  0.
         23    2    1    2    0    0 -0.94440629278E+02 -0.15879627460E+03  0.11738597617E+03  0.25213514077E+03  0.12512942310E+03 0.  0.
          5    1    4    4  502    0 -0.84305019502E+02 -0.87076376273E+02  0.88669926237E+01  0.12159657716E+03  0.41800000000E+01 0.  1.
         -5    1    4    4    0  502 -0.10135609777E+02 -0.71719898332E+02  0.10851898354E+03  0.13053856362E+03  0.41800000000E+01 0.  1.
        -11    1    3    3    0    0  0.63526219265E+01  0.48784488622E+02 -0.26647231156E+01  0.49268477598E+02  0.00000000000E+00 0.  1.
         11    1    3    3    0    0  0.88088007352E+02  0.11001178598E+03  0.14471239292E+03  0.20199942267E+03  0.00000000000E+00 0. -1.
</event>
<event>
 8    1  0.8061721E-006  0.9194146E+02  0.7561462E-02  0.1298217E+00
         -2   -1    0    0    0  501 -0.00000000000E+00  0.00000000000E+00  0.10355460849E+03  0.10355460849E+03  0.00000000000E+00 0.  1.
          2   -1    0    0  501    0  0.00000000000E+00 -0.00000000000E+00 -0.12171230335E+03  0.12171230335E+03  0.00000000000E+00 0. -1.
         23    2    1    2    0    0  0.14860738902E+02  0.35292112466E+01  0.18928268326E+02  0.93909995003E+02  0.90705627868E+02 0.  0.
         23    2    1    2    0    0 -0.14860738902E+02 -0.35292112466E+01 -0.37085963191E+02  0.13135691684E+03  0.12508386803E+03 0.  0.
          5    1    4    4  502    0 -0.60766307836E+02  0.18256138891E+02  0.69793871010E+01  0.63968859764E+02  0.41800000000E+01 0. -1.
         -5    1    4    4    0  502  0.45905568934E+02 -0.21785350138E+02 -0.44065350292E+02  0.67388057073E+02  0.41800000000E+01 0. -1.
        -11    1    3    3    0    0  0.19823352613E+02  0.33503818926E+02  0.40862061725E+02  0.56437392568E+02  0.00000000000E+00 0.  1.
         11    1    3    3    0    0 -0.49626137116E+01 -0.29974607679E+02 -0.21933793399E+02  0.37472602435E+02  0.00000000000E+00 0. -1.
</event>
<event>
 8    1  0.8061721E-006  0.1398801E+03  0.7561462E-02  0.1213490E+00
          2   -1    0    0  501    0  0.00000000000E+00  0.00000000000E+00  0.15699605737E+04  0.15699605737E+04  0.00000000000E+00 0. -1.
         -2   -1    0    0    0  501 -0.00000000000E+00 -0.00000000000E+00 -0.20295500376E+02  0.20295500376E+02  0.00000000000E+00 0.  1.
         23    2    1    2    0    0  0.21627931864E+02  0.11346630736E+03  0.36883321600E+03  0.39721213874E+03  0.91636082344E+02 0.  0.
         23    2    1    2    0    0 -0.21627931864E+02 -0.11346630736E+03  0.11808318573E+04  0.11930439354E+04  0.12509031156E+03 0.  0.
          5    1    4    4  502    0  0.73855419553E+01 -0.99526693349E+02  0.42755862907E+03  0.43907170555E+03  0.41800000000E+01 0.  1.
         -5    1    4    4    0  502 -0.29013473819E+02 -0.13939614015E+02  0.75327322827E+03  0.75397222982E+03  0.41800000000E+01 0.  1.
        -11    1    3    3    0    0  0.22246305457E+02 -0.96833405411E+01  0.63713219591E+02  0.68176532188E+02  0.00000000000E+00 0.  1.
         11    1    3    3    0    0 -0.61837359316E+00  0.12314964790E+03  0.30511999641E+03  0.32903560655E+03  0.00000000000E+00 0. -1.
</event>
<event>
 8    1  0.8061721E-006  0.1085921E+03  0.7561462E-02  0.1263199E+00
          1   -1    0    0  501    0  0.00000000000E+00  0.00000000000E+00  0.32690430950E+03  0.32690430950E+03  0.00000000000E+00 0. -1.
         -1   -1    0    0    0  501 -0.00000000000E+00 -0.00000000000E+00 -0.44351697748E+02  0.44351697748E+02  0.00000000000E+00 0.  1.
         23    2    1    2    0    0  0.59040359353E+01 -0.51504094649E+02  0.13990460561E+03  0.17457483465E+03  0.90639642633E+02 0.  0.
         23    2    1    2    0    0 -0.59040359353E+01  0.51504094649E+02  0.14264800615E+03  0.19668117260E+03  0.12508996999E+03 0.  0.
          5    1    4    4  502    0  0.23431142119E+02 -0.27293477754E+02  0.90938102221E+02  0.97883416290E+02  0.41800000000E+01 0.  1.
         -5    1    4    4    0  502 -0.29335178054E+02  0.78797572403E+02  0.51709903925E+02  0.98797756310E+02  0.41800000000E+01 0.  1.
        -11    1    3    3    0    0  0.25794446691E+02  0.13283416432E+02  0.76302271390E+02  0.81632341945E+02  0.00000000000E+00 0. -1.
         11    1    3    3    0    0 -0.19890410755E+02 -0.64787511081E+02  0.63602334215E+02  0.92942492702E+02  0.00000000000E+00 0.  1.
</event>
<event>
 8    1  0.8061721E-006  0.7530977E+02  0.7561462E-02  0.1342914E+00
         -2   -1    0    0    0  501 -0.00000000000E+00  0.00000000000E+00  0.48759798728E+02  0.48759798728E+02  0.00000000000E+00 0. -1.
          2   -1    0    0  501    0  0.00000000000E+00 -0.00000000000E+00 -0.38244095452E+03  0.38244095452E+03  0.00000000000E+00 0.  1.
         23    2    1    2    0    0 -0.28943214288E+02 -0.45200767959E+01 -0.68383226596E+02  0.13643898417E+03  0.11437302992E+03 0.  0.
         23    2    1    2    0    0  0.28943214288E+02  0.45200767959E+01 -0.26529792920E+03  0.29476176908E+03  0.12507345253E+03 0.  0.
          5    1    4    4  502    0 -0.47538352105E+01  0.14000823096E+02  0.92664816980E+01  0.17943301804E+02  0.41800000000E+01 0. -1.
         -5    1    4    4    0  502  0.33697049498E+02 -0.94807462998E+01 -0.27456441089E+03  0.27681846728E+03  0.41800000000E+01 0. -1.
        -11    1    3    3    0    0  0.10589562811E+02  0.39464518131E+02 -0.65536523507E+02  0.77230971412E+02  0.00000000000E+00 0.  1.
         11    1    3    3    0    0 -0.39532777098E+02 -0.43984594927E+02 -0.28467030884E+01  0.59208012755E+02  0.00000000000E+00 0. -1.
</event>
<event>
 8    1  0.8061721E-006  0.8838882E+02  0.7561462E-02  0.1306801E+00
          1   -1    0    0  501    0  0.00000000000E+00  0.00000000000E+00  0.61140545416E+03  0.61140545416E+03  0.00000000000E+00 0. -1.
         -1   -1    0    0    0  501 -0.00000000000E+00 -0.00000000000E+00 -0.22844789195E+02  0.22844789195E+02  0.00000000000E+00 0.  1.
         23    2    1    2    0    0 -0.35494782323E+02  0.27723837186E+02  0.23710786947E+03  0.25849015346E+03  0.92566338109E+02 0.  0.
         23    2    1    2    0    0  0.35494782323E+02 -0.27723837186E+02  0.35145279550E+03  0.37576008990E+03  0.12509231382E+03 0.  0.
          5    1    4    4  502    0  0.33821879233E+02 -0.54178806028E+02  0.77578189402E+02  0.10057390521E+03  0.41800000000E+01 0. -1.
         -5    1    4    4    0  502  0.16729030904E+01  0.26454968841E+02  0.27387460610E+03  0.27518618469E+03  0.41800000000E+01 0. -1.
        -11    1    3    3    0    0 -0.10034407278E+02 -0.25245142189E+02  0.20450777627E+02  0.34003541567E+02  0.00000000000E+00 0.  1.
         11    1    3    3    0    0 -0.25460375045E+02  0.52968979375E+02  0.21665709184E+03  0.22448661189E+03  0.00000000000E+00 0. -1.
</event>
<event>
 8    1  0.8061721E-006  0.1290238E+03  0.7561462E-02  0.1228912E+00
          1   -1    0    0  501    0  0.00000000000E+00  0.00000000000E+00  0.12602783918E+04  0.12602783918E+04  0.00000000000E+00 0. -1.
         -1   -1    0    0    0  501 -0.00000000000E+00 -0.00000000000E+00 -0.20779083232E+02  0.20779083232E+02  0.00000000000E+00 0.  1.
         23    2    1    2    0    0 -0.48992722837E+02  0.10137634236E+03  0.40976937782E+03  0.43443089039E+03  0.90231955773E+02 0.  0.
         23    2    1    2    0    0  0.48992722837E+02 -0.10137634236E+03  0.82972993077E+03  0.84662658467E+03  0.12508943268E+03 0.  0.
          5    1    4    4  502    0 -0.46274956969E+01 -0.21385884941E+02  0.55555528037E+03  0.55600171918E+03  0.41800000000E+01 0.  1.
         -5    1    4    4    0  502  0.53620218534E+02 -0.79990457419E+02  0.27417465041E+03  0.29062486549E+03  0.41800000000E+01 0.  1.
        -11    1    3    3    0    0 -0.52024739208E+02  0.16684414476E+02  0.10864713272E+03  0.12161061888E+03  0.00000000000E+00 0.  1.
         11    1    3    3    0    0  0.30320163707E+01  0.84691927884E+02  0.30112224510E+03  0.31282027151E+03  0.00000000000E+00 0. -1.
</event>
<event>
 8    1  0.8061721E-006  0.1799235E+03  0.7561462E-02  0.1167877E+00
         -1   -1    0    0    0  501 -0.00000000000E+00  0.00000000000E+00  0.39766028163E+03  0.39766028163E+03  0.00000000000E+00 0.  1.
          1   -1    0    0  501    0  0.00000000000E+00 -0.00000000000E+00 -0.11054403673E+03  0.11054403673E+03  0.00000000000E+00 0. -1.
         23    2    1    2    0    0  0.99370904145E+02 -0.13260026819E+03  0.21370201870E+03  0.28800614714E+03  0.99103886302E+02 0.  0.
         23    2    1    2    0    0 -0.99370904145E+02  0.13260026819E+03  0.73414226203E+02  0.22019817121E+03  0.12506069839E+03 0.  0.
          5    1    4    4  502    0 -0.10131221531E+03  0.11651495076E+03  0.10339045226E+03  0.18586811652E+03  0.41800000000E+01 0. -1.
         -5    1    4    4    0  502  0.19413111684E+01  0.16085317437E+02 -0.29976226059E+02  0.34330054687E+02  0.41800000000E+01 0. -1.
        -11    1    3    3    0    0 -0.48690391435E+01 -0.63289492625E+02  0.44451563706E+02  0.77493283159E+02  0.00000000000E+00 0. -1.
         11    1    3    3    0    0  0.10423994329E+03 -0.69310775567E+02  0.16925045500E+03  0.21051286398E+03  0.00000000000E+00 0.  1.
</event>
<event>
 8    1  0.8061721E-006  0.9333066E+02  0.7561462E-02  0.1294981E+00
          3   -1    0    0  501    0  0.00000000000E+00  0.00000000000E+00  0.36088530746E+03  0.36088530746E+03  0.00000000000E+00 0. -1.
         -3   -1    0    0    0  501 -0.00000000000E+00 -0.00000000000E+00 -0.44563765623E+02  0.44563765623E+02  0.00000000000E+00 0.  1.
         23    2    1    2    0    0 -0.43648861693E+02  0.31208818880E+02  0.80245021440E+02  0.13294280519E+03  0.91407398403E+02 0.  0.
         23    2    1    2    0    0  0.43648861693E+02 -0.31208818880E+02  0.23607652039E+03  0.27250626789E+03  0.12509328142E+03 0.  0.
          5    1    4    4  502    0  0.40602246083E+02 -0.52689801190E+02  0.45608912739E+02  0.80761394600E+02  0.41800000000E+01 0.  1.
         -5    1    4    4    0  502  0.30466156103E+01  0.21480982310E+02  0.19046760765E+03  0.19174487329E+03  0.41800000000E+01 0.  1.
        -11    1    3    3    0    0 -0.66726190107E+02  0.33612739301E+02  0.80378580161E+02  0.10974022434E+03  0.00000000000E+00 0. -1.
         11    1    3    3    0    0  0.23077328414E+02 -0.24039204200E+01 -0.13355872154E+00  0.23202580849E+02  0.00000000000E+00 0.  1.
</event>
<event>
 8    1  0.8061721E-006  0.1020552E+03  0.7561462E-02  0.1276033E+00
         -1   -1    0    0    0  501 -0.00000000000E+00  0.00000000000E+00  0.12262560543E+03  0.12262560543E+03  0.00000000000E+00 0.  1.
          1   -1    0    0  501    0  0.00000000000E+00 -0.00000000000E+00 -0.13310905728E+03  0.13310905728E+03  0.00000000000E+00 0. -1.
         23    2    1    2    0    0  0.44348948949E+02  0.33107438694E+02  0.34535874081E+02  0.11172995390E+03  0.90707906100E+02 0.  0.
         23    2    1    2    0    0 -0.44348948949E+02 -0.33107438694E+02 -0.45019325929E+02  0.14400470881E+03  0.12509070582E+03 0.  0.
          5    1    4    4  502    0 -0.66762926695E+00 -0.72716841715E+02 -0.43563464896E+02  0.84873038543E+02  0.41800000000E+01 0. -1.
         -5    1    4    4    0  502 -0.43681319682E+02  0.39609403021E+02 -0.14558610337E+01  0.59131670264E+02  0.41800000000E+01 0. -1.
        -11    1    3    3    0    0  0.14768331844E+01 -0.10735152549E+02 -0.24388292878E+02  0.26687325944E+02  0.00000000000E+00 0. -1.
         11    1    3    3    0    0  0.42872115765E+02  0.43842591243E+02  0.58924166959E+02  0.85042627952E+02  0.00000000000E+00 0.  1.
</event>
<event>
 8    1  0.8061721E-006  0.1124629E+03  0.7561462E-02  0.1256076E+00
          2   -1    0    0  501    0  0.00000000000E+00  0.00000000000E+00  0.38831781601E+03  0.38831781601E+03  0.00000000000E+00 0. -1.
         -2   -1    0    0    0  501 -0.00000000000E+00 -0.00000000000E+00 -0.38154581296E+02  0.38154581296E+02  0.00000000000E+00 0.  1.
         23    2    1    2    0    0 -0.33495645266E+01  0.36069802537E+02  0.80691611882E+02  0.12718119009E+03  0.91387464386E+02 0.  0.
         23    2    1    2    0    0  0.33495645266E+01 -0.36069802537E+02  0.26947162283E+03  0.29929120722E+03  0.12509204998E+03 0.  0.
          5    1    4    4  502    0 -0.33699742053E+02 -0.69309873526E+02  0.13050072467E+03  0.15161610311E+03  0.41800000000E+01 0.  1.
         -5    1    4    4    0  502  0.37049306580E+02  0.33240070989E+02  0.13897089816E+03  0.14767510411E+03  0.41800000000E+01 0.  1.
        -11    1    3    3    0    0  0.16749913850E+02  0.62433973668E+02  0.47065863830E+02  0.79960966853E+02  0.00000000000E+00 0.  1.
         11    1    3    3    0    0 -0.20099478376E+02 -0.26364171132E+02  0.33625748052E+02  0.47220223237E+02  0.00000000000E+00 0. -1.
</event>
<event>
 8    1  0.8061721E-006  0.6793073E+02  0.7561462E-02  0.1367274E+00
         -2   -1    0    0    0  501 -0.00000000000E+00  0.00000000000E+00  0.64996372861E+02  0.64996372861E+02  0.00000000000E+00 0.  1.
          2   -1    0    0  501    0  0.00000000000E+00 -0.00000000000E+00 -0.20205494371E+03  0.20205494371E+03  0.00000000000E+00 0. -1.
         23    2    1    2    0    0 -0.30243265249E+02 -0.19403783757E+02 -0.34212371023E+02  0.10117327993E+03  0.88172469195E+02 0.  0.
         23    2    1    2    0    0  0.30243265249E+02  0.19403783757E+02 -0.10284619983E+03  0.16587803664E+03  0.12508805020E+03 0.  0.
          5    1    4    4  502    0 -0.14519194930E+02  0.76475490703E+01  0.24803672214E+02  0.30033091474E+02  0.41800000000E+01 0. -1.
         -5    1    4    4    0  502  0.44762460179E+02  0.11756234686E+02 -0.12764987204E+03  0.13584494517E+03  0.41800000000E+01 0. -1.
        -11    1    3    3    0    0 -0.10202178121E+02  0.23217680507E+02 -0.46084758643E+02  0.52601807058E+02  0.00000000000E+00 0. -1.
         11    1    3    3    0    0 -0.20041087128E+02 -0.42621464263E+02  0.11872387621E+02  0.48571472873E+02  0.00000000000E+00 0.  1.
</event>
<event>
 8    1  0.8061721E-006  0.1114278E+03  0.7561462E-02  0.1257948E+00
          2   -1    0    0  501    0  0.00000000000E+00  0.00000000000E+00  0.24316630190E+04  0.24316630190E+04  0.00000000000E+00 0. -1.
         -2   -1    0    0    0  501 -0.00000000000E+00 -0.00000000000E+00 -0.16134896262E+02  0.16134896262E+02  0.00000000000E+00 0.  1.
         23    2    1    2    0    0 -0.73394318238E+02 -0.31820622571E+02  0.24688932266E+03  0.27408247208E+03  0.88133908864E+02 0.  0.
         23    2    1    2    0    0  0.73394318238E+02  0.31820622571E+02  0.21686388001E+04  0.21737154432E+04  0.12508119253E+03 0.  0.
          5    1    4    4  502    0  0.86110549876E+02  0.52317842836E+02  0.20548468664E+04  0.20573199315E+04  0.41800000000E+01 0.  1.
         -5    1    4    4    0  502 -0.12716231638E+02 -0.20497220266E+02  0.11379193368E+03  0.11639551175E+03  0.41800000000E+01 0.  1.
        -11    1    3    3    0    0 -0.72156582757E+02 -0.67971168163E+01  0.23579463309E+03  0.24668174279E+03  0.00000000000E+00 0. -1.
         11    1    3    3    0    0 -0.12377354811E+01 -0.25023505754E+02  0.11094689570E+02  0.27400729297E+02  0.00000000000E+00 0.  1.
</event>
<event>
 8    1  0.8061721E-006  0.1050174E+03  0.7561462E-02  0.1270085E+00
         -2   -1    0    0    0  501 -0.00000000000E+00  0.00000000000E+00  0.17684538822E+02  0.17684538822E+02  0.00000000000E+00 0.  1.
          2   -1    0    0  501    0  0.00000000000E+00 -0.00000000000E+00 -0.91542398778E+03  0.91542398778E+03  0.00000000000E+00 0. -1.
         23    2    1    2    0    0 -0.32420078232E+01  0.28627044057E+02 -0.17548297564E+03  0.19953358390E+03  0.90495072230E+02 0.  0.
         23    2    1    2    0    0  0.32420078232E+01 -0.28627044057E+02 -0.72225647332E+03  0.73357494271E+03  0.12509102704E+03 0.  0.
          5    1    4    4  502    0 -0.34942838593E+00 -0.72170255084E+02 -0.28134598900E+03  0.29048529351E+03  0.41800000000E+01 0.  1.
         -5    1    4    4    0  502  0.35914362091E+01  0.43543211027E+02 -0.44091048432E+03  0.44308964919E+03  0.41800000000E+01 0.  1.
        -11    1    3    3    0    0  0.42642368606E+02  0.73361399184E+01 -0.65844049521E+02  0.78788510626E+02  0.00000000000E+00 0.  1.
         11    1    3    3    0    0 -0.45884376429E+02  0.21290904139E+02 -0.10963892612E+03  0.12074507327E+03  0.00000000000E+00 0. -1.
</event>
<event>
 8    1  0.8061721E-006  0.1147611E+03  0.7561462E-02  0.1251999E+00
         -1   -1    0    0    0  501 -0.00000000000E+00  0.00000000000E+00  0.25011978056E+02  0.25011978056E+02  0.00000000000E+00 0.  1.
          1   -1    0    0  501    0  0.00000000000E+00 -0.00000000000E+00 -0.79284018606E+03  0.79284018606E+03  0.00000000000E+00 0. -1.
         23    2    1    2    0    0  0.53727483840E+02  0.26821774159E+02 -0.16339898013E+03  0.19769974307E+03  0.93701182560E+02 0.  0.
         23    2    1    2    0    0 -0.53727483840E+02 -0.26821774159E+02 -0.60442922787E+03  0.62015242104E+03  0.12509310027E+03 0.  0.
          5    1    4    4  502    0  0.19015334839E+02 -0.54101951612E+02 -0.32715965873E+03  0.33217392858E+03  0.41800000000E+01 0. -1.
         -5    1    4    4    0  502 -0.72742818678E+02  0.27280177453E+02 -0.27726956913E+03  0.28797849246E+03  0.41800000000E+01 0. -1.
        -11    1    3    3    0    0  0.71748466504E+02  0.25526234109E+02 -0.72925404866E+02  0.10543977309E+03  0.00000000000E+00 0.  1.
         11    1    3    3    0    0 -0.18020982664E+02  0.12955400496E+01 -0.90473575264E+02  0.92259969983E+02  0.00000000000E+00 0. -1.
</event>
<event>
 8    1  0.8061721E-006  0.1384075E+03  0.7561462E-02  0.1215488E+00
         -2   -1    0    0    0  501 -0.00000000000E+00  0.00000000000E+00  0.23196943401E+02  0.23196943401E+02  0.00000000000E+00 0.  1.
          2   -1    0    0  501    0  0.00000000000E+00 -0.00000000000E+00 -0.11041081636E+04  0.11041081636E+04  0.00000000000E+00 0. -1.
         23    2    1    2    0    0  0.52664217278E+02  0.91937026144E+02 -0.32220028002E+03  0.35108561774E+03  0.90676093740E+02 0.  0.
         23    2    1    2    0    0 -0.52664217278E+02 -0.91937026144E+02 -0.75871094020E+03  0.77621948929E+03  0.12509383765E+03 0.  0.
          5    1    4    4  502    0 -0.58365341284E+02 -0.10609076067E+02 -0.13944968537E+03  0.15160063558E+03  0.41800000000E+01 0.  1.
         -5    1    4    4    0  502  0.57011240052E+01 -0.81327950077E+02 -0.61926125483E+03  0.62461885371E+03  0.41800000000E+01 0.  1.
        -11    1    3    3    0    0  0.59345226702E+01  0.88669336342E+02 -0.16981321230E+03  0.19166115109E+03  0.00000000000E+00 0.  1.
         11    1    3    3    0    0  0.46729694608E+02  0.32676898011E+01 -0.15238706773E+03  0.15942446664E+03  0.00000000000E+00 0. -1.
</event>
<event>
 7    1  0.8061721E-006  0.7016896E+02  0.7561462E-02  0.1359519E+00
          2   -1    0    0  501    0  0.00000000000E+00  0.00000000000E+00  0.44800190276E+03  0.44800190276E+03  0.00000000000E+00 0. -1.
         -2   -1    0    0    0  501 -0.00000000000E+00 -0.00000000000E+00 -0.91854263889E+02  0.91854263889E+02  0.00000000000E+00 0.  1.
         23    2    1    2    0    0  0.54921007365E+02  0.13048353246E+02 -0.30946837357E+02  0.11385956437E+03  0.93913348802E+02 0.  0.
          5    1    1    2  502    0 -0.21109793497E+02 -0.23442251041E+02  0.38902606877E+03  0.39032539899E+03  0.41800000000E+01 0. -1.
         -5    1    1    2    0  502 -0.33811213868E+02  0.10393897795E+02 -0.19315925399E+01  0.35671203292E+02  0.41800000000E+01 0.  1.
        -11    1    3    3    0    0  0.28525278182E+02  0.30102713929E+02  0.25907161946E+02  0.48898322276E+02  0.00000000000E+00 0.  1.
         11    1    3    3    0    0  0.26395729183E+02 -0.17054360684E+02 -0.56853999303E+02  0.64961242092E+02  0.00000000000E+00 0. -1.
</event>
<event>
 8    1  0.8061721E-006  0.1056300E+03  0.7561462E-02  0.1268883E+00
         -2   -1    0    0    0  501 -0.00000000000E+00  0.00000000000E+00  0.36713361796E+02  0.36713361796E+02  0.00000000000E+00 0.  1.
          2   -1    0    0  501    0  0.00000000000E+00 -0.00000000000E+00 -0.45416659923E+03  0.45416659923E+03  0.00000000000E+00 0. -1.
         23    2    1    2    0    0 -0.68376431474E+02 -0.99525758279E+01 -0.13165259484E+03  0.17136741108E+03  0.85205596680E+02 0.  0.
         23    2    1    2    0    0  0.68376431474E+02  0.99525758279E+01 -0.28580064260E+03  0.31951254995E+03  0.12502748545E+03 0.  0.
          5    1    4    4  502    0  0.10204868761E+03  0.17688635339E+02 -0.17520758584E+03  0.20357306550E+03  0.41800000000E+01 0. -1.
         -5    1    4    4    0  502 -0.33672256135E+02 -0.77360595113E+01 -0.11059305676E+03  0.11593948444E+03  0.41800000000E+01 0. -1.
        -11    1    3    3    0    0 -0.16502344059E+02 -0.12750578218E+02 -0.11490935967E+03  0.11678640993E+03  0.00000000000E+00 0. -1.
         11    1    3    3    0    0 -0.51874087416E+02  0.27980023896E+01 -0.16743235167E+02  0.54581001149E+02  0.00000000000E+00 0.  1.
</event>
<event>
 7    1  0.8061721E-006  0.1161378E+03  0.7561462E-02  0.1249608E+00
         -1   -1    0    0    0  501 -0.00000000000E+00  0.00000000000E+00  0.40606382950E+02  0.40606382950E+02  0.00000000000E+00 0.  1.
          1   -1    0    0  501    0  0.00000000000E+00 -0.00000000000E+00 -0.43869704473E+03  0.43869704473E+03  0.00000000000E+00 0. -1.
         23    2    1    2    0    0 -0.36768337685E+02 -0.33541428764E+02 -0.12396483513E+03  0.15901569496E+03  0.86265710438E+02 0.  0.
          5    1    1    2  502    0  0.70936567770E+02 -0.17329078252E+02 -0.23809657910E+03  0.24907779303E+03  0.41800000000E+01 0. -1.
         -5    1    1    2    0  502 -0.34168230085E+02  0.50870507016E+02 -0.36029247555E+02  0.71209939689E+02  0.41800000000E+01 0.  1.
        -11    1    3    3    0    0 -0.56883155001E+02 -0.46764941639E+02 -0.78904837620E+02  0.10792880287E+03  0.00000000000E+00 0. -1.
         11    1    3    3    0    0  0.20114817316E+02  0.13223512875E+02 -0.45059997505E+02  0.51086892092E+02  0.00000000000E+00 0.  1.
</event>
<event>
 8    1  0.8061721E-006  0.1092504E+03  0.7561462E-02  0.1261964E+00
         -1   -1    0    0    0  501 -0.00000000000E+00  0.00000000000E+00  0.44285490229E+02  0.44285490229E+02  0.00000000000E+00 0.  1.
          1   -1    0    0  501    0  0.00000000000E+00 -0.00000000000E+00 -0.32463327644E+03  0.32463327644E+03  0.00000000000E+00 0. -1.
         23    2    1    2    0    0  0.29416718870E+02 -0.41611556423E+01 -0.50692244346E+02  0.10572169713E+03  0.87890358074E+02 0.  0.
         23    2    1    2    0    0 -0.29416718870E+02  0.41611556423E+01 -0.22965554186E+03  0.26319706953E+03  0.12509344882E+03 0.  0.
          5    1    4    4  502    0 -0.49022180109E+02  0.54929023720E+02 -0.12381021387E+03  0.14410695073E+03  0.41800000000E+01 0.  1.
         -5    1    4    4    0  502  0.19605461240E+02 -0.50767868078E+02 -0.10584532799E+03  0.11909011880E+03  0.41800000000E+01 0.  1.
        -11    1    3    3    0    0  0.59276647761E+02  0.34009321814E+01 -0.44753989285E+02  0.74351912325E+02  0.00000000000E+00 0. -1.
         11    1    3    3    0    0 -0.29859928891E+02 -0.75620878237E+01 -0.59382550610E+01  0.31369784807E+02  0.00000000000E+00 0.  1.
</event>
<event>
 8    1  0.8061721E-006  0.1017828E+03  0.7561462E-02  0.1276591E+00
          1   -1    0    0  501    0  0.00000000000E+00  0.00000000000E+00  0.17656255168E+03  0.17656255168E+03  0.00000000000E+00 0. -1.
         -1   -1    0    0    0  501 -0.00000000000E+00 -0.00000000000E+00 -0.13380415241E+03  0.13380415241E+03  0.00000000000E+00 0.  1.
         23    2    1    2    0    0 -0.10016910724E+03  0.37072552391E+01 -0.22631012835E+02  0.13724687032E+03  0.90977727409E+02 0.  0.
         23    2    1    2    0    0  0.10016910724E+03 -0.37072552391E+01  0.65389412107E+02  0.17311983377E+03  0.12508840011E+03 0.  0.
          5    1    4    4  502    0  0.54823629075E+02 -0.11960839465E+01 -0.33377258754E+02  0.64331755173E+02  0.41800000000E+01 0. -1.
         -5    1    4    4    0  502  0.45345478165E+02 -0.25111712925E+01  0.98766670860E+02  0.10878807859E+03  0.41800000000E+01 0. -1.
        -11    1    3    3    0    0 -0.19552883578E+02  0.10259167646E+02 -0.47705013537E+02  0.52567424262E+02  0.00000000000E+00 0.  1.
         11    1    3    3    0    0 -0.80616223662E+02 -0.65519124069E+01  0.25074000702E+02  0.84679446059E+02  0.00000000000E+00 0. -1.
</event>
<event>
 8    1  0.8061721E-006  0.1087860E+03  0.7561462E-02  0.1262835E+00
         -1   -1    0    0    0  501 -0.00000000000E+00  0.00000000000E+00  0.94294307742E+02  0.94294307742E+02  0.00000000000E+00 0.  1.
          1   -1    0    0  501    0  0.00000000000E+00 -0.00000000000E+00 -0.21287463190E+03  0.21287463190E+03  0.00000000000E+00 0. -1.
         23    2    1    2    0    0  0.70515546110E+02 -0.30621874369E+01  0.69669989008E+01  0.11640053813E+03  0.92296949935E+02 0.  0.
         23    2    1    2    0    0 -0.70515546110E+02  0.30621874369E+01 -0.12554732305E+03  0.19076840151E+03  0.12509449810E+03 0.  0.
          5    1    4    4  502    0 -0.83892296523E+02  0.47335567881E+02 -0.93795099058E+02  0.13451232810E+03  0.41800000000E+01 0. -1.
         -5    1    4    4    0  502  0.13376750413E+02 -0.44273380444E+02 -0.31752223997E+02  0.56256073417E+02  0.41800000000E+01 0. -1.
        -11    1    3    3    0    0  0.19815063324E+02 -0.12100499141E+02  0.46168769939E+02  0.51677984981E+02  0.00000000000E+00 0.  1.
         11    1    3    3    0    0  0.50700482785E+02  0.90383117045E+01 -0.39201771038E+02  0.64722553145E+02  0.00000000000E+00 0. -1.
</event>
<event>
 8    1  0.8061721E-006  0.1476382E+03  0.7561462E-02  0.1203406E+00
          2   -1    0    0  501    0  0.00000000000E+00  0.00000000000E+00  0.47161985289E+03  0.47161985289E+03  0.00000000000E+00 0. -1.
         -2   -1    0    0    0  501 -0.00000000000E+00 -0.00000000000E+00 -0.64616965643E+02  0.64616965643E+02  0.00000000000E+00 0.  1.
         23    2    1    2    0    0 -0.11905326031E+03  0.18112744058E+02  0.90555150299E+02  0.17528431872E+03  0.89569006107E+02 0.  0.
         23    2    1    2    0    0  0.11905326031E+03 -0.18112744058E+02  0.31644773695E+03  0.36095249982E+03  0.12508311883E+03 0.  0.
          5    1    4    4  502    0  0.10252904880E+03  0.36319178113E+02  0.15247817621E+03  0.18734555016E+03  0.41800000000E+01 0. -1.
         -5    1    4    4    0  502  0.16524211508E+02 -0.54431922172E+02  0.16396956074E+03  0.17360694965E+03  0.41800000000E+01 0. -1.
        -11    1    3    3    0    0 -0.49319890459E+02  0.31304529302E+02 -0.22424309864E+01  0.58458991151E+02  0.00000000000E+00 0.  1.
         11    1    3    3    0    0 -0.69733369851E+02 -0.13191785243E+02  0.92797581286E+02  0.11682532757E+03  0.00000000000E+00 0. -1.
</event>
<event>
 8    1  0.8061721E-006  0.8491670E+02  0.7561462E-02  0.1315651E+00
         -2   -1    0    0    0  501 -0.00000000000E+00  0.00000000000E+00  0.19992142690E+02  0.19992142690E+02  0.00000000000E+00 0. -1.
          2   -1    0    0  501    0  0.00000000000E+00 -0.00000000000E+00 -0.77019630645E+03  0.77019630645E+03  0.00000000000E+00 0.  1.
         23    2    1    2    0    0 -0.48996079790E+02 -0.30389964748E+01 -0.21566063083E+03  0.23901306603E+03  0.90597387986E+02 0.  0.
         23    2    1    2    0    0  0.48996079790E+02  0.30389964748E+01 -0.53454353293E+03  0.55117538311E+03  0.12509061920E+03 0.  0.
          5    1    4    4  502    0  0.48625053867E+02  0.17913319551E+02 -0.53312681627E+03  0.53565563332E+03  0.41800000000E+01 0.  1.
         -5    1    4    4    0  502  0.37102592205E+00 -0.14874323077E+02 -0.14167166548E+01  0.15519749782E+02  0.41800000000E+01 0.  1.
        -11    1    3    3    0    0 -0.67321795714E+02 -0.26734003665E+02 -0.13977527453E+03  0.15742953503E+03  0.00000000000E+00 0. -1.
         11    1    3    3    0    0  0.18325715925E+02  0.23695007190E+02 -0.75885356301E+02  0.81583531002E+02  0.00000000000E+00 0.  1.
</event>
<event>
 8    1  0.8061721E-006  0.1275077E+03  0.7561462E-02  0.1231201E+00
          1   -1    0    0  501    0  0.00000000000E+00  0.00000000000E+00  0.36332926715E+02  0.36332926715E+02  0.00000000000E+00 0. -1.
         -1   -1    0    0    0  501 -0.00000000000E+00 -0.00000000000E+00 -0.56292858890E+03  0.56292858890E+03  0.00000000000E+00 0.  1.
         23    2    1    2    0    0 -0.43038240336E+00 -0.89132608780E+02 -0.30158494049E+03  0.32682636746E+03  0.88978598332E+02 0.  0.
         23    2    1    2    0    0  0.43038240336E+00  0.89132608780E+02 -0.22501072170E+03  0.27243514816E+03  0.12508508262E+03 0.  0.
          5    1    4    4  502    0  0.52100296721E+02  0.19407997601E+02 -0.14080504514E+03  0.15144188465E+03  0.41800000000E+01 0. -1.
         -5    1    4    4    0  502 -0.51669914317E+02  0.69724611179E+02 -0.84205676563E+02  0.12099326351E+03  0.41800000000E+01 0. -1.
        -11    1    3    3    0    0 -0.33898479972E+02 -0.34931415073E+02 -0.20799279726E+03  0.21361253337E+03  0.00000000000E+00 0.  1.
         11    1    3    3    0    0  0.33468097568E+02 -0.54201193707E+02 -0.93592143230E+02  0.11321383409E+03  0.00000000000E+00 0. -1.
</event>
<event>
 8    1  0.8061721E-006  0.1095891E+03  0.7561462E-02  0.1261333E+00
          3   -1    0    0  501    0  0.00000000000E+00  0.00000000000E+00  0.13977175709E+03  0.13977175709E+03  0.00000000000E+00 0. -1.
         -3   -1    0    0    0  501 -0.00000000000E+00 -0.00000000000E+00 -0.11503549656E+03  0.11503549656E+03  0.00000000000E+00 0.  1.
         23    2    1    2    0    0  0.37505358955E+02  0.20951768406E+02 -0.38984724758E+02  0.10800417919E+03  0.91101401793E+02 0.  0.
         23    2    1    2    0    0 -0.37505358955E+02 -0.20951768406E+02  0.63720985289E+02  0.14680307447E+03  0.12508057466E+03 0.  0.
          5    1    4    4  502    0 -0.11755633918E+02  0.48287647470E+02  0.51713164080E+02  0.71844384374E+02  0.41800000000E+01 0. -1.
         -5    1    4    4    0  502 -0.25749725037E+02 -0.69239415877E+02  0.12007821209E+02  0.74958690094E+02  0.41800000000E+01 0. -1.
        -11    1    3    3    0    0  0.47260558195E+02 -0.21380860526E+02 -0.36391131684E+01  0.51999468289E+02  0.00000000000E+00 0. -1.
         11    1    3    3    0    0 -0.97551992400E+01  0.42332628932E+02 -0.35345611590E+02  0.56004710902E+02  0.00000000000E+00 0.  1.
</event>
<event>
 7    1  0.8061721E-006  0.3378024E+03  0.7561462E-02  0.1067736E+00
         -1   -1    0    0    0  501 -0.00000000000E+00  0.00000000000E+00  0.12810524977E+03  0.12810524977E+03  0.00000000000E+00 0.  1.
          1   -1    0    0  501    0  0.00000000000E+00 -0.00000000000E+00 -0.22019852233E+04  0.22019852233E+04  0.00000000000E+00 0. -1.
         23    2    1    2    0    0 -0.12382622596E+03 -0.25523383760E+03 -0.98863519280E+02  0.31431749834E+03  0.92435102773E+02 0.  0.
          5    1    1    2  502    0  0.89727090684E+02  0.31249218803E+03 -0.14197537774E+04  0.14565097250E+04  0.41800000000E+01 0. -1.
         -5    1    1    2    0  502  0.34099135277E+02 -0.57258350430E+02 -0.55526267687E+03  0.55926324968E+03  0.41800000000E+01 0.  1.
        -11    1    3    3    0    0 -0.21761304973E+02 -0.44890913541E+02  0.17877898401E+02  0.52994035173E+02  0.00000000000E+00 0. -1.
         11    1    3    3    0    0 -0.10206492099E+03 -0.21034292406E+03 -0.11674141768E+03  0.26132346316E+03  0.00000000000E+00 0.  1.
</event>
<event>
 8    1  0.8061721E-006  0.9696313E+02  0.7561462E-02  0.1286815E+00
          2   -1    0    0  501    0  0.00000000000E+00  0.00000000000E+00  0.16358363320E+03  0.16358363320E+03  0.00000000000E+00 0.  1.
         -2   -1    0    0    0  501 -0.00000000000E+00 -0.00000000000E+00 -0.86832138599E+02  0.86832138599E+02  0.00000000000E+00 0. -1.
         23    2    1    2    0    0 -0.25761720846E+02 -0.18981088412E+02 -0.11314983027E+01  0.99625702226E+02  0.94340088389E+02 0.  0.
         23    2    1    2    0    0  0.25761720846E+02  0.18981088412E+02  0.77882992901E+02  0.15079006957E+03  0.12509171243E+03 0.  0.
          5    1    4    4  502    0  0.90364749969E+01 -0.35706532270E+02  0.85266949185E+02  0.92976014921E+02  0.41800000000E+01 0. -1.
         -5    1    4    4    0  502  0.16725245849E+02  0.54687620682E+02 -0.73839562848E+01  0.57814054649E+02  0.41800000000E+01 0. -1.
        -11    1    3    3    0    0 -0.59670075512E+02  0.18903515298E+01 -0.28896551240E+01  0.59769904193E+02  0.00000000000E+00 0.  1.
         11    1    3    3    0    0  0.33908354666E+02 -0.20871439941E+02  0.17581568213E+01  0.39855798033E+02  0.00000000000E+00 0. -1.
</event>
<event>
 8    1  0.8061721E-006  0.1241504E+03  0.7561462E-02  0.1236403E+00
          2   -1    0    0  501    0  0.00000000000E+00  0.00000000000E+00  0.19649730033E+03  0.19649730033E+03  0.00000000000E+00 0.  1.
         -2   -1    0    0    0  501 -0.00000000000E+00 -0.00000000000E+00 -0.94935802949E+02  0.94935802949E+02  0.00000000000E+00 0. -1.
         23    2    1    2    0    0  0.75199390291E+02 -0.31036371625E+02  0.37115315013E+02  0.12889457919E+03  0.92833513729E+02 0.  0.
         23    2    1    2    0    0 -0.75199390291E+02  0.31036371625E+02  0.64446182365E+02  0.16253852409E+03  0.12508899523E+03 0.  0.
          5    1    4    4  502    0 -0.94991962705E+02 -0.12440825122E+02  0.21744909791E+02  0.98328839157E+02  0.41800000000E+01 0. -1.
         -5    1    4    4    0  502  0.19792572414E+02  0.43477196747E+02  0.42701272574E+02  0.64209684932E+02  0.41800000000E+01 0. -1.
        -11    1    3    3    0    0  0.13767414964E+02  0.20209492227E+02  0.42156902992E+02  0.48735713401E+02  0.00000000000E+00 0.  1.
         11    1    3    3    0    0  0.61431975327E+02 -0.51245863852E+02 -0.50415879795E+01  0.80158865785E+02  0.00000000000E+00 0. -1.
</event>
<event>
 8    1  0.8061721E-006  0.9196572E+02  0.7561462E-02  0.1298160E+00
          2   -1    0    0  501    0  0.00000000000E+00  0.00000000000E+00  0.31863155607E+02  0.31863155607E+02  0.00000000000E+00 0. -1.
         -2   -1    0    0    0  501 -0.00000000000E+00 -0.00000000000E+00 -0.49264767546E+03  0.49264767546E+03  0.00000000000E+00 0.  1.
         23    2    1    2    0    0 -0.31330921436E+02  0.43149235580E+02 -0.27209212572E+03  0.29192950713E+03  0.91352225397E+02 0.  0.
         23    2    1    2    0    0  0.31330921436E+02 -0.43149235580E+02 -0.18869239414E+03  0.23258132394E+03  0.12508305030E+03 0.  0.
          5    1    4    4  502    0  0.30663631510E+02 -0.75891284433E+02 -0.65134336733E+02  0.10468858377E+03  0.41800000000E+01 0. -1.
         -5    1    4    4    0  502  0.66728992587E+00  0.32742048853E+02 -0.12355805740E+03  0.12789274017E+03  0.41800000000E+01 0. -1.
        -11    1    3    3    0    0 -0.42297870386E+02  0.37925937117E+02 -0.27382766230E+03  0.27965885501E+03  0.00000000000E+00 0.  1.
         11    1    3    3    0    0  0.10966948950E+02  0.52232984630E+01  0.17355365831E+01  0.12270652116E+02  0.00000000000E+00 0. -1.
</event>
<event>
 8    1  0.8061721E-006  0.1284056E+03  0.7561462E-02  0.1229841E+00
          2   -1    0    0  501    0  0.00000000000E+00  0.00000000000E+00  0.83412101315E+02  0.83412101315E+02  0.00000000000E+00 0. -1.
         -2   -1    0    0    0  501 -0.00000000000E+00 -0.00000000000E+00 -0.24036260709E+03  0.24036260709E+03  0.00000000000E+00 0.  1.
         23    2    1    2    0    0 -0.81852489433E+02  0.62350533503E+01 -0.11543594300E+03  0.16850208468E+03  0.91262202955E+02 0.  0.
         23    2    1    2    0    0  0.81852489433E+02 -0.62350533503E+01 -0.41514562781E+02  0.15527262373E+03  0.12508965921E+03 0.  0.
          5    1    4    4  502    0 -0.31806243367E+02 -0.15180588912E+02 -0.82755041445E+01  0.36442334800E+02  0.41800000000E+01 0. -1.
         -5    1    4    4    0  502  0.11365873280E+03  0.89455355615E+01 -0.33239058636E+02  0.11883028893E+03  0.41800000000E+01 0. -1.
        -11    1    3    3    0    0 -0.85053949685E+02  0.24641303207E+02 -0.52707746741E+02  0.10305083574E+03  0.00000000000E+00 0.  1.
         11    1    3    3    0    0  0.32014602526E+01 -0.18406249856E+02 -0.62728196254E+02  0.65451248933E+02  0.00000000000E+00 0. -1.
</event>
<event>
 8    1  0.8061721E-006  0.1992026E+03  0.7561462E-02  0.1150413E+00
          2   -1    0    0  501    0  0.00000000000E+00  0.00000000000E+00  0.35229447485E+03  0.35229447485E+03  0.00000000000E+00 0. -1.
         -2   -1    0    0    0  501 -0.00000000000E+00 -0.00000000000E+00 -0.17414301792E+03  0.17414301792E+03  0.00000000000E+00 0.  1.
         23    2    1    2    0    0 -0.90532822852E+02 -0.16682467740E+03 -0.36692398095E+02  0.21365698701E+03  0.90974232715E+02 0.  0.
         23    2    1    2    0    0  0.90532822852E+02  0.16682467740E+03  0.21484385502E+03  0.31278050576E+03  0.12508835974E+03 0.  0.
          5    1    4    4  502    0  0.59618584638E+02  0.61137556541E+02  0.18269694031E+02  0.87426715448E+02  0.41800000000E+01 0.  1.
         -5    1    4    4    0  502  0.30914238214E+02  0.10568712085E+03  0.19657416099E+03  0.22535379031E+03  0.41800000000E+01 0.  1.
        -11    1    3    3    0    0 -0.49417660955E+01 -0.82209455755E+02  0.13127079518E+02  0.83397457301E+02  0.00000000000E+00 0. -1.
         11    1    3    3    0    0 -0.85591056756E+02 -0.84615221641E+02 -0.49819477613E+02  0.13025952971E+03  0.00000000000E+00 0.  1.
</event>
<event>
 8    1  0.8061721E-006  0.2102435E+03  0.7561462E-02  0.1141373E+00
         -4   -1    0    0    0  501 -0.00000000000E+00  0.00000000000E+00  0.26172346619E+03  0.26172346619E+03  0.00000000000E+00 0.  1.
          4   -1    0    0  501    0  0.00000000000E+00 -0.00000000000E+00 -0.20209684472E+03  0.20209684472E+03  0.00000000000E+00 0. -1.
         23    2    1    2    0    0  0.77974289629E+02  0.18706390779E+03  0.23897450126E+02  0.22299328864E+03  0.89900073515E+02 0.  0.
         23    2    1    2    0    0 -0.77974289629E+02 -0.18706390779E+03  0.35729171349E+02  0.24082702227E+03  0.12509270774E+03 0.  0.
          5    1    4    4  502    0  0.69251025437E+00 -0.24026256405E+02 -0.38132712805E+02  0.45269379863E+02  0.41800000000E+01 0. -1.
         -5    1    4    4    0  502 -0.78666799884E+02 -0.16303765138E+03  0.73861884154E+02  0.19555764240E+03  0.41800000000E+01 0. -1.
        -11    1    3    3    0    0 -0.37344559522E+01  0.81212763885E+02  0.35623933358E+02  0.88761048929E+02  0.00000000000E+00 0. -1.
         11    1    3    3    0    0  0.81708745582E+02  0.10585114390E+03 -0.11726483232E+02  0.13423223971E+03  0.00000000000E+00 0.  1.
</event>
<event>
 8    1  0.8186865E-006  0.1429224E+03  0.7561462E-02  0.1209450E+00
          2   -1    0    0  501    0  0.00000000000E+00  0.00000000000E+00  0.94608831401E+02  0.94608831401E+02  0.00000000000E+00 0. -1.
         -2   -1    0    0    0  501 -0.00000000000E+00 -0.00000000000E+00 -0.25787201579E+03  0.25787201579E+03  0.00000000000E+00 0.  1.
         23    2    1    2    0    0  0.65771332516E+02  0.96910076554E+02 -0.66576455526E+02  0.15572386836E+03  0.78102929706E+02 0.  0.
         23    2    1    2    0    0 -0.65771332516E+02 -0.96910076554E+02 -0.96686728867E+02  0.19675697883E+03  0.12509018371E+03 0.  0.
          5    1    4    4  502    0 -0.66659956964E+02  0.41742764725E+01 -0.20133615476E+02  0.69884256586E+02  0.41800000000E+01 0. -1.
         -5    1    4    4    0  502  0.88862444810E+00 -0.10108435303E+03 -0.76553113391E+02  0.12687272225E+03  0.41800000000E+01 0. -1.
        -11    1    3    3    0    0  0.35617802294E+02  0.62998366402E+02  0.32549883925E+01  0.72443198156E+02  0.00000000000E+00 0. -1.
         11    1    3    3    0    0  0.30153530221E+02  0.33911710153E+02 -0.69831443919E+02  0.83280670207E+02  0.00000000000E+00 0.  1.
</event>
<event>
 8    1  0.8061721E-006  0.1231257E+03  0.7561462E-02  0.1238028E+00
          2   -1    0    0  501    0  0.00000000000E+00  0.00000000000E+00  0.49576491819E+02  0.49576491819E+02  0.00000000000E+00 0. -1.
         -2   -1    0    0    0  501 -0.00000000000E+00 -0.00000000000E+00 -0.46965633549E+03  0.46965633549E+03  0.00000000000E+00 0.  1.
         23    2    1    2    0    0  0.71547977736E+02 -0.57290698880E+02 -0.29099379334E+03  0.31746224537E+03  0.87769881920E+02 0.  0.
         23    2    1    2    0    0 -0.71547977736E+02  0.57290698880E+02 -0.12908605033E+03  0.20177058195E+03  0.12508725776E+03 0.  0.
          5    1    4    4  502    0  0.35536876233E+02  0.19986173158E+02 -0.26552493311E+02  0.48834659730E+02  0.41800000000E+01 0. -1.
         -5    1    4    4    0  502 -0.10708485397E+03  0.37304525722E+02 -0.10253355702E+03  0.15293592222E+03  0.41800000000E+01 0. -1.
        -11    1    3    3    0    0  0.38410177741E+02 -0.27584177110E+02 -0.25738636217E+03  0.26169441724E+03  0.00000000000E+00 0.  1.
         11    1    3    3    0    0  0.33137799995E+02 -0.29706521769E+02 -0.33607431168E+02  0.55767828126E+02  0.00000000000E+00 0. -1.
</event>
<event>
 8    1  0.8061721E-006  0.1136992E+03  0.7561462E-02  0.1253869E+00
          1   -1    0    0  501    0  0.00000000000E+00  0.00000000000E+00  0.55615998702E+03  0.55615998702E+03  0.00000000000E+00 0. -1.
         -1   -1    0    0    0  501 -0.00000000000E+00 -0.00000000000E+00 -0.32463238926E+02  0.32463238926E+02  0.00000000000E+00 0.  1.
         23    2    1    2    0    0 -0.52058150017E+02 -0.32707386933E+02  0.12809927099E+03  0.16918848602E+03  0.91844958655E+02 0.  0.
         23    2    1    2    0    0  0.52058150017E+02  0.32707386933E+02  0.39559747710E+03  0.41943473992E+03  0.12509321733E+03 0.  0.
          5    1    4    4  502    0  0.67601655880E+02 -0.21986166833E+02  0.29813685221E+03  0.30652313200E+03  0.41800000000E+01 0.  1.
         -5    1    4    4    0  502 -0.15543505864E+02  0.54693553766E+02  0.97460624894E+02  0.11291160792E+03  0.41800000000E+01 0.  1.
        -11    1    3    3    0    0 -0.64180134301E+02  0.12162407836E+00  0.11523717487E+03  0.13190417319E+03  0.00000000000E+00 0.  1.
         11    1    3    3    0    0  0.12121984284E+02 -0.32829011012E+02  0.12862096118E+02  0.37284312835E+02  0.00000000000E+00 0. -1.
</event>
<event>
 8    1  0.8061721E-006  0.1168553E+03  0.7561462E-02  0.1248377E+00
          1   -1    0    0  501    0  0.00000000000E+00  0.00000000000E+00  0.34310142593E+03  0.34310142593E+03  0.00000000000E+00 0. -1.
         -1   -1    0    0    0  501 -0.00000000000E+00 -0.00000000000E+00 -0.59772061466E+02  0.59772061466E+02  0.00000000000E+00 0.  1.
         23    2    1    2    0    0 -0.52618665115E+02  0.15913633377E+02  0.26596845011E+02  0.11204735388E+03  0.93942800152E+02 0.  0.
         23    2    1    2    0    0  0.52618665115E+02 -0.15913633377E+02  0.25673251945E+03  0.29082613352E+03  0.12508511401E+03 0.  0.
          5    1    4    4  502    0  0.53149742968E+01 -0.64999057790E+02  0.95435804836E+02  0.11566586234E+03  0.41800000000E+01 0.  1.
         -5    1    4    4    0  502  0.47303690819E+02  0.49085424413E+02  0.16129671461E+03  0.17516027118E+03  0.41800000000E+01 0.  1.
        -11    1    3    3    0    0  0.12064203089E+02  0.31326966260E+02 -0.11412438371E+02  0.35456558784E+02  0.00000000000E+00 0.  1.
         11    1    3    3    0    0 -0.64682868204E+02 -0.15413332883E+02  0.38009283383E+02  0.76590795093E+02  0.00000000000E+00 0. -1.
</event>
<event>
 8    1  0.8061721E-006  0.9872933E+02  0.7561462E-02  0.1282991E+00
          2   -1    0    0  501    0  0.00000000000E+00  0.00000000000E+00  0.27922599503E+03  0.27922599503E+03  0.00000000000E+00 0. -1.
         -2   -1    0    0    0  501 -0.00000000000E+00 -0.00000000000E+00 -0.56822720189E+02  0.56822720189E+02  0.00000000000E+00 0.  1.
         23    2    1    2    0    0 -0.36525077008E+02  0.32687068784E+02  0.43795624064E+02  0.11255312614E+03  0.91365331500E+02 0.  0.
         23    2    1    2    0    0  0.36525077008E+02 -0.32687068784E+02  0.17860765078E+03  0.22349558908E+03  0.12508820771E+03 0.  0.
          5    1    4    4  502    0  0.75794793537E+02 -0.39462422128E+02  0.80299750431E+02  0.11733565446E+03  0.41800000000E+01 0.  1.
         -5    1    4    4    0  502 -0.39269716529E+02  0.67753533440E+01  0.98307900346E+02  0.10615993462E+03  0.41800000000E+01 0.  1.
        -11    1    3    3    0    0 -0.38157442354E+02 -0.93974105476E+00  0.63099060747E+02  0.73745270949E+02  0.00000000000E+00 0. -1.
         11    1    3    3    0    0  0.16323653456E+01  0.33626809839E+02 -0.19303436683E+02  0.38807855189E+02  0.00000000000E+00 0.  1.
</event>
<event>
 8    1  0.8061721E-006  0.1117123E+03  0.7561462E-02  0.1257431E+00
         -1   -1    0    0    0  501 -0.00000000000E+00  0.00000000000E+00  0.19373638024E+02  0.19373638024E+02  0.00000000000E+00 0.  1.
          1   -1    0    0  501    0  0.00000000000E+00 -0.00000000000E+00 -0.11753307451E+04  0.11753307451E+04  0.00000000000E+00 0. -1.
         23    2    1    2    0    0  0.76435217743E+02  0.41494629875E+02 -0.31441904417E+03  0.33948721982E+03  0.93957917503E+02 0.  0.
         23    2    1    2    0    0 -0.76435217743E+02 -0.41494629875E+02 -0.84153806288E+03  0.85521716328E+03  0.12508372508E+03 0.  0.
          5    1    4    4  502    0 -0.84816156321E+02 -0.56505777068E+02 -0.82405364393E+03  0.83034243761E+03  0.41800000000E+01 0. -1.
         -5    1    4    4    0  502  0.83809385781E+01  0.15011147194E+02 -0.17484418951E+02  0.24874725678E+02  0.41800000000E+01 0. -1.
        -11    1    3    3    0    0  0.52997838692E+02  0.55246470354E+02 -0.29813549816E+03  0.30780792494E+03  0.00000000000E+00 0. -1.
         11    1    3    3    0    0  0.23437379052E+02 -0.13751840479E+02 -0.16283546017E+02  0.31679294883E+02  0.00000000000E+00 0.  1.
</event>
<event>
 8    1  0.8061721E-006  0.8119085E+02  0.7561462E-02  0.1325706E+00
         -2   -1    0    0    0  501 -0.00000000000E+00  0.00000000000E+00  0.22171882621E+03  0.22171882621E+03  0.00000000000E+00 0.  1.
          2   -1    0    0  501    0  0.00000000000E+00 -0.00000000000E+00 -0.84538662172E+02  0.84538662172E+02  0.00000000000E+00 0. -1.
         23    2    1    2    0    0  0.64281726695E+01 -0.33904081437E+02  0.14622490493E+03  0.17618047752E+03  0.92016464274E+02 0.  0.
         23    2    1    2    0    0 -0.64281726695E+01  0.33904081437E+02 -0.90447408941E+01  0.13007701085E+03  0.12508962096E+03 0.  0.
          5    1    4    4  502    0 -0.34676596925E+02  0.70002294273E+01 -0.57555070244E+02  0.67686986173E+02  0.41800000000E+01 0. -1.
         -5    1    4    4    0  502  0.28248424256E+02  0.26903852010E+02  0.48510329350E+02  0.62390024680E+02  0.41800000000E+01 0. -1.
        -11    1    3    3    0    0  0.36709989024E+02  0.62451116515E+01  0.10416711847E+03  0.11062284251E+03  0.00000000000E+00 0.  1.
         11    1    3    3    0    0 -0.30281816354E+02 -0.40149193089E+02  0.42057786455E+02  0.65557635016E+02  0.00000000000E+00 0. -1.
</event>
<event>
 8    1  0.8061721E-006  0.1596834E+03  0.7561462E-02  0.1189055E+00
          2   -1    0    0  501    0  0.00000000000E+00  0.00000000000E+00  0.94925698714E+03  0.94925698714E+03  0.00000000000E+00 0. -1.
         -2   -1    0    0    0  501 -0.00000000000E+00 -0.00000000000E+00 -0.38119165318E+02  0.38119165318E+02  0.00000000000E+00 0.  1.
         23    2    1    2    0    0  0.14482855711E+03 -0.56344698400E+02  0.40514396698E+03  0.44347154979E+03  0.91516913776E+02 0.  0.
         23    2    1    2    0    0 -0.14482855711E+03  0.56344698400E+02  0.50599385485E+03  0.54390460267E+03  0.12510955067E+03 0.  0.
          5    1    4    4  502    0 -0.14052224300E+03  0.51005656955E+02  0.51230636137E+03  0.53368844668E+03  0.41800000000E+01 0.  1.
         -5    1    4    4    0  502 -0.43063141029E+01  0.53390414446E+01 -0.63125065180E+01  0.10216155991E+02  0.41800000000E+01 0.  1.
        -11    1    3    3    0    0  0.43751589647E+02  0.42122805316E+01  0.38746235226E+02  0.58593648530E+02  0.00000000000E+00 0.  1.
         11    1    3    3    0    0  0.10107696746E+03 -0.60556978931E+02  0.36639773175E+03  0.38487790126E+03  0.00000000000E+00 0. -1.
</event>
<event>
 8    1  0.1107663E-005  0.2192640E+03  0.7561462E-02  0.1134433E+00
          2   -1    0    0  501    0  0.00000000000E+00  0.00000000000E+00  0.21483190804E+04  0.21483190804E+04  0.00000000000E+00 0. -1.
         -2   -1    0    0    0  501 -0.00000000000E+00 -0.00000000000E+00 -0.26158367270E+02  0.26158367270E+02  0.00000000000E+00 0.  1.
         23    2    1    2    0    0 -0.40022636070E+02 -0.20408325543E+03  0.72175816269E+03  0.75320110210E+03  0.55904098616E+02 0.  0.
         23    2    1    2    0    0  0.40022636070E+02  0.20408325543E+03  0.14004025504E+04  0.14212763455E+04  0.12508941071E+03 0.  0.
          5    1    4    4  502    0  0.34255317258E+02  0.21485994264E+03  0.11418591595E+04  0.11624104414E+04  0.41800000000E+01 0.  1.
         -5    1    4    4    0  502  0.57673188121E+01 -0.10776687209E+02  0.25854339089E+03  0.25886590414E+03  0.41800000000E+01 0.  1.
        -11    1    3    3    0    0 -0.25058680335E+02 -0.13581504719E+03  0.56385990013E+03  0.58052704630E+03  0.00000000000E+00 0.  1.
         11    1    3    3    0    0 -0.14963955736E+02 -0.68268208238E+02  0.15789826256E+03  0.17267405580E+03  0.00000000000E+00 0. -1.
</event>
<event>
 8    1  0.8061721E-006  0.2896079E+03  0.7561462E-02  0.1090554E+00
         -1   -1    0    0    0  501 -0.00000000000E+00  0.00000000000E+00  0.16263513180E+04  0.16263513180E+04  0.00000000000E+00 0.  1.
          1   -1    0    0  501    0  0.00000000000E+00 -0.00000000000E+00 -0.59524305112E+02  0.59524305112E+02  0.00000000000E+00 0. -1.
         23    2    1    2    0    0 -0.24621289254E+03  0.14363476600E+03  0.93096569240E+03  0.97790955236E+03  0.91423398061E+02 0.  0.
         23    2    1    2    0    0  0.24621289254E+03 -0.14363476600E+03  0.63586132049E+03  0.70796607075E+03  0.12507839137E+03 0.  0.
          5    1    4    4  502    0  0.14967924667E+03 -0.11403140872E+03  0.27514085744E+03  0.33335717015E+03  0.41800000000E+01 0. -1.
         -5    1    4    4    0  502  0.96533645868E+02 -0.29603357279E+02  0.36072046305E+03  0.37460890060E+03  0.41800000000E+01 0. -1.
        -11    1    3    3    0    0 -0.66412154111E+02  0.67486034131E+02  0.42852924433E+03  0.43886473117E+03  0.00000000000E+00 0.  1.
         11    1    3    3    0    0 -0.17980073843E+03  0.76148731871E+02  0.50243644807E+03  0.53904482119E+03  0.00000000000E+00 0. -1.
</event>
<event>
 8    1  0.8061721E-006  0.1178326E+03  0.7561462E-02  0.1246716E+00
          2   -1    0    0  501    0  0.00000000000E+00  0.00000000000E+00  0.46117844194E+03  0.46117844194E+03  0.00000000000E+00 0. -1.
         -2   -1    0    0    0  501 -0.00000000000E+00 -0.00000000000E+00 -0.49099424832E+02  0.49099424832E+02  0.00000000000E+00 0.  1.
         23    2    1    2    0    0 -0.88570935120E+02  0.29255901157E+02  0.11211787308E+03  0.17215820514E+03  0.91473011492E+02 0.  0.
         23    2    1    2    0    0  0.88570935120E+02 -0.29255901157E+02  0.29996114402E+03  0.33811966163E+03  0.12508996505E+03 0.  0.
          5    1    4    4  502    0 -0.35616311575E+01 -0.96517894522E+01  0.20145589992E+03  0.20176172647E+03  0.41800000000E+01 0. -1.
         -5    1    4    4    0  502  0.92132566278E+02 -0.19604111704E+02  0.98505244102E+02  0.13635793516E+03  0.41800000000E+01 0. -1.
        -11    1    3    3    0    0 -0.43507538813E+01  0.44475864030E+02  0.44726681908E+02  0.63225846100E+02  0.00000000000E+00 0.  1.
         11    1    3    3    0    0 -0.84220181239E+02 -0.15219962873E+02  0.67391191171E+02  0.10893235904E+03  0.00000000000E+00 0. -1.
</event>
<event>
 7    1  0.8061721E-006  0.2099396E+03  0.7561462E-02  0.1141614E+00
         -2   -1    0    0    0  501 -0.00000000000E+00  0.00000000000E+00  0.56284976457E+02  0.56284976457E+02  0.00000000000E+00 0.  1.
          2   -1    0    0  501    0  0.00000000000E+00 -0.00000000000E+00 -0.86374054371E+03  0.86374054371E+03  0.00000000000E+00 0. -1.
         23    2    1    2    0    0  0.13095852785E+03  0.16869584096E+02 -0.24460870802E+03  0.29226244884E+03  0.90272919950E+02 0.  0.
          5    1    1    2  502    0  0.58485234309E+02 -0.43733926899E+02 -0.25491638143E+03  0.26520371965E+03  0.41800000000E+01 0. -1.
         -5    1    1    2    0  502 -0.18944376215E+03  0.26864342803E+02 -0.30793047780E+03  0.36255935168E+03  0.41800000000E+01 0.  1.
        -11    1    3    3    0    0  0.12359967334E+03  0.40918444058E+02 -0.22656389021E+03  0.26130900226E+03  0.00000000000E+00 0. -1.
         11    1    3    3    0    0  0.73588545029E+01 -0.24048859963E+02 -0.18044817811E+02  0.30953446576E+02  0.00000000000E+00 0.  1.
</event>
<event>
 8    1  0.8061721E-006  0.1345882E+03  0.7561462E-02  0.1220802E+00
          1   -1    0    0  501    0  0.00000000000E+00  0.00000000000E+00  0.87941471935E+02  0.87941471935E+02  0.00000000000E+00 0. -1.
         -1   -1    0    0    0  501 -0.00000000000E+00 -0.00000000000E+00 -0.37970205266E+03  0.37970205266E+03  0.00000000000E+00 0.  1.
         23    2    1    2    0    0  0.41666077683E+02  0.81034700762E+02 -0.28510123714E+03  0.31274056894E+03  0.90671182213E+02 0.  0.
         23    2    1    2    0    0 -0.41666077683E+02 -0.81034700762E+02 -0.66593435782E+01  0.15490295565E+03  0.12509154270E+03 0.  0.
          5    1    4    4  502    0  0.13637438597E+02 -0.87106815271E+02  0.23688913588E+02  0.91390448216E+02  0.41800000000E+01 0. -1.
         -5    1    4    4    0  502 -0.55303516280E+02  0.60721145095E+01 -0.30348257166E+02  0.63512507434E+02  0.41800000000E+01 0. -1.
        -11    1    3    3    0    0  0.41445752186E+02 -0.25571703376E+01 -0.13104388287E+03  0.13746559108E+03  0.00000000000E+00 0.  1.
         11    1    3    3    0    0  0.22032549692E+00  0.83591871099E+02 -0.15405735428E+03  0.17527497786E+03  0.00000000000E+00 0. -1.
</event>
<event>
 8    1  0.8061721E-006  0.1090148E+03  0.7561462E-02  0.1262405E+00
         -2   -1    0    0    0  501 -0.00000000000E+00  0.00000000000E+00  0.16824947482E+02  0.16824947482E+02  0.00000000000E+00 0.  1.
          2   -1    0    0  501    0  0.00000000000E+00 -0.00000000000E+00 -0.86331809778E+03  0.86331809778E+03  0.00000000000E+00 0. -1.
         23    2    1    2    0    0  0.29970093778E+01  0.28146182010E+02 -0.20808503683E+03  0.22897961723E+03  0.91274820868E+02 0.  0.
         23    2    1    2    0    0 -0.29970093778E+01 -0.28146182010E+02 -0.63840811346E+03  0.65116342803E+03  0.12509077122E+03 0.  0.
          5    1    4    4  502    0 -0.31662552990E-02  0.47292378832E+02 -0.16277463229E+03  0.16955713616E+03  0.41800000000E+01 0.  1.
         -5    1    4    4    0  502 -0.29938431225E+01 -0.75438560842E+02 -0.47563348118E+03  0.48160629188E+03  0.41800000000E+01 0.  1.
        -11    1    3    3    0    0 -0.43556571790E+02  0.18880042310E+02 -0.11710829857E+03  0.12636449081E+03  0.00000000000E+00 0.  1.
         11    1    3    3    0    0  0.46553581168E+02  0.92661397001E+01 -0.90976738264E+02  0.10261512642E+03  0.00000000000E+00 0. -1.
</event>
<event>
 8    1  0.8061721E-006  0.1340839E+03  0.7561462E-02  0.1221519E+00
         -2   -1    0    0    0  501 -0.00000000000E+00  0.00000000000E+00  0.17136030638E+03  0.17136030638E+03  0.00000000000E+00 0. -1.
          2   -1    0    0  501    0  0.00000000000E+00 -0.00000000000E+00 -0.13371807976E+03  0.13371807976E+03  0.00000000000E+00 0.  1.
         23    2    1    2    0    0 -0.96680564793E+01 -0.10425753366E+03  0.20816526223E+02  0.14108482113E+03  0.92241500143E+02 0.  0.
         23    2    1    2    0    0  0.96680564793E+01  0.10425753366E+03  0.16825700401E+02  0.16399356501E+03  0.12509068923E+03 0.  0.
          5    1    4    4  502    0 -0.36341709121E+02 -0.10808917666E+02 -0.36527329798E+01  0.38319282106E+02  0.41800000000E+01 0. -1.
         -5    1    4    4    0  502  0.46009765600E+02  0.11506645132E+03  0.20478433381E+02  0.12567428291E+03  0.41800000000E+01 0. -1.
        -11    1    3    3    0    0  0.46337441353E+01 -0.35353732430E+02  0.52859094633E+02  0.63760817646E+02  0.00000000000E+00 0. -1.
         11    1    3    3    0    0 -0.14301800615E+02 -0.68903801227E+02 -0.32042568410E+02  0.77324003483E+02  0.00000000000E+00 0.  1.
</event>
<event>
 7    1  0.8061721E-006  0.3617244E+02  0.7561462E-02  0.1538429E+00
         -2   -1    0    0    0  501 -0.00000000000E+00  0.00000000000E+00  0.16875710551E+02  0.16875710551E+02  0.00000000000E+00 0.  1.
          2   -1    0    0  501    0  0.00000000000E+00 -0.00000000000E+00 -0.42599313230E+03  0.42599313230E+03  0.00000000000E+00 0. -1.
         23    2    1    2    0    0 -0.15338627198E+02  0.64759782544E+01 -0.34286483971E+03  0.36123943646E+03  0.11251853343E+03 0.  0.
          5    1    3    3  502    0  0.36250287219E+00 -0.84688370606E+01 -0.33862895559E+03  0.33876082208E+03  0.41800000000E+01 0. -1.
         -5    1    3    3    0  502 -0.15701130070E+02  0.14944815315E+02 -0.42358841187E+01  0.22478614382E+02  0.41800000000E+01 0.  1.
        -11    1    1    2    0    0  0.27795922689E+02 -0.53856001838E+01 -0.62435050328E+02  0.68554748318E+02  0.00000000000E+00 0. -1.
         11    1    1    2    0    0 -0.12457295491E+02 -0.10903780706E+01 -0.38175317071E+01  0.13074658069E+02  0.00000000000E+00 0.  1.
</event>
<event>
 8    1  0.8061721E-006  0.1156841E+03  0.7561462E-02  0.1250392E+00
          2   -1    0    0  501    0  0.00000000000E+00  0.00000000000E+00  0.20804887596E+03  0.20804887596E+03  0.00000000000E+00 0. -1.
         -2   -1    0    0    0  501 -0.00000000000E+00 -0.00000000000E+00 -0.82799450402E+02  0.82799450402E+02  0.00000000000E+00 0.  1.
         23    2    1    2    0    0 -0.33927628652E+02 -0.43806967031E+02  0.28229462686E+01  0.10725535721E+03  0.91791112197E+02 0.  0.
         23    2    1    2    0    0  0.33927628652E+02  0.43806967031E+02  0.12242647928E+03  0.18359296915E+03  0.12509197074E+03 0.  0.
          5    1    4    4  502    0  0.74871813998E+02  0.54829592425E+02  0.71705374614E+02  0.11735078136E+03  0.41800000000E+01 0. -1.
         -5    1    4    4    0  502 -0.40944185346E+02 -0.11022625394E+02  0.50721104670E+02  0.66242187790E+02  0.41800000000E+01 0. -1.
        -11    1    3    3    0    0 -0.15486110596E+01 -0.59752726747E+02  0.25113721364E+02  0.64834293014E+02  0.00000000000E+00 0. -1.
         11    1    3    3    0    0 -0.32379017592E+02  0.15945759716E+02 -0.22290775096E+02  0.42421064196E+02  0.00000000000E+00 0.  1.
</event>
<event>
 8    1  0.8061721E-006  0.1708075E+03  0.7561462E-02  0.1177008E+00
         -2   -1    0    0    0  501 -0.00000000000E+00  0.00000000000E+00  0.93762114493E+02  0.93762114493E+02  0.00000000000E+00 0.  1.
          2   -1    0    0  501    0  0.00000000000E+00 -0.00000000000E+00 -0.53712378254E+03  0.53712378254E+03  0.00000000000E+00 0. -1.
         23    2    1    2    0    0  0.15102168662E+03 -0.30858059286E+02 -0.42714589294E+02  0.18375686448E+03  0.90455953114E+02 0.  0.
         23    2    1    2    0    0 -0.15102168662E+03  0.30858059286E+02 -0.40064707876E+03  0.44712903255E+03  0.12508605191E+03 0.  0.
          5    1    4    4  502    0 -0.45778504756E+02 -0.33042764343E+02 -0.50217500746E+02  0.75675395964E+02  0.41800000000E+01 0.  1.
         -5    1    4    4    0  502 -0.10524318187E+03  0.63900823629E+02 -0.35042957801E+03  0.37145363659E+03  0.41800000000E+01 0.  1.
        -11    1    3    3    0    0  0.36630284679E+02  0.13610413208E+02 -0.46785997561E+02  0.60958598008E+02  0.00000000000E+00 0. -1.
         11    1    3    3    0    0  0.11439140194E+03 -0.44468472494E+02  0.40714082671E+01  0.12279826648E+03  0.00000000000E+00 0.  1.
</event>
<event>
 8    1  0.8061721E-006  0.9847254E+02  0.7561462E-02  0.1283541E+00
         -1   -1    0    0    0  501 -0.00000000000E+00  0.00000000000E+00  0.38255296419E+02  0.38255296419E+02  0.00000000000E+00 0.  1.
          1   -1    0    0  501    0  0.00000000000E+00 -0.00000000000E+00 -0.38476559386E+03  0.38476559386E+03  0.00000000000E+00 0. -1.
         23    2    1    2    0    0 -0.13855023446E+02 -0.41090428209E+02 -0.94444221078E+02  0.13830086400E+03  0.91252578724E+02 0.  0.
         23    2    1    2    0    0  0.13855023446E+02  0.41090428209E+02 -0.25206607636E+03  0.28472002628E+03  0.12509117293E+03 0.  0.
          5    1    4    4  502    0  0.60723772847E+02  0.56270564429E+02 -0.16195342515E+03  0.18193443139E+03  0.41800000000E+01 0.  1.
         -5    1    4    4    0  502 -0.46868749401E+02 -0.15180136220E+02 -0.90112651217E+02  0.10278559488E+03  0.41800000000E+01 0.  1.
        -11    1    3    3    0    0  0.14858389815E+02 -0.47064467901E+00  0.13097037692E+02  0.19812260108E+02  0.00000000000E+00 0.  1.
         11    1    3    3    0    0 -0.28713413260E+02 -0.40619783530E+02 -0.10754125877E+03  0.11848860389E+03  0.00000000000E+00 0. -1.
</event>
<event>
 8    1  0.8061721E-006  0.1323669E+03  0.7561462E-02  0.1223985E+00
          1   -1    0    0  501    0  0.00000000000E+00  0.00000000000E+00  0.48427354865E+03  0.48427354865E+03  0.00000000000E+00 0. -1.
         -1   -1    0    0    0  501 -0.00000000000E+00 -0.00000000000E+00 -0.44048808317E+02  0.44048808317E+02  0.00000000000E+00 0.  1.
         23    2    1    2    0    0 -0.69344625971E+02  0.66440229540E+02  0.18786760927E+03  0.23074041909E+03  0.93401933261E+02 0.  0.
         23    2    1    2    0    0  0.69344625971E+02 -0.66440229540E+02  0.25235713106E+03  0.29758193788E+03  0.12509159404E+03 0.  0.
          5    1    4    4  502    0  0.84636073969E+02 -0.78165235681E+02  0.13045274825E+03  0.17409325378E+03  0.41800000000E+01 0. -1.
         -5    1    4    4    0  502 -0.15291447998E+02  0.11725006141E+02  0.12190438281E+03  0.12348868410E+03  0.41800000000E+01 0. -1.
        -11    1    3    3    0    0 -0.21270725705E+02 -0.21036094456E+02  0.71019754015E+02  0.77063392751E+02  0.00000000000E+00 0. -1.
         11    1    3    3    0    0 -0.48073900266E+02  0.87476323997E+02  0.11684785526E+03  0.15367702634E+03  0.00000000000E+00 0.  1.
</event>
<event>
 8    1  0.8061721E-006  0.1083328E+03  0.7561462E-02  0.1263689E+00
          2   -1    0    0  501    0  0.00000000000E+00  0.00000000000E+00  0.45256150981E+03  0.45256150981E+03  0.00000000000E+00 0.  1.
         -2   -1    0    0    0  501 -0.00000000000E+00 -0.00000000000E+00 -0.50291227509E+02  0.50291227509E+02  0.00000000000E+00 0. -1.
         23    2    1    2    0    0  0.23494916144E+02  0.47896028001E+02  0.28274682574E+02  0.10489885268E+03  0.85780365102E+02 0.  0.
         23    2    1    2    0    0 -0.23494916144E+02 -0.47896028001E+02  0.37399559973E+03  0.39795388464E+03  0.12509414494E+03 0.  0.
          5    1    4    4  502    0  0.37833914584E+02  0.21344095152E+01  0.23395194729E+03  0.23703785950E+03  0.41800000000E+01 0. -1.
         -5    1    4    4    0  502 -0.61328830728E+02 -0.50030437516E+02  0.14004365244E+03  0.16091602513E+03  0.41800000000E+01 0. -1.
        -11    1    3    3    0    0 -0.23929566607E+02  0.45964498610E+02  0.50743767220E+01  0.52068306959E+02  0.00000000000E+00 0. -1.
         11    1    3    3    0    0  0.47424482751E+02  0.19315293912E+01  0.23200305852E+02  0.52830545725E+02  0.00000000000E+00 0.  1.
</event>
<event>
 8    1  0.8061721E-006  0.1674213E+03  0.7561462E-02  0.1180564E+00
          2   -1    0    0  501    0  0.00000000000E+00  0.00000000000E+00  0.24903742041E+03  0.24903742041E+03  0.00000000000E+00 0. -1.
         -2   -1    0    0    0  501 -0.00000000000E+00 -0.00000000000E+00 -0.12244900327E+03  0.12244900327E+03  0.00000000000E+00 0.  1.
         23    2    1    2    0    0  0.68163437027E+02 -0.11712355654E+03  0.45179819722E+02  0.16989249676E+03  0.91967726424E+02 0.  0.
         23    2    1    2    0    0 -0.68163437027E+02  0.11712355654E+03  0.81408597419E+02  0.20159392692E+03  0.12509424444E+03 0.  0.
          5    1    4    4  502    0 -0.66688329859E+02  0.13762983047E+03  0.91549042886E+02  0.17829190455E+03  0.41800000000E+01 0. -1.
         -5    1    4    4    0  502 -0.14751071680E+01 -0.20506273938E+02 -0.10140445466E+02  0.23302022364E+02  0.41800000000E+01 0. -1.
        -11    1    3    3    0    0  0.48631521610E+02 -0.12910188959E+03  0.49513490957E+02  0.14657390142E+03  0.00000000000E+00 0. -1.
         11    1    3    3    0    0  0.19531915416E+02  0.11978333054E+02 -0.43336712357E+01  0.23318595347E+02  0.00000000000E+00 0.  1.
</event>
<event>
 7    1  0.8061721E-006  0.2856470E+03  0.7561462E-02  0.1092644E+00
         -2   -1    0    0    0  501 -0.00000000000E+00  0.00000000000E+00  0.70907375596E+02  0.70907375596E+02  0.00000000000E+00 0.  1.
          2   -1    0    0  501    0  0.00000000000E+00 -0.00000000000E+00 -0.34160055826E+04  0.34160055826E+04  0.00000000000E+00 0. -1.
         23    2    1    2    0    0  0.26601699868E+02 -0.13708406019E+03 -0.53988630170E+03  0.56529212122E+03  0.92618969769E+02 0.  0.
          5    1    1    2  502    0 -0.20181413910E+03  0.11341021414E+03 -0.27116993744E+04  0.27215660553E+04  0.41800000000E+01 0. -1.
         -5    1    1    2    0  502  0.17521243923E+03  0.23673846044E+02 -0.93512530826E+02  0.20005478167E+03  0.41800000000E+01 0.  1.
        -11    1    3    3    0    0  0.15082252771E+00 -0.13644672921E+03 -0.49213983888E+03  0.51070476174E+03  0.00000000000E+00 0.  1.
         11    1    3    3    0    0  0.26450877340E+02 -0.63733098168E+00 -0.47746462821E+02  0.54587359478E+02  0.00000000000E+00 0. -1.
</event>
<event>
 8    1  0.8061721E-006  0.1124210E+03  0.7561462E-02  0.1256151E+00
         -2   -1    0    0    0  501 -0.00000000000E+00  0.00000000000E+00  0.34372698754E+02  0.34372698754E+02  0.00000000000E+00 0. -1.
          2   -1    0    0  501    0  0.00000000000E+00 -0.00000000000E+00 -0.78372584041E+03  0.78372584041E+03  0.00000000000E+00 0.  1.
         23    2    1    2    0    0  0.38714167828E+01 -0.63653046219E+02 -0.90117380603E+02  0.14407654612E+03  0.92575432462E+02 0.  0.
         23    2    1    2    0    0 -0.38714167828E+01  0.63653046219E+02 -0.65923576105E+03  0.67402199304E+03  0.12508860975E+03 0.  0.
          5    1    4    4  502    0  0.44979784493E+02  0.41754890714E+02 -0.15235865361E+03  0.16430850143E+03  0.41800000000E+01 0.  1.
         -5    1    4    4    0  502 -0.48851201276E+02  0.21898155505E+02 -0.50687710744E+03  0.50971349161E+03  0.41800000000E+01 0.  1.
        -11    1    3    3    0    0  0.45496495298E+02 -0.45081515608E+02 -0.36559231142E+02  0.73748569584E+02  0.00000000000E+00 0. -1.
         11    1    3    3    0    0 -0.41625078515E+02 -0.18571530611E+02 -0.53558149460E+02  0.70327976540E+02  0.00000000000E+00 0.  1.
</event>
<event>
 8    1  0.8061721E-006  0.1914452E+03  0.7561462E-02  0.1157164E+00
         -1   -1    0    0    0  501 -0.00000000000E+00  0.00000000000E+00  0.41907590363E+02  0.41907590363E+02  0.00000000000E+00 0.  1.
          1   -1    0    0  501    0  0.00000000000E+00 -0.00000000000E+00 -0.10827274805E+04  0.10827274805E+04  0.00000000000E+00 0. -1.
         23    2    1    2    0    0  0.15255366861E+03  0.86991767291E+02 -0.36482230160E+03  0.41508508681E+03  0.91433736476E+02 0.  0.
         23    2    1    2    0    0 -0.15255366861E+03 -0.86991767291E+02 -0.67599758850E+03  0.70954998401E+03  0.12509296850E+03 0.  0.
          5    1    4    4  502    0 -0.11254866497E+03 -0.99339965769E+02 -0.62806560173E+03  0.64577047258E+03  0.41800000000E+01 0. -1.
         -5    1    4    4    0  502 -0.40005003644E+02  0.12348198478E+02 -0.47931986772E+02  0.63779511430E+02  0.41800000000E+01 0. -1.
        -11    1    3    3    0    0  0.14875778062E+03  0.55275714807E+02 -0.25180735731E+03  0.29764278446E+03  0.00000000000E+00 0.  1.
         11    1    3    3    0    0  0.37958879969E+01  0.31716052484E+02 -0.11301494428E+03  0.11744230235E+03  0.00000000000E+00 0. -1.
</event>
<event>
 8    1  0.8061721E-006  0.1200179E+03  0.7561462E-02  0.1243068E+00
         -3   -1    0    0    0  501 -0.00000000000E+00  0.00000000000E+00  0.29870897626E+02  0.29870897626E+02  0.00000000000E+00 0.  1.
          3   -1    0    0  501    0  0.00000000000E+00 -0.00000000000E+00 -0.10231601737E+04  0.10231601737E+04  0.00000000000E+00 0. -1.
         23    2    1    2    0    0 -0.44268919088E+02 -0.28418449071E+02 -0.10118395024E+03  0.15066373482E+03  0.98458233580E+02 0.  0.
         23    2    1    2    0    0  0.44268919088E+02  0.28418449071E+02 -0.89210532585E+03  0.90236733652E+03  0.12509017613E+03 0.  0.
          5    1    4    4  502    0 -0.21717205660E+02  0.58642950346E+02 -0.38192630780E+03  0.38703463622E+03  0.41800000000E+01 0. -1.
         -5    1    4    4    0  502  0.65986124748E+02 -0.30224501276E+02 -0.51017901805E+03  0.51533270030E+03  0.41800000000E+01 0. -1.
        -11    1    3    3    0    0 -0.72411843487E+02 -0.17670971270E+02 -0.93499514985E+02  0.11957381655E+03  0.00000000000E+00 0. -1.
         11    1    3    3    0    0  0.28142924399E+02 -0.10747477800E+02 -0.76844352567E+01  0.31089918270E+02  0.00000000000E+00 0.  1.
</event>
<event>
 8    1  0.8061721E-006  0.1141225E+03  0.7561462E-02  0.1253121E+00
          2   -1    0    0  501    0  0.00000000000E+00  0.00000000000E+00  0.51750807129E+03  0.51750807129E+03  0.00000000000E+00 0. -1.
         -2   -1    0    0    0  501 -0.00000000000E+00 -0.00000000000E+00 -0.42925840288E+02  0.42925840288E+02  0.00000000000E+00 0.  1.
         23    2    1    2    0    0  0.25908411431E+02 -0.97856694853E+02  0.24888633062E+03  0.28325234245E+03  0.89667750179E+02 0.  0.
         23    2    1    2    0    0 -0.25908411431E+02  0.97856694853E+02  0.22569590038E+03  0.27718156913E+03  0.12507519461E+03 0.  0.
          5    1    4    4  502    0 -0.15039338269E+01  0.10031292770E+03  0.77312771136E+02  0.12672680167E+03  0.41800000000E+01 0. -1.
         -5    1    4    4    0  502 -0.24404477605E+02 -0.24562328459E+01  0.14838312925E+03  0.15045476746E+03  0.41800000000E+01 0. -1.
        -11    1    3    3    0    0 -0.23187103483E+01 -0.20052723466E+02 -0.80364267063E+00  0.20202326045E+02  0.00000000000E+00 0.  1.
         11    1    3    3    0    0  0.28227121780E+02 -0.77803971387E+02  0.24968997329E+03  0.26305001641E+03  0.00000000000E+00 0. -1.
</event>
<event>
 7    1  0.8061721E-006  0.1626744E+03  0.7561462E-02  0.1185710E+00
         -2   -1    0    0    0  501 -0.00000000000E+00  0.00000000000E+00  0.25674324539E+03  0.25674324539E+03  0.00000000000E+00 0.  1.
          2   -1    0    0  501    0  0.00000000000E+00 -0.00000000000E+00 -0.17923414150E+03  0.17923414150E+03  0.00000000000E+00 0. -1.
         23    2    1    2    0    0  0.60313077366E+02  0.64641408203E+02 -0.66892985072E+02  0.16714797387E+03  0.12509034639E+03 0.  0.
          5    1    3    3  502    0 -0.30031948133E+02  0.12541237656E+02  0.13419264774E+02  0.35450664559E+02  0.41800000000E+01 0. -1.
         -5    1    3    3    0  502  0.90345025499E+02  0.52100170546E+02 -0.80312249846E+02  0.13169730931E+03  0.41800000000E+01 0. -1.
        -11    1    1    2    0    0  0.36359466801E+02  0.34190678931E+02  0.11794378862E+03  0.12806931961E+03  0.00000000000E+00 0.  1.
         11    1    1    2    0    0 -0.96672544167E+02 -0.98832087133E+02  0.26458300341E+02  0.14076009342E+03  0.00000000000E+00 0. -1.
</event>
<event>
 8    1  0.8061721E-006  0.9518009E+02  0.7561462E-02  0.1290771E+00
         -2   -1    0    0    0  501 -0.00000000000E+00  0.00000000000E+00  0.55942278229E+02  0.55942278229E+02  0.00000000000E+00 0.  1.
          2   -1    0    0  501    0  0.00000000000E+00 -0.00000000000E+00 -0.30377447772E+03  0.30377447772E+03  0.00000000000E+00 0. -1.
         23    2    1    2    0    0 -0.60613121525E+01 -0.71222838105E+02 -0.10964576355E+03  0.16008653537E+03  0.92174145891E+02 0.  0.
         23    2    1    2    0    0  0.60613121525E+01  0.71222838105E+02 -0.13818643594E+03  0.19963022057E+03  0.12508917506E+03 0.  0.
          5    1    4    4  502    0 -0.65786736459E+01  0.13375137598E+02 -0.13940097239E+03  0.14025789374E+03  0.41800000000E+01 0.  1.
         -5    1    4    4    0  502  0.12639985798E+02  0.57847700506E+02  0.12145364540E+01  0.59372326834E+02  0.41800000000E+01 0.  1.
        -11    1    3    3    0    0  0.42351991298E+02 -0.36926339959E+02 -0.64436390261E+02  0.85494409990E+02  0.00000000000E+00 0. -1.
         11    1    3    3    0    0 -0.48413303450E+02 -0.34296498145E+02 -0.45209373291E+02  0.74592125384E+02  0.00000000000E+00 0.  1.
</event>
<event>
 8    1  0.8061721E-006  0.1242387E+03  0.7561462E-02  0.1236264E+00
          2   -1    0    0  501    0  0.00000000000E+00  0.00000000000E+00  0.30664320790E+03  0.30664320790E+03  0.00000000000E+00 0. -1.
         -2   -1    0    0    0  501 -0.00000000000E+00 -0.00000000000E+00 -0.60992978289E+02  0.60992978289E+02  0.00000000000E+00 0.  1.
         23    2    1    2    0    0  0.57755450746E+02  0.29478050196E+02  0.40437957233E+02  0.11872807461E+03  0.90865173644E+02 0.  0.
         23    2    1    2    0    0 -0.57755450746E+02 -0.29478050196E+02  0.20521227238E+03  0.24890811158E+03  0.12505408326E+03 0.  0.
          5    1    4    4  502    0  0.31263142143E+02  0.19984278088E+02  0.39458777580E+02  0.54325159507E+02  0.41800000000E+01 0.  1.
         -5    1    4    4    0  502 -0.89018592889E+02 -0.49462328284E+02  0.16575349480E+03  0.19458295207E+03  0.41800000000E+01 0.  1.
        -11    1    3    3    0    0  0.61576503312E+02 -0.15964306692E+02  0.11291465006E+02  0.64606671716E+02  0.00000000000E+00 0.  1.
         11    1    3    3    0    0 -0.38210525653E+01  0.45442356887E+02  0.29146492227E+02  0.54121402895E+02  0.00000000000E+00 0. -1.
</event>
<event>
 8    1  0.8061721E-006  0.1531384E+03  0.7561462E-02  0.1196669E+00
          2   -1    0    0  501    0  0.00000000000E+00  0.00000000000E+00  0.13059146062E+04  0.13059146062E+04  0.00000000000E+00 0. -1.
         -2   -1    0    0    0  501 -0.00000000000E+00 -0.00000000000E+00 -0.20258062873E+02  0.20258062873E+02  0.00000000000E+00 0.  1.
         23    2    1    2    0    0 -0.10258729065E+03 -0.55193391819E+02  0.46976035753E+03  0.49256243226E+03  0.91501330382E+02 0.  0.
         23    2    1    2    0    0  0.10258729065E+03  0.55193391819E+02  0.81589618580E+03  0.83361023682E+03  0.12509587611E+03 0.  0.
          5    1    4    4  502    0  0.28216129379E+02  0.83506432487E+02  0.35029119472E+03  0.36123519724E+03  0.41800000000E+01 0. -1.
         -5    1    4    4    0  502  0.74371161273E+02 -0.28313040669E+02  0.46560499108E+03  0.47237503958E+03  0.41800000000E+01 0. -1.
        -11    1    3    3    0    0 -0.19645293861E+02 -0.51725696814E+02  0.28036518095E+03  0.28577284680E+03  0.00000000000E+00 0.  1.
         11    1    3    3    0    0 -0.82941996791E+02 -0.34676950051E+01  0.18939517658E+03  0.20678958546E+03  0.00000000000E+00 0. -1.
</event>
<event>
 8    1  0.8061721E-006  0.1062477E+03  0.7561462E-02  0.1267681E+00
         -4   -1    0    0    0  501 -0.00000000000E+00  0.00000000000E+00  0.87776179754E+02  0.87776179754E+02  0.00000000000E+00 0.  1.
          4   -1    0    0  501    0  0.00000000000E+00 -0.00000000000E+00 -0.16124869679E+03  0.16124869679E+03  0.00000000000E+00 0. -1.
         23    2    1    2    0    0  0.15908338380E+01  0.23444986561E+02  0.12061700724E+02  0.95674455480E+02  0.91956069185E+02 0.  0.
         23    2    1    2    0    0 -0.15908338380E+01 -0.23444986561E+02 -0.85534217763E+02  0.15335042107E+03  0.12509217036E+03 0.  0.
          5    1    4    4  502    0 -0.61843895268E+02  0.11013145890E+01 -0.44576717915E+02  0.76357294713E+02  0.41800000000E+01 0. -1.
         -5    1    4    4    0  502  0.60253061430E+02 -0.24546301150E+02 -0.40957499848E+02  0.76993126353E+02  0.41800000000E+01 0. -1.
        -11    1    3    3    0    0  0.24655829668E+02  0.46538556156E+02 -0.13323761027E+02  0.54325590228E+02  0.00000000000E+00 0. -1.
         11    1    3    3    0    0 -0.23064995830E+02 -0.23093569596E+02  0.25385461752E+02  0.41348865252E+02  0.00000000000E+00 0.  1.
</event>
<event>
 8    1  0.8061721E-006  0.8719794E+02  0.7561462E-02  0.1309783E+00
         -3   -1    0    0    0  501 -0.00000000000E+00  0.00000000000E+00  0.17101268307E+03  0.17101268307E+03  0.00000000000E+00 0.  1.
          3   -1    0    0  501    0  0.00000000000E+00 -0.00000000000E+00 -0.82779380887E+02  0.82779380887E+02  0.00000000000E+00 0. -1.
         23    2    1    2    0    0  0.42109261117E+02 -0.49932949191E+01  0.65493758288E+02  0.11976779714E+03  0.90866770561E+02 0.  0.
         23    2    1    2    0    0 -0.42109261117E+02  0.49932949191E+01  0.22739543893E+02  0.13402426681E+03  0.12508914570E+03 0.  0.
          5    1    4    4  502    0 -0.63487971119E+01 -0.58417174202E+02  0.14284615278E+02  0.60616797178E+02  0.41800000000E+01 0.  1.
         -5    1    4    4    0  502 -0.35760464005E+02  0.63410469121E+02  0.84549286151E+01  0.73407469633E+02  0.41800000000E+01 0.  1.
        -11    1    3    3    0    0  0.18417175064E+02 -0.40456053401E+01  0.86230549318E+02  0.88268153349E+02  0.00000000000E+00 0.  1.
         11    1    3    3    0    0  0.23692086052E+02 -0.94768957900E+00 -0.20736791030E+02  0.31499643796E+02  0.00000000000E+00 0. -1.
</event>
<event>
 8    1  0.1876843E-005  0.1367853E+03  0.7561462E-02  0.1217721E+00
         -1   -1    0    0    0  501 -0.00000000000E+00  0.00000000000E+00  0.25328745733E+03  0.25328745733E+03  0.00000000000E+00 0.  1.
          1   -1    0    0  501    0  0.00000000000E+00 -0.00000000000E+00 -0.88181815958E+02  0.88181815958E+02  0.00000000000E+00 0. -1.
         23    2    1    2    0    0 -0.32739609478E+02 -0.10035420688E+03  0.96502604255E+02  0.16399618347E+03  0.80244293864E+02 0.  0.
         23    2    1    2    0    0  0.32739609478E+02  0.10035420688E+03  0.68603037119E+02  0.17747308982E+03  0.12508985588E+03 0.  0.
          5    1    4    4  502    0  0.50066126016E+02 -0.72950532645E+01  0.46067225109E+01  0.50975769427E+02  0.41800000000E+01 0. -1.
         -5    1    4    4    0  502 -0.17326516538E+02  0.10764926014E+03  0.63996314608E+02  0.12649732040E+03  0.41800000000E+01 0. -1.
        -11    1    3    3    0    0  0.77321006540E+01 -0.41798823707E+02 -0.18966872268E+01  0.42550258122E+02  0.00000000000E+00 0. -1.
         11    1    3    3    0    0 -0.40471710132E+02 -0.58555383168E+02  0.98399291482E+02  0.12144592535E+03  0.00000000000E+00 0.  1.
</event>
<event>
 8    1  0.8061721E-006  0.7669181E+02  0.7561462E-02  0.1338711E+00
         -1   -1    0    0    0  501 -0.00000000000E+00  0.00000000000E+00  0.12708310863E+03  0.12708310863E+03  0.00000000000E+00 0.  1.
          1   -1    0    0  501    0  0.00000000000E+00 -0.00000000000E+00 -0.72471350256E+03  0.72471350256E+03  0.00000000000E+00 0. -1.
         23    2    1    2    0    0 -0.29450208534E+02 -0.60461570779E+02  0.93911125098E+02  0.14582225934E+03  0.89005143548E+02 0.  0.
         23    2    1    2    0    0  0.29450208534E+02  0.60461570779E+02 -0.69154151903E+03  0.70597435186E+03  0.12508875495E+03 0.  0.
          5    1    4    4  502    0 -0.32031669238E+01  0.43238027293E+02 -0.64478171513E+03  0.64625128228E+03  0.41800000000E+01 0. -1.
         -5    1    4    4    0  502  0.32653375458E+02  0.17223543486E+02 -0.46759803904E+02  0.59723069581E+02  0.41800000000E+01 0. -1.
        -11    1    3    3    0    0 -0.30986987295E+02 -0.33372861802E+02  0.10656221747E+03  0.11588549296E+03  0.00000000000E+00 0.  1.
         11    1    3    3    0    0  0.15367787601E+01 -0.27088708977E+02 -0.12651092373E+02  0.29936766379E+02  0.00000000000E+00 0. -1.
</event>
<event>
 8    1  0.8061721E-006  0.1203358E+03  0.7561462E-02  0.1242544E+00
         -1   -1    0    0    0  501 -0.00000000000E+00  0.00000000000E+00  0.18952423283E+03  0.18952423283E+03  0.00000000000E+00 0.  1.
          1   -1    0    0  501    0  0.00000000000E+00 -0.00000000000E+00 -0.12965435579E+03  0.12965435579E+03  0.00000000000E+00 0. -1.
         23    2    1    2    0    0 -0.67813280941E+02 -0.87016273031E+02  0.51543611930E+02  0.15218351762E+03  0.91283110487E+02 0.  0.
         23    2    1    2    0    0  0.67813280941E+02  0.87016273031E+02  0.83262651159E+01  0.16699507100E+03  0.12509018428E+03 0.  0.
          5    1    4    4  502    0  0.75480206364E+00  0.34345248814E+02  0.58500220867E+02  0.67969949858E+02  0.41800000000E+01 0. -1.
         -5    1    4    4    0  502  0.67058478877E+02  0.52671024217E+02 -0.50173955751E+02  0.99025121141E+02  0.41800000000E+01 0. -1.
        -11    1    3    3    0    0 -0.15950259729E+02 -0.60256956583E+02 -0.14554272631E+02  0.64008893553E+02  0.00000000000E+00 0. -1.
         11    1    3    3    0    0 -0.51863021211E+02 -0.26759316447E+02  0.66097884560E+02  0.88174624066E+02  0.00000000000E+00 0.  1.
</event>
<event>
 8    1  0.8061721E-006  0.1709533E+03  0.7561462E-02  0.1176857E+00
         -2   -1    0    0    0  501 -0.00000000000E+00  0.00000000000E+00  0.20386431432E+02  0.20386431432E+02  0.00000000000E+00 0.  1.
          2   -1    0    0  501    0  0.00000000000E+00 -0.00000000000E+00 -0.19259121660E+04  0.19259121660E+04  0.00000000000E+00 0. -1.
         23    2    1    2    0    0  0.11634052452E+03  0.11349585251E+03 -0.77243200120E+03  0.79479280246E+03  0.92886899939E+02 0.  0.
         23    2    1    2    0    0 -0.11634052452E+03 -0.11349585251E+03 -0.11330937333E+04  0.11515057949E+04  0.12509101116E+03 0.  0.
          5    1    4    4  502    0 -0.11913605302E+03 -0.10155385355E+03 -0.11257936051E+04  0.11366333173E+04  0.41800000000E+01 0. -1.
         -5    1    4    4    0  502  0.27955284965E+01 -0.11941998962E+02 -0.73001282177E+01  0.14872477628E+02  0.41800000000E+01 0. -1.
        -11    1    3    3    0    0  0.83521099032E+00  0.29544691666E+02 -0.47600180619E+02  0.56030023898E+02  0.00000000000E+00 0.  1.
         11    1    3    3    0    0  0.11550531353E+03  0.83951160844E+02 -0.72483182058E+03  0.73876277856E+03  0.00000000000E+00 0. -1.
</event>
<event>
 7    1  0.8061721E-006  0.1875758E+03  0.7561462E-02  0.1160666E+00
          1   -1    0    0  501    0  0.00000000000E+00  0.00000000000E+00  0.65775619991E+03  0.65775619991E+03  0.00000000000E+00 0. -1.
         -1   -1    0    0    0  501 -0.00000000000E+00 -0.00000000000E+00 -0.63575003410E+02  0.63575003410E+02  0.00000000000E+00 0.  1.
         23    2    1    2    0    0  0.17964084539E+02  0.66600311437E+02  0.60907903136E+02  0.12441946610E+03  0.83738408533E+02 0.  0.
          5    1    1    2  502    0  0.68273237956E+02 -0.13900820460E+03  0.28921942611E+03  0.32810038830E+03  0.41800000000E+01 0. -1.
         -5    1    1    2    0  502 -0.86237322495E+02  0.72407893160E+02  0.24405386726E+03  0.26881134892E+03  0.41800000000E+01 0.  1.
        -11    1    3    3    0    0 -0.32489981491E+02  0.16495776746E+02  0.13032679912E+02  0.38698324168E+02  0.00000000000E+00 0. -1.
         11    1    3    3    0    0  0.50454066030E+02  0.50104534691E+02  0.47875223223E+02  0.85721141933E+02  0.00000000000E+00 0.  1.
</event>
<event>
 8    1  0.8061721E-006  0.3209776E+03  0.7561462E-02  0.1075200E+00
         -2   -1    0    0    0  501 -0.00000000000E+00  0.00000000000E+00  0.26088611700E+03  0.26088611700E+03  0.00000000000E+00 0.  1.
          2   -1    0    0  501    0  0.00000000000E+00 -0.00000000000E+00 -0.42589316103E+03  0.42589316103E+03  0.00000000000E+00 0. -1.
         23    2    1    2    0    0  0.27762382220E+03  0.14873763475E+03 -0.82734278799E+02  0.33804705853E+03  0.90735782636E+02 0.  0.
         23    2    1    2    0    0 -0.27762382220E+03 -0.14873763475E+03 -0.82272765236E+02  0.34873221949E+03  0.12508989715E+03 0.  0.
          5    1    4    4  502    0 -0.23377326512E+03 -0.86820210007E+02 -0.19501548659E+02  0.25017088390E+03  0.41800000000E+01 0. -1.
         -5    1    4    4    0  502 -0.43850557077E+02 -0.61917424744E+02 -0.62771216577E+02  0.98561335591E+02  0.41800000000E+01 0. -1.
        -11    1    3    3    0    0  0.11883019771E+03  0.81627326780E+02  0.57345251544E+01  0.14427931641E+03  0.00000000000E+00 0.  1.
         11    1    3    3    0    0  0.15879362450E+03  0.67110307971E+02 -0.88468803954E+02  0.19376774213E+03  0.00000000000E+00 0. -1.
</event>
<event>
 8    1  0.8061721E-006  0.9100224E+02  0.7561462E-02  0.1300443E+00
         -1   -1    0    0    0  501 -0.00000000000E+00  0.00000000000E+00  0.18855355284E+03  0.18855355284E+03  0.00000000000E+00 0.  1.
          1   -1    0    0  501    0  0.00000000000E+00 -0.00000000000E+00 -0.92758957182E+02  0.92758957182E+02  0.00000000000E+00 0. -1.
         23    2    1    2    0    0  0.13128981159E+02  0.64812416586E+02  0.81956797660E+02  0.13914202510E+03  0.90942657624E+02 0.  0.
         23    2    1    2    0    0 -0.13128981159E+02 -0.64812416586E+02  0.13837798003E+02  0.14217048493E+03  0.12509173690E+03 0.  0.
          5    1    4    4  502    0 -0.90942509508E+01 -0.72499860139E+02 -0.42756612869E+02  0.84761639110E+02  0.41800000000E+01 0.  1.
         -5    1    4    4    0  502 -0.40347302081E+01  0.76874435527E+01  0.56594410872E+02  0.57408845818E+02  0.41800000000E+01 0.  1.
        -11    1    3    3    0    0  0.17639822981E+02  0.80731081857E+02  0.88742048515E+02  0.12125931761E+03  0.00000000000E+00 0.  1.
         11    1    3    3    0    0 -0.45108418221E+01 -0.15918665271E+02 -0.67852508550E+01  0.17882707488E+02  0.00000000000E+00 0. -1.
</event>
<event>
 8    1  0.8061721E-006  0.9739578E+02  0.7561462E-02  0.1285870E+00
         -3   -1    0    0    0  501 -0.00000000000E+00  0.00000000000E+00  0.16937615386E+03  0.16937615386E+03  0.00000000000E+00 0.  1.
          3   -1    0    0  501    0  0.00000000000E+00 -0.00000000000E+00 -0.10339468667E+03  0.10339468667E+03  0.00000000000E+00 0. -1.
         23    2    1    2    0    0  0.13467024582E+02 -0.38189688509E+02  0.95652366229E+02  0.13798186801E+03  0.90828451894E+02 0.  0.
         23    2    1    2    0    0 -0.13467024582E+02  0.38189688509E+02 -0.29670899033E+02  0.13478897253E+03  0.12509153371E+03 0.  0.
          5    1    4    4  502    0  0.30650054932E+02  0.65920030926E+02 -0.37539747313E+02  0.81924241669E+02  0.41800000000E+01 0. -1.
         -5    1    4    4    0  502 -0.44117079515E+02 -0.27730342417E+02  0.78688482806E+01  0.52864730858E+02  0.41800000000E+01 0. -1.
        -11    1    3    3    0    0 -0.70868482960E+01  0.12850566938E+02  0.79204811066E+02  0.80552855849E+02  0.00000000000E+00 0.  1.
         11    1    3    3    0    0  0.20553872878E+02 -0.51040255447E+02  0.16447555163E+02  0.57429012157E+02  0.00000000000E+00 0. -1.
</event>
<event>
 8    1  0.8061721E-006  0.1405457E+03  0.7561462E-02  0.1212597E+00
          1   -1    0    0  501    0  0.00000000000E+00  0.00000000000E+00  0.15615709266E+03  0.15615709266E+03  0.00000000000E+00 0. -1.
         -1   -1    0    0    0  501 -0.00000000000E+00 -0.00000000000E+00 -0.13448078724E+03  0.13448078724E+03  0.00000000000E+00 0.  1.
         23    2    1    2    0    0 -0.60399162244E+02 -0.69564686392E+02 -0.15402587524E+02  0.13091621407E+03  0.91730643801E+02 0.  0.
         23    2    1    2    0    0  0.60399162244E+02  0.69564686392E+02  0.37078892942E+02  0.15972166583E+03  0.12509541095E+03 0.  0.
          5    1    4    4  502    0  0.91490856874E+00 -0.33282836580E+02  0.21420342863E+02  0.39810648788E+02  0.41800000000E+01 0. -1.
         -5    1    4    4    0  502  0.59484253675E+02  0.10284752297E+03  0.15658550079E+02  0.11991101704E+03  0.41800000000E+01 0. -1.
        -11    1    3    3    0    0 -0.79486031067E+02 -0.74493643034E+02 -0.19791498929E+02  0.11072052844E+03  0.00000000000E+00 0.  1.
         11    1    3    3    0    0  0.19086868823E+02  0.49289566417E+01  0.43889114044E+01  0.20195685637E+02  0.00000000000E+00 0. -1.
</event>
<event>
 8    1  0.8061721E-006  0.1299607E+03  0.7561462E-02  0.1227514E+00
          3   -1    0    0  501    0  0.00000000000E+00  0.00000000000E+00  0.54011805246E+03  0.54011805246E+03  0.00000000000E+00 0. -1.
         -3   -1    0    0    0  501 -0.00000000000E+00 -0.00000000000E+00 -0.35702415474E+02  0.35702415474E+02  0.00000000000E+00 0.  1.
         23    2    1    2    0    0  0.54080512331E+02 -0.55346259548E+02  0.14454000080E+03  0.18704483609E+03  0.90033597172E+02 0.  0.
         23    2    1    2    0    0 -0.54080512331E+02  0.55346259548E+02  0.35987563619E+03  0.38877563184E+03  0.12509239837E+03 0.  0.
          5    1    4    4  502    0  0.13850744431E+02 -0.29799467445E+02  0.13313418008E+03  0.13719341707E+03  0.41800000000E+01 0.  1.
         -5    1    4    4    0  502 -0.67931256762E+02  0.85145726993E+02  0.22674145611E+03  0.25158221477E+03  0.41800000000E+01 0.  1.
        -11    1    3    3    0    0  0.16274880146E+02 -0.73905189725E+02  0.81353730241E+02  0.11110930751E+03  0.00000000000E+00 0.  1.
         11    1    3    3    0    0  0.37805632185E+02  0.18558930177E+02  0.63186270555E+02  0.75935528581E+02  0.00000000000E+00 0. -1.
</event>
<event>
 8    1  0.8061721E-006  0.6584521E+02  0.7561462E-02  0.1374820E+00
         -3   -1    0    0    0  501 -0.00000000000E+00  0.00000000000E+00  0.33119832708E+03  0.33119832708E+03  0.00000000000E+00 0.  1.
          3   -1    0    0  501    0  0.00000000000E+00 -0.00000000000E+00 -0.37304885406E+02  0.37304885406E+02  0.00000000000E+00 0. -1.
         23    2    1    2    0    0 -0.63844597050E+01  0.46754433829E+01  0.15460337785E+03  0.18112110211E+03  0.94021423557E+02 0.  0.
         23    2    1    2    0    0  0.63844597050E+01 -0.46754433829E+01  0.13929006382E+03  0.18738211038E+03  0.12509081627E+03 0.  0.
          5    1    4    4  502    0  0.22746429650E+02 -0.38148561163E+02  0.14291448452E+03  0.14971551378E+03  0.41800000000E+01 0. -1.
         -5    1    4    4    0  502 -0.16361969945E+02  0.33473117780E+02 -0.36244206951E+01  0.37666596605E+02  0.41800000000E+01 0. -1.
        -11    1    3    3    0    0 -0.23096722065E+02 -0.11957460731E+02  0.15536819003E+03  0.15753004130E+03  0.00000000000E+00 0.  1.
         11    1    3    3    0    0  0.16712262360E+02  0.16632904114E+02 -0.76481217753E+00  0.23591060809E+02  0.00000000000E+00 0. -1.
</event>
<event>
 8    1  0.8061721E-006  0.1060186E+03  0.7561462E-02  0.1268126E+00
         -1   -1    0    0    0  501 -0.00000000000E+00  0.00000000000E+00  0.18369557888E+02  0.18369557888E+02  0.00000000000E+00 0.  1.
          1   -1    0    0  501    0  0.00000000000E+00 -0.00000000000E+00 -0.13920454387E+04  0.13920454387E+04  0.00000000000E+00 0. -1.
         23    2    1    2    0    0 -0.75087712905E+02  0.61996535859E+02 -0.34797934417E+03  0.37254144915E+03  0.90640897404E+02 0.  0.
         23    2    1    2    0    0  0.75087712905E+02 -0.61996535859E+02 -0.10256965366E+04  0.10378735474E+04  0.12508549114E+03 0.  0.
          5    1    4    4  502    0  0.38608910163E+02 -0.37320208223E+02 -0.12523315329E+03  0.13632410267E+03  0.41800000000E+01 0.  1.
         -5    1    4    4    0  502  0.36478802741E+02 -0.24676327636E+02 -0.90046338333E+03  0.90154944475E+03  0.41800000000E+01 0.  1.
        -11    1    3    3    0    0 -0.71330060588E+02  0.23270344651E+02 -0.12191207814E+03  0.14315041488E+03  0.00000000000E+00 0.  1.
         11    1    3    3    0    0 -0.37576523171E+01  0.38726191208E+02 -0.22606726602E+03  0.22939103427E+03  0.00000000000E+00 0. -1.
</event>
<event>
 8    1  0.8061721E-006  0.1098720E+03  0.7561462E-02  0.1260807E+00
          1   -1    0    0  501    0  0.00000000000E+00  0.00000000000E+00  0.62345377597E+02  0.62345377597E+02  0.00000000000E+00 0. -1.
         -1   -1    0    0    0  501 -0.00000000000E+00 -0.00000000000E+00 -0.28552247555E+03  0.28552247555E+03  0.00000000000E+00 0.  1.
         23    2    1    2    0    0 -0.17743331744E+02  0.43269745684E+02 -0.16664996151E+03  0.20281693299E+03  0.10571377357E+03 0.  0.
         23    2    1    2    0    0  0.17743331744E+02 -0.43269745684E+02 -0.56527136449E+02  0.14505092016E+03  0.12512935536E+03 0.  0.
          5    1    4    4  502    0  0.55034571593E+02 -0.14893413734E+02  0.15307900798E+02  0.59181264518E+02  0.41800000000E+01 0. -1.
         -5    1    4    4    0  502 -0.37291239849E+02 -0.28376331951E+02 -0.71835037247E+02  0.85869655646E+02  0.41800000000E+01 0. -1.
        -11    1    3    3    0    0  0.24019212460E+02  0.64395321099E+02 -0.10247399635E+03  0.12338800539E+03  0.00000000000E+00 0.  1.
         11    1    3    3    0    0 -0.41762544204E+02 -0.21125575414E+02 -0.64175965160E+02  0.79428927597E+02  0.00000000000E+00 0. -1.
</event>
<event>
 8    1  0.8061721E-006  0.1155045E+03  0.7561462E-02  0.1250703E+00
         -2   -1    0    0    0  501 -0.00000000000E+00  0.00000000000E+00  0.58664228714E+02  0.58664228714E+02  0.00000000000E+00 0.  1.
          2   -1    0    0  501    0  0.00000000000E+00 -0.00000000000E+00 -0.45184338653E+03  0.45184338653E+03  0.00000000000E+00 0. -1.
         23    2    1    2    0    0  0.69403192304E+02 -0.27964328258E+02 -0.57822218053E+02  0.14484522823E+03  0.10971747574E+03 0.  0.
         23    2    1    2    0    0 -0.69403192304E+02  0.27964328258E+02 -0.33535693976E+03  0.36566238702E+03  0.12508356196E+03 0.  0.
          5    1    4    4  502    0 -0.83393848513E+02 -0.73579446794E+01 -0.30654314195E+03  0.31779685901E+03  0.41800000000E+01 0.  1.
         -5    1    4    4    0  502  0.13990656209E+02  0.35322272937E+02 -0.28813797809E+02  0.47865528001E+02  0.41800000000E+01 0.  1.
        -11    1    3    3    0    0  0.86182998675E+02 -0.14376205836E+02 -0.46971017260E+01  0.87499984682E+02  0.00000000000E+00 0.  1.
         11    1    3    3    0    0 -0.16779806370E+02 -0.13588122422E+02 -0.53125116327E+02  0.57345243548E+02  0.00000000000E+00 0. -1.
</event>
<event>
 8    1  0.8061721E-006  0.9855370E+02  0.7561462E-02  0.1283367E+00
         -1   -1    0    0    0  501 -0.00000000000E+00  0.00000000000E+00  0.38201763673E+02  0.38201763673E+02  0.00000000000E+00 0.  1.
          1   -1    0    0  501    0  0.00000000000E+00 -0.00000000000E+00 -0.34331683148E+03  0.34331683148E+03  0.00000000000E+00 0. -1.
         23    2    1    2    0    0  0.27918407694E+02 -0.15911170886E+02 -0.10300023080E+03  0.14165443989E+03  0.91784148680E+02 0.  0.
         23    2    1    2    0    0 -0.27918407694E+02  0.15911170886E+02 -0.20211483701E+03  0.23986415526E+03  0.12510716524E+03 0.  0.
          5    1    4    4  502    0  0.39724511995E+02  0.19634212719E+02 -0.14329928173E+03  0.15005230990E+03  0.41800000000E+01 0. -1.
         -5    1    4    4    0  502 -0.67642919688E+02 -0.37230418330E+01 -0.58815555275E+02  0.89811845359E+02  0.41800000000E+01 0. -1.
        -11    1    3    3    0    0  0.53384842698E+02 -0.23240968181E+02 -0.33272532205E+02  0.67060759250E+02  0.00000000000E+00 0. -1.
         11    1    3    3    0    0 -0.25466435004E+02  0.73297972955E+01 -0.69727698592E+02  0.74593680638E+02  0.00000000000E+00 0.  1.
</event>
<event>
 8    1  0.8061721E-006  0.1284195E+03  0.7561462E-02  0.1229820E+00
         -1   -1    0    0    0  501 -0.00000000000E+00  0.00000000000E+00  0.25073633131E+02  0.25073633131E+02  0.00000000000E+00 0.  1.
          1   -1    0    0  501    0  0.00000000000E+00 -0.00000000000E+00 -0.13310488002E+04  0.13310488002E+04  0.00000000000E+00 0. -1.
         23    2    1    2    0    0 -0.12122679531E+02 -0.10049345587E+03 -0.22602336164E+03  0.26424848806E+03  0.92167290312E+02 0.  0.
         23    2    1    2    0    0  0.12122679531E+02  0.10049345587E+03 -0.10799518054E+04  0.10918739453E+04  0.12508763440E+03 0.  0.
          5    1    4    4  502    0  0.54442002572E+02  0.93291913393E+02 -0.91552706306E+03  0.92188642920E+03  0.41800000000E+01 0.  1.
         -5    1    4    4    0  502 -0.42319323042E+02  0.72015424765E+01 -0.16442474239E+03  0.16998751609E+03  0.41800000000E+01 0.  1.
        -11    1    3    3    0    0 -0.29906623054E+01 -0.94807218946E+02 -0.23290380568E+03  0.25147869796E+03  0.00000000000E+00 0. -1.
         11    1    3    3    0    0 -0.91320172255E+01 -0.56862369238E+01  0.68804440445E+01  0.12769790100E+02  0.00000000000E+00 0.  1.
</event>
<event>
 7    1  0.8061721E-006  0.1337273E+03  0.7561462E-02  0.1222028E+00
         -1   -1    0    0    0  501 -0.00000000000E+00  0.00000000000E+00  0.24019846970E+02  0.24019846970E+02  0.00000000000E+00 0.  1.
          1   -1    0    0  501    0  0.00000000000E+00 -0.00000000000E+00 -0.93831164661E+03  0.93831164661E+03  0.00000000000E+00 0. -1.
         23    2    1    2    0    0 -0.50897367998E+02  0.41737888642E+02 -0.20676052157E+03  0.23737776334E+03  0.96258484468E+02 0.  0.
          5    1    1    2  502    0 -0.39387755852E+02  0.17793603913E+02 -0.30711052583E+03  0.31016504497E+03  0.41800000000E+01 0. -1.
         -5    1    1    2    0  502  0.90285123850E+02 -0.59531492555E+02 -0.40042075224E+03  0.41478868526E+03  0.41800000000E+01 0.  1.
        -11    1    3    3    0    0  0.20983408919E+02 -0.13674965114E+02 -0.34021748056E+02  0.42246744981E+02  0.00000000000E+00 0. -1.
         11    1    3    3    0    0 -0.71880776917E+02  0.55412853756E+02 -0.17273877352E+03  0.19513101836E+03  0.00000000000E+00 0.  1.
</event>
<event>
 8    1  0.8061721E-006  0.1083832E+03  0.7561462E-02  0.1263594E+00
          2   -1    0    0  501    0  0.00000000000E+00  0.00000000000E+00  0.44452216654E+03  0.44452216654E+03  0.00000000000E+00 0.  1.
         -2   -1    0    0    0  501 -0.00000000000E+00 -0.00000000000E+00 -0.27475117023E+02  0.27475117023E+02  0.00000000000E+00 0. -1.
         23    2    1    2    0    0 -0.17478250122E+02 -0.15657361211E+02  0.12956933567E+03  0.15760643629E+03  0.86607931661E+02 0.  0.
         23    2    1    2    0    0  0.17478250122E+02  0.15657361211E+02  0.28747771385E+03  0.31439084728E+03  0.12509007436E+03 0.  0.
          5    1    4    4  502    0 -0.12711579596E+02 -0.51643700279E+02  0.11655511278E+03  0.12818433114E+03  0.41800000000E+01 0. -1.
         -5    1    4    4    0  502  0.30189829717E+02  0.67301061490E+02  0.17092260107E+03  0.18620651613E+03  0.41800000000E+01 0. -1.
        -11    1    3    3    0    0 -0.16570984866E+02  0.35077035183E+02  0.51046579677E+02  0.64115124841E+02  0.00000000000E+00 0. -1.
         11    1    3    3    0    0 -0.90726525583E+00 -0.50734396394E+02  0.78522755996E+02  0.93491311451E+02  0.00000000000E+00 0.  1.
</event>
<event>
 8    1  0.8061721E-006  0.1075307E+03  0.7561462E-02  0.1265212E+00
         -2   -1    0    0    0  501 -0.00000000000E+00  0.00000000000E+00  0.88479066822E+02  0.88479066822E+02  0.00000000000E+00 0.  1.
          2   -1    0    0  501    0  0.00000000000E+00 -0.00000000000E+00 -0.23216918665E+03  0.23216918665E+03  0.00000000000E+00 0. -1.
         23    2    1    2    0    0 -0.60253582773E+02  0.57627993307E+02 -0.19169249866E+02  0.12544487889E+03  0.91746812756E+02 0.  0.
         23    2    1    2    0    0  0.60253582773E+02 -0.57627993307E+02 -0.12452086996E+03  0.19520337458E+03  0.12508968999E+03 0.  0.
          5    1    4    4  502    0  0.46256144616E+02  0.10087678083E+02  0.55351688484E+01  0.47848747716E+02  0.41800000000E+01 0.  1.
         -5    1    4    4    0  502  0.13997438157E+02 -0.67715671390E+02 -0.13005603881E+03  0.14735462686E+03  0.41800000000E+01 0.  1.
        -11    1    3    3    0    0  0.10632709010E+01  0.31649349944E+02  0.29250712820E+02  0.43109350464E+02  0.00000000000E+00 0.  1.
         11    1    3    3    0    0 -0.61316853674E+02  0.25978643363E+02 -0.48419962686E+02  0.82335528431E+02  0.00000000000E+00 0. -1.
</event>
<event>
 8    1  0.8061721E-006  0.1171425E+03  0.7561462E-02  0.1247887E+00
          2   -1    0    0  501    0  0.00000000000E+00  0.00000000000E+00  0.12241428325E+03  0.12241428325E+03  0.00000000000E+00 0. -1.
         -2   -1    0    0    0  501 -0.00000000000E+00 -0.00000000000E+00 -0.12404919530E+03  0.12404919530E+03  0.00000000000E+00 0.  1.
         23    2    1    2    0    0  0.57072924384E+02 -0.21817111696E+01 -0.16769330547E+02  0.10814956877E+03  0.90294187065E+02 0.  0.
         23    2    1    2    0    0 -0.57072924384E+02  0.21817111696E+01  0.15134418499E+02  0.13831390978E+03  0.12505842017E+03 0.  0.
          5    1    4    4  502    0  0.30874018222E+01 -0.50899650407E+02  0.25746364258E+02  0.57276994807E+02  0.41800000000E+01 0. -1.
         -5    1    4    4    0  502 -0.60160326206E+02  0.53081361577E+02 -0.10611945759E+02  0.81036914976E+02  0.41800000000E+01 0. -1.
        -11    1    3    3    0    0 -0.13431615822E+02  0.24057260256E+02  0.84280574595E+01  0.28813056540E+02  0.00000000000E+00 0. -1.
         11    1    3    3    0    0  0.70504540206E+02 -0.26238971425E+02 -0.25197388007E+02  0.79336512234E+02  0.00000000000E+00 0.  1.
</event>
<event>
 8    1  0.8061721E-006  0.1522341E+03  0.7561462E-02  0.1197754E+00
          1   -1    0    0  501    0  0.00000000000E+00  0.00000000000E+00  0.92483976800E+03  0.92483976800E+03  0.00000000000E+00 0. -1.
         -1   -1    0    0    0  501 -0.00000000000E+00 -0.00000000000E+00 -0.27561199001E+02  0.27561199001E+02  0.00000000000E+00 0.  1.
         23    2    1    2    0    0  0.10282404118E+03 -0.35642719588E+02  0.28369805273E+03  0.31681374436E+03  0.89683758777E+02 0.  0.
         23    2    1    2    0    0 -0.10282404118E+03  0.35642719588E+02  0.61358051627E+03  0.63558722264E+03  0.12508749232E+03 0.  0.
          5    1    4    4  502    0 -0.11687914598E+03 -0.95138268990E+01  0.46663662041E+03  0.48116364739E+03  0.41800000000E+01 0. -1.
         -5    1    4    4    0  502  0.14055104796E+02  0.45156546487E+02  0.14694389586E+03  0.15442357525E+03  0.41800000000E+01 0. -1.
        -11    1    3    3    0    0 -0.20457834116E+01 -0.34716151204E+02  0.52919286531E+02  0.63323354863E+02  0.00000000000E+00 0.  1.
         11    1    3    3    0    0  0.10486982459E+03 -0.92656838433E+00  0.23077876620E+03  0.25349038950E+03  0.00000000000E+00 0. -1.
</event>
<event>
 8    1  0.8061721E-006  0.9750078E+02  0.7561462E-02  0.1285641E+00
          1   -1    0    0  501    0  0.00000000000E+00  0.00000000000E+00  0.39800814124E+03  0.39800814124E+03  0.00000000000E+00 0. -1.
         -1   -1    0    0    0  501 -0.00000000000E+00 -0.00000000000E+00 -0.32018454777E+02  0.32018454777E+02  0.00000000000E+00 0.  1.
         23    2    1    2    0    0 -0.12074567542E+02  0.24261801809E+02  0.12186171633E+03  0.15438291357E+03  0.90826074932E+02 0.  0.
         23    2    1    2    0    0  0.12074567542E+02 -0.24261801809E+02  0.24412797013E+03  0.27564368245E+03  0.12508614497E+03 0.  0.
          5    1    4    4  502    0 -0.20101566501E+02 -0.55139180093E+02  0.21330810902E+03  0.22127409232E+03  0.41800000000E+01 0. -1.
         -5    1    4    4    0  502  0.32176134043E+02  0.30877378284E+02  0.30819861113E+02  0.54369590128E+02  0.41800000000E+01 0. -1.
        -11    1    3    3    0    0  0.37029814356E+02  0.10137314461E+01  0.70391961779E+02  0.79544095229E+02  0.00000000000E+00 0. -1.
         11    1    3    3    0    0 -0.49104381899E+02  0.23248070362E+02  0.51469754547E+02  0.74838818339E+02  0.00000000000E+00 0.  1.
</event>
<event>
 8    1  0.8061721E-006  0.2159239E+03  0.7561462E-02  0.1136959E+00
         -1   -1    0    0    0  501 -0.00000000000E+00  0.00000000000E+00  0.18618478020E+03  0.18618478020E+03  0.00000000000E+00 0.  1.
          1   -1    0    0  501    0  0.00000000000E+00 -0.00000000000E+00 -0.30152786515E+03  0.30152786515E+03  0.00000000000E+00 0. -1.
         23    2    1    2    0    0 -0.17459186120E+03 -0.92378840609E+02  0.19279578629E+02  0.21789607668E+03  0.89949040521E+02 0.  0.
         23    2    1    2    0    0  0.17459186120E+03  0.92378840609E+02 -0.13462266358E+03  0.26981656867E+03  0.12514611857E+03 0.  0.
          5    1    4    4  502    0  0.12199295165E+03  0.12232776041E+03 -0.10601310803E+03  0.20273779296E+03  0.41800000000E+01 0.  1.
         -5    1    4    4    0  502  0.52598909544E+02 -0.29948919800E+02 -0.28609555549E+02  0.67078775712E+02  0.41800000000E+01 0.  1.
        -11    1    3    3    0    0 -0.79786418673E+02 -0.52520549384E+02 -0.34846976417E+02  0.10167886938E+03  0.00000000000E+00 0. -1.
         11    1    3    3    0    0 -0.94805442525E+02 -0.39858291225E+02  0.54126555046E+02  0.11621720730E+03  0.00000000000E+00 0.  1.
</event>
<event>
 8    1  0.8061721E-006  0.8917895E+02  0.7561462E-02  0.1304852E+00
         -2   -1    0    0    0  501 -0.00000000000E+00  0.00000000000E+00  0.31241501618E+02  0.31241501618E+02  0.00000000000E+00 0.  1.
          2   -1    0    0  501    0  0.00000000000E+00 -0.00000000000E+00 -0.44206081441E+03  0.44206081441E+03  0.00000000000E+00 0. -1.
         23    2    1    2    0    0 -0.93476316702E+01 -0.15395101396E+02 -0.92217068354E+02  0.13055171417E+03  0.90638705925E+02 0.  0.
         23    2    1    2    0    0  0.93476316702E+01  0.15395101396E+02 -0.31860224444E+03  0.34275060186E+03  0.12508476146E+03 0.  0.
          5    1    4    4  502    0 -0.38321091502E+02  0.37220900338E+02 -0.25328225020E+03  0.25888853227E+03  0.41800000000E+01 0. -1.
         -5    1    4    4    0  502  0.47668723172E+02 -0.21825798942E+02 -0.65319994243E+02  0.83862069592E+02  0.41800000000E+01 0. -1.
        -11    1    3    3    0    0 -0.21379246311E+02 -0.39682024156E+02 -0.93095632529E+02  0.10343370829E+03  0.00000000000E+00 0.  1.
         11    1    3    3    0    0  0.12031614641E+02  0.24286922760E+02  0.87856417545E+00  0.27118005882E+02  0.00000000000E+00 0. -1.
</event>
<event>
 8    1  0.8061721E-006  0.9814751E+02  0.7561462E-02  0.1284240E+00
          1   -1    0    0  501    0  0.00000000000E+00  0.00000000000E+00  0.23828361861E+03  0.23828361861E+03  0.00000000000E+00 0. -1.
         -1   -1    0    0    0  501 -0.00000000000E+00 -0.00000000000E+00 -0.65457012655E+02  0.65457012655E+02  0.00000000000E+00 0.  1.
         23    2    1    2    0    0  0.36106673094E+02  0.18759535739E+02  0.19741421473E+02  0.10190239900E+03  0.91316828550E+02 0.  0.
         23    2    1    2    0    0 -0.36106673094E+02 -0.18759535739E+02  0.15308518448E+03  0.20183823227E+03  0.12509191131E+03 0.  0.
          5    1    4    4  502    0 -0.79492358819E+01  0.52688744490E+02  0.49718976152E+02  0.72998240641E+02  0.41800000000E+01 0. -1.
         -5    1    4    4    0  502 -0.28157437212E+02 -0.71448280229E+02  0.10336620833E+03  0.12883999162E+03  0.41800000000E+01 0. -1.
        -11    1    3    3    0    0  0.12917121908E+02 -0.18191608281E+02 -0.28934882982E+02  0.36537844810E+02  0.00000000000E+00 0.  1.
         11    1    3    3    0    0  0.23189551186E+02  0.36951144019E+02  0.48676304455E+02  0.65364554186E+02  0.00000000000E+00 0. -1.
</event>
<event>
 8    1  0.8061721E-006  0.2823523E+03  0.7561462E-02  0.1094411E+00
         -1   -1    0    0    0  501 -0.00000000000E+00  0.00000000000E+00  0.27642632360E+03  0.27642632360E+03  0.00000000000E+00 0.  1.
          1   -1    0    0  501    0  0.00000000000E+00 -0.00000000000E+00 -0.35598122390E+03  0.35598122390E+03  0.00000000000E+00 0. -1.
         23    2    1    2    0    0 -0.24591954506E+03 -0.11521363438E+03  0.75214226658E+02  0.29572969355E+03  0.89712137206E+02 0.  0.
         23    2    1    2    0    0  0.24591954506E+03  0.11521363438E+03 -0.15476912695E+03  0.33667785395E+03  0.12509152845E+03 0.  0.
          5    1    4    4  502    0  0.12368492339E+03  0.10212157164E+03 -0.13971623157E+03  0.21275543103E+03  0.41800000000E+01 0. -1.
         -5    1    4    4    0  502  0.12223462167E+03  0.13092062740E+02 -0.15052895380E+02  0.12392242292E+03  0.41800000000E+01 0. -1.
        -11    1    3    3    0    0 -0.17469356978E+03 -0.43185909245E+02  0.73593958503E+02  0.19441948669E+03  0.00000000000E+00 0. -1.
         11    1    3    3    0    0 -0.71225975289E+02 -0.72027725131E+02  0.16202681548E+01  0.10131020685E+03  0.00000000000E+00 0.  1.
</event>
<event>
 8    1  0.8061721E-006  0.8224967E+02  0.7561462E-02  0.1322786E+00
          1   -1    0    0  501    0  0.00000000000E+00  0.00000000000E+00  0.31077052918E+03  0.31077052918E+03  0.00000000000E+00 0. -1.
         -1   -1    0    0    0  501 -0.00000000000E+00 -0.00000000000E+00 -0.54636997054E+02  0.54636997054E+02  0.00000000000E+00 0.  1.
         23    2    1    2    0    0 -0.25537516160E+02  0.64657672639E+02  0.93320452084E+02  0.14863763861E+03  0.92475193821E+02 0.  0.
         23    2    1    2    0    0  0.25537516160E+02 -0.64657672639E+02  0.16281308004E+03  0.21676988762E+03  0.12509318840E+03 0.  0.
          5    1    4    4  502    0  0.10412802390E+02 -0.82971204091E+01 -0.20245924549E+02  0.24589398560E+02  0.41800000000E+01 0.  1.
         -5    1    4    4    0  502  0.15124713769E+02 -0.56360552230E+02  0.18305900459E+03  0.19218048906E+03  0.41800000000E+01 0.  1.
        -11    1    3    3    0    0 -0.40375084003E+02  0.20148997760E+02  0.10631453101E+01  0.45136014411E+02  0.00000000000E+00 0.  1.
         11    1    3    3    0    0  0.14837567843E+02  0.44508674878E+02  0.92257306774E+02  0.10350162420E+03  0.00000000000E+00 0. -1.
</event>
<event>
 8    1  0.8061721E-006  0.1055868E+03  0.7561462E-02  0.1268968E+00
          2   -1    0    0  501    0  0.00000000000E+00  0.00000000000E+00  0.47204158055E+03  0.47204158055E+03  0.00000000000E+00 0. -1.
         -2   -1    0    0    0  501 -0.00000000000E+00 -0.00000000000E+00 -0.28120183813E+02  0.28120183813E+02  0.00000000000E+00 0.  1.
         23    2    1    2    0    0  0.19565010744E+02  0.30462929806E+02  0.15505092545E+03  0.18329292797E+03  0.90800485815E+02 0.  0.
         23    2    1    2    0    0 -0.19565010744E+02 -0.30462929806E+02  0.28887047129E+03  0.31686883639E+03  0.12509568560E+03 0.  0.
          5    1    4    4  502    0 -0.64006245593E+02 -0.42033212380E+02  0.12514037671E+03  0.14676912720E+03  0.41800000000E+01 0.  1.
         -5    1    4    4    0  502  0.44441234850E+02  0.11570282574E+02  0.16373009458E+03  0.17009970919E+03  0.41800000000E+01 0.  1.
        -11    1    3    3    0    0  0.51117504505E+02  0.22377261240E+02  0.13223029548E+03  0.14352209631E+03  0.00000000000E+00 0. -1.
         11    1    3    3    0    0 -0.31552493761E+02  0.80856685655E+01  0.22820629972E+02  0.39770831661E+02  0.00000000000E+00 0.  1.
</event>
<event>
 8    1  0.8061721E-006  0.1097374E+03  0.7561462E-02  0.1261057E+00
          2   -1    0    0  501    0  0.00000000000E+00  0.00000000000E+00  0.12004949535E+04  0.12004949535E+04  0.00000000000E+00 0. -1.
         -2   -1    0    0    0  501 -0.00000000000E+00 -0.00000000000E+00 -0.16704764141E+02  0.16704764141E+02  0.00000000000E+00 0.  1.
         23    2    1    2    0    0 -0.52755614593E+02  0.31144902678E+02  0.22756452909E+03  0.25211565050E+03  0.89574139621E+02 0.  0.
         23    2    1    2    0    0  0.52755614593E+02 -0.31144902678E+02  0.95622566028E+03  0.96508406717E+03  0.11518065583E+03 0.  0.
          5    1    4    4  502    0  0.78176249672E+02  0.11759532406E+01  0.41771959923E+03  0.42499417039E+03  0.41800000000E+01 0.  1.
         -5    1    4    4    0  502 -0.25420635079E+02 -0.32320855918E+02  0.53850606105E+03  0.54008989678E+03  0.41800000000E+01 0. -1.
        -11    1    3    3    0    0 -0.55161236896E+02 -0.12150907576E+02  0.17546163081E+03  0.18432902782E+03  0.00000000000E+00 0. -1.
         11    1    3    3    0    0  0.24056223024E+01  0.43295810253E+02  0.52102898289E+02  0.67786622680E+02  0.00000000000E+00 0.  1.
</event>
<event>
 8    1  0.8061721E-006  0.1099570E+03  0.7561462E-02  0.1260650E+00
          1   -1    0    0  501    0  0.00000000000E+00  0.00000000000E+00  0.27846004145E+03  0.27846004145E+03  0.00000000000E+00 0. -1.
         -1   -1    0    0    0  501 -0.00000000000E+00 -0.00000000000E+00 -0.65134562246E+02  0.65134562246E+02  0.00000000000E+00 0.  1.
         23    2    1    2    0    0  0.82078883125E+02  0.72090881246E+01  0.67098346691E+02  0.14291487437E+03  0.95569656175E+02 0.  0.
         23    2    1    2    0    0 -0.82078883125E+02 -0.72090881246E+01  0.14622713252E+03  0.20067972933E+03  0.11000484295E+03 0.  0.
          5    1    4    4  502    0 -0.87822236495E+02 -0.17401755842E+02  0.15921370143E+03  0.18270752982E+03  0.41800000000E+01 0. -1.
         -5    1    4    4    0  502  0.57433533702E+01  0.10192667717E+02 -0.12986568912E+02  0.17972199510E+02  0.41800000000E+01 0.  1.
        -11    1    3    3    0    0 -0.57780348431E+01  0.27161195333E+02 -0.41182381554E+01  0.28072693210E+02  0.00000000000E+00 0. -1.
         11    1    3    3    0    0  0.87856917968E+02 -0.19952107208E+02  0.71216584847E+02  0.11484218116E+03  0.00000000000E+00 0.  1.
</event>
<event>
 8    1  0.8061721E-006  0.4340296E+02  0.7561462E-02  0.1484565E+00
         -1   -1    0    0    0  501 -0.00000000000E+00  0.00000000000E+00  0.37075235638E+02  0.37075235638E+02  0.00000000000E+00 0.  1.
          1   -1    0    0  501    0  0.00000000000E+00 -0.00000000000E+00 -0.65561156751E+03  0.65561156751E+03  0.00000000000E+00 0. -1.
         23    2    1    2    0    0  0.18400875969E+02  0.27266497044E+02 -0.49530638866E+02  0.10916565924E+03  0.91552186610E+02 0.  0.
         23    2    1    2    0    0 -0.18400875969E+02 -0.27266497044E+02 -0.56900569301E+03  0.58352114391E+03  0.12508953841E+03 0.  0.
          5    1    4    4  502    0 -0.96334796953E+01 -0.19718318274E+02 -0.57067083678E+03  0.57110795158E+03  0.41800000000E+01 0. -1.
         -5    1    4    4    0  502 -0.87673962734E+01 -0.75481787697E+01  0.16651437697E+01  0.12413192334E+02  0.41800000000E+01 0. -1.
        -11    1    3    3    0    0 -0.11487744633E+02  0.17087871496E+02  0.22511657838E+02  0.30508004977E+02  0.00000000000E+00 0.  1.
         11    1    3    3    0    0  0.29888620602E+02  0.10178625547E+02 -0.72042296705E+02  0.78657654262E+02  0.00000000000E+00 0. -1.
</event>
<event>
 8    1  0.8922677E-006  0.1191845E+03  0.7561462E-02  0.1244448E+00
          3   -1    0    0  501    0  0.00000000000E+00  0.00000000000E+00  0.78835171365E+02  0.78835171365E+02  0.00000000000E+00 0. -1.
         -3   -1    0    0    0  501 -0.00000000000E+00 -0.00000000000E+00 -0.20709063991E+03  0.20709063991E+03  0.00000000000E+00 0.  1.
         23    2    1    2    0    0  0.34064233016E+02 -0.65309850339E+02 -0.72069860127E+02  0.13026790120E+03  0.79686340253E+02 0.  0.
         23    2    1    2    0    0 -0.34064233016E+02  0.65309850339E+02 -0.56185608423E+02  0.15565791008E+03  0.12508722498E+03 0.  0.
          5    1    4    4  502    0 -0.74820215969E+02  0.89472212835E+01 -0.30332005529E+02  0.81336464429E+02  0.41800000000E+01 0. -1.
         -5    1    4    4    0  502  0.40755982953E+02  0.56362629055E+02 -0.25853602894E+02  0.74321445647E+02  0.41800000000E+01 0. -1.
        -11    1    3    3    0    0  0.35967210096E+02 -0.92629070783E+01  0.21977192399E+01  0.37205800885E+02  0.00000000000E+00 0. -1.
         11    1    3    3    0    0 -0.19029770800E+01 -0.56046943260E+02 -0.74267579367E+02  0.93062100318E+02  0.00000000000E+00 0.  1.
</event>
<event>
 8    1  0.8061721E-006  0.1178549E+03  0.7561462E-02  0.1246678E+00
         -1   -1    0    0    0  501 -0.00000000000E+00  0.00000000000E+00  0.10575711531E+02  0.10575711531E+02  0.00000000000E+00 0.  1.
          1   -1    0    0  501    0  0.00000000000E+00 -0.00000000000E+00 -0.14095656175E+04  0.14095656175E+04  0.00000000000E+00 0. -1.
         23    2    1    2    0    0 -0.31963513341E+02  0.38381885742E+02 -0.50750544840E+03  0.51853905672E+03  0.93947527119E+02 0.  0.
         23    2    1    2    0    0  0.31963513341E+02 -0.38381885742E+02 -0.89148445760E+03  0.90160227234E+03  0.12508910428E+03 0.  0.
          5    1    4    4  502    0  0.60547565789E+02 -0.67025710158E+02 -0.50987567139E+03  0.51783117541E+03  0.41800000000E+01 0.  1.
         -5    1    4    4    0  502 -0.28584052448E+02  0.28643824416E+02 -0.38160878621E+03  0.38377109694E+03  0.41800000000E+01 0.  1.
        -11    1    3    3    0    0 -0.37709669865E+02 -0.22196358072E+02 -0.16689825583E+03  0.17253905446E+03  0.00000000000E+00 0.  1.
         11    1    3    3    0    0  0.57461565236E+01  0.60578243814E+02 -0.34060719256E+03  0.34600000226E+03  0.00000000000E+00 0. -1.
</event>
<event>
 8    1  0.8061721E-006  0.3902535E+02  0.7561462E-02  0.1515509E+00
          1   -1    0    0  501    0  0.00000000000E+00  0.00000000000E+00  0.10332680579E+03  0.10332680579E+03  0.00000000000E+00 0. -1.
         -1   -1    0    0    0  501 -0.00000000000E+00 -0.00000000000E+00 -0.13143494954E+03  0.13143494954E+03  0.00000000000E+00 0.  1.
         23    2    1    2    0    0 -0.30209754060E+01  0.17553291464E+02 -0.49949823489E+02  0.10653564542E+03  0.92399212905E+02 0.  0.
         23    2    1    2    0    0  0.30209754060E+01 -0.17553291464E+02  0.21841679739E+02  0.12822610991E+03  0.12509049506E+03 0.  0.
          5    1    4    4  502    0 -0.29561490169E+01 -0.22439883588E+02  0.72885211583E+02  0.76433066535E+02  0.41800000000E+01 0. -1.
         -5    1    4    4    0  502  0.59771244229E+01  0.48865921249E+01 -0.51043531844E+02  0.51793043375E+02  0.41800000000E+01 0. -1.
        -11    1    3    3    0    0  0.71095082738E+00 -0.14232728207E+02 -0.68213924469E+02  0.69686551750E+02  0.00000000000E+00 0.  1.
         11    1    3    3    0    0 -0.37319262334E+01  0.31786019671E+02  0.18264100980E+02  0.36849093673E+02  0.00000000000E+00 0. -1.
</event>
<event>
 8    1  0.8061721E-006  0.9986659E+02  0.7561462E-02  0.1280577E+00
          2   -1    0    0  501    0  0.00000000000E+00  0.00000000000E+00  0.73455702202E+03  0.73455702202E+03  0.00000000000E+00 0. -1.
         -2   -1    0    0    0  501 -0.00000000000E+00 -0.00000000000E+00 -0.19865034795E+02  0.19865034795E+02  0.00000000000E+00 0.  1.
         23    2    1    2    0    0  0.54032241300E+02 -0.32226600759E+01  0.27582832039E+03  0.29487990979E+03  0.89123679409E+02 0.  0.
         23    2    1    2    0    0 -0.54032241300E+02  0.32226600759E+01  0.43886366683E+03  0.45954214702E+03  0.12509115950E+03 0.  0.
          5    1    4    4  502    0  0.18064760842E+02 -0.14418666091E+02  0.12233474991E+02  0.26483274467E+02  0.41800000000E+01 0. -1.
         -5    1    4    4    0  502 -0.72097002143E+02  0.17641326167E+02  0.42663019184E+03  0.43305887255E+03  0.41800000000E+01 0. -1.
        -11    1    3    3    0    0  0.42462291587E+02 -0.43027040168E+02  0.19320514810E+03  0.20244160058E+03  0.00000000000E+00 0. -1.
         11    1    3    3    0    0  0.11569949714E+02  0.39804380092E+02  0.82623172292E+02  0.92438309215E+02  0.00000000000E+00 0.  1.
</event>
<event>
 8    1  0.8061721E-006  0.1890067E+03  0.7561462E-02  0.1159360E+00
          2   -1    0    0  501    0  0.00000000000E+00  0.00000000000E+00  0.66970253000E+03  0.66970253000E+03  0.00000000000E+00 0. -1.
         -2   -1    0    0    0  501 -0.00000000000E+00 -0.00000000000E+00 -0.76082331203E+02  0.76082331203E+02  0.00000000000E+00 0.  1.
         23    2    1    2    0    0  0.15649949174E+03  0.71285711796E+02  0.12565283769E+03  0.23176702921E+03  0.91397902535E+02 0.  0.
         23    2    1    2    0    0 -0.15649949174E+03 -0.71285711796E+02  0.46796736110E+03  0.51401783199E+03  0.12508851638E+03 0.  0.
          5    1    4    4  502    0  0.13768111446E+02  0.89775541604E+01  0.12204122168E+02  0.20894266424E+02  0.41800000000E+01 0.  1.
         -5    1    4    4    0  502 -0.17026760318E+03 -0.80263265957E+02  0.45576323894E+03  0.49312356557E+03  0.41800000000E+01 0.  1.
        -11    1    3    3    0    0  0.42016784563E+02  0.27413549328E+02 -0.75468409913E+01  0.50733299525E+02  0.00000000000E+00 0.  1.
         11    1    3    3    0    0  0.11448270717E+03  0.43872162469E+02  0.13319967868E+03  0.18103372968E+03  0.00000000000E+00 0. -1.
</event>
<event>
 8    1  0.8061721E-006  0.1720595E+03  0.7561462E-02  0.1175717E+00
         -2   -1    0    0    0  501 -0.00000000000E+00  0.00000000000E+00  0.75262907650E+02  0.75262907650E+02  0.00000000000E+00 0. -1.
          2   -1    0    0  501    0  0.00000000000E+00 -0.00000000000E+00 -0.73275849537E+03  0.73275849537E+03  0.00000000000E+00 0.  1.
         23    2    1    2    0    0 -0.15016427504E+03  0.67811030540E+02 -0.97966823951E+02  0.21147461774E+03  0.89310525658E+02 0.  0.
         23    2    1    2    0    0  0.15016427504E+03 -0.67811030540E+02 -0.55952876376E+03  0.59654678527E+03  0.12509190293E+03 0.  0.
          5    1    4    4  502    0  0.13086980671E+03 -0.81383339328E+02 -0.31352086422E+03  0.34937509775E+03  0.41800000000E+01 0. -1.
         -5    1    4    4    0  502  0.19294468331E+02  0.13572308788E+02 -0.24600789955E+03  0.24717168752E+03  0.41800000000E+01 0. -1.
        -11    1    3    3    0    0 -0.12655107551E+03  0.64839601609E+02 -0.11444325028E+03  0.18252837090E+03  0.00000000000E+00 0.  1.
         11    1    3    3    0    0 -0.23613199530E+02  0.29714289311E+01  0.16476426324E+02  0.28946246844E+02  0.00000000000E+00 0. -1.
</event>
<event>
 8    1  0.8061721E-006  0.2920521E+03  0.7561462E-02  0.1089283E+00
          2   -1    0    0  501    0  0.00000000000E+00  0.00000000000E+00  0.33032659156E+03  0.33032659156E+03  0.00000000000E+00 0. -1.
         -2   -1    0    0    0  501 -0.00000000000E+00 -0.00000000000E+00 -0.35257463389E+03  0.35257463389E+03  0.00000000000E+00 0.  1.
         23    2    1    2    0    0  0.25876720700E+03  0.98032972508E+02 -0.17832981920E+03  0.34146362612E+03  0.90691523468E+02 0.  0.
         23    2    1    2    0    0 -0.25876720700E+03 -0.98032972508E+02  0.15608177688E+03  0.34143759932E+03  0.12508869668E+03 0.  0.
          5    1    4    4  502    0 -0.11582555744E+03 -0.10323578669E+03  0.49175097261E+02  0.16281538625E+03  0.41800000000E+01 0. -1.
         -5    1    4    4    0  502 -0.14294164957E+03  0.52028141786E+01  0.10690667962E+03  0.17862221307E+03  0.41800000000E+01 0. -1.
        -11    1    3    3    0    0  0.23528968966E+03  0.10966820287E+03 -0.17887868475E+03  0.31525535149E+03  0.00000000000E+00 0.  1.
         11    1    3    3    0    0  0.23477517343E+02 -0.11635230362E+02  0.54886554636E+00  0.26208274640E+02  0.00000000000E+00 0. -1.
</event>
<event>
 8    1  0.8061721E-006  0.1017617E+03  0.7561462E-02  0.1276634E+00
          1   -1    0    0  501    0  0.00000000000E+00  0.00000000000E+00  0.12405435931E+04  0.12405435931E+04  0.00000000000E+00 0. -1.
         -1   -1    0    0    0  501 -0.00000000000E+00 -0.00000000000E+00 -0.12762218741E+02  0.12762218741E+02  0.00000000000E+00 0.  1.
         23    2    1    2    0    0  0.15962774140E+02 -0.51808987797E+02  0.34705388940E+03  0.36208878849E+03  0.87880072958E+02 0.  0.
         23    2    1    2    0    0 -0.15962774140E+02  0.51808987797E+02  0.88072748495E+03  0.89121702335E+03  0.12509156081E+03 0.  0.
          5    1    4    4  502    0 -0.43210963946E+02  0.73767499404E+02  0.77626027896E+03  0.78096499567E+03  0.41800000000E+01 0.  1.
         -5    1    4    4    0  502  0.27248189806E+02 -0.21958511607E+02  0.10446720599E+03  0.11025202768E+03  0.41800000000E+01 0.  1.
        -11    1    3    3    0    0  0.34232663561E+02 -0.54357869683E+02  0.33234269111E+03  0.33849419136E+03  0.00000000000E+00 0. -1.
         11    1    3    3    0    0 -0.18269889421E+02  0.25488818853E+01  0.14711198294E+02  0.23594597127E+02  0.00000000000E+00 0.  1.
</event>
<event>
 8    1  0.8061721E-006  0.1102783E+03  0.7561462E-02  0.1260055E+00
          2   -1    0    0  501    0  0.00000000000E+00  0.00000000000E+00  0.38416129641E+03  0.38416129641E+03  0.00000000000E+00 0. -1.
         -2   -1    0    0    0  501 -0.00000000000E+00 -0.00000000000E+00 -0.42408255150E+02  0.42408255150E+02  0.00000000000E+00 0.  1.
         23    2    1    2    0    0 -0.37972424596E+02  0.38893857306E+02  0.87082007751E+02  0.13767662995E+03  0.91743889147E+02 0.  0.
         23    2    1    2    0    0  0.37972424596E+02 -0.38893857306E+02  0.25467103351E+03  0.28889292161E+03  0.12508855935E+03 0.  0.
          5    1    4    4  502    0 -0.37656623767E+02 -0.46817696131E+02  0.11337019889E+03  0.12837520158E+03  0.41800000000E+01 0.  1.
         -5    1    4    4    0  502  0.75629048363E+02  0.79238388255E+01  0.14130083462E+03  0.16051772003E+03  0.41800000000E+01 0.  1.
        -11    1    3    3    0    0 -0.49392191414E+02  0.48518728238E+02  0.97416998027E+02  0.11951454751E+03  0.00000000000E+00 0. -1.
         11    1    3    3    0    0  0.11419766819E+02 -0.96248709324E+01 -0.10334990275E+02  0.18162082442E+02  0.00000000000E+00 0.  1.
</event>
<event>
 7    1  0.8061721E-006  0.3778053E+03  0.7561462E-02  0.1051748E+00
         -1   -1    0    0    0  501 -0.00000000000E+00  0.00000000000E+00  0.67947306356E+03  0.67947306356E+03  0.00000000000E+00 0.  1.
          1   -1    0    0  501    0  0.00000000000E+00 -0.00000000000E+00 -0.22591272223E+03  0.22591272223E+03  0.00000000000E+00 0. -1.
         23    2    1    2    0    0 -0.22415228268E+03 -0.23934714747E+03  0.30593117901E+03  0.45813405069E+03  0.93603521718E+02 0.  0.
          5    1    1    2  502    0 -0.17239613357E+01 -0.52572931822E+02  0.13049900929E+02  0.54356761468E+02  0.41800000000E+01 0. -1.
         -5    1    1    2    0  502  0.22587624401E+03  0.29192007929E+03  0.13457926140E+03  0.39289497363E+03  0.41800000000E+01 0.  1.
        -11    1    3    3    0    0 -0.23087785115E+02 -0.27909584685E+01  0.14766830131E+01  0.23302700775E+02  0.00000000000E+00 0.  1.
         11    1    3    3    0    0 -0.20106449756E+03 -0.23655618900E+03  0.30445449599E+03  0.43483134991E+03  0.00000000000E+00 0. -1.
</event>
<event>
 8    1  0.8061721E-006  0.1274390E+03  0.7561462E-02  0.1231306E+00
         -1   -1    0    0    0  501 -0.00000000000E+00  0.00000000000E+00  0.20305963011E+03  0.20305963011E+03  0.00000000000E+00 0.  1.
          1   -1    0    0  501    0  0.00000000000E+00 -0.00000000000E+00 -0.10765609796E+03  0.10765609796E+03  0.00000000000E+00 0. -1.
         23    2    1    2    0    0  0.10710396915E+02  0.91544859068E+02  0.86411930053E+02  0.15507615291E+03  0.89924511242E+02 0.  0.
         23    2    1    2    0    0 -0.10710396915E+02 -0.91544859068E+02  0.89916020982E+01  0.15563957515E+03  0.12509058566E+03 0.  0.
          5    1    4    4  502    0 -0.94275193925E+01 -0.12245591349E+03 -0.89524918231E+00  0.12289264723E+03  0.41800000000E+01 0.  1.
         -5    1    4    4    0  502 -0.12828775220E+01  0.30911054423E+02  0.98868512805E+01  0.32746927925E+02  0.41800000000E+01 0.  1.
        -11    1    3    3    0    0  0.25988008548E+02  0.47409227584E+02  0.93332807554E+02  0.10786113486E+03  0.00000000000E+00 0.  1.
         11    1    3    3    0    0 -0.15277611633E+02  0.44135631484E+02 -0.69208775006E+01  0.47215018046E+02  0.00000000000E+00 0. -1.
</event>
<event>
 8    1  0.8061721E-006  0.1510015E+03  0.7561462E-02  0.1199248E+00
          1   -1    0    0  501    0  0.00000000000E+00  0.00000000000E+00  0.14646164848E+03  0.14646164848E+03  0.00000000000E+00 0. -1.
         -1   -1    0    0    0  501 -0.00000000000E+00 -0.00000000000E+00 -0.21385914108E+03  0.21385914108E+03  0.00000000000E+00 0.  1.
         23    2    1    2    0    0 -0.13030240739E+03  0.11825467725E+02 -0.82749940108E+02  0.17865574364E+03  0.89172658868E+02 0.  0.
         23    2    1    2    0    0  0.13030240739E+03 -0.11825467725E+02  0.15352447513E+02  0.18166504592E+03  0.12509169518E+03 0.  0.
          5    1    4    4  502    0 -0.15788935939E+02 -0.17604461482E+02  0.25525783106E+02  0.35046334550E+02  0.41800000000E+01 0.  1.
         -5    1    4    4    0  502  0.14609134333E+03  0.57789937567E+01 -0.10173335594E+02  0.14661871137E+03  0.41800000000E+01 0.  1.
        -11    1    3    3    0    0 -0.40091048469E+02  0.10743970516E+02 -0.77948514431E+02  0.88310225749E+02  0.00000000000E+00 0.  1.
         11    1    3    3    0    0 -0.90211358924E+02  0.10814972088E+01 -0.48014256768E+01  0.90345517895E+02  0.00000000000E+00 0. -1.
</event>
<event>
 7    1  0.8061721E-006  0.9513686E+02  0.7561462E-02  0.1290868E+00
          1   -1    0    0  501    0  0.00000000000E+00  0.00000000000E+00  0.99443455498E+03  0.99443455498E+03  0.00000000000E+00 0. -1.
         -1   -1    0    0    0  501 -0.00000000000E+00 -0.00000000000E+00 -0.45152662877E+02  0.45152662877E+02  0.00000000000E+00 0.  1.
         23    2    1    2    0    0 -0.47204244667E+02 -0.16677090327E+02  0.31732557473E+02  0.10932549261E+03  0.91862626102E+02 0.  0.
          5    1    1    2  502    0  0.54712773551E+02  0.39092418212E+02  0.89432813384E+03  0.89686230165E+03  0.41800000000E+01 0. -1.
         -5    1    1    2    0  502 -0.75085288840E+01 -0.22415327885E+02  0.23221200790E+02  0.33399423593E+02  0.41800000000E+01 0.  1.
        -11    1    3    3    0    0  0.24859253064E+02 -0.89337312436E+01 -0.67498406305E+01  0.27264525769E+02  0.00000000000E+00 0. -1.
         11    1    3    3    0    0 -0.72063497732E+02 -0.77433590833E+01  0.38482398103E+02  0.82060966842E+02  0.00000000000E+00 0.  1.
</event>
<event>
 8    1  0.8061721E-006  0.1127419E+03  0.7561462E-02  0.1255575E+00
          1   -1    0    0  501    0  0.00000000000E+00  0.00000000000E+00  0.58202735594E+03  0.58202735594E+03  0.00000000000E+00 0. -1.
         -1   -1    0    0    0  501 -0.00000000000E+00 -0.00000000000E+00 -0.23597061043E+02  0.23597061043E+02  0.00000000000E+00 0.  1.
         23    2    1    2    0    0  0.28307347914E+02  0.33398173126E+02  0.22642211207E+03  0.24814210760E+03  0.91601248988E+02 0.  0.
         23    2    1    2    0    0 -0.28307347914E+02 -0.33398173126E+02  0.33200818282E+03  0.35748230938E+03  0.12508966441E+03 0.  0.
          5    1    4    4  502    0 -0.67811811894E+02 -0.47004663822E+02  0.27179414720E+03  0.28407289752E+03  0.41800000000E+01 0. -1.
         -5    1    4    4    0  502  0.39504463980E+02  0.13606490695E+02  0.60214035626E+02  0.73409411860E+02  0.41800000000E+01 0. -1.
        -11    1    3    3    0    0  0.60452370655E+02  0.10370640650E+02  0.15103271906E+03  0.16301202879E+03  0.00000000000E+00 0.  1.
         11    1    3    3    0    0 -0.32145022741E+02  0.23027532477E+02  0.75389393013E+02  0.85130078808E+02  0.00000000000E+00 0. -1.
</event>
<event>
 7    1  0.8061721E-006  0.1068035E+03  0.7561462E-02  0.1266606E+00
          2   -1    0    0  501    0  0.00000000000E+00  0.00000000000E+00  0.50884447606E+03  0.50884447606E+03  0.00000000000E+00 0. -1.
         -2   -1    0    0    0  501 -0.00000000000E+00 -0.00000000000E+00 -0.37715893455E+02  0.37715893455E+02  0.00000000000E+00 0.  1.
         23    2    1    2    0    0 -0.25140704033E+02 -0.59930232511E+02  0.16463160782E+03  0.19956895196E+03  0.92198224103E+02 0.  0.
          5    1    1    2  502    0  0.58200034107E+02  0.94796735147E+01  0.26993956546E+03  0.27633665985E+03  0.41800000000E+01 0. -1.
         -5    1    1    2    0  502 -0.33059330074E+02  0.50450558997E+02  0.36557409329E+02  0.70654757695E+02  0.41800000000E+01 0.  1.
        -11    1    3    3    0    0 -0.22595205027E+02 -0.75214557791E+02  0.74954715584E+02  0.10856326442E+03  0.00000000000E+00 0. -1.
         11    1    3    3    0    0 -0.25454990054E+01  0.15284325279E+02  0.89676892233E+02  0.91005687542E+02  0.00000000000E+00 0.  1.
</event>
<event>
 8    1  0.8061721E-006  0.7152536E+02  0.7561462E-02  0.1354981E+00
         -2   -1    0    0    0  501 -0.00000000000E+00  0.00000000000E+00  0.62295906849E+02  0.62295906849E+02  0.00000000000E+00 0.  1.
          2   -1    0    0  501    0  0.00000000000E+00 -0.00000000000E+00 -0.20987558038E+03  0.20987558038E+03  0.00000000000E+00 0. -1.
         23    2    1    2    0    0 -0.18532753611E+02  0.31817335533E+02 -0.33871736330E+02  0.10497204335E+03  0.92282336161E+02 0.  0.
         23    2    1    2    0    0  0.18532753611E+02 -0.31817335533E+02 -0.11370793720E+03  0.16719944387E+03  0.11692028589E+03 0.  0.
          5    1    4    4  502    0  0.27731319398E+02 -0.16787037720E+02 -0.13519969756E+03  0.13909443314E+03  0.41800000000E+01 0. -1.
         -5    1    4    4    0  502 -0.91985657864E+01 -0.15030297812E+02  0.21491760359E+02  0.28105010731E+02  0.41800000000E+01 0.  1.
        -11    1    3    3    0    0 -0.18318967818E+02  0.60683473704E+02 -0.41266221985E+01  0.63522417881E+02  0.00000000000E+00 0.  1.
         11    1    3    3    0    0 -0.21378579299E+00 -0.28866138171E+02 -0.29745114131E+02  0.41449625474E+02  0.00000000000E+00 0. -1.
</event>
<event>
 7    1  0.8061721E-006  0.1512309E+03  0.7561462E-02  0.1198969E+00
         -1   -1    0    0    0  501 -0.00000000000E+00  0.00000000000E+00  0.34926368078E+03  0.34926368078E+03  0.00000000000E+00 0.  1.
          1   -1    0    0  501    0  0.00000000000E+00 -0.00000000000E+00 -0.74940332334E+02  0.74940332334E+02  0.00000000000E+00 0. -1.
         23    2    1    2    0    0 -0.11457565010E+02  0.29704963958E+02  0.78159915174E+02  0.15089825535E+03  0.12509056899E+03 0.  0.
          5    1    3    3  502    0  0.34701199449E+02  0.55834123309E+02  0.13638282220E+02  0.67268846510E+02  0.41800000000E+01 0. -1.
         -5    1    3    3    0  502 -0.46158764459E+02 -0.26129159351E+02  0.64521632953E+02  0.83629408845E+02  0.41800000000E+01 0. -1.
        -11    1    1    2    0    0 -0.33444872831E+02 -0.96932623264E+02  0.14513564891E+03  0.17770438812E+03  0.00000000000E+00 0. -1.
         11    1    1    2    0    0  0.44902437841E+02  0.67227659306E+02  0.51027784356E+02  0.95601369635E+02  0.00000000000E+00 0.  1.
</event>
<event>
 8    1  0.8061721E-006  0.1060083E+03  0.7561462E-02  0.1268146E+00
         -2   -1    0    0    0  501 -0.00000000000E+00  0.00000000000E+00  0.15607332157E+03  0.15607332157E+03  0.00000000000E+00 0. -1.
          2   -1    0    0  501    0  0.00000000000E+00 -0.00000000000E+00 -0.91904425272E+02  0.91904425272E+02  0.00000000000E+00 0.  1.
         23    2    1    2    0    0  0.15041827341E+02  0.49698899987E+02  0.21300577758E+02  0.10591295523E+03  0.89819832131E+02 0.  0.
         23    2    1    2    0    0 -0.15041827341E+02 -0.49698899987E+02  0.42868318536E+02  0.14206479160E+03  0.12509386496E+03 0.  0.
          5    1    4    4  502    0  0.40479642550E+02 -0.67597687495E+01  0.56984451654E+02  0.70349101379E+02  0.41800000000E+01 0. -1.
         -5    1    4    4    0  502 -0.55521469891E+02 -0.42939131237E+02 -0.14116133118E+02  0.71715690225E+02  0.41800000000E+01 0. -1.
        -11    1    3    3    0    0  0.32425471198E+02  0.67923025387E+02  0.27227811443E+02  0.80039379534E+02  0.00000000000E+00 0. -1.
         11    1    3    3    0    0 -0.17383643857E+02 -0.18224125401E+02 -0.59272336854E+01  0.25873575701E+02  0.00000000000E+00 0.  1.
</event>
<event>
 8    1  0.8061721E-006  0.1319759E+03  0.7561462E-02  0.1224553E+00
          4   -1    0    0  501    0  0.00000000000E+00  0.00000000000E+00  0.14455162659E+03  0.14455162659E+03  0.00000000000E+00 0. -1.
         -4   -1    0    0    0  501 -0.00000000000E+00 -0.00000000000E+00 -0.27014979661E+03  0.27014979661E+03  0.00000000000E+00 0.  1.
         23    2    1    2    0    0  0.59080970862E+02  0.61260880181E+02 -0.20748245510E+03  0.24266396490E+03  0.92700453773E+02 0.  0.
         23    2    1    2    0    0 -0.59080970862E+02 -0.61260880181E+02  0.81884285077E+02  0.17203745830E+03  0.12509354243E+03 0.  0.
          5    1    4    4  502    0  0.11863317123E+02  0.31792400294E+02  0.19765022874E+02  0.39492069315E+02  0.41800000000E+01 0. -1.
         -5    1    4    4    0  502 -0.70944287985E+02 -0.93053280475E+02  0.62119262203E+02  0.13254538899E+03  0.41800000000E+01 0. -1.
        -11    1    3    3    0    0  0.51780607551E+02  0.81285511276E+00 -0.15092090374E+03  0.15955880182E+03  0.00000000000E+00 0.  1.
         11    1    3    3    0    0  0.73003633104E+01  0.60448025068E+02 -0.56561551358E+02  0.83105163084E+02  0.00000000000E+00 0. -1.
</event>
<event>
 8    1  0.8061721E-006  0.1295622E+03  0.7561462E-02  0.1228107E+00
          1   -1    0    0  501    0  0.00000000000E+00  0.00000000000E+00  0.52675720989E+02  0.52675720989E+02  0.00000000000E+00 0. -1.
         -1   -1    0    0    0  501 -0.00000000000E+00 -0.00000000000E+00 -0.36408637385E+03  0.36408637385E+03  0.00000000000E+00 0.  1.
         23    2    1    2    0    0 -0.30923704937E+02 -0.65530877307E+02 -0.21073945502E+03  0.24060176216E+03  0.90705670395E+02 0.  0.
         23    2    1    2    0    0  0.30923704937E+02  0.65530877307E+02 -0.10067119783E+03  0.17616033268E+03  0.12508877379E+03 0.  0.
          5    1    4    4  502    0 -0.39772534873E+02  0.59878609819E+02 -0.63365183781E+02  0.95916220524E+02  0.41800000000E+01 0. -1.
         -5    1    4    4    0  502  0.70696239810E+02  0.56522674879E+01 -0.37306014054E+02  0.80244112155E+02  0.41800000000E+01 0. -1.
        -11    1    3    3    0    0  0.69337534349E+01 -0.76379013600E+02 -0.14139551837E+03  0.16085559757E+03  0.00000000000E+00 0. -1.
         11    1    3    3    0    0 -0.37857458372E+02  0.10848136292E+02 -0.69343936654E+02  0.79746164585E+02  0.00000000000E+00 0.  1.
</event>
<event>
 8    1  0.8061721E-006  0.1019687E+03  0.7561462E-02  0.1276210E+00
          2   -1    0    0  501    0  0.00000000000E+00  0.00000000000E+00  0.10081090611E+04  0.10081090611E+04  0.00000000000E+00 0.  1.
         -2   -1    0    0    0  501 -0.00000000000E+00 -0.00000000000E+00 -0.15533170391E+02  0.15533170391E+02  0.00000000000E+00 0. -1.
         23    2    1    2    0    0 -0.31070973186E+02  0.27620383154E+02  0.25731132898E+03  0.27665519188E+03  0.92739874012E+02 0.  0.
         23    2    1    2    0    0  0.31070973186E+02 -0.27620383154E+02  0.73526456174E+03  0.74698703962E+03  0.12508945069E+03 0.  0.
          5    1    4    4  502    0 -0.26106204477E+02  0.35882394094E+02  0.19809014095E+03  0.20304249914E+03  0.41800000000E+01 0.  1.
         -5    1    4    4    0  502  0.57177177662E+02 -0.63502777248E+02  0.53717442079E+03  0.54394454048E+03  0.41800000000E+01 0.  1.
        -11    1    3    3    0    0 -0.30540867343E+02  0.46115069810E+02  0.25112795097E+03  0.25714702409E+03  0.00000000000E+00 0.  1.
         11    1    3    3    0    0 -0.53010584258E+00 -0.18494686655E+02  0.61833780078E+01  0.19508167784E+02  0.00000000000E+00 0. -1.
</event>
<event>
 8    1  0.8061721E-006  0.1295321E+03  0.7561462E-02  0.1228152E+00
         -2   -1    0    0    0  501 -0.00000000000E+00  0.00000000000E+00  0.18614283624E+02  0.18614283624E+02  0.00000000000E+00 0.  1.
          2   -1    0    0  501    0  0.00000000000E+00 -0.00000000000E+00 -0.12198110576E+04  0.12198110576E+04  0.00000000000E+00 0. -1.
         23    2    1    2    0    0  0.56264174640E+01 -0.93177132043E+02 -0.34695140836E+03  0.37004074260E+03  0.88550758936E+02 0.  0.
         23    2    1    2    0    0 -0.56264174640E+01  0.93177132043E+02 -0.85424536565E+03  0.86838459866E+03  0.12507210700E+03 0.  0.
          5    1    4    4  502    0  0.49522843413E+02  0.49298995438E+01 -0.34525858685E+03  0.34885208918E+03  0.41800000000E+01 0.  1.
         -5    1    4    4    0  502 -0.55149260877E+02  0.88247232500E+02 -0.50898677880E+03  0.51953250949E+03  0.41800000000E+01 0.  1.
        -11    1    3    3    0    0 -0.20213853643E+02 -0.57298845663E+02 -0.85578803669E+02  0.10495470085E+03  0.00000000000E+00 0.  1.
         11    1    3    3    0    0  0.25840271107E+02 -0.35878286381E+02 -0.26137260469E+03  0.26508604175E+03  0.00000000000E+00 0. -1.
</event>
<event>
 8    1  0.8061721E-006  0.1145080E+03  0.7561462E-02  0.1252442E+00
          1   -1    0    0  501    0  0.00000000000E+00  0.00000000000E+00  0.10637716601E+04  0.10637716601E+04  0.00000000000E+00 0. -1.
         -1   -1    0    0    0  501 -0.00000000000E+00 -0.00000000000E+00 -0.17975279089E+02  0.17975279089E+02  0.00000000000E+00 0.  1.
         23    2    1    2    0    0 -0.28536263716E+02  0.37758370391E+02  0.20106948113E+03  0.22649762729E+03  0.92909773668E+02 0.  0.
         23    2    1    2    0    0  0.28536263716E+02 -0.37758370391E+02  0.84472689991E+03  0.85524931193E+03  0.12509131564E+03 0.  0.
          5    1    4    4  502    0 -0.38171237020E+02 -0.43087639600E+02  0.24119134296E+03  0.24800065392E+03  0.41800000000E+01 0.  1.
         -5    1    4    4    0  502  0.66707500736E+02  0.53292692084E+01  0.60353555695E+03  0.60724865802E+03  0.41800000000E+01 0.  1.
        -11    1    3    3    0    0 -0.58358703701E+02  0.29779097453E+01  0.11489652412E+03  0.12890235645E+03  0.00000000000E+00 0.  1.
         11    1    3    3    0    0  0.29822439985E+02  0.34780460646E+02  0.86172957015E+02  0.97595270839E+02  0.00000000000E+00 0. -1.
</event>
<event>
 8    1  0.8061721E-006  0.1644278E+03  0.7561462E-02  0.1183787E+00
          1   -1    0    0  501    0  0.00000000000E+00  0.00000000000E+00  0.29775397532E+03  0.29775397532E+03  0.00000000000E+00 0. -1.
         -1   -1    0    0    0  501 -0.00000000000E+00 -0.00000000000E+00 -0.12629779905E+03  0.12629779905E+03  0.00000000000E+00 0.  1.
         23    2    1    2    0    0 -0.14672041951E+03  0.92388968932E+01  0.12986585335E+02  0.17430511324E+03  0.92743637976E+02 0.  0.
         23    2    1    2    0    0  0.14672041951E+03 -0.92388968932E+01  0.15846959093E+03  0.24974666114E+03  0.12509414368E+03 0.  0.
          5    1    4    4  502    0 -0.16786897985E+02 -0.35442967862E+01 -0.50796289004E+01  0.18374901726E+02  0.41800000000E+01 0.  1.
         -5    1    4    4    0  502  0.16350731750E+03 -0.56946001070E+01  0.16354921983E+03  0.23137175941E+03  0.41800000000E+01 0.  1.
        -11    1    3    3    0    0 -0.62888757624E+02 -0.22073990409E+01  0.51526303147E+02  0.81331595103E+02  0.00000000000E+00 0. -1.
         11    1    3    3    0    0 -0.83831661888E+02  0.11446295934E+02 -0.38539717812E+02  0.92973518136E+02  0.00000000000E+00 0.  1.
</event>
<event>
 8    1  0.8061721E-006  0.6491936E+02  0.7561462E-02  0.1378275E+00
          1   -1    0    0  501    0  0.00000000000E+00  0.00000000000E+00  0.20012030439E+03  0.20012030439E+03  0.00000000000E+00 0. -1.
         -1   -1    0    0    0  501 -0.00000000000E+00 -0.00000000000E+00 -0.69156463691E+02  0.69156463691E+02  0.00000000000E+00 0.  1.
         23    2    1    2    0    0 -0.15533121104E+02 -0.23268866614E+02  0.11702115486E+02  0.94194725669E+02  0.89179531465E+02 0.  0.
         23    2    1    2    0    0  0.15533121104E+02  0.23268866614E+02  0.11926172522E+03  0.17508204242E+03  0.12509054509E+03 0.  0.
          5    1    4    4  502    0  0.16338309238E+02  0.45678677499E+02 -0.48113368710E+01  0.48929574792E+02  0.41800000000E+01 0.  1.
         -5    1    4    4    0  502 -0.80518813390E+00 -0.22409810886E+02  0.12407306209E+03  0.12615246762E+03  0.41800000000E+01 0.  1.
        -11    1    3    3    0    0 -0.19914157291E+02  0.11697775286E+02  0.41862164860E+02  0.47810589350E+02  0.00000000000E+00 0. -1.
         11    1    3    3    0    0  0.43810361868E+01 -0.34966641900E+02 -0.30160049374E+02  0.46384136319E+02  0.00000000000E+00 0.  1.
</event>
<event>
 8    1  0.8061721E-006  0.8626712E+02  0.7561462E-02  0.1312152E+00
         -4   -1    0    0    0  501 -0.00000000000E+00  0.00000000000E+00  0.40366488630E+03  0.40366488630E+03  0.00000000000E+00 0.  1.
          4   -1    0    0  501    0  0.00000000000E+00 -0.00000000000E+00 -0.30474214086E+02  0.30474214086E+02  0.00000000000E+00 0. -1.
         23    2    1    2    0    0  0.94725390508E+00 -0.20251498760E+02  0.17859718161E+03  0.20190273481E+03  0.91960538033E+02 0.  0.
         23    2    1    2    0    0 -0.94725390508E+00  0.20251498760E+02  0.19459349061E+03  0.23223636557E+03  0.12512426789E+03 0.  0.
          5    1    4    4  502    0 -0.52831046990E+01  0.51720843063E+02  0.19325306517E+03  0.20016787055E+03  0.41800000000E+01 0. -1.
         -5    1    4    4    0  502  0.43358507939E+01 -0.31469344303E+02  0.13404254403E+01  0.32068495028E+02  0.41800000000E+01 0. -1.
        -11    1    3    3    0    0 -0.43351394658E-01 -0.54286556101E+02  0.14145992845E+03  0.15151878897E+03  0.00000000000E+00 0.  1.
         11    1    3    3    0    0  0.99060529974E+00  0.34035057341E+02  0.37137253152E+02  0.50383945844E+02  0.00000000000E+00 0. -1.
</event>
<event>
 8    1  0.8061721E-006  0.1108720E+03  0.7561462E-02  0.1258964E+00
          1   -1    0    0  501    0  0.00000000000E+00  0.00000000000E+00  0.78811136609E+03  0.78811136609E+03  0.00000000000E+00 0. -1.
         -1   -1    0    0    0  501 -0.00000000000E+00 -0.00000000000E+00 -0.20290240320E+02  0.20290240320E+02  0.00000000000E+00 0.  1.
         23    2    1    2    0    0  0.21278593697E+02 -0.56950116685E+02  0.34301672605E+03  0.36140778003E+03  0.96223774498E+02 0.  0.
         23    2    1    2    0    0 -0.21278593697E+02  0.56950116685E+02  0.42480439972E+03  0.44699382638E+03  0.12509439818E+03 0.  0.
          5    1    4    4  502    0 -0.16017793970E+02  0.90886778379E+02  0.21000864964E+03  0.22942990548E+03  0.41800000000E+01 0.  1.
         -5    1    4    4    0  502 -0.52607997266E+01 -0.33936661694E+02  0.21479575008E+03  0.21756392089E+03  0.41800000000E+01 0.  1.
        -11    1    3    3    0    0  0.41861996480E+02 -0.93312677338E+01  0.60456589696E+02  0.74124884786E+02  0.00000000000E+00 0.  1.
         11    1    3    3    0    0 -0.20583402783E+02 -0.47618848951E+02  0.28256013635E+03  0.28728289525E+03  0.00000000000E+00 0. -1.
</event>
<event>
 8    1  0.8061721E-006  0.1238649E+03  0.7561462E-02  0.1236854E+00
          2   -1    0    0  501    0  0.00000000000E+00  0.00000000000E+00  0.24550860689E+03  0.24550860689E+03  0.00000000000E+00 0. -1.
         -2   -1    0    0    0  501 -0.00000000000E+00 -0.00000000000E+00 -0.64149999556E+02  0.64149999556E+02  0.00000000000E+00 0.  1.
         23    2    1    2    0    0  0.28801183599E+02  0.66732657416E+02  0.75706444489E+02  0.13860175189E+03  0.90533000315E+02 0.  0.
         23    2    1    2    0    0 -0.28801183599E+02 -0.66732657416E+02  0.10565216284E+03  0.17105685456E+03  0.11320473592E+03 0.  0.
          5    1    4    4  502    0 -0.68616421980E+02 -0.63360570408E+02  0.64741338539E+02  0.11371758247E+03  0.41800000000E+01 0. -1.
         -5    1    4    4    0  502  0.39815238380E+02 -0.33720870080E+01  0.40910824305E+02  0.57339272087E+02  0.41800000000E+01 0.  1.
        -11    1    3    3    0    0 -0.31003516162E+02  0.12830631633E+02  0.34624165867E+02  0.48214893804E+02  0.00000000000E+00 0. -1.
         11    1    3    3    0    0  0.59804699762E+02  0.53902025784E+02  0.41082278622E+02  0.90386858082E+02  0.00000000000E+00 0.  1.
</event>
<event>
 8    1  0.8061721E-006  0.1160153E+03  0.7561462E-02  0.1249819E+00
         -1   -1    0    0    0  501 -0.00000000000E+00  0.00000000000E+00  0.26007019040E+02  0.26007019040E+02  0.00000000000E+00 0.  1.
          1   -1    0    0  501    0  0.00000000000E+00 -0.00000000000E+00 -0.54097298775E+03  0.54097298775E+03  0.00000000000E+00 0. -1.
         23    2    1    2    0    0  0.12739085400E+02  0.39137840633E+02 -0.17349733097E+03  0.20099913566E+03  0.92764615113E+02 0.  0.
         23    2    1    2    0    0 -0.12739085400E+02 -0.39137840633E+02 -0.34146863773E+03  0.36598087112E+03  0.12508841915E+03 0.  0.
          5    1    4    4  502    0 -0.99977394355E+01  0.45450740997E+02 -0.11129781667E+03  0.12070791626E+03  0.41800000000E+01 0.  1.
         -5    1    4    4    0  502 -0.27413459645E+01 -0.84588581631E+02 -0.23017082106E+03  0.24527295487E+03  0.41800000000E+01 0.  1.
        -11    1    3    3    0    0 -0.28908679455E+02 -0.14757672256E+02 -0.43934545167E+02  0.54623666092E+02  0.00000000000E+00 0. -1.
         11    1    3    3    0    0  0.41647764855E+02  0.53895512890E+02 -0.12956278580E+03  0.14637546957E+03  0.00000000000E+00 0.  1.
</event>
<event>
 8    1  0.8061721E-006  0.1186225E+03  0.7561462E-02  0.1245387E+00
          1   -1    0    0  501    0  0.00000000000E+00  0.00000000000E+00  0.37387171609E+03  0.37387171609E+03  0.00000000000E+00 0. -1.
         -1   -1    0    0    0  501 -0.00000000000E+00 -0.00000000000E+00 -0.67282601597E+02  0.67282601597E+02  0.00000000000E+00 0.  1.
         23    2    1    2    0    0  0.45033736584E+02 -0.84497957750E+02  0.52477620343E+02  0.14217484859E+03  0.91059566439E+02 0.  0.
         23    2    1    2    0    0 -0.45033736584E+02  0.84497957750E+02  0.25411149415E+03  0.29897946910E+03  0.12509248254E+03 0.  0.
          5    1    4    4  502    0  0.14039453419E+02  0.47064726998E+01  0.16436368250E+03  0.16508225120E+03  0.41800000000E+01 0.  1.
         -5    1    4    4    0  502 -0.59073190003E+02  0.79791485050E+02  0.89747811650E+02  0.13389721789E+03  0.41800000000E+01 0.  1.
        -11    1    3    3    0    0  0.66109507210E+02 -0.72992624142E+02  0.61969084658E+02  0.11635530747E+03  0.00000000000E+00 0. -1.
         11    1    3    3    0    0 -0.21075770625E+02 -0.11505333608E+02 -0.94914643156E+01  0.25819541122E+02  0.00000000000E+00 0.  1.
</event>
<event>
 8    1  0.8061721E-006  0.9867774E+02  0.7561462E-02  0.1283101E+00
          2   -1    0    0  501    0  0.00000000000E+00  0.00000000000E+00  0.33790566302E+03  0.33790566302E+03  0.00000000000E+00 0. -1.
         -2   -1    0    0    0  501 -0.00000000000E+00 -0.00000000000E+00 -0.43877279611E+02  0.43877279611E+02  0.00000000000E+00 0.  1.
         23    2    1    2    0    0  0.15109824527E+02 -0.42565167587E+02  0.90925584095E+02  0.13901106768E+03  0.94955330585E+02 0.  0.
         23    2    1    2    0    0 -0.15109824527E+02  0.42565167587E+02  0.20310279931E+03  0.24277187494E+03  0.12508931164E+03 0.  0.
          5    1    4    4  502    0  0.22033312898E+02  0.55447061417E+02  0.19287406206E+03  0.20193493931E+03  0.41800000000E+01 0. -1.
         -5    1    4    4    0  502 -0.37143137425E+02 -0.12881893830E+02  0.10228737248E+02  0.40836935635E+02  0.41800000000E+01 0. -1.
        -11    1    3    3    0    0 -0.53152964653E+01 -0.66404561337E+02  0.35935964437E+02  0.75691556219E+02  0.00000000000E+00 0. -1.
         11    1    3    3    0    0  0.20425120992E+02  0.23839393750E+02  0.54989619658E+02  0.63319511464E+02  0.00000000000E+00 0.  1.
</event>
<event>
 8    1  0.8061721E-006  0.1048335E+03  0.7561462E-02  0.1270448E+00
          4   -1    0    0  501    0  0.00000000000E+00  0.00000000000E+00  0.12057304476E+03  0.12057304476E+03  0.00000000000E+00 0.  1.
         -4   -1    0    0    0  501 -0.00000000000E+00 -0.00000000000E+00 -0.10614095811E+03  0.10614095811E+03  0.00000000000E+00 0. -1.
         23    2    1    2    0    0 -0.58004870673E+01 -0.31869560959E+02  0.12824525109E+02  0.97486397523E+02  0.91048419491E+02 0.  0.
         23    2    1    2    0    0  0.58004870673E+01  0.31869560959E+02  0.16075615409E+01  0.12922760536E+03  0.12509146720E+03 0.  0.
          5    1    4    4  502    0 -0.45183020969E+02  0.51768221934E+02  0.19410574094E+02  0.71524100642E+02  0.41800000000E+01 0.  1.
         -5    1    4    4    0  502  0.50983508036E+02 -0.19898660974E+02 -0.17803012553E+02  0.57703504713E+02  0.41800000000E+01 0.  1.
        -11    1    3    3    0    0 -0.30581206265E+02  0.14130841245E+02  0.27195760719E+02  0.43295499212E+02  0.00000000000E+00 0.  1.
         11    1    3    3    0    0  0.24780719198E+02 -0.46000402204E+02 -0.14371235610E+02  0.54190898312E+02  0.00000000000E+00 0. -1.
</event>
<event>
 8    1  0.8061721E-006  0.2646575E+03  0.7561462E-02  0.1104377E+00
         -2   -1    0    0    0  501 -0.00000000000E+00  0.00000000000E+00  0.15692890366E+03  0.15692890366E+03  0.00000000000E+00 0.  1.
          2   -1    0    0  501    0  0.00000000000E+00 -0.00000000000E+00 -0.51447597225E+03  0.51447597225E+03  0.00000000000E+00 0. -1.
         23    2    1    2    0    0 -0.18543469735E+03  0.18033892538E+03 -0.17705018278E+03  0.33208753537E+03  0.10966863244E+03 0.  0.
         23    2    1    2    0    0  0.18543469735E+03 -0.18033892538E+03 -0.18049688581E+03  0.33931734053E+03  0.12509587049E+03 0.  0.
          5    1    4    4  502    0  0.18054873193E+03 -0.13821193098E+03 -0.18919325339E+03  0.29582417412E+03  0.41800000000E+01 0. -1.
         -5    1    4    4    0  502  0.48859654159E+01 -0.42126994401E+02  0.86963675844E+01  0.43493166411E+02  0.41800000000E+01 0. -1.
        -11    1    3    3    0    0 -0.16961514919E+03  0.15723608108E+03 -0.10349735292E+03  0.25338544964E+03  0.00000000000E+00 0.  1.
         11    1    3    3    0    0 -0.15819548157E+02  0.23102844299E+02 -0.73552829858E+02  0.78702085733E+02  0.00000000000E+00 0. -1.
</event>
<event>
 8    1  0.8061721E-006  0.9327378E+02  0.7561462E-02  0.1295112E+00
         -3   -1    0    0    0  501 -0.00000000000E+00  0.00000000000E+00  0.93937840075E+02  0.93937840075E+02  0.00000000000E+00 0. -1.
          3   -1    0    0  501    0  0.00000000000E+00 -0.00000000000E+00 -0.15819768616E+03  0.15819768616E+03  0.00000000000E+00 0.  1.
         23    2    1    2    0    0 -0.15653861896E+01  0.53594413464E+02 -0.14314593240E+02  0.10715815587E+03  0.91668703498E+02 0.  0.
         23    2    1    2    0    0  0.15653861896E+01 -0.53594413464E+02 -0.49945252848E+02  0.14497737037E+03  0.12509635506E+03 0.  0.
          5    1    4    4  502    0 -0.40430202849E+02 -0.62628232374E+02 -0.65279052023E+02  0.99175217800E+02  0.41800000000E+01 0.  1.
         -5    1    4    4    0  502  0.41995589039E+02  0.90338189101E+01  0.15333799175E+02  0.45802152569E+02  0.41800000000E+01 0.  1.
        -11    1    3    3    0    0 -0.22292606739E+02  0.28204985330E+02  0.33532270037E+02  0.49161922731E+02  0.00000000000E+00 0. -1.
         11    1    3    3    0    0  0.20727220549E+02  0.25389428133E+02 -0.47846863278E+02  0.57996233138E+02  0.00000000000E+00 0.  1.
</event>
<event>
 8    1  0.8061721E-006  0.1662420E+03  0.7561462E-02  0.1181824E+00
         -1   -1    0    0    0  501 -0.00000000000E+00  0.00000000000E+00  0.44021412022E+02  0.44021412022E+02  0.00000000000E+00 0.  1.
          1   -1    0    0  501    0  0.00000000000E+00 -0.00000000000E+00 -0.74266277160E+03  0.74266277160E+03  0.00000000000E+00 0. -1.
         23    2    1    2    0    0 -0.77737846919E+01  0.14482739634E+03 -0.31534237279E+03  0.35819744222E+03  0.88482704956E+02 0.  0.
         23    2    1    2    0    0  0.77737846919E+01 -0.14482739634E+03 -0.38329898679E+03  0.42848674140E+03  0.12508943930E+03 0.  0.
          5    1    4    4  502    0 -0.37933444318E+02 -0.41075636121E+01 -0.44505417416E+02  0.58770935470E+02  0.41800000000E+01 0. -1.
         -5    1    4    4    0  502  0.45707229010E+02 -0.14071983273E+03 -0.33879356937E+03  0.36971580593E+03  0.41800000000E+01 0. -1.
        -11    1    3    3    0    0  0.54423011531E+01  0.58342091326E+02 -0.44507744948E+02  0.73582318681E+02  0.00000000000E+00 0.  1.
         11    1    3    3    0    0 -0.13216085845E+02  0.86485305019E+02 -0.27083462784E+03  0.28461512354E+03  0.00000000000E+00 0. -1.
</event>
<event>
 8    1  0.8061721E-006  0.1568522E+03  0.7561462E-02  0.1192297E+00
         -1   -1    0    0    0  501 -0.00000000000E+00  0.00000000000E+00  0.32425726569E+02  0.32425726569E+02  0.00000000000E+00 0.  1.
          1   -1    0    0  501    0  0.00000000000E+00 -0.00000000000E+00 -0.16095234515E+04  0.16095234515E+04  0.00000000000E+00 0. -1.
         23    2    1    2    0    0  0.10050941619E+03  0.82509251735E+02 -0.21232092025E+03  0.26529642374E+03  0.91608405236E+02 0.  0.
         23    2    1    2    0    0 -0.10050941619E+03 -0.82509251735E+02 -0.13647768047E+04  0.13766527543E+04  0.12508860873E+03 0.  0.
          5    1    4    4  502    0 -0.10161599988E+03 -0.26598009397E+02 -0.11456968954E+04  0.11505095019E+04  0.41800000000E+01 0. -1.
         -5    1    4    4    0  502  0.11065836948E+01 -0.55911242339E+02 -0.21907990930E+03  0.22614325240E+03  0.41800000000E+01 0. -1.
        -11    1    3    3    0    0  0.36432462634E+02  0.80539641836E+02 -0.84437016706E+02  0.12224388750E+03  0.00000000000E+00 0.  1.
         11    1    3    3    0    0  0.64076953553E+02  0.19696098995E+01 -0.12788390354E+03  0.14305253624E+03  0.00000000000E+00 0. -1.
</event>
<event>
 8    1  0.8061721E-006  0.2615918E+03  0.7561462E-02  0.1106191E+00
          2   -1    0    0  501    0  0.00000000000E+00  0.00000000000E+00  0.17465404256E+03  0.17465404256E+03  0.00000000000E+00 0. -1.
         -2   -1    0    0    0  501 -0.00000000000E+00 -0.00000000000E+00 -0.46613361592E+03  0.46613361592E+03  0.00000000000E+00 0.  1.
         23    2    1    2    0    0  0.21996719235E+03  0.12451164210E+03 -0.22812434150E+03  0.35173670679E+03  0.88256903349E+02 0.  0.
         23    2    1    2    0    0 -0.21996719235E+03 -0.12451164210E+03 -0.63355231863E+02  0.28905095169E+03  0.12509137675E+03 0.  0.
          5    1    4    4  502    0 -0.37265639019E+02 -0.52422034029E+02  0.30526455922E+02  0.71317139696E+02  0.41800000000E+01 0. -1.
         -5    1    4    4    0  502 -0.18270155334E+03 -0.72089608067E+02 -0.93881687785E+02  0.21773381199E+03  0.41800000000E+01 0. -1.
        -11    1    3    3    0    0  0.12600229718E+03  0.31107639646E+02 -0.77625159984E+02  0.15122807148E+03  0.00000000000E+00 0.  1.
         11    1    3    3    0    0  0.93964895171E+02  0.93404002450E+02 -0.15049918152E+03  0.20050863532E+03  0.00000000000E+00 0. -1.
</event>
<event>
 8    1  0.8061721E-006  0.9070364E+02  0.7561462E-02  0.1301157E+00
          2   -1    0    0  501    0  0.00000000000E+00  0.00000000000E+00  0.11611245827E+04  0.11611245827E+04  0.00000000000E+00 0. -1.
         -2   -1    0    0    0  501 -0.00000000000E+00 -0.00000000000E+00 -0.12206247403E+02  0.12206247403E+02  0.00000000000E+00 0.  1.
         23    2    1    2    0    0  0.33966661963E+01 -0.98302324590E+01  0.19101448552E+03  0.20723839790E+03  0.79706016561E+02 0.  0.
         23    2    1    2    0    0 -0.33966661963E+01  0.98302324590E+01  0.95790384979E+03  0.96609243221E+03  0.12508649537E+03 0.  0.
          5    1    4    4  502    0  0.31864936485E+02 -0.41120600092E+02  0.64355147505E+03  0.64566419397E+03  0.41800000000E+01 0. -1.
         -5    1    4    4    0  502 -0.35261602681E+02  0.50950832551E+02  0.31435237474E+03  0.32042823824E+03  0.41800000000E+01 0. -1.
        -11    1    3    3    0    0 -0.15043914484E+02 -0.33726747579E+02  0.45375002387E+02  0.58503877708E+02  0.00000000000E+00 0.  1.
         11    1    3    3    0    0  0.18440580680E+02  0.23896515120E+02  0.14563948313E+03  0.14873452020E+03  0.00000000000E+00 0. -1.
</event>
<event>
 8    1  0.8061721E-006  0.1434773E+03  0.7561462E-02  0.1208725E+00
         -1   -1    0    0    0  501 -0.00000000000E+00  0.00000000000E+00  0.40166672610E+03  0.40166672610E+03  0.00000000000E+00 0.  1.
          1   -1    0    0  501    0  0.00000000000E+00 -0.00000000000E+00 -0.71548723432E+02  0.71548723432E+02  0.00000000000E+00 0. -1.
         23    2    1    2    0    0 -0.71563812118E+02 -0.75905777831E+02  0.26286292417E+03  0.29699619964E+03  0.90701485004E+02 0.  0.
         23    2    1    2    0    0  0.71563812118E+02  0.75905777831E+02  0.67255078501E+02  0.17621924990E+03  0.12508761784E+03 0.  0.
          5    1    4    4  502    0  0.27286443131E+01 -0.28853607438E+02 -0.74774748926E+01  0.30221866136E+02  0.41800000000E+01 0.  1.
         -5    1    4    4    0  502  0.68835167805E+02  0.10475938527E+03  0.74732553393E+02  0.14599738376E+03  0.41800000000E+01 0.  1.
        -11    1    3    3    0    0 -0.89251987803E+02 -0.54876203887E+02  0.23757447201E+03  0.25965158353E+03  0.00000000000E+00 0. -1.
         11    1    3    3    0    0  0.17688175685E+02 -0.21029573944E+02  0.25288452161E+02  0.37344616104E+02  0.00000000000E+00 0.  1.
</event>
<event>
 8    1  0.8061721E-006  0.6718007E+02  0.7561462E-02  0.1369954E+00
          2   -1    0    0  501    0  0.00000000000E+00  0.00000000000E+00  0.71152849384E+02  0.71152849384E+02  0.00000000000E+00 0. -1.
         -2   -1    0    0    0  501 -0.00000000000E+00 -0.00000000000E+00 -0.21931192658E+03  0.21931192658E+03  0.00000000000E+00 0.  1.
         23    2    1    2    0    0  0.24165789141E+02  0.53673981826E+02 -0.83437682148E+02  0.13781654071E+03  0.92556309355E+02 0.  0.
         23    2    1    2    0    0 -0.24165789141E+02 -0.53673981826E+02 -0.64721395047E+02  0.15264823525E+03  0.12509093916E+03 0.  0.
          5    1    4    4  502    0 -0.95133361255E+01 -0.32872863106E+02 -0.10180337555E+03  0.10748268868E+03  0.41800000000E+01 0.  1.
         -5    1    4    4    0  502 -0.14652453015E+02 -0.20801118720E+02  0.37081980500E+02  0.45165546573E+02  0.41800000000E+01 0.  1.
        -11    1    3    3    0    0 -0.81640003541E+01  0.36675334172E+02 -0.92792933217E+02  0.10011123560E+03  0.00000000000E+00 0.  1.
         11    1    3    3    0    0  0.32329789495E+02  0.16998647654E+02  0.93552510698E+01  0.37705305110E+02  0.00000000000E+00 0. -1.
</event>
<event>
 8    1  0.8061721E-006  0.9816244E+02  0.7561462E-02  0.1284208E+00
          1   -1    0    0  501    0  0.00000000000E+00  0.00000000000E+00  0.18079122012E+03  0.18079122012E+03  0.00000000000E+00 0. -1.
         -1   -1    0    0    0  501 -0.00000000000E+00 -0.00000000000E+00 -0.87174373745E+02  0.87174373745E+02  0.00000000000E+00 0.  1.
         23    2    1    2    0    0 -0.13845566439E+02 -0.41331405814E+02 -0.35711964378E+01  0.10366805631E+03  0.93991104034E+02 0.  0.
         23    2    1    2    0    0  0.13845566439E+02  0.41331405814E+02  0.97188042810E+02  0.16429753756E+03  0.12509268710E+03 0.  0.
          5    1    4    4  502    0 -0.11760267395E+02  0.69013120279E+02  0.10431059562E+03  0.12569521637E+03  0.41800000000E+01 0.  1.
         -5    1    4    4    0  502  0.25605833834E+02 -0.27681714465E+02 -0.71225528146E+01  0.38602321182E+02  0.41800000000E+01 0.  1.
        -11    1    3    3    0    0  0.24386919789E+02 -0.43595892771E+02  0.25024603575E+02  0.55870873515E+02  0.00000000000E+00 0. -1.
         11    1    3    3    0    0 -0.38232486228E+02  0.22644869565E+01 -0.28595800013E+02  0.47797182790E+02  0.00000000000E+00 0.  1.
</event>
<event>
 8    1  0.8061721E-006  0.1449181E+03  0.7561462E-02  0.1206860E+00
          1   -1    0    0  501    0  0.00000000000E+00  0.00000000000E+00  0.11650810276E+04  0.11650810276E+04  0.00000000000E+00 0. -1.
         -1   -1    0    0    0  501 -0.00000000000E+00 -0.00000000000E+00 -0.22038087346E+02  0.22038087346E+02  0.00000000000E+00 0.  1.
         23    2    1    2    0    0 -0.11355113676E+03  0.17794840168E+02  0.43736417438E+03  0.46128152431E+03  0.91009376647E+02 0.  0.
         23    2    1    2    0    0  0.11355113676E+03 -0.17794840168E+02  0.70567876592E+03  0.72583759069E+03  0.12508865013E+03 0.  0.
          5    1    4    4  502    0  0.24831746247E+02 -0.44640446129E+02  0.46625172086E+03  0.46906025696E+03  0.41800000000E+01 0. -1.
         -5    1    4    4    0  502  0.88719390511E+02  0.26845605961E+02  0.23942704506E+03  0.25677733373E+03  0.41800000000E+01 0. -1.
        -11    1    3    3    0    0 -0.10535109172E+03 -0.19905618238E+02  0.29911720428E+03  0.31775177113E+03  0.00000000000E+00 0. -1.
         11    1    3    3    0    0 -0.82000450391E+01  0.37700458406E+02  0.13824697010E+03  0.14352975317E+03  0.00000000000E+00 0.  1.
</event>
<event>
 8    1  0.8061721E-006  0.1576593E+03  0.7561462E-02  0.1191365E+00
          1   -1    0    0  501    0  0.00000000000E+00  0.00000000000E+00  0.44292294465E+03  0.44292294465E+03  0.00000000000E+00 0. -1.
         -1   -1    0    0    0  501 -0.00000000000E+00 -0.00000000000E+00 -0.19849532108E+03  0.19849532108E+03  0.00000000000E+00 0.  1.
         23    2    1    2    0    0 -0.45690622997E+02 -0.13956410445E+03 -0.13448282713E+03  0.22022556374E+03  0.94063254515E+02 0.  0.
         23    2    1    2    0    0  0.45690622997E+02  0.13956410445E+03  0.37891045070E+03  0.42119270199E+03  0.11074470767E+03 0.  0.
          5    1    4    4  502    0  0.52077341200E+02  0.83300038517E+02  0.33580436348E+03  0.34990425664E+03  0.41800000000E+01 0. -1.
         -5    1    4    4    0  502 -0.63867182029E+01  0.56264065932E+02  0.43106087224E+02  0.71288445349E+02  0.41800000000E+01 0.  1.
        -11    1    3    3    0    0 -0.29283131118E+02 -0.12082440949E+02  0.32386773182E+01  0.31842992606E+02  0.00000000000E+00 0. -1.
         11    1    3    3    0    0 -0.16407491879E+02 -0.12748166350E+03 -0.13772150445E+03  0.18838257113E+03  0.00000000000E+00 0.  1.
</event>
<event>
 8    1  0.8061721E-006  0.1246789E+03  0.7561462E-02  0.1235572E+00
         -4   -1    0    0    0  501 -0.00000000000E+00  0.00000000000E+00  0.17451895148E+03  0.17451895148E+03  0.00000000000E+00 0.  1.
          4   -1    0    0  501    0  0.00000000000E+00 -0.00000000000E+00 -0.14029860179E+03  0.14029860179E+03  0.00000000000E+00 0. -1.
         23    2    1    2    0    0  0.83549906813E+02  0.49861113076E+02  0.72946326791E+02  0.15166933675E+03  0.90640518498E+02 0.  0.
         23    2    1    2    0    0 -0.83549906813E+02 -0.49861113076E+02 -0.38725977104E+02  0.16314821651E+03  0.12510364392E+03 0.  0.
          5    1    4    4  502    0 -0.31556386147E+02  0.32810986933E+02  0.19131996949E+02  0.49556756123E+02  0.41800000000E+01 0.  1.
         -5    1    4    4    0  502 -0.51993520666E+02 -0.82672100009E+02 -0.57857974053E+02  0.11359146039E+03  0.41800000000E+01 0.  1.
        -11    1    3    3    0    0  0.36511282454E+02  0.45950530325E+02 -0.67163008635E+01  0.59073121476E+02  0.00000000000E+00 0. -1.
         11    1    3    3    0    0  0.47038624359E+02  0.39105827508E+01  0.79662627655E+02  0.92596215279E+02  0.00000000000E+00 0.  1.
</event>
<event>
 8    1  0.8061721E-006  0.1157163E+03  0.7561462E-02  0.1250336E+00
         -2   -1    0    0    0  501 -0.00000000000E+00  0.00000000000E+00  0.10217229627E+02  0.10217229627E+02  0.00000000000E+00 0.  1.
          2   -1    0    0  501    0  0.00000000000E+00 -0.00000000000E+00 -0.14678450308E+04  0.14678450308E+04  0.00000000000E+00 0. -1.
         23    2    1    2    0    0  0.34194164812E+02  0.23068474883E+02 -0.43225285660E+03  0.44425827433E+03  0.93922770548E+02 0.  0.
         23    2    1    2    0    0 -0.34194164812E+02 -0.23068474883E+02 -0.10253749445E+04  0.10338039860E+04  0.12512197760E+03 0.  0.
          5    1    4    4  502    0  0.33830968063E+02  0.29647210603E+02 -0.31510856201E+03  0.31833059820E+03  0.41800000000E+01 0. -1.
         -5    1    4    4    0  502 -0.68025132875E+02 -0.52715685486E+02 -0.71026638251E+03  0.71547338785E+03  0.41800000000E+01 0. -1.
        -11    1    3    3    0    0  0.49919991184E+01 -0.34862903411E+02 -0.20169994976E+03  0.20475158564E+03  0.00000000000E+00 0.  1.
         11    1    3    3    0    0  0.29202165693E+02  0.57931378294E+02 -0.23055290684E+03  0.23950668869E+03  0.00000000000E+00 0. -1.
</event>
<event>
 8    1  0.8061721E-006  0.1084694E+03  0.7561462E-02  0.1263431E+00
         -1   -1    0    0    0  501 -0.00000000000E+00  0.00000000000E+00  0.28571104657E+03  0.28571104657E+03  0.00000000000E+00 0.  1.
          1   -1    0    0  501    0  0.00000000000E+00 -0.00000000000E+00 -0.90900766323E+02  0.90900766323E+02  0.00000000000E+00 0. -1.
         23    2    1    2    0    0  0.76059316629E+02 -0.73554071463E+02  0.15713976726E+03  0.20850061722E+03  0.87088345096E+02 0.  0.
         23    2    1    2    0    0 -0.76059316629E+02  0.73554071463E+02  0.37670512992E+02  0.16811119568E+03  0.12508831076E+03 0.  0.
          5    1    4    4  502    0 -0.50753705733E+02  0.35856469246E+02  0.83031730108E+02  0.10379482471E+03  0.41800000000E+01 0. -1.
         -5    1    4    4    0  502 -0.25305610897E+02  0.37697602217E+02 -0.45361217117E+02  0.64316370965E+02  0.41800000000E+01 0. -1.
        -11    1    3    3    0    0  0.32035567721E+02 -0.49310563807E+02  0.14547050332E+03  0.15690594838E+03  0.00000000000E+00 0.  1.
         11    1    3    3    0    0  0.44023748908E+02 -0.24243507657E+02  0.11669263941E+02  0.51594668836E+02  0.00000000000E+00 0. -1.
</event>
<event>
 8    1  0.8462920E-006  0.1449375E+03  0.7561462E-02  0.1206835E+00
         -1   -1    0    0    0  501 -0.00000000000E+00  0.00000000000E+00  0.37222113761E+02  0.37222113761E+02  0.00000000000E+00 0.  1.
          1   -1    0    0  501    0  0.00000000000E+00 -0.00000000000E+00 -0.75036860521E+03  0.75036860521E+03  0.00000000000E+00 0. -1.
         23    2    1    2    0    0  0.33742158279E+02 -0.12177180069E+03 -0.35964400140E+03  0.39189045986E+03  0.90925354541E+02 0.  0.
         23    2    1    2    0    0 -0.33742158279E+02  0.12177180069E+03 -0.35350249005E+03  0.39570025911E+03  0.12509108641E+03 0.  0.
          5    1    4    4  502    0 -0.47255915726E+02  0.11979123583E+03 -0.17864431970E+03  0.22025968109E+03  0.41800000000E+01 0. -1.
         -5    1    4    4    0  502  0.13513757447E+02  0.19805648588E+01 -0.17485817035E+03  0.17544057801E+03  0.41800000000E+01 0. -1.
        -11    1    3    3    0    0  0.57758933566E+02 -0.82330680694E+02 -0.30032188587E+03  0.31671386222E+03  0.00000000000E+00 0. -1.
         11    1    3    3    0    0 -0.24016775286E+02 -0.39441119997E+02 -0.59322115526E+02  0.75176597637E+02  0.00000000000E+00 0.  1.
</event>
<event>
 8    1  0.8061721E-006  0.1183032E+03  0.7561462E-02  0.1245923E+00
          1   -1    0    0  501    0  0.00000000000E+00  0.00000000000E+00  0.83919793542E+03  0.83919793542E+03  0.00000000000E+00 0. -1.
         -1   -1    0    0    0  501 -0.00000000000E+00 -0.00000000000E+00 -0.21656445262E+02  0.21656445262E+02  0.00000000000E+00 0.  1.
         23    2    1    2    0    0  0.63410829950E+02 -0.18166235604E+02  0.22116389767E+03  0.24793967421E+03  0.90607212421E+02 0.  0.
         23    2    1    2    0    0 -0.63410829950E+02  0.18166235604E+02  0.59637759249E+03  0.61291470647E+03  0.12508900479E+03 0.  0.
          5    1    4    4  502    0 -0.82882792539E+02  0.54665974625E+02  0.44221096936E+03  0.45323938476E+03  0.41800000000E+01 0.  1.
         -5    1    4    4    0  502  0.19471962589E+02 -0.36499739022E+02  0.15416662313E+03  0.15967532171E+03  0.41800000000E+01 0.  1.
        -11    1    3    3    0    0  0.48385939940E+02  0.21714134465E+02  0.55028597403E+02  0.76425449633E+02  0.00000000000E+00 0.  1.
         11    1    3    3    0    0  0.15024890010E+02 -0.39880370068E+02  0.16613530027E+03  0.17151422458E+03  0.00000000000E+00 0. -1.
</event>
<event>
 8    1  0.8061721E-006  0.1043926E+03  0.7561462E-02  0.1271321E+00
          1   -1    0    0  501    0  0.00000000000E+00  0.00000000000E+00  0.12879090095E+03  0.12879090095E+03  0.00000000000E+00 0.  1.
         -1   -1    0    0    0  501 -0.00000000000E+00 -0.00000000000E+00 -0.15641811489E+03  0.15641811489E+03  0.00000000000E+00 0. -1.
         23    2    1    2    0    0  0.55308896185E+02  0.24611966756E+02 -0.80792086392E+02  0.13641880980E+03  0.91749155520E+02 0.  0.
         23    2    1    2    0    0 -0.55308896185E+02 -0.24611966756E+02  0.53164872450E+02  0.14879020605E+03  0.12508876388E+03 0.  0.
          5    1    4    4  502    0  0.23679818492E+02  0.30596325465E+02  0.31157240517E+02  0.49850927498E+02  0.41800000000E+01 0.  1.
         -5    1    4    4    0  502 -0.78988714678E+02 -0.55208292220E+02  0.22007631933E+02  0.98939278548E+02  0.41800000000E+01 0.  1.
        -11    1    3    3    0    0 -0.15161199911E+01  0.15839477818E+02  0.16805534416E+02  0.23143328723E+02  0.00000000000E+00 0.  1.
         11    1    3    3    0    0  0.56825016177E+02  0.87724889379E+01 -0.97597620808E+02  0.11327548108E+03  0.00000000000E+00 0. -1.
</event>
<event>
 8    1  0.8061721E-006  0.1519841E+03  0.7561462E-02  0.1198056E+00
         -1   -1    0    0    0  501 -0.00000000000E+00  0.00000000000E+00  0.45191596106E+02  0.45191596106E+02  0.00000000000E+00 0.  1.
          1   -1    0    0  501    0  0.00000000000E+00 -0.00000000000E+00 -0.82951250678E+03  0.82951250678E+03  0.00000000000E+00 0. -1.
         23    2    1    2    0    0  0.74349110241E+02  0.13208996202E+03 -0.25491910194E+03  0.31000160194E+03  0.90231349376E+02 0.  0.
         23    2    1    2    0    0 -0.74349110241E+02 -0.13208996202E+03 -0.52940180873E+03  0.56470250094E+03  0.12508833368E+03 0.  0.
          5    1    4    4  502    0 -0.15413989345E+02 -0.22296714527E+02 -0.31867644603E+03  0.31985447348E+03  0.41800000000E+01 0. -1.
         -5    1    4    4    0  502 -0.58935120896E+02 -0.10979324750E+03 -0.21072536269E+03  0.24484802746E+03  0.41800000000E+01 0. -1.
        -11    1    3    3    0    0  0.43041716835E+02  0.67018439599E+02 -0.21088074005E+03  0.22542126598E+03  0.00000000000E+00 0. -1.
         11    1    3    3    0    0  0.31307393406E+02  0.65071522424E+02 -0.44038361896E+02  0.84580335959E+02  0.00000000000E+00 0.  1.
</event>
<event>
 8    1  0.8061721E-006  0.1699505E+03  0.7561462E-02  0.1177899E+00
          2   -1    0    0  501    0  0.00000000000E+00  0.00000000000E+00  0.17185680465E+04  0.17185680465E+04  0.00000000000E+00 0. -1.
         -2   -1    0    0    0  501 -0.00000000000E+00 -0.00000000000E+00 -0.41404280442E+02  0.41404280442E+02  0.00000000000E+00 0.  1.
         23    2    1    2    0    0 -0.48831126919E+02 -0.13898649816E+03  0.17942221413E+03  0.24981368782E+03  0.92264955815E+02 0.  0.
         23    2    1    2    0    0  0.48831126919E+02  0.13898649816E+03  0.14977415519E+04  0.15101586391E+04  0.12509050048E+03 0.  0.
          5    1    4    4  502    0 -0.21765827310E+02  0.34709703584E+02  0.80496340551E+03  0.80601617315E+03  0.41800000000E+01 0. -1.
         -5    1    4    4    0  502  0.70596954229E+02  0.10427679458E+03  0.69277814637E+03  0.70414246592E+03  0.41800000000E+01 0. -1.
        -11    1    3    3    0    0 -0.61252541756E+02 -0.40444268592E+02  0.90296555323E+02  0.11636614902E+03  0.00000000000E+00 0.  1.
         11    1    3    3    0    0  0.12421414836E+02 -0.98542229572E+02  0.89125658807E+02  0.13344753881E+03  0.00000000000E+00 0. -1.
</event>
<event>
 8    1  0.8061721E-006  0.1027073E+03  0.7561462E-02  0.1274704E+00
          2   -1    0    0  501    0  0.00000000000E+00  0.00000000000E+00  0.58358455133E+03  0.58358455133E+03  0.00000000000E+00 0. -1.
         -2   -1    0    0    0  501 -0.00000000000E+00 -0.00000000000E+00 -0.30604058377E+02  0.30604058377E+02  0.00000000000E+00 0.  1.
         23    2    1    2    0    0 -0.71471892783E+02 -0.40549551144E+02  0.18229965107E+03  0.21443089446E+03  0.77427050608E+02 0.  0.
         23    2    1    2    0    0  0.71471892783E+02  0.40549551144E+02  0.37068084188E+03  0.39975771524E+03  0.12509774898E+03 0.  0.
          5    1    4    4  502    0  0.17640304349E+02  0.44234818134E+02  0.33775693490E+02  0.58533489078E+02  0.41800000000E+01 0. -1.
         -5    1    4    4    0  502  0.53831588434E+02 -0.36852669899E+01  0.33690514839E+03  0.34122422616E+03  0.41800000000E+01 0. -1.
        -11    1    3    3    0    0 -0.35173747931E+02  0.14091178166E+02  0.11219794538E+03  0.11842353142E+03  0.00000000000E+00 0. -1.
         11    1    3    3    0    0 -0.36298144851E+02 -0.54640729311E+02  0.70101705686E+02  0.96007363047E+02  0.00000000000E+00 0.  1.
</event>
<event>
 8    1  0.8061721E-006  0.1281471E+03  0.7561462E-02  0.1230231E+00
         -1   -1    0    0    0  501 -0.00000000000E+00  0.00000000000E+00  0.35807265909E+02  0.35807265909E+02  0.00000000000E+00 0.  1.
          1   -1    0    0  501    0  0.00000000000E+00 -0.00000000000E+00 -0.68869853562E+03  0.68869853562E+03  0.00000000000E+00 0. -1.
         23    2    1    2    0    0 -0.91003630061E+02 -0.27842017457E+02 -0.16302258671E+03  0.21003958147E+03  0.92105501396E+02 0.  0.
         23    2    1    2    0    0  0.91003630061E+02  0.27842017457E+02 -0.48986868300E+03  0.51446622006E+03  0.12508927361E+03 0.  0.
          5    1    4    4  502    0 -0.17642519677E+02  0.27506100536E+02 -0.40889743000E+02  0.52509880498E+02  0.41800000000E+01 0.  1.
         -5    1    4    4    0  502  0.10864614974E+03  0.33591692047E+00 -0.44897894000E+03  0.46195633956E+03  0.41800000000E+01 0.  1.
        -11    1    3    3    0    0 -0.47843094996E+02 -0.47301451157E+02 -0.40118469716E+02  0.78331862181E+02  0.00000000000E+00 0.  1.
         11    1    3    3    0    0 -0.43160535065E+02  0.19459433701E+02 -0.12290411699E+03  0.13170771929E+03  0.00000000000E+00 0. -1.
</event>
<event>
 8    1  0.8061721E-006  0.8385587E+02  0.7561462E-02  0.1318452E+00
          1   -1    0    0  501    0  0.00000000000E+00  0.00000000000E+00  0.13770666854E+03  0.13770666854E+03  0.00000000000E+00 0. -1.
         -1   -1    0    0    0  501 -0.00000000000E+00 -0.00000000000E+00 -0.11748066643E+03  0.11748066643E+03  0.00000000000E+00 0.  1.
         23    2    1    2    0    0  0.19712855576E+02  0.62724618154E+02 -0.18845657028E+02  0.10856811848E+03  0.84314311740E+02 0.  0.
         23    2    1    2    0    0 -0.19712855576E+02 -0.62724618154E+02  0.39071659139E+02  0.14661921650E+03  0.12509047006E+03 0.  0.
          5    1    4    4  502    0 -0.59211582733E+01 -0.79346147444E+02 -0.21207992123E+02  0.82450728071E+02  0.41800000000E+01 0. -1.
         -5    1    4    4    0  502 -0.13791697302E+02  0.16621529290E+02  0.60279651262E+02  0.64168488424E+02  0.41800000000E+01 0. -1.
        -11    1    3    3    0    0  0.52331106669E+01  0.91650250650E+01  0.31763533323E+02  0.33470960262E+02  0.00000000000E+00 0. -1.
         11    1    3    3    0    0  0.14479744909E+02  0.53559593089E+02 -0.50609190352E+02  0.75097158219E+02  0.00000000000E+00 0.  1.
</event>
<event>
 8    1  0.8061721E-006  0.1244279E+03  0.7561462E-02  0.1235966E+00
         -1   -1    0    0    0  501 -0.00000000000E+00  0.00000000000E+00  0.12836332270E+03  0.12836332270E+03  0.00000000000E+00 0.  1.
          1   -1    0    0  501    0  0.00000000000E+00 -0.00000000000E+00 -0.17926968897E+03  0.17926968897E+03  0.00000000000E+00 0. -1.
         23    2    1    2    0    0  0.68941579981E+02  0.40809736034E+02  0.49025996966E+02  0.12860964250E+03  0.87855083857E+02 0.  0.
         23    2    1    2    0    0 -0.68941579981E+02 -0.40809736034E+02 -0.99932363235E+02  0.17902336918E+03  0.12507802958E+03 0.  0.
          5    1    4    4  502    0 -0.93419095451E+02 -0.16014137369E+02 -0.10723506543E+03  0.14317964816E+03  0.41800000000E+01 0.  1.
         -5    1    4    4    0  502  0.24477515471E+02 -0.24795598666E+02  0.73027021943E+01  0.35843721014E+02  0.41800000000E+01 0.  1.
        -11    1    3    3    0    0  0.16072623687E+02 -0.27897432423E+02  0.12585716046E+02  0.34568717309E+02  0.00000000000E+00 0. -1.
         11    1    3    3    0    0  0.52868956293E+02  0.68707168457E+02  0.36440280920E+02  0.94040925189E+02  0.00000000000E+00 0.  1.
</event>
<event>
 8    1  0.8061721E-006  0.1501219E+03  0.7561462E-02  0.1200323E+00
         -1   -1    0    0    0  501 -0.00000000000E+00  0.00000000000E+00  0.58599529862E+02  0.58599529862E+02  0.00000000000E+00 0.  1.
          1   -1    0    0  501    0  0.00000000000E+00 -0.00000000000E+00 -0.94981339850E+03  0.94981339850E+03  0.00000000000E+00 0. -1.
         23    2    1    2    0    0 -0.82963471630E+02 -0.99293919893E+02 -0.79675003531E+02  0.17715841029E+03  0.91075660838E+02 0.  0.
         23    2    1    2    0    0  0.82963471630E+02  0.99293919893E+02 -0.81153886511E+03  0.83125451807E+03  0.12508606668E+03 0.  0.
          5    1    4    4  502    0 -0.26709689182E+02  0.29538864389E+02 -0.96363893837E+02  0.10435240506E+03  0.41800000000E+01 0.  1.
         -5    1    4    4    0  502  0.10967316081E+03  0.69755055505E+02 -0.71517497127E+03  0.72690211301E+03  0.41800000000E+01 0.  1.
        -11    1    3    3    0    0 -0.54913793984E+02 -0.75601370104E+02 -0.45619128122E+01  0.93551605971E+02  0.00000000000E+00 0.  1.
         11    1    3    3    0    0 -0.28049677646E+02 -0.23692549790E+02 -0.75113090719E+02  0.83606804322E+02  0.00000000000E+00 0. -1.
</event>
<event>
 8    1  0.8061721E-006  0.9408068E+02  0.7561462E-02  0.1293260E+00
          1   -1    0    0  501    0  0.00000000000E+00  0.00000000000E+00  0.56294918731E+02  0.56294918731E+02  0.00000000000E+00 0. -1.
         -1   -1    0    0    0  501 -0.00000000000E+00 -0.00000000000E+00 -0.22470093733E+03  0.22470093733E+03  0.00000000000E+00 0.  1.
         23    2    1    2    0    0  0.17058853368E+02 -0.92458445030E+01 -0.89427628905E+02  0.13179077103E+03  0.94842060278E+02 0.  0.
         23    2    1    2    0    0 -0.17058853368E+02  0.92458445030E+01 -0.78978389696E+02  0.14920508504E+03  0.12509229090E+03 0.  0.
          5    1    4    4  502    0 -0.10237663453E+02  0.56380357466E+02 -0.83309933673E+02  0.10120065173E+03  0.41800000000E+01 0. -1.
         -5    1    4    4    0  502 -0.68211899148E+01 -0.47134512963E+02  0.43315439779E+01  0.48004433310E+02  0.41800000000E+01 0. -1.
        -11    1    3    3    0    0  0.49018912260E+02 -0.13013256211E+02 -0.18644274446E+02  0.54035243740E+02  0.00000000000E+00 0. -1.
         11    1    3    3    0    0 -0.31960058892E+02  0.37674117085E+01 -0.70783354459E+02  0.77755527288E+02  0.00000000000E+00 0.  1.
</event>
<event>
 8    1  0.8061721E-006  0.2176545E+03  0.7561462E-02  0.1135644E+00
         -2   -1    0    0    0  501 -0.00000000000E+00  0.00000000000E+00  0.77065099296E+02  0.77065099296E+02  0.00000000000E+00 0.  1.
          2   -1    0    0  501    0  0.00000000000E+00 -0.00000000000E+00 -0.74069194907E+03  0.74069194907E+03  0.00000000000E+00 0. -1.
         23    2    1    2    0    0  0.20778263434E+03  0.37465686716E+02 -0.36372896698E+03  0.43024759633E+03  0.90757544695E+02 0.  0.
         23    2    1    2    0    0 -0.20778263434E+03 -0.37465686716E+02 -0.29989788280E+03  0.38750945204E+03  0.12509010551E+03 0.  0.
          5    1    4    4  502    0 -0.21886465475E+02  0.16669756501E+02  0.30036579899E+01  0.27989149936E+02  0.41800000000E+01 0. -1.
         -5    1    4    4    0  502 -0.18589616886E+03 -0.54135443217E+02 -0.30290154079E+03  0.35952030210E+03  0.41800000000E+01 0. -1.
        -11    1    3    3    0    0  0.86167431383E+02  0.32528163913E+02 -0.81865114761E+02  0.12322663955E+03  0.00000000000E+00 0.  1.
         11    1    3    3    0    0  0.12161520295E+03  0.49375228027E+01 -0.28186385221E+03  0.30702095679E+03  0.00000000000E+00 0. -1.
</event>
<event>
 8    1  0.8061721E-006  0.1290413E+03  0.7561462E-02  0.1228885E+00
         -1   -1    0    0    0  501 -0.00000000000E+00  0.00000000000E+00  0.38615233053E+02  0.38615233053E+02  0.00000000000E+00 0.  1.
          1   -1    0    0  501    0  0.00000000000E+00 -0.00000000000E+00 -0.57408323218E+03  0.57408323218E+03  0.00000000000E+00 0. -1.
         23    2    1    2    0    0 -0.11884855350E+02  0.81329125970E+02 -0.11187880764E+03  0.16631530470E+03  0.91587316044E+02 0.  0.
         23    2    1    2    0    0  0.11884855350E+02 -0.81329125970E+02 -0.42358919149E+03  0.44638316054E+03  0.11434354527E+03 0.  0.
          5    1    4    4  502    0 -0.32183540209E+02 -0.86376378806E+02 -0.23186983390E+03  0.24955510684E+03  0.41800000000E+01 0. -1.
         -5    1    4    4    0  502  0.44068395559E+02  0.50472528353E+01 -0.19171935758E+03  0.19682805369E+03  0.41800000000E+01 0.  1.
        -11    1    3    3    0    0 -0.48825371396E+02  0.63881589491E+02 -0.60223336488E+02  0.10045707852E+03  0.00000000000E+00 0.  1.
         11    1    3    3    0    0  0.36940516046E+02  0.17447536479E+02 -0.51655471149E+02  0.65858226172E+02  0.00000000000E+00 0. -1.
</event>
<event>
 8    1  0.8061721E-006  0.1055173E+03  0.7561462E-02  0.1269104E+00
          2   -1    0    0  501    0  0.00000000000E+00  0.00000000000E+00  0.11516310064E+03  0.11516310064E+03  0.00000000000E+00 0.  1.
         -2   -1    0    0    0  501 -0.00000000000E+00 -0.00000000000E+00 -0.17507016718E+03  0.17507016718E+03  0.00000000000E+00 0. -1.
         23    2    1    2    0    0  0.21240629907E+00  0.89621937191E+02 -0.46567880278E+02  0.13577049298E+03  0.90735453647E+02 0.  0.
         23    2    1    2    0    0 -0.21240629907E+00 -0.89621937191E+02 -0.13339186269E+02  0.15446277484E+03  0.12509467686E+03 0.  0.
          5    1    4    4  502    0  0.27973978909E+02 -0.19181823334E+02 -0.57270224623E+02  0.66692105011E+02  0.41800000000E+01 0.  1.
         -5    1    4    4    0  502 -0.28186385208E+02 -0.70440113858E+02  0.43931038353E+02  0.87770669829E+02  0.41800000000E+01 0.  1.
        -11    1    3    3    0    0 -0.14643671091E+02  0.58078057898E+01  0.21588799535E+02  0.26725343337E+02  0.00000000000E+00 0.  1.
         11    1    3    3    0    0  0.14856077390E+02  0.83814131401E+02 -0.68156679813E+02  0.10904514965E+03  0.00000000000E+00 0. -1.
</event>
<event>
 8    1  0.8061721E-006  0.1906153E+03  0.7561462E-02  0.1157908E+00
         -1   -1    0    0    0  501 -0.00000000000E+00  0.00000000000E+00  0.48043128114E+02  0.48043128114E+02  0.00000000000E+00 0.  1.
          1   -1    0    0  501    0  0.00000000000E+00 -0.00000000000E+00 -0.79859728597E+03  0.79859728597E+03  0.00000000000E+00 0. -1.
         23    2    1    2    0    0  0.55421485298E+02  0.13813142738E+03 -0.35283487132E+03  0.40394392697E+03  0.12855511445E+03 0.  0.
         23    2    1    2    0    0 -0.55421485298E+02 -0.13813142738E+03 -0.39771928654E+03  0.44269648712E+03  0.12509083323E+03 0.  0.
          5    1    4    4  502    0 -0.88630626666E+02 -0.10499621063E+03 -0.22499658673E+03  0.26366745850E+03  0.41800000000E+01 0.  1.
         -5    1    4    4    0  502  0.33209141368E+02 -0.33135216749E+02 -0.17272269981E+03  0.17902902862E+03  0.41800000000E+01 0.  1.
        -11    1    3    3    0    0  0.22093271363E+02  0.15687843987E+03 -0.28344307908E+03  0.32471362247E+03  0.00000000000E+00 0.  1.
         11    1    3    3    0    0  0.33328213935E+02 -0.18747012490E+02 -0.69391792236E+02  0.79230304500E+02  0.00000000000E+00 0. -1.
</event>
<event>
 8    1  0.8061721E-006  0.9764156E+02  0.7561462E-02  0.1285335E+00
         -1   -1    0    0    0  501 -0.00000000000E+00  0.00000000000E+00  0.10245775387E+03  0.10245775387E+03  0.00000000000E+00 0.  1.
          1   -1    0    0  501    0  0.00000000000E+00 -0.00000000000E+00 -0.17566324294E+03  0.17566324294E+03  0.00000000000E+00 0. -1.
         23    2    1    2    0    0  0.64049991523E+02  0.43955227238E+02 -0.14604074351E+02  0.11964048682E+03  0.89811489709E+02 0.  0.
         23    2    1    2    0    0 -0.64049991523E+02 -0.43955227238E+02 -0.58601414713E+02  0.15848050998E+03  0.12508989896E+03 0.  0.
          5    1    4    4  502    0 -0.46797550989E+02 -0.13153367898E+01 -0.90754385193E+02  0.10220357979E+03  0.41800000000E+01 0.  1.
         -5    1    4    4    0  502 -0.17252440534E+02 -0.42639890449E+02  0.32152970480E+02  0.56276930198E+02  0.41800000000E+01 0.  1.
        -11    1    3    3    0    0  0.31878162586E+02  0.58627498767E+02 -0.38424826994E+02  0.77005637398E+02  0.00000000000E+00 0. -1.
         11    1    3    3    0    0  0.32171828938E+02 -0.14672271528E+02  0.23820752643E+02  0.42634849425E+02  0.00000000000E+00 0.  1.
</event>
<event>
 8    1  0.8061721E-006  0.2462463E+03  0.7561462E-02  0.1115700E+00
          1   -1    0    0  501    0  0.00000000000E+00  0.00000000000E+00  0.34021076247E+03  0.34021076247E+03  0.00000000000E+00 0. -1.
         -1   -1    0    0    0  501 -0.00000000000E+00 -0.00000000000E+00 -0.21928953903E+03  0.21928953903E+03  0.00000000000E+00 0.  1.
         23    2    1    2    0    0 -0.13711402980E+03  0.18374770287E+03 -0.43842948330E+02  0.25069877216E+03  0.91455971758E+02 0.  0.
         23    2    1    2    0    0  0.13711402980E+03 -0.18374770287E+03  0.16476417177E+03  0.30880152934E+03  0.12509067410E+03 0.  0.
          5    1    4    4  502    0  0.85898766091E+02 -0.19040296766E+03  0.12475278090E+03  0.24333642730E+03  0.41800000000E+01 0. -1.
         -5    1    4    4    0  502  0.51215263706E+02  0.66552647883E+01  0.40011390873E+02  0.65465102043E+02  0.41800000000E+01 0. -1.
        -11    1    3    3    0    0 -0.11225340660E+02  0.35676022327E+02  0.24464636902E+02  0.44691221742E+02  0.00000000000E+00 0. -1.
         11    1    3    3    0    0 -0.12588868914E+03  0.14807168054E+03 -0.68307585232E+02  0.20600755042E+03  0.00000000000E+00 0.  1.
</event>
<event>
 7    1  0.8061721E-006  0.1182117E+03  0.7561462E-02  0.1246077E+00
         -1   -1    0    0    0  501 -0.00000000000E+00  0.00000000000E+00  0.95618854012E+01  0.95618854012E+01  0.00000000000E+00 0.  1.
          1   -1    0    0  501    0  0.00000000000E+00 -0.00000000000E+00 -0.21266845481E+04  0.21266845481E+04  0.00000000000E+00 0. -1.
         23    2    1    2    0    0 -0.40291885468E+02 -0.11837079699E+02 -0.35905251449E+03  0.37279449923E+03  0.91068534638E+02 0.  0.
          5    1    1    2  502    0  0.67120547092E+02  0.54430965646E+02 -0.10261523256E+04  0.10297931664E+04  0.41800000000E+01 0. -1.
         -5    1    1    2    0  502 -0.26828661623E+02 -0.42593885947E+02 -0.73191782262E+03  0.73365876787E+03  0.41800000000E+01 0.  1.
        -11    1    3    3    0    0  0.13474594455E+02 -0.37477159740E+02 -0.12018440493E+03  0.12661118981E+03  0.00000000000E+00 0.  1.
         11    1    3    3    0    0 -0.53766479923E+02  0.25640080041E+02 -0.23886810956E+03  0.24618330942E+03  0.00000000000E+00 0. -1.
</event>
<event>
 8    1  0.8061721E-006  0.9321679E+02  0.7561462E-02  0.1295244E+00
          3   -1    0    0  501    0  0.00000000000E+00  0.00000000000E+00  0.79938316080E+03  0.79938316080E+03  0.00000000000E+00 0. -1.
         -3   -1    0    0    0  501 -0.00000000000E+00 -0.00000000000E+00 -0.31990911459E+02  0.31990911459E+02  0.00000000000E+00 0.  1.
         23    2    1    2    0    0  0.18938963509E+00  0.36479568090E+02  0.79923236408E+02  0.13166496416E+03  0.98067039886E+02 0.  0.
         23    2    1    2    0    0 -0.18938963509E+00 -0.36479568090E+02  0.68746901293E+03  0.69970910810E+03  0.12509355483E+03 0.  0.
          5    1    4    4  502    0  0.33432447252E+02 -0.23527814961E+01  0.49468461307E+02  0.59898791091E+02  0.41800000000E+01 0. -1.
         -5    1    4    4    0  502 -0.33621836887E+02 -0.34126786594E+02  0.63800055163E+03  0.63981031701E+03  0.41800000000E+01 0. -1.
        -11    1    3    3    0    0  0.32325193435E+02  0.57645304592E+02  0.48306370917E+02  0.81862108104E+02  0.00000000000E+00 0. -1.
         11    1    3    3    0    0 -0.32135803799E+02 -0.21165736502E+02  0.31616865491E+02  0.49802856052E+02  0.00000000000E+00 0.  1.
</event>
<event>
 8    1  0.8061721E-006  0.9160877E+02  0.7561462E-02  0.1299002E+00
          2   -1    0    0  501    0  0.00000000000E+00  0.00000000000E+00  0.86264619133E+03  0.86264619133E+03  0.00000000000E+00 0. -1.
         -2   -1    0    0    0  501 -0.00000000000E+00 -0.00000000000E+00 -0.21367807606E+02  0.21367807606E+02  0.00000000000E+00 0.  1.
         23    2    1    2    0    0 -0.50700289878E+02 -0.60500818979E+02  0.29591585987E+03  0.31894857675E+03  0.89056891923E+02 0.  0.
         23    2    1    2    0    0  0.50700289878E+02  0.60500818979E+02  0.54536252386E+03  0.56506542219E+03  0.12509108854E+03 0.  0.
          5    1    4    4  502    0 -0.14448030115E+01  0.33065984416E+02  0.25844991127E+02  0.42200506484E+02  0.41800000000E+01 0.  1.
         -5    1    4    4    0  502  0.52145092890E+02  0.27434834563E+02  0.51951753273E+03  0.52286491570E+03  0.41800000000E+01 0.  1.
        -11    1    3    3    0    0 -0.45686212724E+02 -0.19822821405E+02  0.53498229373E+02  0.73090593291E+02  0.00000000000E+00 0.  1.
         11    1    3    3    0    0 -0.50140771541E+01 -0.40677997574E+02  0.24241763049E+03  0.24585798346E+03  0.00000000000E+00 0. -1.
</event>
<event>
 8    1  0.8061721E-006  0.1734726E+03  0.7561462E-02  0.1174274E+00
          2   -1    0    0  501    0  0.00000000000E+00  0.00000000000E+00  0.31071097325E+03  0.31071097325E+03  0.00000000000E+00 0. -1.
         -2   -1    0    0    0  501 -0.00000000000E+00 -0.00000000000E+00 -0.10467267193E+03  0.10467267193E+03  0.00000000000E+00 0.  1.
         23    2    1    2    0    0 -0.10664507067E+03  0.97389643206E+02  0.11224337943E+03  0.20252937375E+03  0.86957790362E+02 0.  0.
         23    2    1    2    0    0  0.10664507067E+03 -0.97389643206E+02  0.93794921885E+02  0.21285427143E+03  0.12510611413E+03 0.  0.
          5    1    4    4  502    0  0.16143344292E+02  0.24218005410E+02 -0.76781809918E+01  0.30389903164E+02  0.41800000000E+01 0. -1.
         -5    1    4    4    0  502  0.90501726380E+02 -0.12160764862E+03  0.10147310288E+03  0.18246436827E+03  0.41800000000E+01 0. -1.
        -11    1    3    3    0    0 -0.80480079235E+00  0.49870975528E+02  0.17894178908E+02  0.52990221204E+02  0.00000000000E+00 0.  1.
         11    1    3    3    0    0 -0.10584026988E+03  0.47518667678E+02  0.94349200524E+02  0.14953915255E+03  0.00000000000E+00 0. -1.
</event>
<event>
 8    1  0.8061721E-006  0.1262347E+03  0.7561462E-02  0.1233152E+00
          1   -1    0    0  501    0  0.00000000000E+00  0.00000000000E+00  0.15519746053E+03  0.15519746053E+03  0.00000000000E+00 0. -1.
         -1   -1    0    0    0  501 -0.00000000000E+00 -0.00000000000E+00 -0.13946835767E+03  0.13946835767E+03  0.00000000000E+00 0.  1.
         23    2    1    2    0    0 -0.19413812195E+02  0.82861566926E+02 -0.49952245176E+02  0.12975241730E+03  0.84246825575E+02 0.  0.
         23    2    1    2    0    0  0.19413812195E+02 -0.82861566926E+02  0.65681348033E+02  0.16491340090E+03  0.12505780640E+03 0.  0.
          5    1    4    4  502    0  0.58935899602E+02 -0.89147795530E+02  0.64011107182E+02  0.12464214356E+03  0.41800000000E+01 0. -1.
         -5    1    4    4    0  502 -0.39522087407E+02  0.62862286038E+01  0.16702408511E+01  0.40271257338E+02  0.41800000000E+01 0. -1.
        -11    1    3    3    0    0 -0.37352877379E+02  0.25616216057E+02 -0.52960449085E+02  0.69686707060E+02  0.00000000000E+00 0.  1.
         11    1    3    3    0    0  0.17939065184E+02  0.57245350869E+02  0.30082039086E+01  0.60065710239E+02  0.00000000000E+00 0. -1.
</event>
<event>
 8    1  0.8061721E-006  0.1001008E+03  0.7561462E-02  0.1280084E+00
          2   -1    0    0  501    0  0.00000000000E+00  0.00000000000E+00  0.83214905749E+02  0.83214905749E+02  0.00000000000E+00 0.  1.
         -2   -1    0    0    0  501 -0.00000000000E+00 -0.00000000000E+00 -0.16389577368E+03  0.16389577368E+03  0.00000000000E+00 0. -1.
         23    2    1    2    0    0  0.99717486444E+01 -0.38540028519E+02 -0.55825678821E+02  0.11350849116E+03  0.90459391884E+02 0.  0.
         23    2    1    2    0    0 -0.99717486444E+01  0.38540028519E+02 -0.24855189110E+02  0.13360218827E+03  0.12508794792E+03 0.  0.
          5    1    4    4  502    0 -0.25795399883E+02  0.65221379285E+02 -0.55696754427E+02  0.89659532816E+02  0.41800000000E+01 0.  1.
         -5    1    4    4    0  502  0.15823651239E+02 -0.26681350766E+02  0.30841565317E+02  0.43942655455E+02  0.41800000000E+01 0.  1.
        -11    1    3    3    0    0 -0.17690612262E+01 -0.67430556926E+02 -0.41431316057E+02  0.79161629185E+02  0.00000000000E+00 0. -1.
         11    1    3    3    0    0  0.11740809871E+02  0.28890528407E+02 -0.14394362765E+02  0.34346861974E+02  0.00000000000E+00 0.  1.
</event>
<event>
 8    1  0.8061721E-006  0.8525850E+02  0.7561462E-02  0.1314758E+00
         -1   -1    0    0    0  501 -0.00000000000E+00  0.00000000000E+00  0.25029124723E+02  0.25029124723E+02  0.00000000000E+00 0.  1.
          1   -1    0    0  501    0  0.00000000000E+00 -0.00000000000E+00 -0.76058583576E+03  0.76058583576E+03  0.00000000000E+00 0. -1.
         23    2    1    2    0    0 -0.14080090771E+02 -0.44120167784E+02 -0.12757788305E+03  0.16317728199E+03  0.90586262497E+02 0.  0.
         23    2    1    2    0    0  0.14080090771E+02  0.44120167784E+02 -0.60797882799E+03  0.62243767849E+03  0.12508225360E+03 0.  0.
          5    1    4    4  502    0 -0.17229113995E+02  0.48404330017E+02 -0.57220606357E+03  0.57452334428E+03  0.41800000000E+01 0. -1.
         -5    1    4    4    0  502  0.31309204766E+02 -0.42841622338E+01 -0.35772764415E+02  0.47914334212E+02  0.41800000000E+01 0. -1.
        -11    1    3    3    0    0  0.19976212094E+02 -0.48786013590E+02 -0.32150826373E+02  0.61747872903E+02  0.00000000000E+00 0.  1.
         11    1    3    3    0    0 -0.34056302865E+02  0.46658458066E+01 -0.95427056677E+02  0.10142940909E+03  0.00000000000E+00 0. -1.
</event>
<event>
 8    1  0.8061721E-006  0.9916686E+02  0.7561462E-02  0.1282058E+00
          2   -1    0    0  501    0  0.00000000000E+00  0.00000000000E+00  0.53757940002E+03  0.53757940002E+03  0.00000000000E+00 0. -1.
         -2   -1    0    0    0  501 -0.00000000000E+00 -0.00000000000E+00 -0.26689423601E+02  0.26689423601E+02  0.00000000000E+00 0.  1.
         23    2    1    2    0    0  0.38726441177E+02 -0.15020025628E+02  0.15023255756E+03  0.18028065063E+03  0.90586716605E+02 0.  0.
         23    2    1    2    0    0 -0.38726441177E+02  0.15020025628E+02  0.36065741886E+03  0.38398817299E+03  0.12509118595E+03 0.  0.
          5    1    4    4  502    0  0.29598896425E+02  0.31855515250E+02  0.54638692495E+02  0.69955183074E+02  0.41800000000E+01 0. -1.
         -5    1    4    4    0  502 -0.68325337602E+02 -0.16835489622E+02  0.30601872636E+03  0.31403298991E+03  0.41800000000E+01 0. -1.
        -11    1    3    3    0    0  0.20504983455E+02  0.29571664052E+02  0.19442388115E+02  0.40901639538E+02  0.00000000000E+00 0.  1.
         11    1    3    3    0    0  0.18221457722E+02 -0.44591689680E+02  0.13079016945E+03  0.13937901109E+03  0.00000000000E+00 0. -1.
</event>
<event>
 8    1  0.8061721E-006  0.1100483E+03  0.7561462E-02  0.1260481E+00
         -2   -1    0    0    0  501 -0.00000000000E+00  0.00000000000E+00  0.15332627728E+02  0.15332627728E+02  0.00000000000E+00 0.  1.
          2   -1    0    0  501    0  0.00000000000E+00 -0.00000000000E+00 -0.12830171116E+04  0.12830171116E+04  0.00000000000E+00 0. -1.
         23    2    1    2    0    0  0.47211610302E+02  0.32579572003E+02 -0.35353499023E+03  0.37533239606E+03  0.11223659635E+03 0.  0.
         23    2    1    2    0    0 -0.47211610302E+02 -0.32579572003E+02 -0.91414949365E+03  0.92301734328E+03  0.11402348258E+03 0.  0.
          5    1    4    4  502    0 -0.77390815387E+02 -0.45744984399E+02 -0.76160500617E+03  0.76690390515E+03  0.41800000000E+01 0. -1.
         -5    1    4    4    0  502  0.30179205085E+02  0.13165412395E+02 -0.15254448748E+03  0.15611343813E+03  0.41800000000E+01 0.  1.
        -11    1    3    3    0    0 -0.11207682283E+02  0.36672739060E+02 -0.36524047332E+02  0.52957605364E+02  0.00000000000E+00 0.  1.
         11    1    3    3    0    0  0.58419292586E+02 -0.40931670565E+01 -0.31701094289E+03  0.32237479070E+03  0.00000000000E+00 0. -1.
</event>
<event>
 8    1  0.8061721E-006  0.1304787E+03  0.7561462E-02  0.1226747E+00
         -3   -1    0    0    0  501 -0.00000000000E+00  0.00000000000E+00  0.34917955099E+03  0.34917955099E+03  0.00000000000E+00 0.  1.
          3   -1    0    0  501    0  0.00000000000E+00 -0.00000000000E+00 -0.69564338149E+02  0.69564338149E+02  0.00000000000E+00 0. -1.
         23    2    1    2    0    0 -0.92135756903E+02 -0.29577140886E+02  0.20543699889E+03  0.24406105481E+03  0.89429486191E+02 0.  0.
         23    2    1    2    0    0  0.92135756903E+02  0.29577140886E+02  0.74178213956E+02  0.17468283433E+03  0.12509148740E+03 0.  0.
          5    1    4    4  502    0  0.70087084921E+02 -0.26519187296E+02 -0.48446207117E+01  0.75209105283E+02  0.41800000000E+01 0.  1.
         -5    1    4    4    0  502  0.22048671982E+02  0.56096328182E+02  0.79022834668E+02  0.99473729047E+02  0.41800000000E+01 0.  1.
        -11    1    3    3    0    0 -0.74872671809E+02  0.16162168654E+02  0.86906699923E+02  0.11584432300E+03  0.00000000000E+00 0. -1.
         11    1    3    3    0    0 -0.17263085095E+02 -0.45739309540E+02  0.11853029897E+03  0.12821673181E+03  0.00000000000E+00 0.  1.
</event>
<event>
 8    1  0.8061721E-006  0.1465149E+03  0.7561462E-02  0.1204822E+00
         -1   -1    0    0    0  501 -0.00000000000E+00  0.00000000000E+00  0.23031050720E+02  0.23031050720E+02  0.00000000000E+00 0.  1.
          1   -1    0    0  501    0  0.00000000000E+00 -0.00000000000E+00 -0.10223102208E+04  0.10223102208E+04  0.00000000000E+00 0. -1.
         23    2    1    2    0    0  0.88756987021E+02 -0.60741987979E+02 -0.41942862971E+03  0.44247975838E+03  0.91107460237E+02 0.  0.
         23    2    1    2    0    0 -0.88756987021E+02  0.60741987979E+02 -0.57985054041E+03  0.60286151318E+03  0.12509181830E+03 0.  0.
          5    1    4    4  502    0 -0.42604920486E+01 -0.32853856203E+02 -0.68897610806E+02  0.76562920756E+02  0.41800000000E+01 0.  1.
         -5    1    4    4    0  502 -0.84496494972E+02  0.93595844182E+02 -0.51095292960E+03  0.52629859242E+03  0.41800000000E+01 0.  1.
        -11    1    3    3    0    0  0.96192168551E+02 -0.28412112959E+02 -0.36681660197E+03  0.38028226482E+03  0.00000000000E+00 0. -1.
         11    1    3    3    0    0 -0.74351815299E+01 -0.32329875019E+02 -0.52612027737E+02  0.62197493565E+02  0.00000000000E+00 0.  1.
</event>
<event>
 8    1  0.8061721E-006  0.1005892E+03  0.7561462E-02  0.1279062E+00
         -2   -1    0    0    0  501 -0.00000000000E+00  0.00000000000E+00  0.15251177321E+02  0.15251177321E+02  0.00000000000E+00 0.  1.
          2   -1    0    0  501    0  0.00000000000E+00 -0.00000000000E+00 -0.10274451225E+04  0.10274451225E+04  0.00000000000E+00 0. -1.
         23    2    1    2    0    0  0.14855048190E+02 -0.16656431879E+02 -0.20814510724E+03  0.22866926423E+03  0.92017050361E+02 0.  0.
         23    2    1    2    0    0 -0.14855048190E+02  0.16656431879E+02 -0.80404883793E+03  0.81402703558E+03  0.12508945478E+03 0.  0.
          5    1    4    4  502    0  0.52544605001E+02 -0.91609796416E+00 -0.24281414153E+03  0.24847123471E+03  0.41800000000E+01 0.  1.
         -5    1    4    4    0  502 -0.67399653191E+02  0.17572529843E+02 -0.56123469639E+03  0.56555580086E+03  0.41800000000E+01 0.  1.
        -11    1    3    3    0    0  0.45789765762E+02 -0.73373457750E+01 -0.54022082016E+02  0.71196380785E+02  0.00000000000E+00 0.  1.
         11    1    3    3    0    0 -0.30934717572E+02 -0.93190861037E+01 -0.15412302523E+03  0.15747288345E+03  0.00000000000E+00 0. -1.
</event>
<event>
 8    1  0.8061721E-006  0.1502259E+03  0.7561462E-02  0.1200196E+00
          1   -1    0    0  501    0  0.00000000000E+00  0.00000000000E+00  0.38033398566E+03  0.38033398566E+03  0.00000000000E+00 0. -1.
         -1   -1    0    0    0  501 -0.00000000000E+00 -0.00000000000E+00 -0.69560905979E+02  0.69560905979E+02  0.00000000000E+00 0.  1.
         23    2    1    2    0    0 -0.10956069744E+03  0.56021272708E+01  0.87526917717E+02  0.17146838111E+03  0.98516567860E+02 0.  0.
         23    2    1    2    0    0  0.10956069744E+03 -0.56021272708E+01  0.22324616197E+03  0.27842651053E+03  0.12509013823E+03 0.  0.
          5    1    4    4  502    0  0.27537825268E+02  0.49153829025E+02  0.36688109006E+02  0.67364088881E+02  0.41800000000E+01 0.  1.
         -5    1    4    4    0  502  0.82022872167E+02 -0.54755956296E+02  0.18655805296E+03  0.21106242165E+03  0.41800000000E+01 0.  1.
        -11    1    3    3    0    0 -0.10175415155E+02 -0.36069933810E+02  0.36183651619E+02  0.52094489566E+02  0.00000000000E+00 0. -1.
         11    1    3    3    0    0 -0.99385282281E+02  0.41672061081E+02  0.51343266098E+02  0.11937389154E+03  0.00000000000E+00 0.  1.
</event>
<event>
 8    1  0.8061721E-006  0.1377320E+03  0.7561462E-02  0.1216414E+00
          2   -1    0    0  501    0  0.00000000000E+00  0.00000000000E+00  0.14549338033E+04  0.14549338033E+04  0.00000000000E+00 0. -1.
         -2   -1    0    0    0  501 -0.00000000000E+00 -0.00000000000E+00 -0.19351614454E+02  0.19351614454E+02  0.00000000000E+00 0.  1.
         23    2    1    2    0    0  0.74863918991E+02  0.96280281477E+02  0.49192341123E+03  0.51459044666E+03  0.89107723039E+02 0.  0.
         23    2    1    2    0    0 -0.74863918991E+02 -0.96280281477E+02  0.94365877766E+03  0.95969497114E+03  0.12509216607E+03 0.  0.
          5    1    4    4  502    0 -0.32481620521E+02 -0.65474990202E+02  0.18124982717E+03  0.19547634706E+03  0.41800000000E+01 0.  1.
         -5    1    4    4    0  502 -0.42382298470E+02 -0.30805291274E+02  0.76240895049E+03  0.76421862408E+03  0.41800000000E+01 0.  1.
        -11    1    3    3    0    0 -0.32830383538E+01  0.65691689186E+02  0.25076815362E+03  0.25925054145E+03  0.00000000000E+00 0. -1.
         11    1    3    3    0    0  0.78146957345E+02  0.30588592291E+02  0.24115525761E+03  0.25533990521E+03  0.00000000000E+00 0.  1.
</event>
<event>
 8    1  0.8061721E-006  0.9739240E+02  0.7561462E-02  0.1285877E+00
          1   -1    0    0  501    0  0.00000000000E+00  0.00000000000E+00  0.60703445607E+02  0.60703445607E+02  0.00000000000E+00 0. -1.
         -1   -1    0    0    0  501 -0.00000000000E+00 -0.00000000000E+00 -0.20098114082E+03  0.20098114082E+03  0.00000000000E+00 0.  1.
         23    2    1    2    0    0  0.45598894910E+01  0.11643244979E+02 -0.82431097448E+02  0.12332222155E+03  0.90868733651E+02 0.  0.
         23    2    1    2    0    0 -0.45598894910E+01 -0.11643244979E+02 -0.57846597761E+02  0.13836236488E+03  0.12506621205E+03 0.  0.
          5    1    4    4  502    0 -0.28036362260E+02  0.39826429254E+02 -0.64845452041E+02  0.81207063278E+02  0.41800000000E+01 0.  1.
         -5    1    4    4    0  502  0.23476472769E+02 -0.51469674234E+02  0.69988542795E+01  0.57155301597E+02  0.41800000000E+01 0.  1.
        -11    1    3    3    0    0  0.41125806288E+02  0.27338545614E+02 -0.31047887953E+02  0.58332661224E+02  0.00000000000E+00 0. -1.
         11    1    3    3    0    0 -0.36565916797E+02 -0.15695300635E+02 -0.51383209495E+02  0.64989560325E+02  0.00000000000E+00 0.  1.
</event>
<event>
 8    1  0.8061721E-006  0.1491644E+03  0.7561462E-02  0.1201504E+00
          2   -1    0    0  501    0  0.00000000000E+00  0.00000000000E+00  0.88581181662E+03  0.88581181662E+03  0.00000000000E+00 0. -1.
         -2   -1    0    0    0  501 -0.00000000000E+00 -0.00000000000E+00 -0.36671341295E+02  0.36671341295E+02  0.00000000000E+00 0.  1.
         23    2    1    2    0    0 -0.24860890480E+02 -0.13099538301E+03  0.26598299592E+03  0.31133875439E+03  0.91689757439E+02 0.  0.
         23    2    1    2    0    0  0.24860890480E+02  0.13099538301E+03  0.58315747940E+03  0.61114440352E+03  0.12508789681E+03 0.  0.
          5    1    4    4  502    0 -0.72451781894E+01  0.56339800376E+02  0.64109560460E+02  0.85756479964E+02  0.41800000000E+01 0. -1.
         -5    1    4    4    0  502  0.32106068670E+02  0.74655582637E+02  0.51904791894E+03  0.52538792356E+03  0.41800000000E+01 0. -1.
        -11    1    3    3    0    0  0.17716408202E+02 -0.11196989200E+03  0.16600664390E+03  0.20102072942E+03  0.00000000000E+00 0.  1.
         11    1    3    3    0    0 -0.42577298682E+02 -0.19025491010E+02  0.99976352021E+02  0.11031802498E+03  0.00000000000E+00 0. -1.
</event>
<event>
 8    1  0.8061721E-006  0.1093760E+03  0.7561462E-02  0.1261730E+00
          4   -1    0    0  501    0  0.00000000000E+00  0.00000000000E+00  0.27237502595E+03  0.27237502595E+03  0.00000000000E+00 0. -1.
         -4   -1    0    0    0  501 -0.00000000000E+00 -0.00000000000E+00 -0.69954765342E+02  0.69954765342E+02  0.00000000000E+00 0.  1.
         23    2    1    2    0    0  0.56627723677E+02 -0.57833506009E+02  0.67611412656E+02  0.14140253335E+03  0.94191081380E+02 0.  0.
         23    2    1    2    0    0 -0.56627723677E+02  0.57833506009E+02  0.13480884795E+03  0.20092725794E+03  0.12508766522E+03 0.  0.
          5    1    4    4  502    0  0.29604191826E+01 -0.20798666898E+02 -0.11577031135E+02  0.24348484067E+02  0.41800000000E+01 0. -1.
         -5    1    4    4    0  502 -0.59588142859E+02  0.78632172907E+02  0.14638587909E+03  0.17657877387E+03  0.41800000000E+01 0. -1.
        -11    1    3    3    0    0  0.43913879809E+02 -0.68915629278E+02  0.84489061685E+02  0.11754230874E+03  0.00000000000E+00 0. -1.
         11    1    3    3    0    0  0.12713843868E+02  0.11082123269E+02 -0.16877649029E+02  0.23860224618E+02  0.00000000000E+00 0.  1.
</event>
<event>
 8    1  0.8061721E-006  0.1379653E+03  0.7561462E-02  0.1216093E+00
          2   -1    0    0  501    0  0.00000000000E+00  0.00000000000E+00  0.50903033517E+03  0.50903033517E+03  0.00000000000E+00 0. -1.
         -2   -1    0    0    0  501 -0.00000000000E+00 -0.00000000000E+00 -0.59881165516E+02  0.59881165516E+02  0.00000000000E+00 0.  1.
         23    2    1    2    0    0 -0.10121959700E+03  0.34709457248E+02  0.10933038708E+03  0.19132158491E+03  0.11489413420E+03 0.  0.
         23    2    1    2    0    0  0.10121959700E+03 -0.34709457248E+02  0.33981878258E+03  0.37758991578E+03  0.12508871358E+03 0.  0.
          5    1    4    4  502    0  0.10119907956E+03 -0.12449720894E+02  0.12402618689E+03  0.16061200668E+03  0.41800000000E+01 0. -1.
         -5    1    4    4    0  502  0.20517439018E-01 -0.22259736354E+02  0.21579259569E+03  0.21697790910E+03  0.41800000000E+01 0. -1.
        -11    1    3    3    0    0 -0.53470946218E+02 -0.37041343698E+02  0.73040469676E+02  0.97806510228E+02  0.00000000000E+00 0. -1.
         11    1    3    3    0    0 -0.47748650783E+02  0.71750800946E+02  0.36289917402E+02  0.93515074683E+02  0.00000000000E+00 0.  1.
</event>
<event>
 8    1  0.8061721E-006  0.9832185E+02  0.7561462E-02  0.1283865E+00
         -2   -1    0    0    0  501 -0.00000000000E+00  0.00000000000E+00  0.35606646791E+02  0.35606646791E+02  0.00000000000E+00 0.  1.
          2   -1    0    0  501    0  0.00000000000E+00 -0.00000000000E+00 -0.35184823068E+03  0.35184823068E+03  0.00000000000E+00 0. -1.
         23    2    1    2    0    0  0.68149160468E+01 -0.78227255359E+01 -0.92019648017E+02  0.13048973790E+03  0.91936488728E+02 0.  0.
         23    2    1    2    0    0 -0.68149160468E+01  0.78227255359E+01 -0.22422193587E+03  0.25696513957E+03  0.12509183952E+03 0.  0.
          5    1    4    4  502    0  0.37979207327E+02 -0.38172383937E+02 -0.60747232172E+02  0.81284990627E+02  0.41800000000E+01 0. -1.
         -5    1    4    4    0  502 -0.44794123374E+02  0.45995109473E+02 -0.16347470370E+03  0.17568014895E+03  0.41800000000E+01 0. -1.
        -11    1    3    3    0    0 -0.13806576553E+02 -0.38742696373E+02 -0.12948113725E+02  0.43119273271E+02  0.00000000000E+00 0.  1.
         11    1    3    3    0    0  0.20621492600E+02  0.30919970837E+02 -0.79071534292E+02  0.87370464626E+02  0.00000000000E+00 0. -1.
</event>
<event>
 8    1  0.8061721E-006  0.1786833E+03  0.7561462E-02  0.1169083E+00
          2   -1    0    0  501    0  0.00000000000E+00  0.00000000000E+00  0.17182254341E+04  0.17182254341E+04  0.00000000000E+00 0. -1.
         -2   -1    0    0    0  501 -0.00000000000E+00 -0.00000000000E+00 -0.23593313639E+02  0.23593313639E+02  0.00000000000E+00 0.  1.
         23    2    1    2    0    0 -0.25059975606E+02  0.17145778482E+03  0.89127604329E+03  0.91175586448E+03  0.83066218874E+02 0.  0.
         23    2    1    2    0    0  0.25059975606E+02 -0.17145778482E+03  0.80335607712E+03  0.83006288321E+03  0.11660887222E+03 0.  0.
          5    1    4    4  502    0  0.22533788771E+02 -0.13182812151E+03  0.75763742835E+03  0.76936231419E+03  0.41800000000E+01 0. -1.
         -5    1    4    4    0  502  0.25261868345E+01 -0.39629663309E+02  0.45718648772E+02  0.60700569021E+02  0.41800000000E+01 0.  1.
        -11    1    3    3    0    0  0.16145782330E+02  0.15718661431E+02  0.45501097190E+02  0.50775116442E+02  0.00000000000E+00 0.  1.
         11    1    3    3    0    0 -0.41205757936E+02  0.15573912339E+03  0.84577494610E+03  0.86098074804E+03  0.00000000000E+00 0. -1.
</event>
<event>
 7    1  0.8061721E-006  0.1592564E+03  0.7561462E-02  0.1189539E+00
         -1   -1    0    0    0  501 -0.00000000000E+00  0.00000000000E+00  0.64654643409E+02  0.64654643409E+02  0.00000000000E+00 0.  1.
          1   -1    0    0  501    0  0.00000000000E+00 -0.00000000000E+00 -0.40477618135E+03  0.40477618135E+03  0.00000000000E+00 0. -1.
         23    2    1    2    0    0 -0.38283285894E+02 -0.11770951461E+02 -0.13786111962E+03  0.16996660803E+03  0.90987879772E+02 0.  0.
          5    1    1    2  502    0  0.65566451515E+02  0.10485665532E+03 -0.11456250888E+03  0.16862953054E+03  0.41800000000E+01 0. -1.
         -5    1    1    2    0  502 -0.27283165622E+02 -0.93085703860E+02 -0.87697909443E+02  0.13083468619E+03  0.41800000000E+01 0.  1.
        -11    1    3    3    0    0 -0.62068500080E+02  0.12919233600E+02 -0.10386461809E+03  0.12168510258E+03  0.00000000000E+00 0.  1.
         11    1    3    3    0    0  0.23785214187E+02 -0.24690185061E+02 -0.33996501528E+02  0.48281505448E+02  0.00000000000E+00 0. -1.
</event>
<event>
 8    1  0.8061721E-006  0.1613359E+03  0.7561462E-02  0.1187197E+00
          1   -1    0    0  501    0  0.00000000000E+00  0.00000000000E+00  0.42954560371E+03  0.42954560371E+03  0.00000000000E+00 0. -1.
         -1   -1    0    0    0  501 -0.00000000000E+00 -0.00000000000E+00 -0.62987097633E+02  0.62987097633E+02  0.00000000000E+00 0.  1.
         23    2    1    2    0    0 -0.11899998084E+03 -0.27015884898E+02  0.13484007802E+03  0.20229974864E+03  0.88614266242E+02 0.  0.
         23    2    1    2    0    0  0.11899998084E+03  0.27015884898E+02  0.23171842805E+03  0.29023295270E+03  0.12510349098E+03 0.  0.
          5    1    4    4  502    0  0.10343976040E+03  0.70660738830E+02  0.19073309709E+03  0.22823082782E+03  0.41800000000E+01 0. -1.
         -5    1    4    4    0  502  0.15560220438E+02 -0.43644853932E+02  0.40985330965E+02  0.62002124876E+02  0.41800000000E+01 0. -1.
        -11    1    3    3    0    0 -0.28458125652E+02  0.31927756267E+02  0.37848843000E+02  0.57112007952E+02  0.00000000000E+00 0.  1.
         11    1    3    3    0    0 -0.90541855191E+02 -0.58943641165E+02  0.96991235019E+02  0.14518774069E+03  0.00000000000E+00 0. -1.
</event>
<event>
 8    1  0.8061721E-006  0.1173119E+03  0.7561462E-02  0.1247599E+00
          1   -1    0    0  501    0  0.00000000000E+00  0.00000000000E+00  0.63202601271E+03  0.63202601271E+03  0.00000000000E+00 0. -1.
         -1   -1    0    0    0  501 -0.00000000000E+00 -0.00000000000E+00 -0.26221684654E+02  0.26221684654E+02  0.00000000000E+00 0.  1.
         23    2    1    2    0    0  0.36994516143E+02 -0.58564018720E+02  0.25698534684E+03  0.28126080137E+03  0.90927616167E+02 0.  0.
         23    2    1    2    0    0 -0.36994516143E+02  0.58564018720E+02  0.34881898122E+03  0.37698689600E+03  0.12508436986E+03 0.  0.
          5    1    4    4  502    0  0.44613123376E+02  0.27521537437E+02  0.16998330230E+03  0.17793133862E+03  0.41800000000E+01 0. -1.
         -5    1    4    4    0  502 -0.81607639519E+02  0.31042481283E+02  0.17883567892E+03  0.19905555738E+03  0.41800000000E+01 0. -1.
        -11    1    3    3    0    0  0.93132553438E+00 -0.58555353485E+02  0.72080359055E+02  0.92871820002E+02  0.00000000000E+00 0.  1.
         11    1    3    3    0    0  0.36063190609E+02 -0.86652354362E-02  0.18490498779E+03  0.18838898137E+03  0.00000000000E+00 0. -1.
</event>
<event>
 8    1  0.8061721E-006  0.1033293E+03  0.7561462E-02  0.1273447E+00
          2   -1    0    0  501    0  0.00000000000E+00  0.00000000000E+00  0.57324324387E+03  0.57324324387E+03  0.00000000000E+00 0. -1.
         -2   -1    0    0    0  501 -0.00000000000E+00 -0.00000000000E+00 -0.28376497168E+02  0.28376497168E+02  0.00000000000E+00 0.  1.
         23    2    1    2    0    0  0.64736814716E+02  0.17148498412E+02  0.19950716220E+03  0.22824325337E+03  0.88356939535E+02 0.  0.
         23    2    1    2    0    0 -0.64736814716E+02 -0.17148498412E+02  0.34535958450E+03  0.37337648766E+03  0.12510728498E+03 0.  0.
          5    1    4    4  502    0 -0.21504671322E+02 -0.51677382381E+02  0.58012576305E+02  0.80721336386E+02  0.41800000000E+01 0.  1.
         -5    1    4    4    0  502 -0.43232143395E+02  0.34528883968E+02  0.28734700820E+03  0.29265515128E+03  0.41800000000E+01 0.  1.
        -11    1    3    3    0    0  0.16123586724E+02  0.38656733919E+02  0.14951253000E+03  0.15526850857E+03  0.00000000000E+00 0. -1.
         11    1    3    3    0    0  0.48613227992E+02 -0.21508235506E+02  0.49994632197E+02  0.72974744802E+02  0.00000000000E+00 0.  1.
</event>
<event>
 8    1  0.8061721E-006  0.9232820E+02  0.7561462E-02  0.1297310E+00
          2   -1    0    0  501    0  0.00000000000E+00  0.00000000000E+00  0.16099757413E+03  0.16099757413E+03  0.00000000000E+00 0. -1.
         -2   -1    0    0    0  501 -0.00000000000E+00 -0.00000000000E+00 -0.86277382546E+02  0.86277382546E+02  0.00000000000E+00 0.  1.
         23    2    1    2    0    0 -0.44746445260E+02 -0.55173109328E+01  0.21980719870E+02  0.10422753968E+03  0.91364888761E+02 0.  0.
         23    2    1    2    0    0  0.44746445260E+02  0.55173109328E+01  0.52739471710E+02  0.14304741699E+03  0.12509367110E+03 0.  0.
          5    1    4    4  502    0  0.16687928525E+01  0.45435766205E+02 -0.19675398162E+02  0.49717073658E+02  0.41800000000E+01 0. -1.
         -5    1    4    4    0  502  0.43077652407E+02 -0.39918455273E+02  0.72414869872E+02  0.93330343334E+02  0.41800000000E+01 0. -1.
        -11    1    3    3    0    0 -0.28448104092E+02 -0.35801970103E+02 -0.20040326724E+02  0.49926850340E+02  0.00000000000E+00 0.  1.
         11    1    3    3    0    0 -0.16298341168E+02  0.30284659170E+02  0.42021046594E+02  0.54300689339E+02  0.00000000000E+00 0. -1.
</event>
<event>
 8    1  0.8061721E-006  0.2648938E+03  0.7561462E-02  0.1104238E+00
          2   -1    0    0  501    0  0.00000000000E+00  0.00000000000E+00  0.14180399085E+04  0.14180399085E+04  0.00000000000E+00 0. -1.
         -2   -1    0    0    0  501 -0.00000000000E+00 -0.00000000000E+00 -0.51507625058E+02  0.51507625058E+02  0.00000000000E+00 0.  1.
         23    2    1    2    0    0 -0.24334169926E+03  0.41229679249E+02  0.63628176001E+03  0.68863239452E+03  0.91896831362E+02 0.  0.
         23    2    1    2    0    0  0.24334169926E+03 -0.41229679249E+02  0.73025052338E+03  0.78091513899E+03  0.12509020083E+03 0.  0.
          5    1    4    4  502    0  0.16530565255E+03 -0.84724147224E+02  0.45402015875E+03  0.49056693411E+03  0.41800000000E+01 0.  1.
         -5    1    4    4    0  502  0.78036046710E+02  0.43494467975E+02  0.27623036463E+03  0.29034820488E+03  0.41800000000E+01 0.  1.
        -11    1    3    3    0    0 -0.99495676321E+02 -0.13982215034E+02  0.16908166448E+03  0.19668121722E+03  0.00000000000E+00 0.  1.
         11    1    3    3    0    0 -0.14384602294E+03  0.55211894283E+02  0.46720009553E+03  0.49195117730E+03  0.00000000000E+00 0. -1.
</event>
<event>
 8    1  0.8061721E-006  0.1391137E+03  0.7561462E-02  0.1214527E+00
          1   -1    0    0  501    0  0.00000000000E+00  0.00000000000E+00  0.43420710619E+03  0.43420710619E+03  0.00000000000E+00 0. -1.
         -1   -1    0    0    0  501 -0.00000000000E+00 -0.00000000000E+00 -0.64529745738E+02  0.64529745738E+02  0.00000000000E+00 0.  1.
         23    2    1    2    0    0  0.26256517372E+02  0.90122900402E+02  0.39812380694E+02  0.13742317421E+03  0.92133388472E+02 0.  0.
         23    2    1    2    0    0 -0.26256517372E+02 -0.90122900402E+02  0.32986497975E+03  0.36131367772E+03  0.11368872836E+03 0.  0.
          5    1    4    4  502    0 -0.67388614233E+02 -0.79008151497E+02  0.21704846851E+03  0.24064709309E+03  0.41800000000E+01 0. -1.
         -5    1    4    4    0  502  0.41132096861E+02 -0.11114748905E+02  0.11281651125E+03  0.12066658463E+03  0.41800000000E+01 0.  1.
        -11    1    3    3    0    0 -0.17278638578E+02  0.86044203876E+02  0.24930084943E+02  0.91234124685E+02  0.00000000000E+00 0.  1.
         11    1    3    3    0    0  0.43535155950E+02  0.40786965262E+01  0.14882295751E+02  0.46189049522E+02  0.00000000000E+00 0. -1.
</event>
<event>
 8    1  0.8061721E-006  0.8476947E+02  0.7561462E-02  0.1316036E+00
         -4   -1    0    0    0  501 -0.00000000000E+00  0.00000000000E+00  0.10844014977E+03  0.10844014977E+03  0.00000000000E+00 0.  1.
          4   -1    0    0  501    0  0.00000000000E+00 -0.00000000000E+00 -0.12405675812E+03  0.12405675812E+03  0.00000000000E+00 0. -1.
         23    2    1    2    0    0 -0.16246096848E+02  0.31118575030E+02  0.13981191143E+02  0.99251107252E+02  0.91776942694E+02 0.  0.
         23    2    1    2    0    0  0.16246096848E+02 -0.31118575030E+02 -0.29597799488E+02  0.13324580063E+03  0.12508442060E+03 0.  0.
          5    1    4    4  502    0  0.20462709162E+02 -0.51791071985E+02 -0.68751437987E+02  0.88573530069E+02  0.41800000000E+01 0. -1.
         -5    1    4    4    0  502 -0.42166123139E+01  0.20672496955E+02  0.39153638499E+02  0.44672270566E+02  0.41800000000E+01 0. -1.
        -11    1    3    3    0    0 -0.35724642353E+02  0.52347507821E+02 -0.67820723481E+01  0.63737807867E+02  0.00000000000E+00 0. -1.
         11    1    3    3    0    0  0.19478545505E+02 -0.21228932791E+02  0.20763263491E+02  0.35513299385E+02  0.00000000000E+00 0.  1.
</event>
<event>
 8    1  0.8061721E-006  0.9179206E+02  0.7561462E-02  0.1298569E+00
          3   -1    0    0  501    0  0.00000000000E+00  0.00000000000E+00  0.60925860778E+02  0.60925860778E+02  0.00000000000E+00 0. -1.
         -3   -1    0    0    0  501 -0.00000000000E+00 -0.00000000000E+00 -0.26431596752E+03  0.26431596752E+03  0.00000000000E+00 0.  1.
         23    2    1    2    0    0  0.52052033883E+02  0.41044878765E+02 -0.92406831515E+02  0.14535364761E+03  0.90523831446E+02 0.  0.
         23    2    1    2    0    0 -0.52052033883E+02 -0.41044878765E+02 -0.11098327523E+03  0.17988818068E+03  0.12509346052E+03 0.  0.
          5    1    4    4  502    0 -0.25314730350E+02 -0.53236667297E+02 -0.13125437105E+03  0.14394499171E+03  0.41800000000E+01 0.  1.
         -5    1    4    4    0  502 -0.26737303534E+02  0.12191788532E+02  0.20271095825E+02  0.35943188976E+02  0.41800000000E+01 0.  1.
        -11    1    3    3    0    0  0.13771005812E+02  0.52953663713E+02 -0.89828432298E+02  0.10518021844E+03  0.00000000000E+00 0.  1.
         11    1    3    3    0    0  0.38281028072E+02 -0.11908784948E+02 -0.25783992171E+01  0.40173429175E+02  0.00000000000E+00 0. -1.
</event>
<event>
 8    1  0.8061721E-006  0.4008249E+02  0.7561462E-02  0.1507605E+00
          2   -1    0    0  501    0  0.00000000000E+00  0.00000000000E+00  0.59345322965E+03  0.59345322965E+03  0.00000000000E+00 0. -1.
         -2   -1    0    0    0  501 -0.00000000000E+00 -0.00000000000E+00 -0.22462733321E+02  0.22462733321E+02  0.00000000000E+00 0.  1.
         23    2    1    2    0    0 -0.27175578520E+00  0.47200889043E+01  0.11975320195E+03  0.14763789405E+03  0.86219286068E+02 0.  0.
         23    2    1    2    0    0  0.27175578520E+00 -0.47200889043E+01  0.45123729438E+03  0.46827806893E+03  0.12508757296E+03 0.  0.
          5    1    4    4  502    0 -0.40181665483E+00  0.13383206367E+02 -0.24252933948E+01  0.14234680092E+02  0.41800000000E+01 0. -1.
         -5    1    4    4    0  502  0.67357244003E+00 -0.18103295271E+02  0.45366258777E+03  0.45404338883E+03  0.41800000000E+01 0. -1.
        -11    1    3    3    0    0  0.16440113778E+02 -0.14610078225E+02  0.12008550415E+03  0.12208300469E+03  0.00000000000E+00 0. -1.
         11    1    3    3    0    0 -0.16711869563E+02  0.19330167129E+02 -0.33230219376E+00  0.25554889361E+02  0.00000000000E+00 0.  1.
</event>
<event>
 8    1  0.8061721E-006  0.7580807E+02  0.7561462E-02  0.1341387E+00
         -1   -1    0    0    0  501 -0.00000000000E+00  0.00000000000E+00  0.33516137364E+02  0.33516137364E+02  0.00000000000E+00 0.  1.
          1   -1    0    0  501    0  0.00000000000E+00 -0.00000000000E+00 -0.39442593127E+03  0.39442593127E+03  0.00000000000E+00 0. -1.
         23    2    1    2    0    0  0.71592499162E+01  0.10726215742E+02 -0.87209392077E+02  0.12673589638E+03  0.91050550802E+02 0.  0.
         23    2    1    2    0    0 -0.71592499162E+01 -0.10726215742E+02 -0.27370040183E+03  0.30120617225E+03  0.12508773593E+03 0.  0.
          5    1    4    4  502    0  0.95490464856E+01  0.53501777586E+02 -0.16509195968E+03  0.17385756252E+03  0.41800000000E+01 0. -1.
         -5    1    4    4    0  502 -0.16708296402E+02 -0.64227993328E+02 -0.10860844214E+03  0.12734860973E+03  0.41800000000E+01 0. -1.
        -11    1    3    3    0    0  0.17869506700E+02  0.55203379048E+01 -0.10426788265E+03  0.10593198172E+03  0.00000000000E+00 0. -1.
         11    1    3    3    0    0 -0.10710256784E+02  0.52058778377E+01  0.17058490571E+02  0.20803914655E+02  0.00000000000E+00 0.  1.
</event>
<event>
 8    1  0.8061721E-006  0.3739859E+03  0.7561462E-02  0.1053179E+00
         -1   -1    0    0    0  501 -0.00000000000E+00  0.00000000000E+00  0.46851881851E+03  0.46851881851E+03  0.00000000000E+00 0.  1.
          1   -1    0    0  501    0  0.00000000000E+00 -0.00000000000E+00 -0.61330982900E+03  0.61330982900E+03  0.00000000000E+00 0. -1.
         23    2    1    2    0    0  0.34404688820E+03  0.12924930984E+03  0.30593663965E+03  0.48695343741E+03  0.91938987096E+02 0.  0.
         23    2    1    2    0    0 -0.34404688820E+03 -0.12924930984E+03 -0.45072765013E+03  0.59487521010E+03  0.12508979022E+03 0.  0.
          5    1    4    4  502    0 -0.12514939262E+03 -0.97689093462E+02 -0.12986088128E+03  0.20515079903E+03  0.41800000000E+01 0. -1.
         -5    1    4    4    0  502 -0.21889749558E+03 -0.31560216379E+02 -0.32086676885E+03  0.38972441107E+03  0.41800000000E+01 0. -1.
        -11    1    3    3    0    0  0.29504830233E+03  0.10406953518E+03  0.29653933459E+03  0.43106791323E+03  0.00000000000E+00 0.  1.
         11    1    3    3    0    0  0.48998585874E+02  0.25179774666E+02  0.93973050529E+01  0.55885524174E+02  0.00000000000E+00 0. -1.
</event>
<event>
 8    1  0.8061721E-006  0.1133193E+03  0.7561462E-02  0.1254544E+00
          2   -1    0    0  501    0  0.00000000000E+00  0.00000000000E+00  0.15806104060E+04  0.15806104060E+04  0.00000000000E+00 0. -1.
         -2   -1    0    0    0  501 -0.00000000000E+00 -0.00000000000E+00 -0.15957228488E+02  0.15957228488E+02  0.00000000000E+00 0.  1.
         23    2    1    2    0    0 -0.34081525617E+01 -0.80363825362E+02  0.29891433705E+03  0.32211916325E+03  0.89112370099E+02 0.  0.
         23    2    1    2    0    0  0.34081525617E+01  0.80363825362E+02  0.12657388405E+04  0.12744484713E+04  0.12511648042E+03 0.  0.
          5    1    4    4  502    0 -0.21410946840E+02  0.91747879856E+02  0.11916789898E+04  0.11954046968E+04  0.41800000000E+01 0.  1.
         -5    1    4    4    0  502  0.24819099402E+02 -0.11384054494E+02  0.74059850694E+02  0.79043774433E+02  0.41800000000E+01 0.  1.
        -11    1    3    3    0    0 -0.33274257073E+02 -0.59846852523E+02  0.26034390914E+03  0.26919838961E+03  0.00000000000E+00 0.  1.
         11    1    3    3    0    0  0.29866104511E+02 -0.20516972839E+02  0.38570427907E+02  0.52920773634E+02  0.00000000000E+00 0. -1.
</event>
<event>
 8    1  0.8061721E-006  0.1696957E+03  0.7561462E-02  0.1178166E+00
         -2   -1    0    0    0  501 -0.00000000000E+00  0.00000000000E+00  0.91219064739E+02  0.91219064739E+02  0.00000000000E+00 0.  1.
          2   -1    0    0  501    0  0.00000000000E+00 -0.00000000000E+00 -0.33812177805E+03  0.33812177805E+03  0.00000000000E+00 0. -1.
         23    2    1    2    0    0  0.14716016137E+03  0.40455805808E+01 -0.91754065996E+02  0.18523459173E+03  0.64965879742E+02 0.  0.
         23    2    1    2    0    0 -0.14716016137E+03 -0.40455805808E+01 -0.15514864732E+03  0.24410625106E+03  0.11766171521E+03 0.  0.
          5    1    4    4  502    0 -0.70197289001E+02 -0.52915492280E+02 -0.11393989153E+03  0.14397041359E+03  0.41800000000E+01 0. -1.
         -5    1    4    4    0  502 -0.76962872369E+02  0.48869911700E+02 -0.41208755784E+02  0.10013583747E+03  0.41800000000E+01 0.  1.
        -11    1    3    3    0    0  0.82325315231E+00 -0.12792278929E+02 -0.12763436396E+02  0.18089374079E+02  0.00000000000E+00 0. -1.
         11    1    3    3    0    0  0.14633690822E+03  0.16837859510E+02 -0.78990629600E+02  0.16714521765E+03  0.00000000000E+00 0.  1.
</event>
<event>
 8    1  0.8061721E-006  0.1224749E+03  0.7561462E-02  0.1239069E+00
          1   -1    0    0  501    0  0.00000000000E+00  0.00000000000E+00  0.34299718105E+02  0.34299718105E+02  0.00000000000E+00 0. -1.
         -1   -1    0    0    0  501 -0.00000000000E+00 -0.00000000000E+00 -0.61695890515E+03  0.61695890515E+03  0.00000000000E+00 0.  1.
         23    2    1    2    0    0  0.12911479621E+02  0.90723536314E+02 -0.24858863050E+03  0.28294980133E+03  0.99331850459E+02 0.  0.
         23    2    1    2    0    0 -0.12911479621E+02 -0.90723536314E+02 -0.33407055655E+03  0.36830882192E+03  0.12510309830E+03 0.  0.
          5    1    4    4  502    0 -0.60130114058E+02 -0.15774827423E+02 -0.18076865313E+03  0.19120474406E+03  0.41800000000E+01 0.  1.
         -5    1    4    4    0  502  0.47218634437E+02 -0.74948708891E+02 -0.15330190342E+03  0.17710407786E+03  0.41800000000E+01 0.  1.
        -11    1    3    3    0    0 -0.55983035559E+01  0.15011483040E+02  0.56838559098E+01  0.16999760109E+02  0.00000000000E+00 0. -1.
         11    1    3    3    0    0  0.18509783177E+02  0.75712053274E+02 -0.25427248641E+03  0.26595004122E+03  0.00000000000E+00 0.  1.
</event>
<event>
 8    1  0.8061721E-006  0.1120309E+03  0.7561462E-02  0.1256854E+00
         -1   -1    0    0    0  501 -0.00000000000E+00  0.00000000000E+00  0.11269843940E+02  0.11269843940E+02  0.00000000000E+00 0.  1.
          1   -1    0    0  501    0  0.00000000000E+00 -0.00000000000E+00 -0.14330789632E+04  0.14330789632E+04  0.00000000000E+00 0. -1.
         23    2    1    2    0    0 -0.17378601560E+02 -0.58651678236E+02 -0.45648348586E+03  0.46929035456E+03  0.90079014561E+02 0.  0.
         23    2    1    2    0    0  0.17378601560E+02  0.58651678236E+02 -0.96532563336E+03  0.97505845254E+03  0.12305841013E+03 0.  0.
          5    1    4    4  502    0 -0.34674072039E+02  0.55102068760E+02 -0.77267688887E+03  0.77542606111E+03  0.41800000000E+01 0. -1.
         -5    1    4    4    0  502  0.52052673599E+02  0.35496094755E+01 -0.19264874449E+03  0.19963239143E+03  0.41800000000E+01 0.  1.
        -11    1    3    3    0    0  0.10945862149E+02 -0.73631997909E+02 -0.36031320301E+03  0.36792266480E+03  0.00000000000E+00 0.  1.
         11    1    3    3    0    0 -0.28324463709E+02  0.14980319673E+02 -0.96170282851E+02  0.10136768975E+03  0.00000000000E+00 0. -1.
</event>
<event>
 8    1  0.8061721E-006  0.1265234E+03  0.7561462E-02  0.1232707E+00
          2   -1    0    0  501    0  0.00000000000E+00  0.00000000000E+00  0.55439105385E+03  0.55439105385E+03  0.00000000000E+00 0.  1.
         -2   -1    0    0    0  501 -0.00000000000E+00 -0.00000000000E+00 -0.34846953801E+02  0.34846953801E+02  0.00000000000E+00 0. -1.
         23    2    1    2    0    0 -0.27009629463E+02 -0.79855461472E+02  0.18693984069E+03  0.22402674831E+03  0.90194595791E+02 0.  0.
         23    2    1    2    0    0  0.27009629463E+02  0.79855461472E+02  0.33260425935E+03  0.36521125934E+03  0.12508899150E+03 0.  0.
          5    1    4    4  502    0 -0.27265003389E+02  0.68699152017E+02  0.91048831751E+02  0.11734699000E+03  0.41800000000E+01 0.  1.
         -5    1    4    4    0  502  0.54274632852E+02  0.11156309456E+02  0.24155542760E+03  0.24786426934E+03  0.41800000000E+01 0.  1.
        -11    1    3    3    0    0 -0.43598768394E+02 -0.92718937716E+02  0.15599038215E+03  0.18662972255E+03  0.00000000000E+00 0.  1.
         11    1    3    3    0    0  0.16589138931E+02  0.12863476244E+02  0.30949458541E+02  0.37397025757E+02  0.00000000000E+00 0. -1.
</event>
<event>
 8    1  0.8061721E-006  0.1125713E+03  0.7561462E-02  0.1255881E+00
          1   -1    0    0  501    0  0.00000000000E+00  0.00000000000E+00  0.77342524672E+03  0.77342524672E+03  0.00000000000E+00 0. -1.
         -1   -1    0    0    0  501 -0.00000000000E+00 -0.00000000000E+00 -0.18705042291E+02  0.18705042291E+02  0.00000000000E+00 0.  1.
         23    2    1    2    0    0 -0.24817363457E+02 -0.19558643653E+02  0.20517286931E+03  0.22764099356E+03  0.93413455025E+02 0.  0.
         23    2    1    2    0    0  0.24817363457E+02  0.19558643653E+02  0.54954733512E+03  0.56448929545E+03  0.12508976404E+03 0.  0.
          5    1    4    4  502    0  0.67808004023E+02  0.42003377078E+02  0.31763488480E+03  0.32752343662E+03  0.41800000000E+01 0.  1.
         -5    1    4    4    0  502 -0.42990640567E+02 -0.22444733425E+02  0.23191245033E+03  0.23696585883E+03  0.41800000000E+01 0.  1.
        -11    1    3    3    0    0  0.29217336198E+02 -0.29646927795E+02  0.66279442570E+02  0.78265941313E+02  0.00000000000E+00 0. -1.
         11    1    3    3    0    0 -0.54034699655E+02  0.10088284141E+02  0.13889342674E+03  0.14937505225E+03  0.00000000000E+00 0.  1.
</event>
<event>
 8    1  0.8061721E-006  0.1053808E+03  0.7561462E-02  0.1269371E+00
          1   -1    0    0  501    0  0.00000000000E+00  0.00000000000E+00  0.68874548085E+03  0.68874548085E+03  0.00000000000E+00 0. -1.
         -1   -1    0    0    0  501 -0.00000000000E+00 -0.00000000000E+00 -0.21673414047E+02  0.21673414047E+02  0.00000000000E+00 0.  1.
         23    2    1    2    0    0 -0.86610574106E+01  0.51433321832E+02  0.22796417279E+03  0.25087488906E+03  0.90830310890E+02 0.  0.
         23    2    1    2    0    0  0.86610574106E+01 -0.51433321832E+02  0.43910789401E+03  0.45954400583E+03  0.12507817637E+03 0.  0.
          5    1    4    4  502    0 -0.22984599650E+01 -0.91779423810E+02  0.26671757272E+03  0.28210721641E+03  0.41800000000E+01 0. -1.
         -5    1    4    4    0  502  0.10959517376E+02  0.40346101977E+02  0.17239032129E+03  0.17743678942E+03  0.41800000000E+01 0. -1.
        -11    1    3    3    0    0 -0.29676359260E+02  0.11712344808E+02  0.18815334290E+03  0.19083905722E+03  0.00000000000E+00 0. -1.
         11    1    3    3    0    0  0.21015301850E+02  0.39720977024E+02  0.39810829896E+02  0.60035831839E+02  0.00000000000E+00 0.  1.
</event>
<event>
 7    1  0.8061721E-006  0.1067112E+03  0.7561462E-02  0.1266784E+00
          2   -1    0    0  501    0  0.00000000000E+00  0.00000000000E+00  0.41837118174E+03  0.41837118174E+03  0.00000000000E+00 0.  1.
         -2   -1    0    0    0  501 -0.00000000000E+00 -0.00000000000E+00 -0.12623642638E+03  0.12623642638E+03  0.00000000000E+00 0. -1.
         23    2    1    2    0    0 -0.43302307543E+02  0.19858898054E+02  0.25986758584E+02  0.11236644916E+03  0.98394316934E+02 0.  0.
          5    1    1    2  502    0 -0.25285248092E+02 -0.26973865328E+02 -0.75238084109E+02  0.83935540042E+02  0.41800000000E+01 0. -1.
         -5    1    1    2    0  502  0.68587555635E+02  0.71149672741E+01  0.34138608088E+03  0.34830561891E+03  0.41800000000E+01 0.  1.
        -11    1    3    3    0    0  0.24425499483E+02  0.29960815883E+02 -0.12392780668E+01  0.38675461516E+02  0.00000000000E+00 0. -1.
         11    1    3    3    0    0 -0.67727807026E+02 -0.10101917829E+02  0.27226036651E+02  0.73690987645E+02  0.00000000000E+00 0.  1.
</event>
<event>
 8    1  0.8061721E-006  0.1165534E+03  0.7561462E-02  0.1248894E+00
          2   -1    0    0  501    0  0.00000000000E+00  0.00000000000E+00  0.18681838864E+03  0.18681838864E+03  0.00000000000E+00 0. -1.
         -2   -1    0    0    0  501 -0.00000000000E+00 -0.00000000000E+00 -0.82454921069E+02  0.82454921069E+02  0.00000000000E+00 0.  1.
         23    2    1    2    0    0  0.48722289902E+02 -0.88889282384E+00  0.67551683901E+01  0.10329263578E+03  0.90824471611E+02 0.  0.
         23    2    1    2    0    0 -0.48722289902E+02  0.88889282384E+00  0.97608299184E+02  0.16598067393E+03  0.12509017701E+03 0.  0.
          5    1    4    4  502    0 -0.69544263966E+02 -0.42998754978E+02  0.41966222300E+02  0.91999640186E+02  0.41800000000E+01 0.  1.
         -5    1    4    4    0  502  0.20821974064E+02  0.43887647802E+02  0.55642076885E+02  0.73981033742E+02  0.41800000000E+01 0.  1.
        -11    1    3    3    0    0  0.46630995120E+02 -0.41134094797E+02 -0.13068833094E+01  0.62194625207E+02  0.00000000000E+00 0. -1.
         11    1    3    3    0    0  0.20912947824E+01  0.40245201973E+02  0.80620516995E+01  0.41098010577E+02  0.00000000000E+00 0.  1.
</event>
<event>
 8    1  0.8061721E-006  0.7034931E+02  0.7561462E-02  0.1358909E+00
         -1   -1    0    0    0  501 -0.00000000000E+00  0.00000000000E+00  0.36607953241E+02  0.36607953241E+02  0.00000000000E+00 0.  1.
          1   -1    0    0  501    0  0.00000000000E+00 -0.00000000000E+00 -0.34108280142E+03  0.34108280142E+03  0.00000000000E+00 0. -1.
         23    2    1    2    0    0 -0.40628510216E+00  0.18094203569E+02 -0.71861995675E+02  0.11295694669E+03  0.85249985996E+02 0.  0.
         23    2    1    2    0    0  0.40628510216E+00 -0.18094203569E+02 -0.23261285251E+03  0.26473380798E+03  0.12509070574E+03 0.  0.
          5    1    4    4  502    0  0.27264005945E+02  0.29789981018E+02 -0.20287435467E+02  0.45385255613E+02  0.41800000000E+01 0. -1.
         -5    1    4    4    0  502 -0.26857720843E+02 -0.47884184587E+02 -0.21232541704E+03  0.21934855236E+03  0.41800000000E+01 0. -1.
        -11    1    3    3    0    0  0.19368786633E+02  0.16057722760E+02  0.11206764263E+02  0.27542547470E+02  0.00000000000E+00 0.  1.
         11    1    3    3    0    0 -0.19775071736E+02  0.20364808095E+01 -0.83068759937E+02  0.85414399218E+02  0.00000000000E+00 0. -1.
</event>
<event>
 8    1  0.8061721E-006  0.1502452E+03  0.7561462E-02  0.1200172E+00
         -2   -1    0    0    0  501 -0.00000000000E+00  0.00000000000E+00  0.36179352468E+03  0.36179352468E+03  0.00000000000E+00 0.  1.
          2   -1    0    0  501    0  0.00000000000E+00 -0.00000000000E+00 -0.63398721815E+02  0.63398721815E+02  0.00000000000E+00 0. -1.
         23    2    1    2    0    0  0.10716758478E+03  0.44166953891E+01  0.14990421766E+03  0.20337503034E+03  0.85940270343E+02 0.  0.
         23    2    1    2    0    0 -0.10716758478E+03 -0.44166953891E+01  0.14849058521E+03  0.22181721616E+03  0.12509606334E+03 0.  0.
          5    1    4    4  502    0  0.28128609198E+02  0.32224244116E+01  0.19109069659E+02  0.34412666530E+02  0.41800000000E+01 0.  1.
         -5    1    4    4    0  502 -0.13529619398E+03 -0.76391198007E+01  0.12938151555E+03  0.18740454963E+03  0.41800000000E+01 0.  1.
        -11    1    3    3    0    0 -0.14121821507E+02  0.50681022814E+01  0.91630807573E+01  0.17580487831E+02  0.00000000000E+00 0. -1.
         11    1    3    3    0    0  0.12128940629E+03 -0.65140689237E+00  0.14074113690E+03  0.18579454251E+03  0.00000000000E+00 0.  1.
</event>
<event>
 8    1  0.8061721E-006  0.9650406E+02  0.7561462E-02  0.1287824E+00
         -3   -1    0    0    0  501 -0.00000000000E+00  0.00000000000E+00  0.12192400441E+03  0.12192400441E+03  0.00000000000E+00 0.  1.
          3   -1    0    0  501    0  0.00000000000E+00 -0.00000000000E+00 -0.12338182954E+03  0.12338182954E+03  0.00000000000E+00 0. -1.
         23    2    1    2    0    0 -0.24000318575E+02  0.32015277737E+02  0.42954862591E+02  0.10667037170E+03  0.89064328874E+02 0.  0.
         23    2    1    2    0    0  0.24000318575E+02 -0.32015277737E+02 -0.44412687728E+02  0.13863546225E+03  0.12508521600E+03 0.  0.
          5    1    4    4  502    0 -0.21897633299E+02  0.40020704179E+02 -0.15323959227E+02  0.48305892327E+02  0.41800000000E+01 0.  1.
         -5    1    4    4    0  502  0.45897951875E+02 -0.72035981916E+02 -0.29088728501E+02  0.90329569924E+02  0.41800000000E+01 0.  1.
        -11    1    3    3    0    0 -0.22893594240E+02 -0.59851382646E+01  0.60379540109E+02  0.64850808792E+02  0.00000000000E+00 0.  1.
         11    1    3    3    0    0 -0.11067243354E+01  0.38000416001E+02 -0.17424677518E+02  0.41819562906E+02  0.00000000000E+00 0. -1.
</event>
<event>
 8    1  0.8061721E-006  0.1691309E+03  0.7561462E-02  0.1178757E+00
         -2   -1    0    0    0  501 -0.00000000000E+00  0.00000000000E+00  0.15793699459E+03  0.15793699459E+03  0.00000000000E+00 0. -1.
          2   -1    0    0  501    0  0.00000000000E+00 -0.00000000000E+00 -0.21815358922E+03  0.21815358922E+03  0.00000000000E+00 0.  1.
         23    2    1    2    0    0  0.41464753095E+02 -0.14339522248E+03 -0.12125886498E+02  0.17548460177E+03  0.91467440952E+02 0.  0.
         23    2    1    2    0    0 -0.41464753095E+02  0.14339522248E+03 -0.48090708129E+02  0.20060598204E+03  0.12509407756E+03 0.  0.
          5    1    4    4  502    0 -0.76708389935E+02  0.93230888597E+02 -0.64579947132E+02  0.13698254504E+03  0.41800000000E+01 0. -1.
         -5    1    4    4    0  502  0.35243636841E+02  0.50164333885E+02  0.16489239003E+02  0.63623436993E+02  0.41800000000E+01 0. -1.
        -11    1    3    3    0    0  0.91630825315E+01 -0.10681486005E+03 -0.45395319722E+02  0.11642212617E+03  0.00000000000E+00 0.  1.
         11    1    3    3    0    0  0.32301670563E+02 -0.36580362432E+02  0.33269433224E+02  0.59062475599E+02  0.00000000000E+00 0. -1.
</event>
<event>
 7    1  0.8061721E-006  0.2338442E+03  0.7561462E-02  0.1123963E+00
         -2   -1    0    0    0  501 -0.00000000000E+00  0.00000000000E+00  0.11279978377E+03  0.11279978377E+03  0.00000000000E+00 0.  1.
          2   -1    0    0  501    0  0.00000000000E+00 -0.00000000000E+00 -0.58909431565E+03  0.58909431565E+03  0.00000000000E+00 0. -1.
         23    2    1    2    0    0 -0.69861558482E+02 -0.29981345420E+02 -0.14784472567E+02  0.12109901355E+03  0.93096036586E+02 0.  0.
          5    1    1    2  502    0  0.20728317270E+03  0.20855341068E+01 -0.22624750021E+03  0.30688119345E+03  0.41800000000E+01 0. -1.
         -5    1    1    2    0  502 -0.13742161422E+03  0.27895811313E+02 -0.23526255911E+03  0.27391389242E+03  0.41800000000E+01 0.  1.
        -11    1    3    3    0    0  0.23142737231E+02 -0.81290433605E+01 -0.78264421790E+00  0.24541396954E+02  0.00000000000E+00 0. -1.
         11    1    3    3    0    0 -0.93004295713E+02 -0.21852302059E+02 -0.14001828349E+02  0.96557616600E+02  0.00000000000E+00 0.  1.
</event>
<event>
 8    1  0.8061721E-006  0.1326691E+03  0.7561462E-02  0.1223548E+00
         -2   -1    0    0    0  501 -0.00000000000E+00  0.00000000000E+00  0.48756723256E+02  0.48756723256E+02  0.00000000000E+00 0. -1.
          2   -1    0    0  501    0  0.00000000000E+00 -0.00000000000E+00 -0.69169999334E+03  0.69169999334E+03  0.00000000000E+00 0.  1.
         23    2    1    2    0    0  0.43597081374E+02 -0.91163896161E+02 -0.83702725775E+02  0.15855556083E+03  0.89006505946E+02 0.  0.
         23    2    1    2    0    0 -0.43597081374E+02  0.91163896161E+02 -0.55924054430E+03  0.58190115576E+03  0.12508959675E+03 0.  0.
          5    1    4    4  502    0 -0.77244844966E+02  0.95821151845E+02 -0.48076675753E+03  0.49628883401E+03  0.41800000000E+01 0.  1.
         -5    1    4    4    0  502  0.33647763592E+02 -0.46572556842E+01 -0.78473786773E+02  0.85612321752E+02  0.41800000000E+01 0.  1.
        -11    1    3    3    0    0 -0.43887808792E+01 -0.29518852413E+02 -0.74054762133E+02  0.79841917812E+02  0.00000000000E+00 0.  1.
         11    1    3    3    0    0  0.47985862253E+02 -0.61645043748E+02 -0.96479636421E+01  0.78713643019E+02  0.00000000000E+00 0. -1.
</event>
<event>
 8    1  0.8061721E-006  0.6299363E+02  0.7561462E-02  0.1385682E+00
         -1   -1    0    0    0  501 -0.00000000000E+00  0.00000000000E+00  0.35682081773E+02  0.35682081773E+02  0.00000000000E+00 0.  1.
          1   -1    0    0  501    0  0.00000000000E+00 -0.00000000000E+00 -0.35306158665E+03  0.35306158665E+03  0.00000000000E+00 0. -1.
         23    2    1    2    0    0 -0.19388347791E+02  0.19737594661E+02 -0.14812979830E+03  0.17649499299E+03  0.91883430134E+02 0.  0.
         23    2    1    2    0    0  0.19388347791E+02 -0.19737594661E+02 -0.16924970658E+03  0.21224867543E+03  0.12505421374E+03 0.  0.
          5    1    4    4  502    0 -0.21368818067E+01 -0.10943222860E+02 -0.18400786874E+03  0.18439275622E+03  0.41800000000E+01 0.  1.
         -5    1    4    4    0  502  0.21525229598E+02 -0.87943718012E+01  0.14758162160E+02  0.27855919209E+02  0.41800000000E+01 0.  1.
        -11    1    3    3    0    0  0.22004083276E+02 -0.22391396666E+02 -0.82141916210E+02  0.87936617653E+02  0.00000000000E+00 0. -1.
         11    1    3    3    0    0 -0.41392431067E+02  0.42128991328E+02 -0.65987882094E+02  0.88558375341E+02  0.00000000000E+00 0.  1.
</event>
<event>
 8    1  0.8061721E-006  0.3618084E+03  0.7561462E-02  0.1057870E+00
          2   -1    0    0  501    0  0.00000000000E+00  0.00000000000E+00  0.60968893852E+03  0.60968893852E+03  0.00000000000E+00 0.  1.
         -2   -1    0    0    0  501 -0.00000000000E+00 -0.00000000000E+00 -0.26562146823E+03  0.26562146823E+03  0.00000000000E+00 0. -1.
         23    2    1    2    0    0 -0.16651751074E+02 -0.34776914014E+03 -0.14516129982E+02  0.36009184452E+03  0.90745593878E+02 0.  0.
         23    2    1    2    0    0  0.16651751074E+02  0.34776914014E+03  0.35858360027E+03  0.51521856223E+03  0.12508921951E+03 0.  0.
          5    1    4    4  502    0 -0.37203270406E+02  0.37481665779E+02  0.34011605333E+02  0.62954112620E+02  0.41800000000E+01 0. -1.
         -5    1    4    4    0  502  0.53855021480E+02  0.31028747437E+03  0.32457199494E+03  0.45226444961E+03  0.41800000000E+01 0. -1.
        -11    1    3    3    0    0 -0.44457158637E+02 -0.16812926852E+03  0.20036182661E+02  0.17505810036E+03  0.00000000000E+00 0. -1.
         11    1    3    3    0    0  0.27805407564E+02 -0.17963987163E+03 -0.34552312643E+02  0.18503374416E+03  0.00000000000E+00 0.  1.
</event>
<event>
 8    1  0.8061721E-006  0.8446529E+02  0.7561462E-02  0.1316837E+00
          2   -1    0    0  501    0  0.00000000000E+00  0.00000000000E+00  0.62192418244E+02  0.62192418244E+02  0.00000000000E+00 0. -1.
         -2   -1    0    0    0  501 -0.00000000000E+00 -0.00000000000E+00 -0.18736807044E+03  0.18736807044E+03  0.00000000000E+00 0.  1.
         23    2    1    2    0    0  0.15183119946E+02 -0.66689897077E+01 -0.44038864095E+02  0.99543848521E+02  0.87718605054E+02 0.  0.
         23    2    1    2    0    0 -0.15183119946E+02  0.66689897077E+01 -0.81136788102E+02  0.15001664016E+03  0.12508721512E+03 0.  0.
          5    1    4    4  502    0  0.10336032368E+02  0.61112677038E+02 -0.22907174012E+02  0.66210300415E+02  0.41800000000E+01 0. -1.
         -5    1    4    4    0  502 -0.25519152314E+02 -0.54443687330E+02 -0.58229614089E+02  0.83806339748E+02  0.41800000000E+01 0. -1.
        -11    1    3    3    0    0 -0.14205777297E+02  0.47912982699E+01  0.21846829106E+02  0.26496124051E+02  0.00000000000E+00 0. -1.
         11    1    3    3    0    0  0.29388897243E+02 -0.11460287978E+02 -0.65885693201E+02  0.73047724470E+02  0.00000000000E+00 0.  1.
</event>
<event>
 8    1  0.8061721E-006  0.8984727E+02  0.7561462E-02  0.1303222E+00
         -2   -1    0    0    0  501 -0.00000000000E+00  0.00000000000E+00  0.33003747266E+02  0.33003747266E+02  0.00000000000E+00 0.  1.
          2   -1    0    0  501    0  0.00000000000E+00 -0.00000000000E+00 -0.50482526228E+03  0.50482526228E+03  0.00000000000E+00 0. -1.
         23    2    1    2    0    0  0.51848513809E+02 -0.49473406824E+01 -0.11180343145E+03  0.15314098462E+03  0.90771192131E+02 0.  0.
         23    2    1    2    0    0 -0.51848513809E+02  0.49473406824E+01 -0.36001808356E+03  0.38468802493E+03  0.12513637148E+03 0.  0.
          5    1    4    4  502    0  0.18084210484E+02  0.36400690810E+02 -0.46497837101E+02  0.61899678637E+02  0.41800000000E+01 0. -1.
         -5    1    4    4    0  502 -0.69932724293E+02 -0.31453350127E+02 -0.31352024646E+03  0.32278834629E+03  0.41800000000E+01 0. -1.
        -11    1    3    3    0    0  0.97148929196E+01  0.13012257932E+02  0.12613035264E+02  0.20561776662E+02  0.00000000000E+00 0.  1.
         11    1    3    3    0    0  0.42133620889E+02 -0.17959598614E+02 -0.12441646672E+03  0.13257920795E+03  0.00000000000E+00 0. -1.
</event>
<event>
 8    1  0.8061721E-006  0.7441219E+02  0.7561462E-02  0.1345701E+00
          1   -1    0    0  501    0  0.00000000000E+00  0.00000000000E+00  0.15901436955E+03  0.15901436955E+03  0.00000000000E+00 0. -1.
         -1   -1    0    0    0  501 -0.00000000000E+00 -0.00000000000E+00 -0.80138597859E+02  0.80138597859E+02  0.00000000000E+00 0.  1.
         23    2    1    2    0    0  0.23371354710E+02  0.15492202874E+02  0.45433015311E+02  0.10666629246E+03  0.92343437749E+02 0.  0.
         23    2    1    2    0    0 -0.23371354710E+02 -0.15492202874E+02  0.33442756377E+02  0.13248667495E+03  0.12509225601E+03 0.  0.
          5    1    4    4  502    0 -0.13984544862E+02  0.14778603424E+02 -0.44026834478E+02  0.48680685783E+02  0.41800000000E+01 0. -1.
         -5    1    4    4    0  502 -0.93868098476E+01 -0.30270806297E+02  0.77469590855E+02  0.83805989167E+02  0.41800000000E+01 0. -1.
        -11    1    3    3    0    0  0.43786615822E+02 -0.25228144915E+02  0.28853157312E+02  0.58191337051E+02  0.00000000000E+00 0.  1.
         11    1    3    3    0    0 -0.20415261112E+02  0.40720347789E+02  0.16579857999E+02  0.48474955405E+02  0.00000000000E+00 0. -1.
</event>
<event>
 8    1  0.8061721E-006  0.1424019E+03  0.7561462E-02  0.1210133E+00
          2   -1    0    0  501    0  0.00000000000E+00  0.00000000000E+00  0.14186776402E+04  0.14186776402E+04  0.00000000000E+00 0. -1.
         -2   -1    0    0    0  501 -0.00000000000E+00 -0.00000000000E+00 -0.25347771008E+02  0.25347771008E+02  0.00000000000E+00 0.  1.
         23    2    1    2    0    0 -0.46737918099E+02  0.10393135472E+03  0.33920765485E+03  0.37640798101E+03  0.11676889815E+03 0.  0.
         23    2    1    2    0    0  0.46737918099E+02 -0.10393135472E+03  0.10541222143E+04  0.10676174302E+04  0.12508866862E+03 0.  0.
          5    1    4    4  502    0  0.29338931755E+02 -0.12334568429E+03  0.62835240805E+03  0.64102975894E+03  0.41800000000E+01 0. -1.
         -5    1    4    4    0  502  0.17398986343E+02  0.19414329571E+02  0.42576980627E+03  0.42658767123E+03  0.41800000000E+01 0. -1.
        -11    1    3    3    0    0 -0.36192621762E+02  0.10731038369E+02  0.18067621956E+02  0.41850926126E+02  0.00000000000E+00 0.  1.
         11    1    3    3    0    0 -0.10545296337E+02  0.93200316354E+02  0.32114003290E+03  0.33455705488E+03  0.00000000000E+00 0. -1.
</event>
<event>
 8    1  0.8061721E-006  0.1014998E+03  0.7561462E-02  0.1277173E+00
          2   -1    0    0  501    0  0.00000000000E+00  0.00000000000E+00  0.76011182290E+03  0.76011182290E+03  0.00000000000E+00 0. -1.
         -2   -1    0    0    0  501 -0.00000000000E+00 -0.00000000000E+00 -0.22518818484E+02  0.22518818484E+02  0.00000000000E+00 0.  1.
         23    2    1    2    0    0 -0.10828290591E+02 -0.35148844709E+02  0.13572174621E+03  0.16679813820E+03  0.89713618536E+02 0.  0.
         23    2    1    2    0    0  0.10828290591E+02  0.35148844709E+02  0.60187125820E+03  0.61583250318E+03  0.12509183572E+03 0.  0.
          5    1    4    4  502    0  0.66496622365E+02  0.22096840767E+02  0.26615830990E+03  0.27525949481E+03  0.41800000000E+01 0.  1.
         -5    1    4    4    0  502 -0.55668331774E+02  0.13052003942E+02  0.33571294830E+03  0.34057300836E+03  0.41800000000E+01 0.  1.
        -11    1    3    3    0    0  0.18383282021E+02  0.10579651094E+02  0.99074990482E+02  0.10131992802E+03  0.00000000000E+00 0. -1.
         11    1    3    3    0    0 -0.29211572612E+02 -0.45728495803E+02  0.36646755733E+02  0.65478210182E+02  0.00000000000E+00 0.  1.
</event>
<event>
 8    1  0.8061721E-006  0.1068385E+03  0.7561462E-02  0.1266539E+00
          2   -1    0    0  501    0  0.00000000000E+00  0.00000000000E+00  0.47088961316E+03  0.47088961316E+03  0.00000000000E+00 0. -1.
         -2   -1    0    0    0  501 -0.00000000000E+00 -0.00000000000E+00 -0.28596887945E+02  0.28596887945E+02  0.00000000000E+00 0.  1.
         23    2    1    2    0    0  0.45147844878E+01 -0.10539961626E+02  0.10325041254E+03  0.13791888426E+03  0.90716574433E+02 0.  0.
         23    2    1    2    0    0 -0.45147844878E+01  0.10539961626E+02  0.33904231267E+03  0.36156761684E+03  0.12509987088E+03 0.  0.
          5    1    4    4  502    0  0.32515210141E+02  0.56611403176E+02  0.15561075071E+03  0.16880245258E+03  0.41800000000E+01 0. -1.
         -5    1    4    4    0  502 -0.37029994629E+02 -0.46071441550E+02  0.18343156196E+03  0.19276516426E+03  0.41800000000E+01 0. -1.
        -11    1    3    3    0    0 -0.18032330052E+02 -0.44627496293E+02  0.71377300175E+02  0.86090053623E+02  0.00000000000E+00 0. -1.
         11    1    3    3    0    0  0.22547114540E+02  0.34087534667E+02  0.31873112366E+02  0.51828830642E+02  0.00000000000E+00 0.  1.
</event>
<event>
 8    1  0.8061721E-006  0.1178617E+03  0.7561462E-02  0.1246667E+00
         -2   -1    0    0    0  501 -0.00000000000E+00  0.00000000000E+00  0.49118680328E+02  0.49118680328E+02  0.00000000000E+00 0.  1.
          2   -1    0    0  501    0  0.00000000000E+00 -0.00000000000E+00 -0.39895629869E+03  0.39895629869E+03  0.00000000000E+00 0. -1.
         23    2    1    2    0    0  0.51387439688E+02  0.68813598290E+02 -0.12852326532E+03  0.17974086615E+03  0.91720057601E+02 0.  0.
         23    2    1    2    0    0 -0.51387439688E+02 -0.68813598290E+02 -0.22131435304E+03  0.26833411287E+03  0.12508866056E+03 0.  0.
          5    1    4    4  502    0 -0.85186400247E+02 -0.58268399768E+02 -0.10756927416E+03  0.14913266021E+03  0.41800000000E+01 0.  1.
         -5    1    4    4    0  502  0.33798960559E+02 -0.10545198522E+02 -0.11374507888E+03  0.11920145266E+03  0.41800000000E+01 0.  1.
        -11    1    3    3    0    0  0.93838957504E+01  0.49792775397E+02 -0.87770216150E+01  0.51423866926E+02  0.00000000000E+00 0.  1.
         11    1    3    3    0    0  0.42003543938E+02  0.19020822893E+02 -0.11974624371E+03  0.12831699922E+03  0.00000000000E+00 0. -1.
</event>
<event>
 8    1  0.8061721E-006  0.7942710E+02  0.7561462E-02  0.1330685E+00
          2   -1    0    0  501    0  0.00000000000E+00  0.00000000000E+00  0.42160995384E+02  0.42160995384E+02  0.00000000000E+00 0. -1.
         -2   -1    0    0    0  501 -0.00000000000E+00 -0.00000000000E+00 -0.36773269881E+03  0.36773269881E+03  0.00000000000E+00 0.  1.
         23    2    1    2    0    0  0.95804737732E+01  0.26307764654E+02 -0.23449650823E+03  0.25315091647E+03  0.91175052385E+02 0.  0.
         23    2    1    2    0    0 -0.95804737732E+01 -0.26307764654E+02 -0.91075195193E+02  0.15674277772E+03  0.12445771664E+03 0.  0.
          5    1    4    4  502    0 -0.24491112814E+02  0.94182451807E+01  0.23661583893E+02  0.35578939016E+02  0.41800000000E+01 0. -1.
         -5    1    4    4    0  502  0.14910639041E+02 -0.35726009835E+02 -0.11473677909E+03  0.12116383871E+03  0.41800000000E+01 0.  1.
        -11    1    3    3    0    0 -0.39978222307E+02  0.10646415804E+02 -0.13031271807E+03  0.13672237900E+03  0.00000000000E+00 0. -1.
         11    1    3    3    0    0  0.49558696080E+02  0.15661348850E+02 -0.10418379016E+03  0.11642853747E+03  0.00000000000E+00 0.  1.
</event>
<event>
 8    1  0.8061721E-006  0.1455106E+03  0.7561462E-02  0.1206101E+00
          2   -1    0    0  501    0  0.00000000000E+00  0.00000000000E+00  0.33944847850E+03  0.33944847850E+03  0.00000000000E+00 0. -1.
         -2   -1    0    0    0  501 -0.00000000000E+00 -0.00000000000E+00 -0.10524992240E+03  0.10524992240E+03  0.00000000000E+00 0.  1.
         23    2    1    2    0    0 -0.84580460002E+02 -0.10532277787E+03  0.21879340085E+02  0.16367601304E+03  0.89801948578E+02 0.  0.
         23    2    1    2    0    0  0.84580460002E+02  0.10532277787E+03  0.21231921602E+03  0.28102238786E+03  0.12508953288E+03 0.  0.
          5    1    4    4  502    0  0.23274047811E+02  0.12173895346E+02  0.15172971177E+03  0.15404305523E+03  0.41800000000E+01 0.  1.
         -5    1    4    4    0  502  0.61306412191E+02  0.93148882523E+02  0.60589504245E+02  0.12697933263E+03  0.41800000000E+01 0.  1.
        -11    1    3    3    0    0 -0.96832765404E+02 -0.83758216516E+02  0.38647675794E+02  0.13373730270E+03  0.00000000000E+00 0. -1.
         11    1    3    3    0    0  0.12252305402E+02 -0.21564561354E+02 -0.16768335708E+02  0.29938710334E+02  0.00000000000E+00 0.  1.
</event>
<event>
 8    1  0.8061721E-006  0.1607585E+03  0.7561462E-02  0.1187843E+00
          1   -1    0    0  501    0  0.00000000000E+00  0.00000000000E+00  0.77332091777E+02  0.77332091777E+02  0.00000000000E+00 0. -1.
         -1   -1    0    0    0  501 -0.00000000000E+00 -0.00000000000E+00 -0.46342763477E+03  0.46342763477E+03  0.00000000000E+00 0.  1.
         23    2    1    2    0    0 -0.11119097080E+03 -0.88372245213E+02 -0.26868678990E+03  0.31803664192E+03  0.93710345359E+02 0.  0.
         23    2    1    2    0    0  0.11119097080E+03  0.88372245213E+02 -0.11740875310E+03  0.22272308463E+03  0.12509065277E+03 0.  0.
          5    1    4    4  502    0  0.12406146616E+03  0.41791748382E+02 -0.51160636381E+02  0.14061536450E+03  0.41800000000E+01 0.  1.
         -5    1    4    4    0  502 -0.12870495360E+02  0.46580496831E+02 -0.66248116717E+02  0.82107720126E+02  0.41800000000E+01 0.  1.
        -11    1    3    3    0    0 -0.76199209282E+02 -0.60323728316E+02 -0.25216342073E+03  0.27024370936E+03  0.00000000000E+00 0.  1.
         11    1    3    3    0    0 -0.34991761520E+02 -0.28048516897E+02 -0.16523369168E+02  0.47792932564E+02  0.00000000000E+00 0. -1.
</event>
<event>
 8    1  0.8061721E-006  0.9774013E+02  0.7561462E-02  0.1285121E+00
          1   -1    0    0  501    0  0.00000000000E+00  0.00000000000E+00  0.66348762555E+03  0.66348762555E+03  0.00000000000E+00 0. -1.
         -1   -1    0    0    0  501 -0.00000000000E+00 -0.00000000000E+00 -0.21464796676E+02  0.21464796676E+02  0.00000000000E+00 0.  1.
         23    2    1    2    0    0  0.19790334179E+02 -0.25119022719E+02  0.15995903464E+03  0.18589858138E+03  0.89155858839E+02 0.  0.
         23    2    1    2    0    0 -0.19790334179E+02  0.25119022719E+02  0.48206379423E+03  0.49905384085E+03  0.12508641703E+03 0.  0.
          5    1    4    4  502    0 -0.17130306864E+02 -0.40213119629E+02  0.76284607424E+02  0.88019066874E+02  0.41800000000E+01 0. -1.
         -5    1    4    4    0  502 -0.26600273159E+01  0.65332142348E+02  0.40577918681E+03  0.41103477397E+03  0.41800000000E+01 0. -1.
        -11    1    3    3    0    0  0.79972124234E+01  0.29298641132E+02  0.97991250679E+02  0.10258972165E+03  0.00000000000E+00 0. -1.
         11    1    3    3    0    0  0.11793121756E+02 -0.54417663851E+02  0.61967783964E+02  0.83308859728E+02  0.00000000000E+00 0.  1.
</event>
<event>
 8    1  0.8061721E-006  0.8533073E+02  0.7561462E-02  0.1314570E+00
         -2   -1    0    0    0  501 -0.00000000000E+00  0.00000000000E+00  0.22864872488E+02  0.22864872488E+02  0.00000000000E+00 0.  1.
          2   -1    0    0  501    0  0.00000000000E+00 -0.00000000000E+00 -0.78400752736E+03  0.78400752736E+03  0.00000000000E+00 0. -1.
         23    2    1    2    0    0  0.14593235918E+02  0.30442951384E+02 -0.12817288644E+03  0.16077776452E+03  0.91002554479E+02 0.  0.
         23    2    1    2    0    0 -0.14593235918E+02 -0.30442951384E+02 -0.63296976843E+03  0.64609463533E+03  0.12509122363E+03 0.  0.
          5    1    4    4  502    0 -0.46968456851E+02 -0.43150760906E+02 -0.16706564303E+03  0.17887544714E+03  0.41800000000E+01 0. -1.
         -5    1    4    4    0  502  0.32375220934E+02  0.12707809522E+02 -0.46590412540E+03  0.46721918819E+03  0.41800000000E+01 0. -1.
        -11    1    3    3    0    0  0.23504788749E+02  0.47203008696E+02 -0.13134292965E+03  0.14153290887E+03  0.00000000000E+00 0. -1.
         11    1    3    3    0    0 -0.89115528315E+01 -0.16760057312E+02  0.31700432110E+01  0.19244855648E+02  0.00000000000E+00 0.  1.
</event>
<event>
 8    1  0.8061721E-006  0.1564925E+03  0.7561462E-02  0.1192715E+00
          1   -1    0    0  501    0  0.00000000000E+00  0.00000000000E+00  0.10971541840E+04  0.10971541840E+04  0.00000000000E+00 0. -1.
         -1   -1    0    0    0  501 -0.00000000000E+00 -0.00000000000E+00 -0.24020519800E+02  0.24020519800E+02  0.00000000000E+00 0.  1.
         23    2    1    2    0    0 -0.58218519727E+02 -0.10509955422E+03  0.46858151530E+03  0.49223386999E+03  0.91050721849E+02 0.  0.
         23    2    1    2    0    0  0.58218519727E+02  0.10509955422E+03  0.60455214887E+03  0.62894083378E+03  0.12509180372E+03 0.  0.
          5    1    4    4  502    0 -0.22128160915E+02  0.84919118805E+02  0.36536756049E+03  0.37578163726E+03  0.41800000000E+01 0. -1.
         -5    1    4    4    0  502  0.80346680642E+02  0.20180435411E+02  0.23918458837E+03  0.25315919651E+03  0.41800000000E+01 0. -1.
        -11    1    3    3    0    0 -0.76205641774E+02 -0.94146602463E+02  0.44214001139E+03  0.45843066244E+03  0.00000000000E+00 0.  1.
         11    1    3    3    0    0  0.17987122048E+02 -0.10952951753E+02  0.26441503912E+02  0.33803207552E+02  0.00000000000E+00 0. -1.
</event>
<event>
 8    1  0.8061721E-006  0.9417567E+02  0.7561462E-02  0.1293044E+00
          2   -1    0    0  501    0  0.00000000000E+00  0.00000000000E+00  0.17921272408E+04  0.17921272408E+04  0.00000000000E+00 0. -1.
         -2   -1    0    0    0  501 -0.00000000000E+00 -0.00000000000E+00 -0.12608032273E+02  0.12608032273E+02  0.00000000000E+00 0.  1.
         23    2    1    2    0    0 -0.70656748876E+02 -0.16019047217E+02  0.36993907486E+03  0.38776230150E+03  0.90860867947E+02 0.  0.
         23    2    1    2    0    0  0.70656748876E+02  0.16019047217E+02  0.14095801336E+04  0.14169729715E+04  0.12508901987E+03 0.  0.
          5    1    4    4  502    0  0.29504747556E+02 -0.25896771924E+02  0.12594716047E+03  0.13198989565E+03  0.41800000000E+01 0. -1.
         -5    1    4    4    0  502  0.41152001319E+02  0.41915819141E+02  0.12836329732E+04  0.12849830759E+04  0.41800000000E+01 0. -1.
        -11    1    3    3    0    0 -0.13953650240E+02 -0.28670251803E+02  0.33137890774E+02  0.45987036200E+02  0.00000000000E+00 0.  1.
         11    1    3    3    0    0 -0.56703098636E+02  0.12651204586E+02  0.33680118408E+03  0.34177526530E+03  0.00000000000E+00 0. -1.
</event>
<event>
 7    1  0.8061721E-006  0.7728316E+02  0.7561462E-02  0.1336943E+00
          2   -1    0    0  501    0  0.00000000000E+00  0.00000000000E+00  0.33395549101E+03  0.33395549101E+03  0.00000000000E+00 0. -1.
         -2   -1    0    0    0  501 -0.00000000000E+00 -0.00000000000E+00 -0.11616786838E+03  0.11616786838E+03  0.00000000000E+00 0.  1.
         23    2    1    2    0    0  0.66577134969E+01 -0.53650931925E+02 -0.70913776127E+02  0.12382200362E+03  0.85909122282E+02 0.  0.
          5    1    1    2  502    0  0.61611700737E+01  0.18284057851E+02  0.28776348438E+03  0.28843987612E+03  0.41800000000E+01 0. -1.
         -5    1    1    2    0  502 -0.12818883571E+02  0.35366874074E+02  0.93791436814E+00  0.37861479647E+02  0.41800000000E+01 0.  1.
        -11    1    3    3    0    0 -0.22821440441E+01  0.21335494100E+02 -0.19368615181E+01  0.21544440640E+02  0.00000000000E+00 0. -1.
         11    1    3    3    0    0  0.89398575410E+01 -0.74986426025E+02 -0.68976914609E+02  0.10227756298E+03  0.00000000000E+00 0.  1.
</event>
<event>
 8    1  0.8061721E-006  0.8782331E+02  0.7561462E-02  0.1308210E+00
          2   -1    0    0  501    0  0.00000000000E+00  0.00000000000E+00  0.45112581629E+03  0.45112581629E+03  0.00000000000E+00 0.  1.
         -2   -1    0    0    0  501 -0.00000000000E+00 -0.00000000000E+00 -0.35334959245E+02  0.35334959245E+02  0.00000000000E+00 0. -1.
         23    2    1    2    0    0 -0.50720724627E+00  0.95707048487E+01  0.63121367713E+02  0.11214094876E+03  0.92192351506E+02 0.  0.
         23    2    1    2    0    0  0.50720724627E+00 -0.95707048487E+01  0.35266948933E+03  0.37431982677E+03  0.12509080046E+03 0.  0.
          5    1    4    4  502    0  0.53359379409E+02  0.19236630036E+02  0.10508442636E+03  0.11948841103E+03  0.41800000000E+01 0.  1.
         -5    1    4    4    0  502 -0.52852172163E+02 -0.28807334885E+02  0.24758506297E+03  0.25483141575E+03  0.41800000000E+01 0.  1.
        -11    1    3    3    0    0 -0.25792875181E+02  0.18364307192E+02 -0.10853308673E+02  0.33471099443E+02  0.00000000000E+00 0. -1.
         11    1    3    3    0    0  0.25285667935E+02 -0.87936023433E+01  0.73974676386E+02  0.78669849317E+02  0.00000000000E+00 0.  1.
</event>
<event>
 8    1  0.8061721E-006  0.1155526E+03  0.7561462E-02  0.1250620E+00
         -1   -1    0    0    0  501 -0.00000000000E+00  0.00000000000E+00  0.58983484042E+02  0.58983484042E+02  0.00000000000E+00 0.  1.
          1   -1    0    0  501    0  0.00000000000E+00 -0.00000000000E+00 -0.29829088716E+03  0.29829088716E+03  0.00000000000E+00 0. -1.
         23    2    1    2    0    0 -0.46614328713E+02 -0.24904613400E+02 -0.33532008571E+02  0.11072874209E+03  0.91341793916E+02 0.  0.
         23    2    1    2    0    0  0.46614328713E+02  0.24904613400E+02 -0.20577539455E+03  0.24654562912E+03  0.12509236118E+03 0.  0.
          5    1    4    4  502    0 -0.65092800408E+01 -0.45625442816E+02 -0.56188044094E+02  0.72791623542E+02  0.41800000000E+01 0.  1.
         -5    1    4    4    0  502  0.53123608754E+02  0.70530056216E+02 -0.14958735046E+03  0.17375400557E+03  0.41800000000E+01 0.  1.
        -11    1    3    3    0    0  0.76887443291E+01 -0.39467449959E+02 -0.36669761125E+02  0.54419369498E+02  0.00000000000E+00 0. -1.
         11    1    3    3    0    0 -0.54303073042E+02  0.14562836559E+02  0.31377525535E+01  0.56309372591E+02  0.00000000000E+00 0.  1.
</event>
<event>
 7    1  0.8061721E-006  0.1341919E+03  0.7561462E-02  0.1221365E+00
          1   -1    0    0  501    0  0.00000000000E+00  0.00000000000E+00  0.33809529947E+03  0.33809529947E+03  0.00000000000E+00 0. -1.
         -1   -1    0    0    0  501 -0.00000000000E+00 -0.00000000000E+00 -0.68827963027E+02  0.68827963027E+02  0.00000000000E+00 0.  1.
         23    2    1    2    0    0  0.28840609738E+02  0.84836882207E+01  0.29330164659E+02  0.10264762008E+03  0.93661740392E+02 0.  0.
          5    1    1    2  502    0 -0.94207922179E+02  0.24085764014E+02  0.19628369435E+03  0.21908906339E+03  0.41800000000E+01 0. -1.
         -5    1    1    2    0  502  0.65367312442E+02 -0.32569452234E+02  0.43653477439E+02  0.85186579032E+02  0.41800000000E+01 0.  1.
        -11    1    3    3    0    0  0.34654710134E+02  0.47310359967E+02  0.12661949262E+02  0.59996200328E+02  0.00000000000E+00 0.  1.
         11    1    3    3    0    0 -0.58141003966E+01 -0.38826671746E+02  0.16668215397E+02  0.42651419751E+02  0.00000000000E+00 0. -1.
</event>
<event>
 7    1  0.8061721E-006  0.2091848E+03  0.7561462E-02  0.1142213E+00
         -1   -1    0    0    0  501 -0.00000000000E+00  0.00000000000E+00  0.73528345120E+02  0.73528345120E+02  0.00000000000E+00 0.  1.
          1   -1    0    0  501    0  0.00000000000E+00 -0.00000000000E+00 -0.10697167264E+04  0.10697167264E+04  0.00000000000E+00 0. -1.
         23    2    1    2    0    0  0.16135952053E+03  0.14850681256E+02 -0.88557716549E+02  0.20589097064E+03  0.91055944499E+02 0.  0.
          5    1    1    2  502    0 -0.16092446059E+03 -0.71183898867E+02 -0.73188032883E+03  0.75274837602E+03  0.41800000000E+01 0. -1.
         -5    1    1    2    0  502 -0.43505994719E+00  0.56333217612E+02 -0.17575033594E+03  0.18460572491E+03  0.41800000000E+01 0.  1.
        -11    1    3    3    0    0 -0.69484833630E+01 -0.13502261060E+02 -0.67190413471E+01  0.16605360321E+02  0.00000000000E+00 0. -1.
         11    1    3    3    0    0  0.16830800390E+03  0.28352942315E+02 -0.81838675202E+02  0.18928561032E+03  0.00000000000E+00 0.  1.
</event>
<event>
 8    1  0.8061721E-006  0.1072462E+03  0.7561462E-02  0.1265756E+00
         -2   -1    0    0    0  501 -0.00000000000E+00  0.00000000000E+00  0.10234640344E+02  0.10234640344E+02  0.00000000000E+00 0.  1.
          2   -1    0    0  501    0  0.00000000000E+00 -0.00000000000E+00 -0.13152641877E+04  0.13152641877E+04  0.00000000000E+00 0. -1.
         23    2    1    2    0    0 -0.54526702119E+00  0.15775799808E+02 -0.32535770105E+03  0.33774691200E+03  0.89253401939E+02 0.  0.
         23    2    1    2    0    0  0.54526702119E+00 -0.15775799808E+02 -0.97967184634E+03  0.98775191608E+03  0.12509095901E+03 0.  0.
          5    1    4    4  502    0  0.47789377763E+02 -0.48056667442E+02 -0.47483371551E+03  0.47966425518E+03  0.41800000000E+01 0. -1.
         -5    1    4    4    0  502 -0.47244110742E+02  0.32280867635E+02 -0.50483813083E+03  0.50808766090E+03  0.41800000000E+01 0. -1.
        -11    1    3    3    0    0  0.42498030247E+02  0.17919197512E+02 -0.13825829643E+03  0.14574819638E+03  0.00000000000E+00 0.  1.
         11    1    3    3    0    0 -0.43043297268E+02 -0.21433977042E+01 -0.18709940462E+03  0.19199871562E+03  0.00000000000E+00 0. -1.
</event>
<event>
 8    1  0.8061721E-006  0.1239461E+03  0.7561462E-02  0.1236726E+00
          2   -1    0    0  501    0  0.00000000000E+00  0.00000000000E+00  0.76198344593E+03  0.76198344593E+03  0.00000000000E+00 0. -1.
         -2   -1    0    0    0  501 -0.00000000000E+00 -0.00000000000E+00 -0.20764567702E+02  0.20764567702E+02  0.00000000000E+00 0.  1.
         23    2    1    2    0    0 -0.51706916255E+02 -0.37494650136E+02  0.32309392529E+03  0.34166547898E+03  0.90918430430E+02 0.  0.
         23    2    1    2    0    0  0.51706916255E+02  0.37494650136E+02  0.41812495294E+03  0.44108253465E+03  0.12508346064E+03 0.  0.
          5    1    4    4  502    0  0.43788775693E+02  0.81109135716E+02  0.32528451085E+03  0.33811778151E+03  0.41800000000E+01 0. -1.
         -5    1    4    4    0  502  0.79181405621E+01 -0.43614485580E+02  0.92840442085E+02  0.10296475314E+03  0.41800000000E+01 0. -1.
        -11    1    3    3    0    0  0.65231237046E+01 -0.50924236517E+02  0.14681691573E+03  0.15553467701E+03  0.00000000000E+00 0.  1.
         11    1    3    3    0    0 -0.58230039960E+02  0.13429586381E+02  0.17627700956E+03  0.18613080198E+03  0.00000000000E+00 0. -1.
</event>
<event>
 8    1  0.8061721E-006  0.8030082E+02  0.7561462E-02  0.1328200E+00
         -1   -1    0    0    0  501 -0.00000000000E+00  0.00000000000E+00  0.29600363890E+03  0.29600363890E+03  0.00000000000E+00 0.  1.
          1   -1    0    0  501    0  0.00000000000E+00 -0.00000000000E+00 -0.56917384268E+02  0.56917384268E+02  0.00000000000E+00 0. -1.
         23    2    1    2    0    0 -0.61196652748E+02  0.18458741720E+02  0.14999370358E+03  0.18658064279E+03  0.90710912768E+02 0.  0.
         23    2    1    2    0    0  0.61196652748E+02 -0.18458741720E+02  0.89092551051E+02  0.16634038038E+03  0.12508350826E+03 0.  0.
          5    1    4    4  502    0  0.38100266840E+02  0.25150954813E+02  0.10479652445E+03  0.11438524729E+03  0.41800000000E+01 0. -1.
         -5    1    4    4    0  502  0.23096385907E+02 -0.43609696532E+02 -0.15703973400E+02  0.51955133088E+02  0.41800000000E+01 0. -1.
        -11    1    3    3    0    0 -0.21134904909E+02  0.28657037296E-01 -0.79619586563E+01  0.22584902311E+02  0.00000000000E+00 0. -1.
         11    1    3    3    0    0 -0.40061747838E+02  0.18430084683E+02  0.15795566224E+03  0.16399574047E+03  0.00000000000E+00 0.  1.
</event>
<event>
 7    1  0.8061721E-006  0.1099645E+03  0.7561462E-02  0.1260636E+00
         -1   -1    0    0    0  501 -0.00000000000E+00  0.00000000000E+00  0.16561947567E+02  0.16561947567E+02  0.00000000000E+00 0.  1.
          1   -1    0    0  501    0  0.00000000000E+00 -0.00000000000E+00 -0.12688722562E+04  0.12688722562E+04  0.00000000000E+00 0. -1.
         23    2    1    2    0    0  0.22325079704E+02  0.13115267102E+02 -0.21938911230E+03  0.23827857879E+03  0.89301058782E+02 0.  0.
          5    1    1    2  502    0 -0.18859039129E+02  0.56630377093E+02 -0.83670310762E+03  0.83883980930E+03  0.41800000000E+01 0. -1.
         -5    1    1    2    0  502 -0.34660405752E+01 -0.69745644195E+02 -0.19621808867E+03  0.20831581563E+03  0.41800000000E+01 0.  1.
        -11    1    3    3    0    0 -0.13147033241E+02 -0.30916289308E+02 -0.55127455925E+02  0.64557709256E+02  0.00000000000E+00 0. -1.
         11    1    3    3    0    0  0.35472112945E+02  0.44031556410E+02 -0.16426165638E+03  0.17372086954E+03  0.00000000000E+00 0.  1.
</event>
<event>
 8    1  0.8803470E-006  0.2063555E+03  0.7561462E-02  0.1144485E+00
          1   -1    0    0  501    0  0.00000000000E+00  0.00000000000E+00  0.87567330216E+03  0.87567330216E+03  0.00000000000E+00 0. -1.
         -1   -1    0    0    0  501 -0.00000000000E+00 -0.00000000000E+00 -0.51844321494E+02  0.51844321494E+02  0.00000000000E+00 0.  1.
         23    2    1    2    0    0  0.17771447898E+03 -0.40444767017E+02  0.36929837569E+03  0.42208357427E+03  0.92493449281E+02 0.  0.
         23    2    1    2    0    0 -0.17771447898E+03  0.40444767017E+02  0.45453060497E+03  0.50543404938E+03  0.12508913702E+03 0.  0.
          5    1    4    4  502    0 -0.16626604121E+03  0.67797251098E+02  0.31390439505E+03  0.36165495344E+03  0.41800000000E+01 0. -1.
         -5    1    4    4    0  502 -0.11448437768E+02 -0.27352484081E+02  0.14062620992E+03  0.14377909594E+03  0.41800000000E+01 0. -1.
        -11    1    3    3    0    0  0.63954725326E+02 -0.60044322161E+02  0.13690411529E+03  0.16259847570E+03  0.00000000000E+00 0.  1.
         11    1    3    3    0    0  0.11375975366E+03  0.19599555144E+02  0.23239426040E+03  0.25948509857E+03  0.00000000000E+00 0. -1.
</event>
<event>
 8    1  0.8061721E-006  0.1266570E+03  0.7561462E-02  0.1232502E+00
         -1   -1    0    0    0  501 -0.00000000000E+00  0.00000000000E+00  0.16703109651E+03  0.16703109651E+03  0.00000000000E+00 0.  1.
          1   -1    0    0  501    0  0.00000000000E+00 -0.00000000000E+00 -0.37384538914E+03  0.37384538914E+03  0.00000000000E+00 0. -1.
         23    2    1    2    0    0  0.10811496345E+03 -0.16280356673E+02  0.11105405610E+03  0.18221006788E+03  0.94411917280E+02 0.  0.
         23    2    1    2    0    0 -0.10811496345E+03  0.16280356673E+02 -0.31786834874E+03  0.35866641776E+03  0.12508963493E+03 0.  0.
          5    1    4    4  502    0 -0.90072200262E+02 -0.27236913434E+02 -0.10697087583E+03  0.14253101904E+03  0.41800000000E+01 0.  1.
         -5    1    4    4    0  502 -0.18042763189E+02  0.43517270108E+02 -0.21089747291E+03  0.21613539872E+03  0.41800000000E+01 0.  1.
        -11    1    3    3    0    0  0.93780965679E+02 -0.22110565057E+02  0.31807111600E+02  0.10146644253E+03  0.00000000000E+00 0. -1.
         11    1    3    3    0    0  0.14333997772E+02  0.58302083833E+01  0.79246944505E+02  0.80743625354E+02  0.00000000000E+00 0.  1.
</event>
<event>
 7    1  0.8061721E-006  0.1126284E+03  0.7561462E-02  0.1255778E+00
         -2   -1    0    0    0  501 -0.00000000000E+00  0.00000000000E+00  0.12489550663E+03  0.12489550663E+03  0.00000000000E+00 0.  1.
          2   -1    0    0  501    0  0.00000000000E+00 -0.00000000000E+00 -0.13095575015E+03  0.13095575015E+03  0.00000000000E+00 0. -1.
         23    2    1    2    0    0 -0.14560322343E+02 -0.13990944707E+02  0.37750237310E+02  0.98640468712E+02  0.88865697151E+02 0.  0.
          5    1    1    2  502    0 -0.63397679264E+02 -0.16716032677E+02 -0.29867852747E+02  0.72168223702E+02  0.41800000000E+01 0. -1.
         -5    1    1    2    0  502  0.77958001607E+02  0.30706977385E+02 -0.13942628084E+02  0.85042564358E+02  0.41800000000E+01 0.  1.
        -11    1    3    3    0    0 -0.39234286499E+02  0.10796690069E+02  0.47290203858E+02  0.62387988704E+02  0.00000000000E+00 0.  1.
         11    1    3    3    0    0  0.24673964157E+02 -0.24787634776E+02 -0.95399665480E+01  0.36252480008E+02  0.00000000000E+00 0. -1.
</event>
<event>
 8    1  0.8061721E-006  0.6424267E+02  0.7561462E-02  0.1380843E+00
          1   -1    0    0  501    0  0.00000000000E+00  0.00000000000E+00  0.40904242198E+03  0.40904242198E+03  0.00000000000E+00 0.  1.
         -1   -1    0    0    0  501 -0.00000000000E+00 -0.00000000000E+00 -0.42064470129E+02  0.42064470129E+02  0.00000000000E+00 0. -1.
         23    2    1    2    0    0  0.28490386047E+02 -0.21719543666E+02  0.47719433016E+02  0.10635287702E+03  0.88036069252E+02 0.  0.
         23    2    1    2    0    0 -0.28490386047E+02  0.21719543666E+02  0.31925851883E+03  0.34475401508E+03  0.12508352568E+03 0.  0.
          5    1    4    4  502    0 -0.25909052686E+02 -0.37810962982E+01  0.21698726741E+01  0.26603692370E+02  0.41800000000E+01 0.  1.
         -5    1    4    4    0  502 -0.25813333608E+01  0.25500639964E+02  0.31708864616E+03  0.31815032271E+03  0.41800000000E+01 0.  1.
        -11    1    3    3    0    0  0.10042212590E+02 -0.45107941268E+02 -0.42960892844E+01  0.46411515621E+02  0.00000000000E+00 0. -1.
         11    1    3    3    0    0  0.18448173457E+02  0.23388397602E+02  0.52015522301E+02  0.59941361400E+02  0.00000000000E+00 0.  1.
</event>
<event>
 8    1  0.8061721E-006  0.1329577E+03  0.7561462E-02  0.1223132E+00
          2   -1    0    0  501    0  0.00000000000E+00  0.00000000000E+00  0.62431622857E+03  0.62431622857E+03  0.00000000000E+00 0. -1.
         -2   -1    0    0    0  501 -0.00000000000E+00 -0.00000000000E+00 -0.41361988896E+02  0.41361988896E+02  0.00000000000E+00 0.  1.
         23    2    1    2    0    0 -0.10353905869E+03  0.10636882552E+02  0.15792781625E+03  0.21056391969E+03  0.92533719182E+02 0.  0.
         23    2    1    2    0    0  0.10353905869E+03 -0.10636882552E+02  0.42502642342E+03  0.45511429777E+03  0.12509229987E+03 0.  0.
          5    1    4    4  502    0  0.67682745099E+02  0.32931430196E+02  0.36468609349E+03  0.37239609593E+03  0.41800000000E+01 0.  1.
         -5    1    4    4    0  502  0.35856313590E+02 -0.43568312748E+02  0.60340329930E+02  0.82718201843E+02  0.41800000000E+01 0.  1.
        -11    1    3    3    0    0 -0.47088937173E+02 -0.37157924628E+02  0.10001316917E+03  0.11662209642E+03  0.00000000000E+00 0.  1.
         11    1    3    3    0    0 -0.56450121517E+02  0.47794807180E+02  0.57914647083E+02  0.93941823271E+02  0.00000000000E+00 0. -1.
</event>
<event>
 8    1  0.8061721E-006  0.1157911E+03  0.7561462E-02  0.1250206E+00
          1   -1    0    0  501    0  0.00000000000E+00  0.00000000000E+00  0.11790524040E+04  0.11790524040E+04  0.00000000000E+00 0. -1.
         -1   -1    0    0    0  501 -0.00000000000E+00 -0.00000000000E+00 -0.11528640512E+02  0.11528640512E+02  0.00000000000E+00 0.  1.
         23    2    1    2    0    0  0.13343552996E+02  0.41597417498E+02  0.47568193887E+03  0.48616542807E+03  0.90416375366E+02 0.  0.
         23    2    1    2    0    0 -0.13343552996E+02 -0.41597417498E+02  0.69184182457E+03  0.70441561639E+03  0.12509138598E+03 0.  0.
          5    1    4    4  502    0  0.54736764879E+02 -0.60483875051E+01  0.26402479758E+03  0.26973924920E+03  0.41800000000E+01 0. -1.
         -5    1    4    4    0  502 -0.68080317875E+02 -0.35549029992E+02  0.42781702699E+03  0.43467636719E+03  0.41800000000E+01 0. -1.
        -11    1    3    3    0    0  0.15535345203E+02 -0.26814867691E+02  0.11856600918E+03  0.12254910286E+03  0.00000000000E+00 0.  1.
         11    1    3    3    0    0 -0.21917922069E+01  0.68412285189E+02  0.35711592970E+03  0.36361632521E+03  0.00000000000E+00 0. -1.
</event>
<event>
 8    1  0.8061721E-006  0.9835935E+02  0.7561462E-02  0.1283784E+00
         -1   -1    0    0    0  501 -0.00000000000E+00  0.00000000000E+00  0.24275491762E+02  0.24275491762E+02  0.00000000000E+00 0.  1.
          1   -1    0    0  501    0  0.00000000000E+00 -0.00000000000E+00 -0.92880452517E+03  0.92880452517E+03  0.00000000000E+00 0. -1.
         23    2    1    2    0    0  0.74714014540E+01  0.20851915329E+02 -0.88694075731E+02  0.12880268448E+03  0.90735154422E+02 0.  0.
         23    2    1    2    0    0 -0.74714014540E+01 -0.20851915329E+02 -0.81583495768E+03  0.82427733245E+03  0.11556737605E+03 0.  0.
          5    1    4    4  502    0 -0.43540852703E+02 -0.46870273356E+02 -0.62521077314E+03  0.62848914997E+03  0.41800000000E+01 0. -1.
         -5    1    4    4    0  502  0.36069451249E+02  0.26018358027E+02 -0.19062418453E+03  0.19578818248E+03  0.41800000000E+01 0.  1.
        -11    1    3    3    0    0  0.17413600317E+02  0.52212365964E+02 -0.33164533808E+02  0.64259247881E+02  0.00000000000E+00 0.  1.
         11    1    3    3    0    0 -0.99421988633E+01 -0.31360450635E+02 -0.55529541924E+02  0.64543436603E+02  0.00000000000E+00 0. -1.
</event>
<event>
 8    1  0.8061721E-006  0.1201541E+03  0.7561462E-02  0.1242843E+00
          1   -1    0    0  501    0  0.00000000000E+00  0.00000000000E+00  0.75730845129E+02  0.75730845129E+02  0.00000000000E+00 0. -1.
         -1   -1    0    0    0  501 -0.00000000000E+00 -0.00000000000E+00 -0.26943531979E+03  0.26943531979E+03  0.00000000000E+00 0.  1.
         23    2    1    2    0    0 -0.49952426801E+02  0.76743127563E+02 -0.66668908433E+02  0.14474041618E+03  0.90112663669E+02 0.  0.
         23    2    1    2    0    0  0.49952426801E+02 -0.76743127563E+02 -0.12703556623E+03  0.20042574874E+03  0.12509073946E+03 0.  0.
          5    1    4    4  502    0 -0.37851873459E+02 -0.24986688987E+02 -0.70116200022E+02  0.83611320145E+02  0.41800000000E+01 0.  1.
         -5    1    4    4    0  502  0.87804300259E+02 -0.51756438576E+02 -0.56919366208E+02  0.11681442859E+03  0.41800000000E+01 0.  1.
        -11    1    3    3    0    0 -0.10460008219E+02  0.28781273498E+02 -0.75978776646E+02  0.81917934402E+02  0.00000000000E+00 0.  1.
         11    1    3    3    0    0 -0.39492418582E+02  0.47961854066E+02  0.93098682127E+01  0.62822481780E+02  0.00000000000E+00 0. -1.
</event>
<event>
 8    1  0.8061721E-006  0.2953797E+03  0.7561462E-02  0.1087573E+00
         -2   -1    0    0    0  501 -0.00000000000E+00  0.00000000000E+00  0.50488343902E+02  0.50488343902E+02  0.00000000000E+00 0.  1.
          2   -1    0    0  501    0  0.00000000000E+00 -0.00000000000E+00 -0.20851727663E+04  0.20851727663E+04  0.00000000000E+00 0. -1.
         23    2    1    2    0    0 -0.45803988873E+02 -0.28487699731E+03 -0.66593551692E+03  0.73124844500E+03  0.89449799481E+02 0.  0.
         23    2    1    2    0    0  0.45803988873E+02  0.28487699731E+03 -0.13687489055E+04  0.14044126652E+04  0.12509380057E+03 0.  0.
          5    1    4    4  502    0  0.17208040051E+02  0.93471511411E+02 -0.75214151739E+03  0.75813414029E+03  0.41800000000E+01 0. -1.
         -5    1    4    4    0  502  0.28595948822E+02  0.19140548590E+03 -0.61660738807E+03  0.64627852489E+03  0.41800000000E+01 0. -1.
        -11    1    3    3    0    0 -0.66321214823E+02 -0.13120232537E+03 -0.31874294664E+03  0.35101227863E+03  0.00000000000E+00 0.  1.
         11    1    3    3    0    0  0.20517225951E+02 -0.15367467194E+03 -0.34719257028E+03  0.38023616637E+03  0.00000000000E+00 0. -1.
</event>
<event>
 8    1  0.8061721E-006  0.9618384E+02  0.7561462E-02  0.1288532E+00
         -1   -1    0    0    0  501 -0.00000000000E+00  0.00000000000E+00  0.19881511819E+02  0.19881511819E+02  0.00000000000E+00 0.  1.
          1   -1    0    0  501    0  0.00000000000E+00 -0.00000000000E+00 -0.62186372096E+03  0.62186372096E+03  0.00000000000E+00 0. -1.
         23    2    1    2    0    0 -0.13389925102E+02  0.20934446809E+02 -0.19616648966E+03  0.21636035947E+03  0.87823529466E+02 0.  0.
         23    2    1    2    0    0  0.13389925102E+02 -0.20934446809E+02 -0.40581571948E+03  0.42538487330E+03  0.12509336954E+03 0.  0.
          5    1    4    4  502    0 -0.46502872553E+02 -0.90586198164E+01 -0.73957804395E+02  0.87930682811E+02  0.41800000000E+01 0. -1.
         -5    1    4    4    0  502  0.59892797655E+02 -0.11875826993E+02 -0.33185791508E+03  0.33745419049E+03  0.41800000000E+01 0. -1.
        -11    1    3    3    0    0  0.96475475014E+00  0.50620876048E+02 -0.15804196951E+03  0.16595381276E+03  0.00000000000E+00 0. -1.
         11    1    3    3    0    0 -0.14354679852E+02 -0.29686429239E+02 -0.38124520153E+02  0.50406546713E+02  0.00000000000E+00 0.  1.
</event>
<event>
 7    1  0.8061721E-006  0.1279037E+03  0.7561462E-02  0.1230600E+00
          3   -1    0    0  501    0  0.00000000000E+00  0.00000000000E+00  0.62546746360E+03  0.62546746360E+03  0.00000000000E+00 0. -1.
         -3   -1    0    0    0  501 -0.00000000000E+00 -0.00000000000E+00 -0.28364315923E+02  0.28364315923E+02  0.00000000000E+00 0.  1.
         23    2    1    2    0    0  0.24361080756E+02 -0.10220007424E+02  0.15358031782E+03  0.18181381199E+03  0.93655952296E+02 0.  0.
          5    1    1    2  502    0  0.46765639098E+01  0.82084122107E+02  0.19529749439E+03  0.21193927684E+03  0.41800000000E+01 0.  1.
         -5    1    1    2    0  502 -0.29037644665E+02 -0.71864114682E+02  0.24822533546E+03  0.26007869069E+03  0.41800000000E+01 0. -1.
        -11    1    3    3    0    0  0.59152971706E+02 -0.14229188880E+02  0.11192556931E+03  0.12739260946E+03  0.00000000000E+00 0.  1.
         11    1    3    3    0    0 -0.34791890951E+02  0.40091814562E+01  0.41654748512E+02  0.54421202536E+02  0.00000000000E+00 0. -1.
</event>
<event>
 8    1  0.8061721E-006  0.1029775E+03  0.7561462E-02  0.1274156E+00
          1   -1    0    0  501    0  0.00000000000E+00  0.00000000000E+00  0.36189678568E+03  0.36189678568E+03  0.00000000000E+00 0. -1.
         -1   -1    0    0    0  501 -0.00000000000E+00 -0.00000000000E+00 -0.45082624743E+02  0.45082624743E+02  0.00000000000E+00 0.  1.
         23    2    1    2    0    0 -0.60222795378E+02  0.20821005389E+02  0.10348039257E+03  0.15159960857E+03  0.90630846414E+02 0.  0.
         23    2    1    2    0    0  0.60222795378E+02 -0.20821005389E+02  0.21333376836E+03  0.25537980186E+03  0.12508895684E+03 0.  0.
          5    1    4    4  502    0  0.67250274152E+02  0.22174974865E+02  0.51305612346E+02  0.87544657986E+02  0.41800000000E+01 0. -1.
         -5    1    4    4    0  502 -0.70274787744E+01 -0.42995980254E+02  0.16202815602E+03  0.16783514387E+03  0.41800000000E+01 0. -1.
        -11    1    3    3    0    0 -0.58084408767E+02 -0.11205504218E+02  0.10383091215E+03  0.11949987525E+03  0.00000000000E+00 0. -1.
         11    1    3    3    0    0 -0.21383866107E+01  0.32026509607E+02 -0.35051957927E+00  0.32099733315E+02  0.00000000000E+00 0.  1.
</event>
<event>
 8    1  0.8061721E-006  0.1386489E+03  0.7561462E-02  0.1215159E+00
         -2   -1    0    0    0  501 -0.00000000000E+00  0.00000000000E+00  0.47536427749E+03  0.47536427749E+03  0.00000000000E+00 0.  1.
          2   -1    0    0  501    0  0.00000000000E+00 -0.00000000000E+00 -0.53448172228E+02  0.53448172228E+02  0.00000000000E+00 0. -1.
         23    2    1    2    0    0 -0.10773683737E+03 -0.21304381617E+02  0.25869562998E+03  0.29569112590E+03  0.91916865493E+02 0.  0.
         23    2    1    2    0    0  0.10773683737E+03  0.21304381617E+02  0.16322047528E+03  0.23312132382E+03  0.12507407912E+03 0.  0.
          5    1    4    4  502    0  0.13220882402E+03  0.35278599786E+02  0.12446286367E+03  0.18501953839E+03  0.41800000000E+01 0. -1.
         -5    1    4    4    0  502 -0.24471986653E+02 -0.13974218169E+02  0.38757611611E+02  0.48101785434E+02  0.41800000000E+01 0. -1.
        -11    1    3    3    0    0 -0.31758341934E+02 -0.16477270404E+02  0.18938457020E+03  0.19273455360E+03  0.00000000000E+00 0.  1.
         11    1    3    3    0    0 -0.75978495432E+02 -0.48271112131E+01  0.69311059777E+02  0.10295657229E+03  0.00000000000E+00 0. -1.
</event>
<event>
 8    1  0.8061721E-006  0.2036323E+03  0.7561462E-02  0.1146710E+00
          3   -1    0    0  501    0  0.00000000000E+00  0.00000000000E+00  0.61215405448E+02  0.61215405448E+02  0.00000000000E+00 0. -1.
         -3   -1    0    0    0  501 -0.00000000000E+00 -0.00000000000E+00 -0.77089893654E+03  0.77089893654E+03  0.00000000000E+00 0.  1.
         23    2    1    2    0    0 -0.46453373752E+02  0.17666926630E+03 -0.26097368747E+03  0.33175615950E+03  0.92654941720E+02 0.  0.
         23    2    1    2    0    0  0.46453373752E+02 -0.17666926630E+03 -0.44870984362E+03  0.50035818249E+03  0.12509133239E+03 0.  0.
          5    1    4    4  502    0  0.82233164494E+02 -0.15677265090E+03 -0.32684649438E+03  0.37173385735E+03  0.41800000000E+01 0.  1.
         -5    1    4    4    0  502 -0.35779790742E+02 -0.19896615398E+02 -0.12186334925E+03  0.12862432515E+03  0.41800000000E+01 0.  1.
        -11    1    3    3    0    0  0.62019496791E+00  0.93211128177E+02 -0.65081087576E+02  0.11368485835E+03  0.00000000000E+00 0. -1.
         11    1    3    3    0    0 -0.47073568720E+02  0.83458138119E+02 -0.19589259990E+03  0.21807130115E+03  0.00000000000E+00 0.  1.
</event>
<event>
 8    1  0.8061721E-006  0.2104245E+03  0.7561462E-02  0.1141230E+00
          2   -1    0    0  501    0  0.00000000000E+00  0.00000000000E+00  0.92763976301E+02  0.92763976301E+02  0.00000000000E+00 0.  1.
         -2   -1    0    0    0  501 -0.00000000000E+00 -0.00000000000E+00 -0.59799954192E+03  0.59799954192E+03  0.00000000000E+00 0. -1.
         23    2    1    2    0    0  0.20383675221E+03 -0.42343372530E+02 -0.26561609221E+03  0.34957913932E+03  0.91166240763E+02 0.  0.
         23    2    1    2    0    0 -0.20383675221E+03  0.42343372530E+02 -0.23961947340E+03  0.34118437890E+03  0.12508759180E+03 0.  0.
          5    1    4    4  502    0 -0.73430925075E+02  0.68689997054E+01 -0.17775697446E+03  0.19249493054E+03  0.41800000000E+01 0.  1.
         -5    1    4    4    0  502 -0.13040582713E+03  0.35474372825E+02 -0.61862498940E+02  0.14868944836E+03  0.41800000000E+01 0.  1.
        -11    1    3    3    0    0  0.12350217293E+03 -0.61410416518E+01 -0.89486833090E+02  0.15263810929E+03  0.00000000000E+00 0.  1.
         11    1    3    3    0    0  0.80334579278E+02 -0.36202330878E+02 -0.17612925912E+03  0.19694103003E+03  0.00000000000E+00 0. -1.
</event>
<event>
 8    1  0.8061721E-006  0.1271920E+03  0.7561462E-02  0.1231683E+00
         -2   -1    0    0    0  501 -0.00000000000E+00  0.00000000000E+00  0.39412893315E+02  0.39412893315E+02  0.00000000000E+00 0.  1.
          2   -1    0    0  501    0  0.00000000000E+00 -0.00000000000E+00 -0.63282902005E+03  0.63282902005E+03  0.00000000000E+00 0. -1.
         23    2    1    2    0    0 -0.42633725105E+02  0.81394263768E+02 -0.12712636112E+03  0.18080003011E+03  0.89915952449E+02 0.  0.
         23    2    1    2    0    0  0.42633725105E+02 -0.81394263768E+02 -0.46628976561E+03  0.49144188325E+03  0.12508524458E+03 0.  0.
          5    1    4    4  502    0  0.62572229589E+02 -0.27098982336E+02 -0.38824830723E+03  0.39421296177E+03  0.41800000000E+01 0. -1.
         -5    1    4    4    0  502 -0.19938504483E+02 -0.54295281432E+02 -0.78041458379E+02  0.97228921483E+02  0.41800000000E+01 0. -1.
        -11    1    3    3    0    0 -0.17846187743E+02  0.97103744035E+02 -0.91148319490E+02  0.13437127546E+03  0.00000000000E+00 0.  1.
         11    1    3    3    0    0 -0.24787537362E+02 -0.15709480267E+02 -0.35978041634E+02  0.46428754652E+02  0.00000000000E+00 0. -1.
</event>
<event>
 8    1  0.8061721E-006  0.1422127E+03  0.7561462E-02  0.1210382E+00
         -1   -1    0    0    0  501 -0.00000000000E+00  0.00000000000E+00  0.19144407840E+02  0.19144407840E+02  0.00000000000E+00 0.  1.
          1   -1    0    0  501    0  0.00000000000E+00 -0.00000000000E+00 -0.11952158371E+04  0.11952158371E+04  0.00000000000E+00 0. -1.
         23    2    1    2    0    0 -0.10176931886E+03 -0.75067752327E+00 -0.49172715168E+03  0.51126187809E+03  0.96101813207E+02 0.  0.
         23    2    1    2    0    0  0.10176931886E+03  0.75067752327E+00 -0.68434427755E+03  0.70309836683E+03  0.12515057110E+03 0.  0.
          5    1    4    4  502    0 -0.28699812195E+02  0.93875520612E+01 -0.13080735347E+03  0.13431247699E+03  0.41800000000E+01 0. -1.
         -5    1    4    4    0  502  0.13046913105E+03 -0.86368745379E+01 -0.55353692409E+03  0.56878588985E+03  0.41800000000E+01 0. -1.
        -11    1    3    3    0    0 -0.20673727315E+02 -0.30409061767E+02 -0.55535997145E+02  0.66606013374E+02  0.00000000000E+00 0.  1.
         11    1    3    3    0    0 -0.81095591543E+02  0.29658384244E+02 -0.43619115454E+03  0.44465586471E+03  0.00000000000E+00 0. -1.
</event>
<event>
 8    1  0.8061721E-006  0.1349690E+03  0.7561462E-02  0.1220263E+00
         -4   -1    0    0    0  501 -0.00000000000E+00  0.00000000000E+00  0.22838401970E+03  0.22838401970E+03  0.00000000000E+00 0.  1.
          4   -1    0    0  501    0  0.00000000000E+00 -0.00000000000E+00 -0.14259846801E+03  0.14259846801E+03  0.00000000000E+00 0. -1.
         23    2    1    2    0    0 -0.11835893809E+03 -0.60717468092E+02  0.95798099297E+02  0.18810838196E+03  0.92260708753E+02 0.  0.
         23    2    1    2    0    0  0.11835893809E+03  0.60717468092E+02 -0.10012547605E+02  0.18287410575E+03  0.12508892152E+03 0.  0.
          5    1    4    4  502    0  0.10492545135E+03  0.55133959309E+02  0.44213086161E+02  0.12657556319E+03  0.41800000000E+01 0. -1.
         -5    1    4    4    0  502  0.13433486741E+02  0.55835087829E+01 -0.54225633766E+02  0.56298542553E+02  0.41800000000E+01 0. -1.
        -11    1    3    3    0    0 -0.10251941891E+03 -0.39829239702E+02  0.11225572574E+03  0.15715580661E+03  0.00000000000E+00 0.  1.
         11    1    3    3    0    0 -0.15839519180E+02 -0.20888228389E+02 -0.16457626444E+02  0.30952575358E+02  0.00000000000E+00 0. -1.
</event>
<event>
 8    1  0.8061721E-006  0.1141562E+03  0.7561462E-02  0.1253061E+00
          1   -1    0    0  501    0  0.00000000000E+00  0.00000000000E+00  0.52927877683E+03  0.52927877683E+03  0.00000000000E+00 0. -1.
         -1   -1    0    0    0  501 -0.00000000000E+00 -0.00000000000E+00 -0.33299166611E+02  0.33299166611E+02  0.00000000000E+00 0.  1.
         23    2    1    2    0    0  0.88576733832E+01  0.76149955893E+02  0.20553320318E+03  0.23717850918E+03  0.90180227581E+02 0.  0.
         23    2    1    2    0    0 -0.88576733832E+01 -0.76149955893E+02  0.29044640703E+03  0.32539943426E+03  0.12509357416E+03 0.  0.
          5    1    4    4  502    0  0.34772295078E+02 -0.47638026983E+02  0.44619826164E+02  0.74073581031E+02  0.41800000000E+01 0. -1.
         -5    1    4    4    0  502 -0.43629968462E+02 -0.28511928910E+02  0.24582658087E+03  0.25132585323E+03  0.41800000000E+01 0. -1.
        -11    1    3    3    0    0  0.32624902651E+02 -0.43952721013E+01  0.75761777500E+02  0.82604779642E+02  0.00000000000E+00 0.  1.
         11    1    3    3    0    0 -0.23767229268E+02  0.80545227994E+02  0.12977142568E+03  0.15457372954E+03  0.00000000000E+00 0. -1.
</event>
<event>
 8    1  0.8061721E-006  0.1039563E+03  0.7561462E-02  0.1272190E+00
         -2   -1    0    0    0  501 -0.00000000000E+00  0.00000000000E+00  0.41504517770E+02  0.41504517770E+02  0.00000000000E+00 0.  1.
          2   -1    0    0  501    0  0.00000000000E+00 -0.00000000000E+00 -0.45315167575E+03  0.45315167575E+03  0.00000000000E+00 0. -1.
         23    2    1    2    0    0  0.70713140116E+02 -0.49658176846E+02 -0.17557651399E+03  0.21706324297E+03  0.93931126210E+02 0.  0.
         23    2    1    2    0    0 -0.70713140116E+02  0.49658176846E+02 -0.23607064398E+03  0.27759295054E+03  0.11773790608E+03 0.  0.
          5    1    4    4  502    0 -0.21429921125E+02 -0.40082549729E+00 -0.19478288124E+03  0.19600317703E+03  0.41800000000E+01 0. -1.
         -5    1    4    4    0  502 -0.49283218991E+02  0.50059002343E+02 -0.41287762738E+02  0.81589773511E+02  0.41800000000E+01 0.  1.
        -11    1    3    3    0    0  0.44908419948E+02 -0.69778959696E+02 -0.77019032534E+02  0.11321572669E+03  0.00000000000E+00 0. -1.
         11    1    3    3    0    0  0.25804720168E+02  0.20120782851E+02 -0.98557481461E+02  0.10384751628E+03  0.00000000000E+00 0.  1.
</event>
<event>
 8    1  0.8061721E-006  0.2429220E+03  0.7561462E-02  0.1117861E+00
         -3   -1    0    0    0  501 -0.00000000000E+00  0.00000000000E+00  0.17106082493E+04  0.17106082493E+04  0.00000000000E+00 0.  1.
          3   -1    0    0  501    0  0.00000000000E+00 -0.00000000000E+00 -0.44858517442E+02  0.44858517442E+02  0.00000000000E+00 0. -1.
         23    2    1    2    0    0  0.83986937153E+02  0.21099696311E+03  0.11793699808E+04  0.12042985076E+04  0.88587921477E+02 0.  0.
         23    2    1    2    0    0 -0.83986937153E+02 -0.21099696311E+03  0.48637975109E+03  0.55116825914E+03  0.12509062138E+03 0.  0.
          5    1    4    4  502    0 -0.10223850337E+03 -0.16598903409E+03  0.29457731900E+03  0.35326808557E+03  0.41800000000E+01 0. -1.
         -5    1    4    4    0  502  0.18251566216E+02 -0.45007929016E+02  0.19180243209E+03  0.19790017357E+03  0.41800000000E+01 0. -1.
        -11    1    3    3    0    0  0.93463164606E+02  0.12759356656E+03  0.70114710134E+03  0.71876473138E+03  0.00000000000E+00 0. -1.
         11    1    3    3    0    0 -0.94762274525E+01  0.83403396552E+02  0.47822287947E+03  0.48553377626E+03  0.00000000000E+00 0.  1.
</event>
<event>
 8    1  0.8061721E-006  0.1038570E+03  0.7561462E-02  0.1272388E+00
          2   -1    0    0  501    0  0.00000000000E+00  0.00000000000E+00  0.58107841880E+02  0.58107841880E+02  0.00000000000E+00 0.  1.
         -2   -1    0    0    0  501 -0.00000000000E+00 -0.00000000000E+00 -0.24827763259E+03  0.24827763259E+03  0.00000000000E+00 0. -1.
         23    2    1    2    0    0 -0.12029687488E+02  0.59681619684E+01 -0.14746310925E+03  0.17354829812E+03  0.90516909200E+02 0.  0.
         23    2    1    2    0    0  0.12029687488E+02 -0.59681619684E+01 -0.42706681463E+02  0.13283717636E+03  0.12506607231E+03 0.  0.
          5    1    4    4  502    0 -0.44189066023E+02  0.26440905060E+02 -0.43904500654E+02  0.67800240369E+02  0.41800000000E+01 0.  1.
         -5    1    4    4    0  502  0.56218753511E+02 -0.32409067028E+02  0.11978191909E+01  0.65036935989E+02  0.41800000000E+01 0.  1.
        -11    1    3    3    0    0  0.36344567927E+02 -0.13648374594E+02 -0.71831602498E+02  0.81651606624E+02  0.00000000000E+00 0.  1.
         11    1    3    3    0    0 -0.48374255415E+02  0.19616536562E+02 -0.75631506750E+02  0.91896691491E+02  0.00000000000E+00 0. -1.
</event>
<event>
 7    1  0.8061721E-006  0.2160786E+03  0.7561462E-02  0.1136841E+00
         -1   -1    0    0    0  501 -0.00000000000E+00  0.00000000000E+00  0.40900178290E+03  0.40900178290E+03  0.00000000000E+00 0.  1.
          1   -1    0    0  501    0  0.00000000000E+00 -0.00000000000E+00 -0.18652630550E+03  0.18652630550E+03  0.00000000000E+00 0. -1.
         23    2    1    2    0    0  0.36170196114E+02 -0.49323052799E+02  0.23821075777E+03  0.26241945252E+03  0.91534459734E+02 0.  0.
          5    1    1    2  502    0  0.14466873172E+03  0.22693473399E+02  0.16598290967E+02  0.14743476977E+03  0.41800000000E+01 0. -1.
         -5    1    1    2    0  502 -0.18083892784E+03  0.26629579400E+02 -0.32333571333E+02  0.18567386611E+03  0.41800000000E+01 0.  1.
        -11    1    3    3    0    0  0.45010852836E+02 -0.68351603660E+02  0.21966712876E+03  0.23441750373E+03  0.00000000000E+00 0.  1.
         11    1    3    3    0    0 -0.88406567218E+01  0.19028550862E+02  0.18543629001E+02  0.28001948784E+02  0.00000000000E+00 0. -1.
</event>
<event>
 8    1  0.8061721E-006  0.1697392E+03  0.7561462E-02  0.1178120E+00
          2   -1    0    0  501    0  0.00000000000E+00  0.00000000000E+00  0.84591021454E+03  0.84591021454E+03  0.00000000000E+00 0. -1.
         -2   -1    0    0    0  501 -0.00000000000E+00 -0.00000000000E+00 -0.45796921824E+02  0.45796921824E+02  0.00000000000E+00 0.  1.
         23    2    1    2    0    0  0.55473741282E+02 -0.13457503432E+03  0.21529129329E+03  0.27619722786E+03  0.93524284955E+02 0.  0.
         23    2    1    2    0    0 -0.55473741282E+02  0.13457503432E+03  0.58482199943E+03  0.61550990850E+03  0.12509156893E+03 0.  0.
          5    1    4    4  502    0  0.24775030546E+02 -0.76016694456E+01  0.11984877380E+03  0.12268980601E+03  0.41800000000E+01 0.  1.
         -5    1    4    4    0  502 -0.80248771828E+02  0.14217670377E+03  0.46497322562E+03  0.49282010249E+03  0.41800000000E+01 0.  1.
        -11    1    3    3    0    0  0.47250243607E+02 -0.67833469072E+02  0.47292025750E+02  0.95239176533E+02  0.00000000000E+00 0.  1.
         11    1    3    3    0    0  0.82234976745E+01 -0.66741565252E+02  0.16799926754E+03  0.18095805132E+03  0.00000000000E+00 0. -1.
</event>
<event>
 8    1  0.8061721E-006  0.1425139E+03  0.7561462E-02  0.1209986E+00
          1   -1    0    0  501    0  0.00000000000E+00  0.00000000000E+00  0.34745176085E+03  0.34745176085E+03  0.00000000000E+00 0. -1.
         -1   -1    0    0    0  501 -0.00000000000E+00 -0.00000000000E+00 -0.64748785039E+02  0.64748785039E+02  0.00000000000E+00 0.  1.
         23    2    1    2    0    0 -0.78726698974E+02  0.58766475565E+02  0.91436678996E+02  0.16343953100E+03  0.93276053985E+02 0.  0.
         23    2    1    2    0    0  0.78726698974E+02 -0.58766475565E+02  0.19126629681E+03  0.24876101488E+03  0.12509138439E+03 0.  0.
          5    1    4    4  502    0  0.66159313665E+02  0.25385010838E+02  0.11073563472E+03  0.13153443183E+03  0.41800000000E+01 0.  1.
         -5    1    4    4    0  502  0.12567385309E+02 -0.84151486403E+02  0.80530662094E+02  0.11722658305E+03  0.41800000000E+01 0.  1.
        -11    1    3    3    0    0 -0.56559367058E+02 -0.92559837984E+01  0.16067347316E+02  0.59521381770E+02  0.00000000000E+00 0.  1.
         11    1    3    3    0    0 -0.22167331916E+02  0.68022459364E+02  0.75369331680E+02  0.10391814923E+03  0.00000000000E+00 0. -1.
</event>
<event>
 8    1  0.8061721E-006  0.7955474E+02  0.7561462E-02  0.1330320E+00
          2   -1    0    0  501    0  0.00000000000E+00  0.00000000000E+00  0.68601525685E+03  0.68601525685E+03  0.00000000000E+00 0. -1.
         -2   -1    0    0    0  501 -0.00000000000E+00 -0.00000000000E+00 -0.27152390270E+02  0.27152390270E+02  0.00000000000E+00 0.  1.
         23    2    1    2    0    0 -0.52336987896E+02 -0.57423126521E+01  0.13511876832E+03  0.17212436275E+03  0.92723137588E+02 0.  0.
         23    2    1    2    0    0  0.52336987896E+02  0.57423126521E+01  0.52374409826E+03  0.54104328437E+03  0.12509124925E+03 0.  0.
          5    1    4    4  502    0  0.39932173202E+01 -0.10856023694E+02 -0.22938618102E+01  0.12511324351E+02  0.41800000000E+01 0.  1.
         -5    1    4    4    0  502  0.48343770576E+02  0.16598336347E+02  0.52603796007E+03  0.52853196002E+03  0.41800000000E+01 0.  1.
        -11    1    3    3    0    0 -0.15266392873E+02 -0.41378121526E+02  0.25257871400E+02  0.50824912789E+02  0.00000000000E+00 0. -1.
         11    1    3    3    0    0 -0.37070595023E+02  0.35635808874E+02  0.10986089692E+03  0.12129944996E+03  0.00000000000E+00 0.  1.
</event>
<event>
 8    1  0.8061721E-006  0.9911060E+02  0.7561462E-02  0.1282177E+00
          2   -1    0    0  501    0  0.00000000000E+00  0.00000000000E+00  0.15866891854E+03  0.15866891854E+03  0.00000000000E+00 0. -1.
         -2   -1    0    0    0  501 -0.00000000000E+00 -0.00000000000E+00 -0.89496686852E+02  0.89496686852E+02  0.00000000000E+00 0.  1.
         23    2    1    2    0    0  0.24392621742E+02  0.28221558891E+01 -0.10920752884E+02  0.97617674542E+02  0.93845527225E+02 0.  0.
         23    2    1    2    0    0 -0.24392621742E+02 -0.28221558891E+01  0.80092984575E+02  0.15054793085E+03  0.12508728451E+03 0.  0.
          5    1    4    4  502    0 -0.54019601716E+02 -0.29741641673E+02  0.10138040612E+01  0.61815716591E+02  0.41800000000E+01 0.  1.
         -5    1    4    4    0  502  0.29626979974E+02  0.26919485784E+02  0.79079180514E+02  0.88732214263E+02  0.41800000000E+01 0.  1.
        -11    1    3    3    0    0 -0.43586073978E+01 -0.42375250345E+02 -0.11212498371E+02  0.44049738024E+02  0.00000000000E+00 0. -1.
         11    1    3    3    0    0  0.28751229140E+02  0.45197406234E+02  0.29174548676E+00  0.53567936518E+02  0.00000000000E+00 0.  1.
</event>
<event>
 8    1  0.8061721E-006  0.1297349E+03  0.7561462E-02  0.1227850E+00
         -2   -1    0    0    0  501 -0.00000000000E+00  0.00000000000E+00  0.33113752652E+02  0.33113752652E+02  0.00000000000E+00 0.  1.
          2   -1    0    0  501    0  0.00000000000E+00 -0.00000000000E+00 -0.76937760805E+03  0.76937760805E+03  0.00000000000E+00 0. -1.
         23    2    1    2    0    0  0.41553688350E+02  0.81910737028E+02 -0.18836687460E+03  0.23303891691E+03  0.10192634346E+03 0.  0.
         23    2    1    2    0    0 -0.41553688350E+02 -0.81910737028E+02 -0.54789698081E+03  0.56945244380E+03  0.12509558872E+03 0.  0.
          5    1    4    4  502    0 -0.84674164472E+02 -0.49121869323E+02 -0.29716219735E+03  0.31289857160E+03  0.41800000000E+01 0. -1.
         -5    1    4    4    0  502  0.43120476122E+02 -0.32788867705E+02 -0.25073478346E+03  0.25655387220E+03  0.41800000000E+01 0. -1.
        -11    1    3    3    0    0 -0.86322709499E+01  0.42441202466E+02 -0.11223758070E+02  0.44740859554E+02  0.00000000000E+00 0.  1.
         11    1    3    3    0    0  0.50185959300E+02  0.39469534563E+02 -0.17714311653E+03  0.18829805735E+03  0.00000000000E+00 0. -1.
</event>
<event>
 8    1  0.8061721E-006  0.1166630E+03  0.7561462E-02  0.1248706E+00
          1   -1    0    0  501    0  0.00000000000E+00  0.00000000000E+00  0.27745547304E+02  0.27745547304E+02  0.00000000000E+00 0. -1.
         -1   -1    0    0    0  501 -0.00000000000E+00 -0.00000000000E+00 -0.58871973882E+03  0.58871973882E+03  0.00000000000E+00 0.  1.
         23    2    1    2    0    0 -0.89671284767E+01 -0.60743767073E+02 -0.31977224567E+03  0.33790329939E+03  0.90300254740E+02 0.  0.
         23    2    1    2    0    0  0.89671284767E+01  0.60743767073E+02 -0.24120194585E+03  0.27856198674E+03  0.12509271419E+03 0.  0.
          5    1    4    4  502    0 -0.31138142686E+02 -0.19892562761E+02 -0.13102457767E+03  0.13619915689E+03  0.41800000000E+01 0.  1.
         -5    1    4    4    0  502  0.40105271163E+02  0.80636329835E+02 -0.11017736818E+03  0.14236282985E+03  0.41800000000E+01 0.  1.
        -11    1    3    3    0    0 -0.42551827309E+02 -0.58480922026E+02 -0.17677324697E+03  0.19099596094E+03  0.00000000000E+00 0. -1.
         11    1    3    3    0    0  0.33584698832E+02 -0.22628450472E+01 -0.14299899869E+03  0.14690733845E+03  0.00000000000E+00 0.  1.
</event>
<event>
 8    1  0.8061721E-006  0.1010965E+03  0.7561462E-02  0.1278007E+00
          1   -1    0    0  501    0  0.00000000000E+00  0.00000000000E+00  0.70225222719E+02  0.70225222719E+02  0.00000000000E+00 0. -1.
         -1   -1    0    0    0  501 -0.00000000000E+00 -0.00000000000E+00 -0.21966700933E+03  0.21966700933E+03  0.00000000000E+00 0.  1.
         23    2    1    2    0    0 -0.22680587952E+02  0.46671913298E+02 -0.99853896638E+02  0.14567351612E+03  0.92505654232E+02 0.  0.
         23    2    1    2    0    0  0.22680587952E+02 -0.46671913298E+02 -0.49587889969E+02  0.14421871592E+03  0.12508957842E+03 0.  0.
          5    1    4    4  502    0 -0.52861833532E+01  0.41443727699E+02 -0.23280960219E+02  0.48010434374E+02  0.41800000000E+01 0. -1.
         -5    1    4    4    0  502  0.27966771306E+02 -0.88115640997E+02 -0.26306929750E+02  0.96208281549E+02  0.41800000000E+01 0. -1.
        -11    1    3    3    0    0 -0.32709720952E+02  0.18103072114E+02  0.39036855051E+01  0.37588373538E+02  0.00000000000E+00 0. -1.
         11    1    3    3    0    0  0.10029132999E+02  0.28568841184E+02 -0.10375758214E+03  0.10808514258E+03  0.00000000000E+00 0.  1.
</event>
<event>
 8    1  0.8061721E-006  0.1046510E+03  0.7561462E-02  0.1270809E+00
         -1   -1    0    0    0  501 -0.00000000000E+00  0.00000000000E+00  0.17974822460E+02  0.17974822460E+02  0.00000000000E+00 0.  1.
          1   -1    0    0  501    0  0.00000000000E+00 -0.00000000000E+00 -0.71711854886E+03  0.71711854886E+03  0.00000000000E+00 0. -1.
         23    2    1    2    0    0 -0.13469122811E+02  0.28169810324E+02 -0.24403867578E+03  0.26207848803E+03  0.90306716966E+02 0.  0.
         23    2    1    2    0    0  0.13469122811E+02 -0.28169810324E+02 -0.45510505062E+03  0.47301488329E+03  0.12509003649E+03 0.  0.
          5    1    4    4  502    0 -0.42219982443E+02 -0.38860770615E+02 -0.33769667961E+03  0.34256270408E+03  0.41800000000E+01 0.  1.
         -5    1    4    4    0  502  0.55689105254E+02  0.10690960291E+02 -0.11740837101E+03  0.13045217921E+03  0.41800000000E+01 0.  1.
        -11    1    3    3    0    0  0.27798304136E+02  0.42875764412E+02 -0.11611787257E+03  0.12686385308E+03  0.00000000000E+00 0.  1.
         11    1    3    3    0    0 -0.41267426948E+02 -0.14705954088E+02 -0.12792080321E+03  0.13521463495E+03  0.00000000000E+00 0. -1.
</event>
<event>
 8    1  0.8061721E-006  0.1104455E+03  0.7561462E-02  0.1259747E+00
          1   -1    0    0  501    0  0.00000000000E+00  0.00000000000E+00  0.11644975331E+03  0.11644975331E+03  0.00000000000E+00 0. -1.
         -1   -1    0    0    0  501 -0.00000000000E+00 -0.00000000000E+00 -0.13832452277E+03  0.13832452277E+03  0.00000000000E+00 0.  1.
         23    2    1    2    0    0  0.17316184294E+02 -0.55037826169E+02 -0.43193916412E+02  0.11538139737E+03  0.90100720838E+02 0.  0.
         23    2    1    2    0    0 -0.17316184294E+02  0.55037826169E+02  0.21319146955E+02  0.13939287872E+03  0.12508739370E+03 0.  0.
          5    1    4    4  502    0 -0.50382105293E+02  0.80828122486E-01  0.48082897655E+02  0.69769624578E+02  0.41800000000E+01 0. -1.
         -5    1    4    4    0  502  0.33065920998E+02  0.54956998046E+02 -0.26763750700E+02  0.69623254142E+02  0.41800000000E+01 0. -1.
        -11    1    3    3    0    0 -0.36353806881E+02 -0.16123408085E+02 -0.23639245620E+02  0.46264213995E+02  0.00000000000E+00 0.  1.
         11    1    3    3    0    0  0.53669991176E+02 -0.38914418084E+02 -0.19554670792E+02  0.69117183372E+02  0.00000000000E+00 0. -1.
</event>
<event>
 7    1  0.8061721E-006  0.1288085E+03  0.7561462E-02  0.1229234E+00
          1   -1    0    0  501    0  0.00000000000E+00  0.00000000000E+00  0.46913065520E+03  0.46913065520E+03  0.00000000000E+00 0. -1.
         -1   -1    0    0    0  501 -0.00000000000E+00 -0.00000000000E+00 -0.10239485707E+03  0.10239485707E+03  0.00000000000E+00 0.  1.
         23    2    1    2    0    0  0.22585132674E+02 -0.36353174185E+02 -0.85855378379E+01  0.10099567018E+03  0.91075641328E+02 0.  0.
          5    1    1    2  502    0 -0.80173625715E+02  0.95329766531E+02  0.36698914127E+03  0.38757460812E+03  0.41800000000E+01 0. -1.
         -5    1    1    2    0  502  0.57588493041E+02 -0.58976592346E+02  0.83321946971E+01  0.82955233976E+02  0.41800000000E+01 0.  1.
        -11    1    3    3    0    0  0.17394552149E+02 -0.42189057286E+01  0.39248295829E+02  0.43136971793E+02  0.00000000000E+00 0. -1.
         11    1    3    3    0    0  0.51905805255E+01 -0.32134268457E+02 -0.47833833667E+02  0.57858698384E+02  0.00000000000E+00 0.  1.
</event>
<event>
 8    1  0.8061721E-006  0.1553024E+03  0.7561462E-02  0.1194105E+00
         -1   -1    0    0    0  501 -0.00000000000E+00  0.00000000000E+00  0.15302437249E+03  0.15302437249E+03  0.00000000000E+00 0.  1.
          1   -1    0    0  501    0  0.00000000000E+00 -0.00000000000E+00 -0.25072633883E+03  0.25072633883E+03  0.00000000000E+00 0. -1.
         23    2    1    2    0    0  0.43934707793E+02 -0.13100007289E+03  0.41540119645E+02  0.17109836997E+03  0.91966260225E+02 0.  0.
         23    2    1    2    0    0 -0.43934707793E+02  0.13100007289E+03 -0.13924208598E+03  0.23265234136E+03  0.12508987083E+03 0.  0.
          5    1    4    4  502    0  0.26211484885E+02  0.40618004689E+02 -0.10082567676E+03  0.11189349283E+03  0.41800000000E+01 0. -1.
         -5    1    4    4    0  502 -0.70146192678E+02  0.90382068198E+02 -0.38416409226E+02  0.12075884852E+03  0.41800000000E+01 0. -1.
        -11    1    3    3    0    0  0.55706422683E+02 -0.10052093222E+03  0.63911174413E+02  0.13150019604E+03  0.00000000000E+00 0.  1.
         11    1    3    3    0    0 -0.11771714889E+02 -0.30479140664E+02 -0.22371054768E+02  0.39598173929E+02  0.00000000000E+00 0. -1.
</event>
<event>
 8    1  0.8061721E-006  0.1298087E+03  0.7561462E-02  0.1227740E+00
          2   -1    0    0  501    0  0.00000000000E+00  0.00000000000E+00  0.22205280314E+03  0.22205280314E+03  0.00000000000E+00 0. -1.
         -2   -1    0    0    0  501 -0.00000000000E+00 -0.00000000000E+00 -0.13417630616E+03  0.13417630616E+03  0.00000000000E+00 0.  1.
         23    2    1    2    0    0  0.51971819487E+02 -0.10296225687E+03 -0.28989971331E+02  0.14981254345E+03  0.91110281400E+02 0.  0.
         23    2    1    2    0    0 -0.51971819487E+02  0.10296225687E+03  0.11686646830E+03  0.20641656585E+03  0.12509089049E+03 0.  0.
          5    1    4    4  502    0 -0.42283652503E+02  0.92209423764E+02  0.14351954820E+03  0.17580050687E+03  0.41800000000E+01 0. -1.
         -5    1    4    4    0  502 -0.96881669845E+01  0.10752833105E+02 -0.26653079899E+02  0.30616058979E+02  0.41800000000E+01 0. -1.
        -11    1    3    3    0    0  0.33030889460E+02  0.50051296162E+01  0.75798990829E+01  0.34257055493E+02  0.00000000000E+00 0.  1.
         11    1    3    3    0    0  0.18940930028E+02 -0.10796738649E+03 -0.36569870414E+02  0.11555548796E+03  0.00000000000E+00 0. -1.
</event>
<event>
 6    1  0.8061721E-006  0.4375520E+02  0.7561462E-02  0.1482266E+00
          2   -1    0    0  501    0  0.00000000000E+00  0.00000000000E+00  0.11270454701E+03  0.11270454701E+03  0.00000000000E+00 0. -1.
         -2   -1    0    0    0  501 -0.00000000000E+00 -0.00000000000E+00 -0.89492283465E+02  0.89492283465E+02  0.00000000000E+00 0.  1.
          5    1    1    2  502    0  0.12623292836E+02 -0.13467041884E+02  0.97441719391E+02  0.99262630516E+02  0.41800000000E+01 0. -1.
         -5    1    1    2    0  502 -0.12904675314E+02  0.33267283783E+02 -0.31225107487E+02  0.47599606646E+02  0.41800000000E+01 0.  1.
        -11    1    1    2    0    0  0.12155092277E+02 -0.16195341899E+02 -0.35396325856E+02  0.40779103124E+02  0.00000000000E+00 0. -1.
         11    1    1    2    0    0 -0.11873709799E+02 -0.36048999994E+01 -0.76080224999E+01  0.14555490193E+02  0.00000000000E+00 0.  1.
</event>
<event>
 8    1  0.8061721E-006  0.1066248E+03  0.7561462E-02  0.1266951E+00
         -1   -1    0    0    0  501 -0.00000000000E+00  0.00000000000E+00  0.11243234321E+03  0.11243234321E+03  0.00000000000E+00 0.  1.
          1   -1    0    0  501    0  0.00000000000E+00 -0.00000000000E+00 -0.11325223002E+03  0.11325223002E+03  0.00000000000E+00 0. -1.
         23    2    1    2    0    0 -0.22447624257E+02 -0.17105448592E+02  0.15205511421E+02  0.96483932386E+02  0.91002469333E+02 0.  0.
         23    2    1    2    0    0  0.22447624257E+02  0.17105448592E+02 -0.16025398233E+02  0.12920064085E+03  0.12505798655E+03 0.  0.
          5    1    4    4  502    0 -0.50760160669E+02 -0.56137265842E+01 -0.99240226138E+01  0.52192590108E+02  0.41800000000E+01 0.  1.
         -5    1    4    4    0  502  0.73207784926E+02  0.22719175177E+02 -0.61013756189E+01  0.77008050741E+02  0.41800000000E+01 0.  1.
        -11    1    3    3    0    0 -0.16117946561E+01 -0.47973801949E+02 -0.13041792252E+02  0.49741048447E+02  0.00000000000E+00 0. -1.
         11    1    3    3    0    0 -0.20835829601E+02  0.30868353357E+02  0.28247303673E+02  0.46742883939E+02  0.00000000000E+00 0.  1.
</event>
<event>
 8    1  0.8061721E-006  0.9802870E+02  0.7561462E-02  0.1284497E+00
          2   -1    0    0  501    0  0.00000000000E+00  0.00000000000E+00  0.10184617359E+04  0.10184617359E+04  0.00000000000E+00 0. -1.
         -2   -1    0    0    0  501 -0.00000000000E+00 -0.00000000000E+00 -0.28130955353E+02  0.28130955353E+02  0.00000000000E+00 0.  1.
         23    2    1    2    0    0  0.36458914616E+02  0.71017136874E+02  0.15243841534E+03  0.19566126893E+03  0.93129885139E+02 0.  0.
         23    2    1    2    0    0 -0.36458914616E+02 -0.71017136874E+02  0.83789236524E+03  0.85093142235E+03  0.12509190073E+03 0.  0.
          5    1    4    4  502    0  0.26917499117E+02 -0.15059567771E+02  0.54929475428E+03  0.55017591898E+03  0.41800000000E+01 0.  1.
         -5    1    4    4    0  502 -0.63376413734E+02 -0.55957569103E+02  0.28859761096E+03  0.30075550338E+03  0.41800000000E+01 0.  1.
        -11    1    3    3    0    0  0.15274433115E+02  0.21021094234E+02  0.13667106972E+03  0.13911928697E+03  0.00000000000E+00 0. -1.
         11    1    3    3    0    0  0.21184481501E+02  0.49996042640E+02  0.15767345616E+02  0.56541981960E+02  0.00000000000E+00 0.  1.
</event>
<event>
 8    1  0.8061721E-006  0.8620576E+02  0.7561462E-02  0.1312309E+00
         -2   -1    0    0    0  501 -0.00000000000E+00  0.00000000000E+00  0.17116425577E+03  0.17116425577E+03  0.00000000000E+00 0.  1.
          2   -1    0    0  501    0  0.00000000000E+00 -0.00000000000E+00 -0.90041103816E+02  0.90041103816E+02  0.00000000000E+00 0. -1.
         23    2    1    2    0    0  0.34002156683E+02 -0.16196691153E+02  0.85218002395E+02  0.13049959835E+03  0.91375914633E+02 0.  0.
         23    2    1    2    0    0 -0.34002156683E+02  0.16196691153E+02 -0.40948504406E+01  0.13070576123E+03  0.12509495895E+03 0.  0.
          5    1    4    4  502    0 -0.53676460584E+02  0.25172679305E+02 -0.51366634643E+02  0.78554629136E+02  0.41800000000E+01 0. -1.
         -5    1    4    4    0  502  0.19674303900E+02 -0.89759881516E+01  0.47271784202E+02  0.52151132096E+02  0.41800000000E+01 0. -1.
        -11    1    3    3    0    0 -0.20494101688E+02 -0.28482173872E+02  0.59328143629E+02  0.68928013601E+02  0.00000000000E+00 0.  1.
         11    1    3    3    0    0  0.54496258372E+02  0.12285482719E+02  0.25889858766E+02  0.61571584753E+02  0.00000000000E+00 0. -1.
</event>
<event>
 8    1  0.8061721E-006  0.1023147E+03  0.7561462E-02  0.1275502E+00
          2   -1    0    0  501    0  0.00000000000E+00  0.00000000000E+00  0.15231854413E+04  0.15231854413E+04  0.00000000000E+00 0. -1.
         -2   -1    0    0    0  501 -0.00000000000E+00 -0.00000000000E+00 -0.10623510659E+02  0.10623510659E+02  0.00000000000E+00 0.  1.
         23    2    1    2    0    0 -0.83474302308E+01  0.52497329366E+02  0.42843046984E+03  0.44119077645E+03  0.90944953418E+02 0.  0.
         23    2    1    2    0    0  0.83474302308E+01 -0.52497329366E+02  0.10841314608E+04  0.10926181755E+04  0.12509118265E+03 0.  0.
          5    1    4    4  502    0  0.37745270965E+02  0.26014425871E+01  0.83071326654E+03  0.83158491844E+03  0.41800000000E+01 0. -1.
         -5    1    4    4    0  502 -0.29397840735E+02 -0.55098771953E+02  0.25341819424E+03  0.26103325704E+03  0.41800000000E+01 0. -1.
        -11    1    3    3    0    0 -0.26222478670E+02  0.72530577369E+02  0.28400417944E+03  0.29429012383E+03  0.00000000000E+00 0.  1.
         11    1    3    3    0    0  0.17875048439E+02 -0.20033248003E+02  0.14442629040E+03  0.14690065262E+03  0.00000000000E+00 0. -1.
</event>
<event>
 8    1  0.8061721E-006  0.9903162E+02  0.7561462E-02  0.1282346E+00
         -3   -1    0    0    0  501 -0.00000000000E+00  0.00000000000E+00  0.44140971374E+03  0.44140971374E+03  0.00000000000E+00 0.  1.
          3   -1    0    0  501    0  0.00000000000E+00 -0.00000000000E+00 -0.30080181476E+02  0.30080181476E+02  0.00000000000E+00 0. -1.
         23    2    1    2    0    0 -0.19464935883E+02 -0.24170564255E+02  0.21886953782E+03  0.23986264571E+03  0.93097337857E+02 0.  0.
         23    2    1    2    0    0  0.19464935883E+02  0.24170564255E+02  0.19245999445E+03  0.23162724951E+03  0.12508890177E+03 0.  0.
          5    1    4    4  502    0 -0.43714546306E+02  0.28844946190E+02  0.13910036033E+03  0.14869221609E+03  0.41800000000E+01 0. -1.
         -5    1    4    4    0  502  0.63179482189E+02 -0.46743819341E+01  0.53359634114E+02  0.82935033423E+02  0.41800000000E+01 0. -1.
        -11    1    3    3    0    0 -0.48301800448E+02 -0.22113194488E+02  0.19579302227E+03  0.20287179416E+03  0.00000000000E+00 0.  1.
         11    1    3    3    0    0  0.28836864565E+02 -0.20573697670E+01  0.23076515551E+02  0.36990851549E+02  0.00000000000E+00 0. -1.
</event>
<event>
 8    1  0.8061721E-006  0.1183468E+03  0.7561462E-02  0.1245849E+00
          1   -1    0    0  501    0  0.00000000000E+00  0.00000000000E+00  0.97513082407E+02  0.97513082407E+02  0.00000000000E+00 0. -1.
         -1   -1    0    0    0  501 -0.00000000000E+00 -0.00000000000E+00 -0.20318534822E+03  0.20318534822E+03  0.00000000000E+00 0.  1.
         23    2    1    2    0    0  0.77330136357E+02 -0.32242306495E+02 -0.84479966708E+02  0.14865936672E+03  0.89124778938E+02 0.  0.
         23    2    1    2    0    0 -0.77330136357E+02  0.32242306495E+02 -0.21192299110E+02  0.15203906391E+03  0.12508895674E+03 0.  0.
          5    1    4    4  502    0  0.17218487853E+02  0.18219888442E+01  0.33965223995E+02  0.38352376827E+02  0.41800000000E+01 0. -1.
         -5    1    4    4    0  502 -0.94548624209E+02  0.30420317650E+02 -0.55157523105E+02  0.11368668709E+03  0.41800000000E+01 0. -1.
        -11    1    3    3    0    0  0.42553580093E+02 -0.60978778484E+02 -0.67593779561E+02  0.10048949019E+03  0.00000000000E+00 0. -1.
         11    1    3    3    0    0  0.34776556264E+02  0.28736471989E+02 -0.16886187147E+02  0.48169876524E+02  0.00000000000E+00 0.  1.
</event>
<event>
 8    1  0.8061721E-006  0.6373385E+02  0.7561462E-02  0.1382799E+00
          1   -1    0    0  501    0  0.00000000000E+00  0.00000000000E+00  0.21922973226E+03  0.21922973226E+03  0.00000000000E+00 0. -1.
         -1   -1    0    0    0  501 -0.00000000000E+00 -0.00000000000E+00 -0.58786622909E+02  0.58786622909E+02  0.00000000000E+00 0.  1.
         23    2    1    2    0    0 -0.82027258245E+00  0.21948231751E+02  0.32869905506E+02  0.98002169107E+02  0.89674950446E+02 0.  0.
         23    2    1    2    0    0  0.82027258245E+00 -0.21948231751E+02  0.12757320384E+03  0.18001418606E+03  0.12509111527E+03 0.  0.
          5    1    4    4  502    0 -0.24883659204E+01 -0.29398102768E+02  0.15149532900E+03  0.15439801657E+03  0.41800000000E+01 0. -1.
         -5    1    4    4    0  502  0.33086385029E+01  0.74498710160E+01 -0.23922125163E+02  0.25616169487E+02  0.41800000000E+01 0. -1.
        -11    1    3    3    0    0 -0.32228388620E+02  0.40710870479E+02  0.53032251755E+01  0.52193564790E+02  0.00000000000E+00 0.  1.
         11    1    3    3    0    0  0.31408116037E+02 -0.18762638727E+02  0.27566680331E+02  0.45808604317E+02  0.00000000000E+00 0. -1.
</event>
<event>
 8    1  0.8061721E-006  0.1152340E+03  0.7561462E-02  0.1251173E+00
         -2   -1    0    0    0  501 -0.00000000000E+00  0.00000000000E+00  0.10088249437E+02  0.10088249437E+02  0.00000000000E+00 0.  1.
          2   -1    0    0  501    0  0.00000000000E+00 -0.00000000000E+00 -0.19141218775E+04  0.19141218775E+04  0.00000000000E+00 0. -1.
         23    2    1    2    0    0 -0.46161291136E+02  0.33376568009E+01 -0.41091754909E+03  0.42514884785E+03  0.98774014430E+02 0.  0.
         23    2    1    2    0    0  0.46161291136E+02 -0.33376568009E+01 -0.14931160790E+04  0.14990612791E+04  0.12508832245E+03 0.  0.
          5    1    4    4  502    0 -0.42540717793E+02  0.42974628598E+01 -0.58807331717E+03  0.58964046640E+03  0.41800000000E+01 0. -1.
         -5    1    4    4    0  502  0.88702008929E+02 -0.76351196607E+01 -0.90504276179E+03  0.90942081266E+03  0.41800000000E+01 0. -1.
        -11    1    3    3    0    0 -0.15438952177E+02 -0.41356318376E+02 -0.96891165404E+02  0.10647349082E+03  0.00000000000E+00 0.  1.
         11    1    3    3    0    0 -0.30722338959E+02  0.44693975177E+02 -0.31402638369E+03  0.31867535703E+03  0.00000000000E+00 0. -1.
</event>
<event>
 8    1  0.8061721E-006  0.1007293E+03  0.7561462E-02  0.1278770E+00
         -1   -1    0    0    0  501 -0.00000000000E+00  0.00000000000E+00  0.12738165465E+03  0.12738165465E+03  0.00000000000E+00 0.  1.
          1   -1    0    0  501    0  0.00000000000E+00 -0.00000000000E+00 -0.13562354085E+03  0.13562354085E+03  0.00000000000E+00 0. -1.
         23    2    1    2    0    0 -0.40127432540E+02 -0.50727254806E+02  0.30111203547E+02  0.11705351484E+03  0.92797497462E+02 0.  0.
         23    2    1    2    0    0  0.40127432540E+02  0.50727254806E+02 -0.38353089742E+02  0.14595168066E+03  0.12508984121E+03 0.  0.
          5    1    4    4  502    0  0.58560703430E+02  0.26051153913E+02  0.29979213204E+02  0.70881903408E+02  0.41800000000E+01 0. -1.
         -5    1    4    4    0  502 -0.18433270890E+02  0.24676100894E+02 -0.68332302946E+02  0.75069777254E+02  0.41800000000E+01 0. -1.
        -11    1    3    3    0    0  0.42622255585E+00 -0.63597097416E+02  0.37557125766E+02  0.73860071494E+02  0.00000000000E+00 0.  1.
         11    1    3    3    0    0 -0.40553655096E+02  0.12869842609E+02 -0.74459222193E+01  0.43193443347E+02  0.00000000000E+00 0. -1.
</event>
<event>
 8    1  0.8061721E-006  0.1331442E+03  0.7561462E-02  0.1222863E+00
          2   -1    0    0  501    0  0.00000000000E+00  0.00000000000E+00  0.95478936936E+02  0.95478936936E+02  0.00000000000E+00 0.  1.
         -2   -1    0    0    0  501 -0.00000000000E+00 -0.00000000000E+00 -0.24978345679E+03  0.24978345679E+03  0.00000000000E+00 0. -1.
         23    2    1    2    0    0  0.46693193053E+02  0.69494440025E+02 -0.15079215238E+03  0.19470179381E+03  0.90337056749E+02 0.  0.
         23    2    1    2    0    0 -0.46693193053E+02 -0.69494440025E+02 -0.35123674733E+01  0.15056059991E+03  0.12508567484E+03 0.  0.
          5    1    4    4  502    0 -0.58411624301E+02  0.13530281538E+02  0.20058795162E+02  0.63362560202E+02  0.41800000000E+01 0. -1.
         -5    1    4    4    0  502  0.11718431248E+02 -0.83024721564E+02 -0.23571162635E+02  0.87198039712E+02  0.41800000000E+01 0. -1.
        -11    1    3    3    0    0  0.33427013293E+02 -0.15046563326E+02 -0.56670891797E+02  0.67493364583E+02  0.00000000000E+00 0. -1.
         11    1    3    3    0    0  0.13266179760E+02  0.84541003351E+02 -0.94121260579E+02  0.12720842923E+03  0.00000000000E+00 0.  1.
</event>
<event>
 8    1  0.8061721E-006  0.9597530E+02  0.7561462E-02  0.1288994E+00
         -3   -1    0    0    0  501 -0.00000000000E+00  0.00000000000E+00  0.72526887802E+03  0.72526887802E+03  0.00000000000E+00 0.  1.
          3   -1    0    0  501    0  0.00000000000E+00 -0.00000000000E+00 -0.22304637191E+02  0.22304637191E+02  0.00000000000E+00 0. -1.
         23    2    1    2    0    0  0.42015805059E+02 -0.48773013033E+02  0.33963473188E+03  0.35795664228E+03  0.92935848720E+02 0.  0.
         23    2    1    2    0    0 -0.42015805059E+02  0.48773013033E+02  0.36332950895E+03  0.38961687293E+03  0.12509532735E+03 0.  0.
          5    1    4    4  502    0 -0.33487061406E+02 -0.75929090681E+01  0.30842568183E+03  0.31035932266E+03  0.41800000000E+01 0. -1.
         -5    1    4    4    0  502 -0.85287436523E+01  0.56365922101E+02  0.54903827116E+02  0.79257550268E+02  0.41800000000E+01 0. -1.
        -11    1    3    3    0    0  0.10335423328E+02 -0.64155048810E+02  0.28940693294E+03  0.29661264993E+03  0.00000000000E+00 0.  1.
         11    1    3    3    0    0  0.31680381730E+02  0.15382035778E+02  0.50227798939E+02  0.61343992351E+02  0.00000000000E+00 0. -1.
</event>
<event>
 8    1  0.8061721E-006  0.1659449E+03  0.7561462E-02  0.1182144E+00
         -2   -1    0    0    0  501 -0.00000000000E+00  0.00000000000E+00  0.26855384143E+02  0.26855384143E+02  0.00000000000E+00 0.  1.
          2   -1    0    0  501    0  0.00000000000E+00 -0.00000000000E+00 -0.15216274435E+04  0.15216274435E+04  0.00000000000E+00 0. -1.
         23    2    1    2    0    0  0.12627190057E+03 -0.94017896853E+02 -0.46546525660E+03  0.49972033044E+03  0.90986514112E+02 0.  0.
         23    2    1    2    0    0 -0.12627190057E+03  0.94017896853E+02 -0.10293068027E+04  0.10487624972E+04  0.12508526505E+03 0.  0.
          5    1    4    4  502    0 -0.18472608071E+02  0.19328749735E+02 -0.28164378599E+02  0.39058192958E+02  0.41800000000E+01 0. -1.
         -5    1    4    4    0  502 -0.10779929250E+03  0.74689147117E+02 -0.10011424241E+04  0.10097043042E+04  0.41800000000E+01 0. -1.
        -11    1    3    3    0    0  0.10789951663E+03 -0.37568895904E+02 -0.37060167863E+03  0.38781352714E+03  0.00000000000E+00 0.  1.
         11    1    3    3    0    0  0.18372383947E+02 -0.56449000948E+02 -0.94863577968E+02  0.11190680330E+03  0.00000000000E+00 0. -1.
</event>
<event>
 8    1  0.8061721E-006  0.1409918E+03  0.7561462E-02  0.1212001E+00
          2   -1    0    0  501    0  0.00000000000E+00  0.00000000000E+00  0.62101022603E+03  0.62101022603E+03  0.00000000000E+00 0. -1.
         -2   -1    0    0    0  501 -0.00000000000E+00 -0.00000000000E+00 -0.58948422703E+02  0.58948422703E+02  0.00000000000E+00 0.  1.
         23    2    1    2    0    0 -0.24814647418E+02 -0.12140601225E+03  0.94043814859E+02  0.17995844932E+03  0.90474404285E+02 0.  0.
         23    2    1    2    0    0  0.24814647418E+02  0.12140601225E+03  0.46801798847E+03  0.50000019941E+03  0.12491667362E+03 0.  0.
          5    1    4    4  502    0  0.27061373470E+02  0.12170755048E+03  0.22769037054E+03  0.25962554384E+03  0.41800000000E+01 0. -1.
         -5    1    4    4    0  502 -0.22467260521E+01 -0.30153822762E+00  0.24032761793E+03  0.24037465557E+03  0.41800000000E+01 0. -1.
        -11    1    3    3    0    0 -0.58354578449E+02 -0.83421764399E+02  0.53162586165E+02  0.11485080831E+03  0.00000000000E+00 0.  1.
         11    1    3    3    0    0  0.33539931030E+02 -0.37984247853E+02  0.40881228695E+02  0.65107641011E+02  0.00000000000E+00 0. -1.
</event>
<event>
 8    1  0.8061721E-006  0.1065508E+03  0.7561462E-02  0.1267094E+00
         -2   -1    0    0    0  501 -0.00000000000E+00  0.00000000000E+00  0.77979434534E+01  0.77979434534E+01  0.00000000000E+00 0.  1.
          2   -1    0    0  501    0  0.00000000000E+00 -0.00000000000E+00 -0.22423289827E+04  0.22423289827E+04  0.00000000000E+00 0. -1.
         23    2    1    2    0    0 -0.12042973085E+02  0.29497854042E+02 -0.41803251095E+03  0.42904699493E+03  0.91186550814E+02 0.  0.
         23    2    1    2    0    0  0.12042973085E+02 -0.29497854042E+02 -0.18164985283E+04  0.18210799313E+04  0.12510018395E+03 0.  0.
          5    1    4    4  502    0  0.10827034318E+02 -0.73519323153E+02 -0.75494828645E+03  0.75860839909E+03  0.41800000000E+01 0.  1.
         -5    1    4    4    0  502  0.12159387676E+01  0.44021469111E+02 -0.10615502419E+04  0.10624715322E+04  0.41800000000E+01 0.  1.
        -11    1    3    3    0    0  0.26010877672E+02 -0.19419040571E+02 -0.10364865968E+03  0.10861265832E+03  0.00000000000E+00 0.  1.
         11    1    3    3    0    0 -0.38053850757E+02  0.48916894613E+02 -0.31438385127E+03  0.32043433661E+03  0.00000000000E+00 0. -1.
</event>
<event>
 8    1  0.8061721E-006  0.1035923E+03  0.7561462E-02  0.1272918E+00
          1   -1    0    0  501    0  0.00000000000E+00  0.00000000000E+00  0.21726366480E+03  0.21726366480E+03  0.00000000000E+00 0.  1.
         -1   -1    0    0    0  501 -0.00000000000E+00 -0.00000000000E+00 -0.71110148474E+02  0.71110148474E+02  0.00000000000E+00 0. -1.
         23    2    1    2    0    0 -0.37649017583E+02  0.42519033812E+02  0.38902970685E+02  0.11408587375E+03  0.90977077877E+02 0.  0.
         23    2    1    2    0    0  0.37649017583E+02 -0.42519033812E+02  0.10725054564E+03  0.17428793952E+03  0.12509312356E+03 0.  0.
          5    1    4    4  502    0  0.60587410705E+02 -0.12627080668E+02  0.16099673305E+01  0.62051123252E+02  0.41800000000E+01 0.  1.
         -5    1    4    4    0  502 -0.22938393122E+02 -0.29891953144E+02  0.10564057831E+03  0.11223681627E+03  0.41800000000E+01 0.  1.
        -11    1    3    3    0    0  0.21859168694E+02 -0.13355341817E+02  0.88923124898E+01  0.27115708223E+02  0.00000000000E+00 0.  1.
         11    1    3    3    0    0 -0.59508186277E+02  0.55874375628E+02  0.30010658196E+02  0.86970165523E+02  0.00000000000E+00 0. -1.
</event>
<event>
 8    1  0.8061721E-006  0.1561307E+03  0.7561462E-02  0.1193136E+00
         -1   -1    0    0    0  501 -0.00000000000E+00  0.00000000000E+00  0.12874509438E+03  0.12874509438E+03  0.00000000000E+00 0.  1.
          1   -1    0    0  501    0  0.00000000000E+00 -0.00000000000E+00 -0.20393659673E+03  0.20393659673E+03  0.00000000000E+00 0. -1.
         23    2    1    2    0    0  0.11190524266E+03 -0.76978743249E+01 -0.77033696208E+02  0.16465687170E+03  0.92712752316E+02 0.  0.
         23    2    1    2    0    0 -0.11190524266E+03  0.76978743249E+01  0.18421938637E+01  0.16802481941E+03  0.12508759193E+03 0.  0.
          5    1    4    4  502    0 -0.87768807459E+02  0.61776506656E+02  0.10928221327E+02  0.10796572956E+03  0.41800000000E+01 0. -1.
         -5    1    4    4    0  502 -0.24136435202E+02 -0.54078632331E+02 -0.90860274631E+01  0.60059089854E+02  0.41800000000E+01 0. -1.
        -11    1    3    3    0    0  0.31254108515E+02  0.40782759103E+02 -0.29132091208E+02  0.59065484653E+02  0.00000000000E+00 0.  1.
         11    1    3    3    0    0  0.80651134146E+02 -0.48480633428E+02 -0.47901605000E+02  0.10559138705E+03  0.00000000000E+00 0. -1.
</event>
<event>
 7    1  0.8061721E-006  0.9409049E+02  0.7561462E-02  0.1293238E+00
          1   -1    0    0  501    0  0.00000000000E+00  0.00000000000E+00  0.17456867959E+03  0.17456867959E+03  0.00000000000E+00 0. -1.
         -1   -1    0    0    0  501 -0.00000000000E+00 -0.00000000000E+00 -0.18309044105E+03  0.18309044105E+03  0.00000000000E+00 0.  1.
         23    2    1    2    0    0 -0.21828416990E+02  0.26409090269E+02 -0.13356133781E+03  0.16502465126E+03  0.90667440296E+02 0.  0.
          5    1    1    2  502    0  0.38920108290E+02  0.18388676712E+02  0.13647636353E+03  0.14316489955E+03  0.41800000000E+01 0. -1.
         -5    1    1    2    0  502 -0.17091691300E+02 -0.44797766981E+02 -0.11436787189E+02  0.49469569830E+02  0.41800000000E+01 0.  1.
        -11    1    3    3    0    0 -0.48453046078E+02  0.43541843533E+02 -0.93699315766E+02  0.11411902378E+03  0.00000000000E+00 0.  1.
         11    1    3    3    0    0  0.26624629088E+02 -0.17132753264E+02 -0.39862022043E+02  0.50905627487E+02  0.00000000000E+00 0. -1.
</event>
<event>
 8    1  0.8061721E-006  0.9007115E+02  0.7561462E-02  0.1302679E+00
         -2   -1    0    0    0  501 -0.00000000000E+00  0.00000000000E+00  0.76100558601E+01  0.76100558601E+01  0.00000000000E+00 0.  1.
          2   -1    0    0  501    0  0.00000000000E+00 -0.00000000000E+00 -0.27781246795E+04  0.27781246795E+04  0.00000000000E+00 0. -1.
         23    2    1    2    0    0 -0.13641076444E+02  0.78049884856E+01 -0.34861464299E+03  0.36055568346E+03  0.90671024914E+02 0.  0.
         23    2    1    2    0    0  0.13641076444E+02 -0.78049884856E+01 -0.24218999806E+04  0.24251790519E+04  0.12508765196E+03 0.  0.
          5    1    4    4  502    0  0.32088177669E+02  0.31586010998E+02 -0.36169662866E+03  0.36451234659E+03  0.41800000000E+01 0. -1.
         -5    1    4    4    0  502 -0.18447101225E+02 -0.39390999484E+02 -0.20602033520E+04  0.20606667053E+04  0.41800000000E+01 0. -1.
        -11    1    3    3    0    0  0.83387664060E+01  0.46220604652E+02 -0.20305739217E+03  0.20841829055E+03  0.00000000000E+00 0. -1.
         11    1    3    3    0    0 -0.21979842850E+02 -0.38415616167E+02 -0.14555725082E+03  0.15213739291E+03  0.00000000000E+00 0.  1.
</event>
<event>
 8    1  0.8061721E-006  0.3103690E+03  0.7561462E-02  0.1080169E+00
         -2   -1    0    0    0  501 -0.00000000000E+00  0.00000000000E+00  0.43584925382E+02  0.43584925382E+02  0.00000000000E+00 0. -1.
          2   -1    0    0  501    0  0.00000000000E+00 -0.00000000000E+00 -0.22573871008E+04  0.22573871008E+04  0.00000000000E+00 0.  1.
         23    2    1    2    0    0 -0.28746276733E+03 -0.60762613742E+02 -0.11244769194E+04  0.11658056031E+04  0.91254722095E+02 0.  0.
         23    2    1    2    0    0  0.28746276733E+03  0.60762613742E+02 -0.10893252561E+04  0.11351664230E+04  0.12508539758E+03 0.  0.
          5    1    4    4  502    0  0.21201068540E+03 -0.14120379236E+02 -0.69783338272E+03  0.72947708550E+03  0.41800000000E+01 0. -1.
         -5    1    4    4    0  502  0.75452081927E+02  0.74882992978E+02 -0.39149187334E+03  0.40568933754E+03  0.41800000000E+01 0. -1.
        -11    1    3    3    0    0 -0.11201066676E+03  0.10407666009E+02 -0.31511913369E+03  0.33459643960E+03  0.00000000000E+00 0. -1.
         11    1    3    3    0    0 -0.17545210057E+03 -0.71170279751E+02 -0.80935778568E+03  0.83120916354E+03  0.00000000000E+00 0.  1.
</event>
<event>
 8    1  0.8061721E-006  0.1066803E+03  0.7561462E-02  0.1266844E+00
          2   -1    0    0  501    0  0.00000000000E+00  0.00000000000E+00  0.21548039464E+03  0.21548039464E+03  0.00000000000E+00 0. -1.
         -2   -1    0    0    0  501 -0.00000000000E+00 -0.00000000000E+00 -0.97880817261E+02  0.97880817261E+02  0.00000000000E+00 0.  1.
         23    2    1    2    0    0 -0.32755026335E+02  0.88020346606E+02  0.53910292130E+02  0.14447212836E+03  0.95631600991E+02 0.  0.
         23    2    1    2    0    0  0.32755026335E+02 -0.88020346606E+02  0.63689285248E+02  0.16888908354E+03  0.12508686708E+03 0.  0.
          5    1    4    4  502    0  0.12657173570E+01 -0.35047492054E+02  0.93759662890E+02  0.10019119485E+03  0.41800000000E+01 0.  1.
         -5    1    4    4    0  502  0.31489308978E+02 -0.52972854552E+02 -0.30070377642E+02  0.68697888693E+02  0.41800000000E+01 0.  1.
        -11    1    3    3    0    0 -0.54218254691E+02  0.58299971015E+02  0.68488287952E+02  0.10501976647E+03  0.00000000000E+00 0.  1.
         11    1    3    3    0    0  0.21463228355E+02  0.29720375591E+02 -0.14577995822E+02  0.39452361892E+02  0.00000000000E+00 0. -1.
</event>
<event>
 8    1  0.8061721E-006  0.1822792E+03  0.7561462E-02  0.1165615E+00
         -2   -1    0    0    0  501 -0.00000000000E+00  0.00000000000E+00  0.91189490940E+02  0.91189490940E+02  0.00000000000E+00 0.  1.
          2   -1    0    0  501    0  0.00000000000E+00 -0.00000000000E+00 -0.74687684377E+03  0.74687684377E+03  0.00000000000E+00 0. -1.
         23    2    1    2    0    0 -0.16102088592E+03 -0.67377332199E+01 -0.40254536628E+02  0.18970095216E+03  0.91612776279E+02 0.  0.
         23    2    1    2    0    0  0.16102088592E+03  0.67377332199E+01 -0.61543281620E+03  0.64836538255E+03  0.12508795019E+03 0.  0.
          5    1    4    4  502    0  0.60203133179E+02 -0.46175700902E+02 -0.13812308230E+03  0.15764539594E+03  0.41800000000E+01 0.  1.
         -5    1    4    4    0  502  0.10081775274E+03  0.52913434122E+02 -0.47730973390E+03  0.49071998661E+03  0.41800000000E+01 0.  1.
        -11    1    3    3    0    0 -0.80523632837E+02 -0.37025158176E+02  0.11425993336E+02  0.89361463209E+02  0.00000000000E+00 0.  1.
         11    1    3    3    0    0 -0.80497253087E+02  0.30287424956E+02 -0.51680529963E+02  0.10033948895E+03  0.00000000000E+00 0. -1.
</event>
<event>
 8    1  0.8061721E-006  0.1051982E+03  0.7561462E-02  0.1269730E+00
          4   -1    0    0  501    0  0.00000000000E+00  0.00000000000E+00  0.12553949335E+03  0.12553949335E+03  0.00000000000E+00 0. -1.
         -4   -1    0    0    0  501 -0.00000000000E+00 -0.00000000000E+00 -0.14138624311E+03  0.14138624311E+03  0.00000000000E+00 0.  1.
         23    2    1    2    0    0 -0.62741118886E+01  0.46284413120E+02 -0.65815899054E+02  0.12434946154E+03  0.94601504418E+02 0.  0.
         23    2    1    2    0    0  0.62741118886E+01 -0.46284413120E+02  0.49969149291E+02  0.14257627492E+03  0.12509782937E+03 0.  0.
          5    1    4    4  502    0  0.40239887083E+02  0.75625209290E+01 -0.21778385853E+02  0.46564049712E+02  0.41800000000E+01 0.  1.
         -5    1    4    4    0  502 -0.33965775194E+02 -0.53846934049E+02  0.71747535144E+02  0.96012225212E+02  0.41800000000E+01 0.  1.
        -11    1    3    3    0    0  0.43959496905E+02  0.15995918055E+02 -0.31391159457E+02  0.56335704971E+02  0.00000000000E+00 0.  1.
         11    1    3    3    0    0 -0.50233608794E+02  0.30288495065E+02 -0.34424739598E+02  0.68013756565E+02  0.00000000000E+00 0. -1.
</event>
<event>
 8    1  0.8061721E-006  0.1329406E+03  0.7561462E-02  0.1223156E+00
          2   -1    0    0  501    0  0.00000000000E+00  0.00000000000E+00  0.57808874501E+03  0.57808874501E+03  0.00000000000E+00 0. -1.
         -2   -1    0    0    0  501 -0.00000000000E+00 -0.00000000000E+00 -0.36468342687E+02  0.36468342687E+02  0.00000000000E+00 0.  1.
         23    2    1    2    0    0 -0.92231527208E+02  0.17991561698E+02  0.19265275821E+03  0.23212211830E+03  0.89079973381E+02 0.  0.
         23    2    1    2    0    0  0.92231527208E+02 -0.17991561698E+02  0.34896764412E+03  0.38243496940E+03  0.12509092002E+03 0.  0.
          5    1    4    4  502    0  0.11422274325E+03 -0.10989558248E+02  0.33715826448E+03  0.35617520011E+03  0.41800000000E+01 0. -1.
         -5    1    4    4    0  502 -0.21991216046E+02 -0.70020034506E+01  0.11809379642E+02  0.26259769288E+02  0.41800000000E+01 0. -1.
        -11    1    3    3    0    0  0.42564371980E+01  0.30060716464E+02  0.30414751837E+02  0.42974656035E+02  0.00000000000E+00 0. -1.
         11    1    3    3    0    0 -0.96487964406E+02 -0.12069154766E+02  0.16223800637E+03  0.18914746227E+03  0.00000000000E+00 0.  1.
</event>
<event>
 8    1  0.8061721E-006  0.9901299E+02  0.7561462E-02  0.1282385E+00
         -2   -1    0    0    0  501 -0.00000000000E+00  0.00000000000E+00  0.16226603442E+03  0.16226603442E+03  0.00000000000E+00 0.  1.
          2   -1    0    0  501    0  0.00000000000E+00 -0.00000000000E+00 -0.18777763272E+03  0.18777763272E+03  0.00000000000E+00 0. -1.
         23    2    1    2    0    0  0.28562198735E+02 -0.41475849107E+02  0.12139014699E+03  0.15935102019E+03  0.90117337908E+02 0.  0.
         23    2    1    2    0    0 -0.28562198735E+02  0.41475849107E+02 -0.14690174529E+03  0.19069264695E+03  0.11066850309E+03 0.  0.
          5    1    4    4  502    0 -0.54480306605E+02  0.65356097039E+02 -0.11387777989E+03  0.14221513415E+03  0.41800000000E+01 0. -1.
         -5    1    4    4    0  502  0.25918107870E+02 -0.23880247931E+02 -0.33023965403E+02  0.48477512805E+02  0.41800000000E+01 0.  1.
        -11    1    3    3    0    0  0.42308601861E+02 -0.10697404265E+02  0.12547500821E+02  0.45408061248E+02  0.00000000000E+00 0. -1.
         11    1    3    3    0    0 -0.13746403126E+02 -0.30778444843E+02  0.10884264617E+03  0.11394295894E+03  0.00000000000E+00 0.  1.
</event>
<event>
 8    1  0.8061721E-006  0.1216787E+03  0.7561462E-02  0.1240353E+00
          2   -1    0    0  501    0  0.00000000000E+00  0.00000000000E+00  0.26326808783E+03  0.26326808783E+03  0.00000000000E+00 0. -1.
         -2   -1    0    0    0  501 -0.00000000000E+00 -0.00000000000E+00 -0.59069519010E+02  0.59069519010E+02  0.00000000000E+00 0.  1.
         23    2    1    2    0    0  0.34937245072E+02 -0.53473986162E+02  0.75707586934E+02  0.13197394388E+03  0.87208972330E+02 0.  0.
         23    2    1    2    0    0 -0.34937245072E+02  0.53473986162E+02  0.12849098188E+03  0.19036366296E+03  0.12509321908E+03 0.  0.
          5    1    4    4  502    0 -0.76493540800E+02  0.53946731534E+02  0.63782600752E+02  0.11334550801E+03  0.41800000000E+01 0. -1.
         -5    1    4    4    0  502  0.41556295728E+02 -0.47274537253E+00  0.64708381133E+02  0.77018154948E+02  0.41800000000E+01 0. -1.
        -11    1    3    3    0    0  0.38231319214E+02 -0.76027916328E+02  0.56294800827E+02  0.10203422186E+03  0.00000000000E+00 0.  1.
         11    1    3    3    0    0 -0.32940741415E+01  0.22553930166E+02  0.19412786107E+02  0.29939722023E+02  0.00000000000E+00 0. -1.
</event>
<event>
 8    1  0.8061721E-006  0.1660304E+03  0.7561462E-02  0.1182052E+00
         -1   -1    0    0    0  501 -0.00000000000E+00  0.00000000000E+00  0.33096667564E+03  0.33096667564E+03  0.00000000000E+00 0.  1.
          1   -1    0    0  501    0  0.00000000000E+00 -0.00000000000E+00 -0.98809345450E+02  0.98809345450E+02  0.00000000000E+00 0. -1.
         23    2    1    2    0    0  0.38949891219E+02  0.13359083967E+03  0.74539674405E+02  0.18512515114E+03  0.96703423188E+02 0.  0.
         23    2    1    2    0    0 -0.38949891219E+02 -0.13359083967E+03  0.15761765579E+03  0.24465086995E+03  0.12508843384E+03 0.  0.
          5    1    4    4  502    0 -0.33580708930E+02 -0.14531992612E+03  0.86950595478E+02  0.17269459573E+03  0.41800000000E+01 0. -1.
         -5    1    4    4    0  502 -0.53691822898E+01  0.11729086448E+02  0.70667060308E+02  0.71956274223E+02  0.41800000000E+01 0. -1.
        -11    1    3    3    0    0 -0.32453377479E+02  0.45758097967E+02  0.28540212167E+02  0.62940995781E+02  0.00000000000E+00 0. -1.
         11    1    3    3    0    0  0.71403268698E+02  0.87832741702E+02  0.45999462238E+02  0.12218415536E+03  0.00000000000E+00 0.  1.
</event>
<event>
 8    1  0.8061721E-006  0.9134653E+02  0.7561462E-02  0.1299623E+00
         -1   -1    0    0    0  501 -0.00000000000E+00  0.00000000000E+00  0.16865678243E+02  0.16865678243E+02  0.00000000000E+00 0.  1.
          1   -1    0    0  501    0  0.00000000000E+00 -0.00000000000E+00 -0.13799273255E+04  0.13799273255E+04  0.00000000000E+00 0. -1.
         23    2    1    2    0    0  0.88116370046E+02  0.22029354414E+02 -0.36996920285E+03  0.39174108832E+03  0.91291193929E+02 0.  0.
         23    2    1    2    0    0 -0.88116370046E+02 -0.22029354414E+02 -0.99309244439E+03  0.10050519154E+04  0.12508781894E+03 0.  0.
          5    1    4    4  502    0 -0.60224590717E+02 -0.10291610682E+02 -0.15878496417E+03  0.17018535726E+03  0.41800000000E+01 0.  1.
         -5    1    4    4    0  502 -0.27891779329E+02 -0.11737743731E+02 -0.83430748022E+03  0.83486655816E+03  0.41800000000E+01 0.  1.
        -11    1    3    3    0    0  0.30414854894E+02  0.57886095625E+01 -0.20417819354E+02  0.37087177651E+02  0.00000000000E+00 0.  1.
         11    1    3    3    0    0  0.57701515152E+02  0.16240744851E+02 -0.34955138350E+03  0.35465391067E+03  0.00000000000E+00 0. -1.
</event>
<event>
 8    1  0.8061721E-006  0.1421990E+03  0.7561462E-02  0.1210400E+00
          1   -1    0    0  501    0  0.00000000000E+00  0.00000000000E+00  0.55916976817E+03  0.55916976817E+03  0.00000000000E+00 0. -1.
         -1   -1    0    0    0  501 -0.00000000000E+00 -0.00000000000E+00 -0.48525545121E+02  0.48525545121E+02  0.00000000000E+00 0.  1.
         23    2    1    2    0    0  0.39462306260E+02 -0.11560829053E+03  0.24745433894E+03  0.29207449436E+03  0.95662479290E+02 0.  0.
         23    2    1    2    0    0 -0.39462306260E+02  0.11560829053E+03  0.26318988411E+03  0.31562081893E+03  0.12419756756E+03 0.  0.
          5    1    4    4  502    0 -0.33709878812E+02  0.21590441373E+02  0.19537977837E+03  0.19948241347E+03  0.41800000000E+01 0. -1.
         -5    1    4    4    0  502 -0.57524274476E+01  0.94017849156E+02  0.67810105740E+02  0.11613840546E+03  0.41800000000E+01 0. -1.
        -11    1    3    3    0    0  0.67250273599E+02 -0.76044863212E+02  0.12914328643E+03  0.16426627454E+03  0.00000000000E+00 0. -1.
         11    1    3    3    0    0 -0.27787967339E+02 -0.39563427317E+02  0.11831105250E+03  0.12780821982E+03  0.00000000000E+00 0.  1.
</event>
<event>
 8    1  0.8061721E-006  0.1300471E+03  0.7561462E-02  0.1227386E+00
          1   -1    0    0  501    0  0.00000000000E+00  0.00000000000E+00  0.20910669006E+03  0.20910669006E+03  0.00000000000E+00 0. -1.
         -1   -1    0    0    0  501 -0.00000000000E+00 -0.00000000000E+00 -0.82958716853E+02  0.82958716853E+02  0.00000000000E+00 0.  1.
         23    2    1    2    0    0 -0.70410039263E+02 -0.15691682830E+02  0.37351866248E+02  0.12254931413E+03  0.91757124753E+02 0.  0.
         23    2    1    2    0    0  0.70410039263E+02  0.15691682830E+02  0.88796106955E+02  0.16951609278E+03  0.12508858685E+03 0.  0.
          5    1    4    4  502    0  0.77318757259E+02  0.60319569266E+02  0.51774560238E+02  0.11097169976E+03  0.41800000000E+01 0.  1.
         -5    1    4    4    0  502 -0.69087179962E+01 -0.44627886436E+02  0.37021546716E+02  0.58544393014E+02  0.41800000000E+01 0.  1.
        -11    1    3    3    0    0 -0.31553369969E+02 -0.53667402756E+02  0.17056674489E+02  0.64550254993E+02  0.00000000000E+00 0.  1.
         11    1    3    3    0    0 -0.38856669294E+02  0.37975719926E+02  0.20295191758E+02  0.57999059139E+02  0.00000000000E+00 0. -1.
</event>
<event>
 8    1  0.8061721E-006  0.1076188E+03  0.7561462E-02  0.1265044E+00
         -2   -1    0    0    0  501 -0.00000000000E+00  0.00000000000E+00  0.38852096349E+02  0.38852096349E+02  0.00000000000E+00 0.  1.
          2   -1    0    0  501    0  0.00000000000E+00 -0.00000000000E+00 -0.32667391031E+03  0.32667391031E+03  0.00000000000E+00 0. -1.
         23    2    1    2    0    0  0.12404809342E+02 -0.26296697118E+02 -0.99647483937E+02  0.13770522725E+03  0.90485982247E+02 0.  0.
         23    2    1    2    0    0 -0.12404809342E+02  0.26296697118E+02 -0.18817433003E+03  0.22782077941E+03  0.12508930201E+03 0.  0.
          5    1    4    4  502    0  0.51077829940E+02 -0.11177112351E+02 -0.58288814242E+02  0.78415118552E+02  0.41800000000E+01 0. -1.
         -5    1    4    4    0  502 -0.63482639281E+02  0.37473809468E+02 -0.12988551579E+03  0.14940566086E+03  0.41800000000E+01 0. -1.
        -11    1    3    3    0    0 -0.34880554209E+02 -0.22505548278E+02 -0.22704340594E+02  0.47314266845E+02  0.00000000000E+00 0.  1.
         11    1    3    3    0    0  0.47285363551E+02 -0.37911488392E+01 -0.76943143342E+02  0.90390960406E+02  0.00000000000E+00 0. -1.
</event>
<event>
 8    1  0.8061721E-006  0.8209381E+02  0.7561462E-02  0.1323212E+00
         -3   -1    0    0    0  501 -0.00000000000E+00  0.00000000000E+00  0.12150542423E+03  0.12150542423E+03  0.00000000000E+00 0.  1.
          3   -1    0    0  501    0  0.00000000000E+00 -0.00000000000E+00 -0.10215098917E+03  0.10215098917E+03  0.00000000000E+00 0. -1.
         23    2    1    2    0    0  0.25234008424E+02  0.11057129907E+00  0.20141007868E+02  0.96038720782E+02  0.90448926386E+02 0.  0.
         23    2    1    2    0    0 -0.25234008424E+02 -0.11057129907E+00 -0.78657281006E+00  0.12761769262E+03  0.12509552097E+03 0.  0.
          5    1    4    4  502    0 -0.87684937616E+01  0.52748954363E+02  0.32662305791E+02  0.62798386037E+02  0.41800000000E+01 0.  1.
         -5    1    4    4    0  502 -0.16465514662E+02 -0.52859525662E+02 -0.33448878601E+02  0.64819306584E+02  0.41800000000E+01 0.  1.
        -11    1    3    3    0    0  0.38073894203E+02  0.93569264632E+01  0.49224127923E+02  0.62930026716E+02  0.00000000000E+00 0.  1.
         11    1    3    3    0    0 -0.12839885779E+02 -0.92463551641E+01 -0.29083120055E+02  0.33108694066E+02  0.00000000000E+00 0. -1.
</event>
<event>
 8    1  0.8061721E-006  0.1576202E+03  0.7561462E-02  0.1191410E+00
         -2   -1    0    0    0  501 -0.00000000000E+00  0.00000000000E+00  0.44282548844E+02  0.44282548844E+02  0.00000000000E+00 0.  1.
          2   -1    0    0  501    0  0.00000000000E+00 -0.00000000000E+00 -0.90107749414E+03  0.90107749414E+03  0.00000000000E+00 0. -1.
         23    2    1    2    0    0  0.13140005048E+03 -0.79544501017E+02 -0.25269800987E+03  0.30961299989E+03  0.91709457535E+02 0.  0.
         23    2    1    2    0    0 -0.13140005048E+03  0.79544501017E+02 -0.60409693542E+03  0.63574704309E+03  0.12509154449E+03 0.  0.
          5    1    4    4  502    0 -0.12132945797E+02  0.18389717567E+02 -0.65834342021E+01  0.23371009644E+02  0.41800000000E+01 0.  1.
         -5    1    4    4    0  502 -0.11926710468E+03  0.61154783451E+02 -0.59751350122E+03  0.61237603345E+03  0.41800000000E+01 0.  1.
        -11    1    3    3    0    0  0.88600149327E+02 -0.30682631224E+02 -0.73908999724E+02  0.11938990979E+03  0.00000000000E+00 0.  1.
         11    1    3    3    0    0  0.42799901150E+02 -0.48861869794E+02 -0.17878901015E+03  0.19022309010E+03  0.00000000000E+00 0. -1.
</event>
<event>
 8    1  0.8061721E-006  0.1025824E+03  0.7561462E-02  0.1274957E+00
         -4   -1    0    0    0  501 -0.00000000000E+00  0.00000000000E+00  0.45796830955E+02  0.45796830955E+02  0.00000000000E+00 0. -1.
          4   -1    0    0  501    0  0.00000000000E+00 -0.00000000000E+00 -0.43550817538E+03  0.43550817538E+03  0.00000000000E+00 0.  1.
         23    2    1    2    0    0  0.47014743298E+01 -0.65896821704E+02 -0.70645062215E+02  0.13227868975E+03  0.90235425274E+02 0.  0.
         23    2    1    2    0    0 -0.47014743298E+01  0.65896821704E+02 -0.31906628221E+03  0.34902631659E+03  0.12510628384E+03 0.  0.
          5    1    4    4  502    0  0.49886257971E+02  0.14459914560E+02 -0.60884808484E+02  0.80138381363E+02  0.41800000000E+01 0.  1.
         -5    1    4    4    0  502 -0.54587732301E+02  0.51436907144E+02 -0.25818147372E+03  0.26888793522E+03  0.41800000000E+01 0.  1.
        -11    1    3    3    0    0  0.23118498701E+02 -0.39048482185E+02  0.89759874600E+01  0.46258159215E+02  0.00000000000E+00 0. -1.
         11    1    3    3    0    0 -0.18417024371E+02 -0.26848339519E+02 -0.79621049675E+02  0.86020530532E+02  0.00000000000E+00 0.  1.
</event>
<event>
 8    1  0.8061721E-006  0.1975327E+03  0.7561462E-02  0.1151837E+00
          1   -1    0    0  501    0  0.00000000000E+00  0.00000000000E+00  0.21387834488E+03  0.21387834488E+03  0.00000000000E+00 0. -1.
         -1   -1    0    0    0  501 -0.00000000000E+00 -0.00000000000E+00 -0.24915773502E+03  0.24915773502E+03  0.00000000000E+00 0.  1.
         23    2    1    2    0    0 -0.49084817834E+02  0.17986709216E+03 -0.97968701736E+02  0.22995716015E+03  0.92308931331E+02 0.  0.
         23    2    1    2    0    0  0.49084817834E+02 -0.17986709216E+03  0.62689311591E+02  0.23307891975E+03  0.12503736585E+03 0.  0.
          5    1    4    4  502    0  0.67411496911E+01  0.47800753699E+01 -0.23241399525E+02  0.25018538558E+02  0.41800000000E+01 0. -1.
         -5    1    4    4    0  502  0.42343668143E+02 -0.18464716753E+03  0.85930711116E+02  0.20806038119E+03  0.41800000000E+01 0. -1.
        -11    1    3    3    0    0 -0.14805667936E+02  0.15036405702E+03 -0.39744845183E+02  0.15623127140E+03  0.00000000000E+00 0. -1.
         11    1    3    3    0    0 -0.34279149898E+02  0.29503035140E+02 -0.58223856553E+02  0.73725888751E+02  0.00000000000E+00 0.  1.
</event>
<event>
 8    1  0.8061721E-006  0.1178329E+03  0.7561462E-02  0.1246715E+00
         -2   -1    0    0    0  501 -0.00000000000E+00  0.00000000000E+00  0.64432379622E+02  0.64432379622E+02  0.00000000000E+00 0.  1.
          2   -1    0    0  501    0  0.00000000000E+00 -0.00000000000E+00 -0.27564658433E+03  0.27564658433E+03  0.00000000000E+00 0. -1.
         23    2    1    2    0    0 -0.58099373833E+02 -0.13967262654E+02 -0.32518258909E+02  0.11391216602E+03  0.91366967437E+02 0.  0.
         23    2    1    2    0    0  0.58099373833E+02  0.13967262654E+02 -0.17869594580E+03  0.22616679793E+03  0.12509419562E+03 0.  0.
          5    1    4    4  502    0  0.93451808580E+02 -0.11026443677E+02 -0.10953830461E+03  0.14446776652E+03  0.41800000000E+01 0. -1.
         -5    1    4    4    0  502 -0.35352434747E+02  0.24993706331E+02 -0.69157641189E+02  0.81699031411E+02  0.41800000000E+01 0. -1.
        -11    1    3    3    0    0 -0.63254187034E+02 -0.37735912132E+02 -0.45265745627E+02  0.86452755704E+02  0.00000000000E+00 0. -1.
         11    1    3    3    0    0  0.51548132010E+01  0.23768649478E+02  0.12747486718E+02  0.27459410314E+02  0.00000000000E+00 0.  1.
</event>
<event>
 8    1  0.8061721E-006  0.1238738E+03  0.7561462E-02  0.1236840E+00
         -1   -1    0    0    0  501 -0.00000000000E+00  0.00000000000E+00  0.11266307123E+03  0.11266307123E+03  0.00000000000E+00 0.  1.
          1   -1    0    0  501    0  0.00000000000E+00 -0.00000000000E+00 -0.15892500921E+03  0.15892500921E+03  0.00000000000E+00 0. -1.
         23    2    1    2    0    0  0.33862995266E+02  0.67875225784E+02 -0.48997404695E+01  0.11956225143E+03  0.92289629896E+02 0.  0.
         23    2    1    2    0    0 -0.33862995266E+02 -0.67875225784E+02 -0.41362197507E+02  0.15202582901E+03  0.12508905860E+03 0.  0.
          5    1    4    4  502    0  0.38266906343E+02 -0.43029849212E+02  0.11822953646E+02  0.58933680329E+02  0.41800000000E+01 0. -1.
         -5    1    4    4    0  502 -0.72129901609E+02 -0.24845376572E+02 -0.53185151154E+02  0.93092148683E+02  0.41800000000E+01 0. -1.
        -11    1    3    3    0    0 -0.28046424689E+02  0.29826118484E+02  0.15988389676E+02  0.43952564044E+02  0.00000000000E+00 0.  1.
         11    1    3    3    0    0  0.61909419954E+02  0.38049107300E+02 -0.20888130145E+02  0.75609687384E+02  0.00000000000E+00 0. -1.
</event>
<event>
 8    1  0.8061721E-006  0.9190395E+02  0.7561462E-02  0.1298305E+00
         -1   -1    0    0    0  501 -0.00000000000E+00  0.00000000000E+00  0.36699674832E+02  0.36699674832E+02  0.00000000000E+00 0.  1.
          1   -1    0    0  501    0  0.00000000000E+00 -0.00000000000E+00 -0.40076169007E+03  0.40076169007E+03  0.00000000000E+00 0. -1.
         23    2    1    2    0    0  0.43677140772E+02 -0.43852639584E+02 -0.16322073296E+03  0.19288688908E+03  0.82058501596E+02 0.  0.
         23    2    1    2    0    0 -0.43677140772E+02  0.43852639584E+02 -0.20084128228E+03  0.24457447583E+03  0.12509479180E+03 0.  0.
          5    1    4    4  502    0  0.42897373184E-01 -0.11059147521E+02 -0.16541911229E+03  0.16584107361E+03  0.41800000000E+01 0. -1.
         -5    1    4    4    0  502 -0.43720038145E+02  0.54911787104E+02 -0.35422169984E+02  0.78733402218E+02  0.41800000000E+01 0. -1.
        -11    1    3    3    0    0  0.23947111618E+02  0.22248362839E+02 -0.66346556205E+02  0.73961607096E+02  0.00000000000E+00 0. -1.
         11    1    3    3    0    0  0.19730029154E+02 -0.66101002423E+02 -0.96874176760E+02  0.11892528198E+03  0.00000000000E+00 0.  1.
</event>
<event>
 8    1  0.8061721E-006  0.2847081E+03  0.7561462E-02  0.1093145E+00
          2   -1    0    0  501    0  0.00000000000E+00  0.00000000000E+00  0.38452518533E+03  0.38452518533E+03  0.00000000000E+00 0.  1.
         -2   -1    0    0    0  501 -0.00000000000E+00 -0.00000000000E+00 -0.33295076925E+03  0.33295076925E+03  0.00000000000E+00 0. -1.
         23    2    1    2    0    0 -0.91846248139E+02  0.26456858611E+03 -0.16932855151E+03  0.33948390088E+03  0.90249047336E+02 0.  0.
         23    2    1    2    0    0  0.91846248139E+02 -0.26456858611E+03  0.22090296759E+03  0.37799205370E+03  0.12509037339E+03 0.  0.
          5    1    4    4  502    0 -0.11810138896E+02 -0.38196512132E+02  0.85663212880E+02  0.94626166364E+02  0.41800000000E+01 0. -1.
         -5    1    4    4    0  502  0.10365638704E+03 -0.22637207398E+03  0.13523975471E+03  0.28336588733E+03  0.41800000000E+01 0. -1.
        -11    1    3    3    0    0 -0.27556198980E+02  0.67172459270E+02 -0.93695600245E+02  0.11853416761E+03  0.00000000000E+00 0.  1.
         11    1    3    3    0    0 -0.64290049159E+02  0.19739612684E+03 -0.75632951268E+02  0.22094973327E+03  0.00000000000E+00 0. -1.
</event>
<event>
 8    1  0.8061721E-006  0.1230222E+03  0.7561462E-02  0.1238193E+00
          2   -1    0    0  501    0  0.00000000000E+00  0.00000000000E+00  0.66169744044E+03  0.66169744044E+03  0.00000000000E+00 0. -1.
         -2   -1    0    0    0  501 -0.00000000000E+00 -0.00000000000E+00 -0.33644493498E+02  0.33644493498E+02  0.00000000000E+00 0.  1.
         23    2    1    2    0    0 -0.16676008650E+02  0.96664151749E+02  0.23023973677E+03  0.26695080700E+03  0.92899674228E+02 0.  0.
         23    2    1    2    0    0  0.16676008650E+02 -0.96664151749E+02  0.39781321018E+03  0.42839112694E+03  0.12506622228E+03 0.  0.
          5    1    4    4  502    0  0.55366039050E+02 -0.65627242472E+02  0.12906966209E+03  0.15507670136E+03  0.41800000000E+01 0.  1.
         -5    1    4    4    0  502 -0.38690030400E+02 -0.31036909278E+02  0.26874354809E+03  0.27331442558E+03  0.41800000000E+01 0.  1.
        -11    1    3    3    0    0  0.96301854347E+01  0.76642781738E+02  0.73029123303E+02  0.10630197230E+03  0.00000000000E+00 0.  1.
         11    1    3    3    0    0 -0.26306194085E+02  0.20021370011E+02  0.15721061346E+03  0.16064883470E+03  0.00000000000E+00 0. -1.
</event>
<event>
 8    1  0.8061721E-006  0.1048326E+03  0.7561462E-02  0.1270450E+00
         -1   -1    0    0    0  501 -0.00000000000E+00  0.00000000000E+00  0.23637381179E+03  0.23637381179E+03  0.00000000000E+00 0.  1.
          1   -1    0    0  501    0  0.00000000000E+00 -0.00000000000E+00 -0.59200745759E+02  0.59200745759E+02  0.00000000000E+00 0. -1.
         23    2    1    2    0    0 -0.20891508607E+02  0.37398912443E+02  0.10613026298E+03  0.14547062570E+03  0.89793855233E+02 0.  0.
         23    2    1    2    0    0  0.20891508607E+02 -0.37398912443E+02  0.71042803042E+02  0.15010393184E+03  0.12509587006E+03 0.  0.
          5    1    4    4  502    0  0.66080262738E+02 -0.42374002221E+02  0.68684327739E+02  0.10438949403E+03  0.41800000000E+01 0.  1.
         -5    1    4    4    0  502 -0.45188754131E+02  0.49750897773E+01  0.23584753028E+01  0.45714437807E+02  0.41800000000E+01 0.  1.
        -11    1    3    3    0    0 -0.65786713879E+01  0.59067193968E+02  0.10352467800E+03  0.11937156812E+03  0.00000000000E+00 0.  1.
         11    1    3    3    0    0 -0.14312837219E+02 -0.21668281524E+02  0.26055849800E+01  0.26099057580E+02  0.00000000000E+00 0. -1.
</event>
<event>
 8    1  0.8061721E-006  0.1285152E+03  0.7561462E-02  0.1229676E+00
          2   -1    0    0  501    0  0.00000000000E+00  0.00000000000E+00  0.74044099609E+02  0.74044099609E+02  0.00000000000E+00 0. -1.
         -2   -1    0    0    0  501 -0.00000000000E+00 -0.00000000000E+00 -0.26274096095E+03  0.26274096095E+03  0.00000000000E+00 0.  1.
         23    2    1    2    0    0  0.57036256224E+02 -0.51458786524E+02 -0.13636592023E+03  0.18092730946E+03  0.90762800053E+02 0.  0.
         23    2    1    2    0    0 -0.57036256224E+02  0.51458786524E+02 -0.52330941106E+02  0.15585775109E+03  0.12510783327E+03 0.  0.
          5    1    4    4  502    0 -0.12025647226E+02  0.87625038826E+02 -0.26184410337E+02  0.92335580169E+02  0.41800000000E+01 0. -1.
         -5    1    4    4    0  502 -0.45010608998E+02 -0.36166252301E+02 -0.26146530768E+02  0.63522170926E+02  0.41800000000E+01 0. -1.
        -11    1    3    3    0    0  0.52469436309E+01  0.20935082320E+02 -0.59594196402E+02  0.63381987457E+02  0.00000000000E+00 0. -1.
         11    1    3    3    0    0  0.51789312593E+02 -0.72393868844E+02 -0.76771723829E+02  0.11754532200E+03  0.00000000000E+00 0.  1.
</event>
<event>
 8    1  0.8061721E-006  0.1126333E+03  0.7561462E-02  0.1255770E+00
         -2   -1    0    0    0  501 -0.00000000000E+00  0.00000000000E+00  0.22528992987E+02  0.22528992987E+02  0.00000000000E+00 0.  1.
          2   -1    0    0  501    0  0.00000000000E+00 -0.00000000000E+00 -0.10708111918E+04  0.10708111918E+04  0.00000000000E+00 0. -1.
         23    2    1    2    0    0  0.37685282780E+02 -0.19168607570E+02 -0.12187979105E+03  0.15757197918E+03  0.90479992820E+02 0.  0.
         23    2    1    2    0    0 -0.37685282780E+02  0.19168607570E+02 -0.92640240778E+03  0.93576820563E+03  0.12511233940E+03 0.  0.
          5    1    4    4  502    0  0.22044655072E+01  0.67610269632E+02 -0.41231771572E+03  0.41785090562E+03  0.41800000000E+01 0.  1.
         -5    1    4    4    0  502 -0.39889748287E+02 -0.48441662062E+02 -0.51408469206E+03  0.51791730001E+03  0.41800000000E+01 0.  1.
        -11    1    3    3    0    0 -0.33961575364E+01 -0.45615895642E+02 -0.84382585760E+02  0.95983147483E+02  0.00000000000E+00 0. -1.
         11    1    3    3    0    0  0.41081440316E+02  0.26447288072E+02 -0.37497205294E+02  0.61588831696E+02  0.00000000000E+00 0.  1.
</event>
<event>
 8    1  0.8061721E-006  0.1710989E+03  0.7561462E-02  0.1176707E+00
          2   -1    0    0  501    0  0.00000000000E+00  0.00000000000E+00  0.19815157548E+04  0.19815157548E+04  0.00000000000E+00 0. -1.
         -2   -1    0    0    0  501 -0.00000000000E+00 -0.00000000000E+00 -0.16732899259E+02  0.16732899259E+02  0.00000000000E+00 0.  1.
         23    2    1    2    0    0  0.14069364797E+03  0.34692538256E+02  0.83923807103E+03  0.85654079134E+03  0.91341735137E+02 0.  0.
         23    2    1    2    0    0 -0.14069364797E+03 -0.34692538256E+02  0.11255447845E+04  0.11417078627E+04  0.12508999584E+03 0.  0.
          5    1    4    4  502    0 -0.53461456790E+02 -0.60869714822E+02  0.78463814266E+03  0.78882047188E+03  0.41800000000E+01 0. -1.
         -5    1    4    4    0  502 -0.87232191182E+02  0.26177176566E+02  0.34090664185E+03  0.35288739083E+03  0.41800000000E+01 0. -1.
        -11    1    3    3    0    0  0.14107017882E+03  0.53662042587E+02  0.77495931884E+03  0.78952033288E+03  0.00000000000E+00 0.  1.
         11    1    3    3    0    0 -0.37653084867E+00 -0.18969504331E+02  0.64278752188E+02  0.67020458466E+02  0.00000000000E+00 0. -1.
</event>
<event>
 8    1  0.9766484E-006  0.1716680E+03  0.7561462E-02  0.1176119E+00
         -1   -1    0    0    0  501 -0.00000000000E+00  0.00000000000E+00  0.47159371270E+03  0.47159371270E+03  0.00000000000E+00 0.  1.
          1   -1    0    0  501    0  0.00000000000E+00 -0.00000000000E+00 -0.91514160514E+02  0.91514160514E+02  0.00000000000E+00 0. -1.
         23    2    1    2    0    0  0.50077935216E+02 -0.14307123811E+03  0.30536486646E+03  0.35285329480E+03  0.90997622014E+02 0.  0.
         23    2    1    2    0    0 -0.50077935216E+02  0.14307123811E+03  0.74714685721E+02  0.21025457841E+03  0.12509006640E+03 0.  0.
          5    1    4    4  502    0 -0.61255051236E+02  0.15898607748E+03  0.81923269705E+02  0.18909692925E+03  0.41800000000E+01 0.  1.
         -5    1    4    4    0  502  0.11177116020E+02 -0.15914839372E+02 -0.72085839839E+01  0.21157649157E+02  0.41800000000E+01 0.  1.
        -11    1    3    3    0    0  0.36868104517E+02 -0.73817064191E+02  0.24983563455E+03  0.26310845747E+03  0.00000000000E+00 0.  1.
         11    1    3    3    0    0  0.13209830699E+02 -0.69254173917E+02  0.55529231910E+02  0.89744837336E+02  0.00000000000E+00 0. -1.
</event>
<event>
 8    1  0.8061721E-006  0.8080139E+02  0.7561462E-02  0.1326792E+00
         -1   -1    0    0    0  501 -0.00000000000E+00  0.00000000000E+00  0.26349398806E+03  0.26349398806E+03  0.00000000000E+00 0.  1.
          1   -1    0    0  501    0  0.00000000000E+00 -0.00000000000E+00 -0.79422438928E+02  0.79422438928E+02  0.00000000000E+00 0. -1.
         23    2    1    2    0    0 -0.98437911871E+01 -0.42236237530E+02  0.18470414470E+03  0.21050986945E+03  0.91202982834E+02 0.  0.
         23    2    1    2    0    0  0.98437911871E+01  0.42236237530E+02 -0.63259556859E+00  0.13240655754E+03  0.12510114435E+03 0.  0.
          5    1    4    4  502    0  0.34854202985E+02  0.30155121104E+01 -0.52107763772E+02  0.62901512099E+02  0.41800000000E+01 0.  1.
         -5    1    4    4    0  502 -0.25010411798E+02  0.39220725420E+02  0.51475168204E+02  0.69505045445E+02  0.41800000000E+01 0.  1.
        -11    1    3    3    0    0  0.26466305585E+02 -0.37099215890E+01  0.10970401968E+02  0.28889073520E+02  0.00000000000E+00 0. -1.
         11    1    3    3    0    0 -0.36310096773E+02 -0.38526315941E+02  0.17373374274E+03  0.18162079593E+03  0.00000000000E+00 0.  1.
</event>
<event>
 8    1  0.8061721E-006  0.1008290E+03  0.7561462E-02  0.1278562E+00
          1   -1    0    0  501    0  0.00000000000E+00  0.00000000000E+00  0.63526035502E+03  0.63526035502E+03  0.00000000000E+00 0. -1.
         -1   -1    0    0    0  501 -0.00000000000E+00 -0.00000000000E+00 -0.41089817865E+02  0.41089817865E+02  0.00000000000E+00 0.  1.
         23    2    1    2    0    0 -0.46756978604E+02 -0.31680640866E+02  0.54343268303E+02  0.11934893656E+03  0.90006109763E+02 0.  0.
         23    2    1    2    0    0  0.46756978604E+02  0.31680640866E+02  0.53982726885E+03  0.55700123632E+03  0.12508804505E+03 0.  0.
          5    1    4    4  502    0 -0.32780080461E+02  0.80995398154E+01  0.32334342128E+03  0.32512855412E+03  0.41800000000E+01 0.  1.
         -5    1    4    4    0  502  0.79537059065E+02  0.23581101051E+02  0.21648384757E+03  0.23187268220E+03  0.41800000000E+01 0.  1.
        -11    1    3    3    0    0 -0.26538006949E+02  0.17232824006E+02 -0.12557772769E+02  0.34043115207E+02  0.00000000000E+00 0.  1.
         11    1    3    3    0    0 -0.20218971655E+02 -0.48913464872E+02  0.66901041072E+02  0.85305821355E+02  0.00000000000E+00 0. -1.
</event>
<event>
 7    1  0.8061721E-006  0.1646550E+03  0.7561462E-02  0.1183539E+00
          1   -1    0    0  501    0  0.00000000000E+00  0.00000000000E+00  0.57785910957E+03  0.57785910957E+03  0.00000000000E+00 0. -1.
         -1   -1    0    0    0  501 -0.00000000000E+00 -0.00000000000E+00 -0.65054244295E+02  0.65054244295E+02  0.00000000000E+00 0.  1.
         23    2    1    2    0    0  0.11625282650E+03  0.51618593464E+02  0.15705939678E+03  0.22238255364E+03  0.92774711992E+02 0.  0.
          5    1    1    2  502    0  0.23211612837E+02 -0.94885740096E+00 -0.10132266154E+02  0.25686854971E+02  0.41800000000E+01 0. -1.
         -5    1    1    2    0  502 -0.13946443934E+03 -0.50669736063E+02  0.36587773465E+03  0.39484394526E+03  0.41800000000E+01 0.  1.
        -11    1    3    3    0    0  0.13120851225E+03  0.54421795887E+02  0.14481519708E+03  0.20285178544E+03  0.00000000000E+00 0. -1.
         11    1    3    3    0    0 -0.14955685744E+02 -0.28032024235E+01  0.12244199706E+02  0.19530768197E+02  0.00000000000E+00 0.  1.
</event>
<event>
 8    1  0.8061721E-006  0.9830355E+02  0.7561462E-02  0.1283904E+00
          1   -1    0    0  501    0  0.00000000000E+00  0.00000000000E+00  0.63746491813E+03  0.63746491813E+03  0.00000000000E+00 0. -1.
         -1   -1    0    0    0  501 -0.00000000000E+00 -0.00000000000E+00 -0.20333039942E+02  0.20333039942E+02  0.00000000000E+00 0.  1.
         23    2    1    2    0    0 -0.12369525304E+02 -0.11354425791E+02  0.18149433176E+03  0.20424387134E+03  0.92159852302E+02 0.  0.
         23    2    1    2    0    0  0.12369525304E+02  0.11354425791E+02  0.43563754643E+03  0.45355408674E+03  0.12509720059E+03 0.  0.
          5    1    4    4  502    0 -0.15038574785E+02  0.52736576078E+02  0.35150565220E+03  0.35578223834E+03  0.41800000000E+01 0. -1.
         -5    1    4    4    0  502  0.27408100089E+02 -0.41382150287E+02  0.84131894227E+02  0.97771848398E+02  0.41800000000E+01 0. -1.
        -11    1    3    3    0    0 -0.51685641088E+02 -0.84818119413E+01  0.82890318771E+02  0.98051780067E+02  0.00000000000E+00 0. -1.
         11    1    3    3    0    0  0.39316115783E+02 -0.28726138501E+01  0.98604012992E+02  0.10619209127E+03  0.00000000000E+00 0.  1.
</event>
<event>
 8    1  0.8061721E-006  0.1482302E+03  0.7561462E-02  0.1202665E+00
          2   -1    0    0  501    0  0.00000000000E+00  0.00000000000E+00  0.24388100188E+03  0.24388100188E+03  0.00000000000E+00 0.  1.
         -2   -1    0    0    0  501 -0.00000000000E+00 -0.00000000000E+00 -0.11742334656E+03  0.11742334656E+03  0.00000000000E+00 0. -1.
         23    2    1    2    0    0  0.36088101695E+02  0.98748945590E+02 -0.23842628195E+02  0.13928819449E+03  0.88198780416E+02 0.  0.
         23    2    1    2    0    0 -0.36088101695E+02 -0.98748945590E+02  0.15030028352E+03  0.22201615395E+03  0.12508913641E+03 0.  0.
          5    1    4    4  502    0 -0.48730508354E+02  0.10321972210E+02  0.26828320373E+02  0.56731267646E+02  0.41800000000E+01 0. -1.
         -5    1    4    4    0  502  0.12642406658E+02 -0.10907091780E+03  0.12347196315E+03  0.16528488630E+03  0.41800000000E+01 0. -1.
        -11    1    3    3    0    0 -0.23109602676E+02  0.20336553454E+01 -0.91836581619E+01  0.24950532402E+02  0.00000000000E+00 0.  1.
         11    1    3    3    0    0  0.59197704372E+02  0.96715290245E+02 -0.14658970033E+02  0.11433766209E+03  0.00000000000E+00 0. -1.
</event>
<event>
 8    1  0.8061721E-006  0.1105112E+03  0.7561462E-02  0.1259626E+00
          1   -1    0    0  501    0  0.00000000000E+00  0.00000000000E+00  0.55639293611E+03  0.55639293611E+03  0.00000000000E+00 0. -1.
         -1   -1    0    0    0  501 -0.00000000000E+00 -0.00000000000E+00 -0.37722390215E+02  0.37722390215E+02  0.00000000000E+00 0.  1.
         23    2    1    2    0    0  0.73551568088E+02 -0.16939205091E+02  0.11810953669E+03  0.16774247939E+03  0.92146117116E+02 0.  0.
         23    2    1    2    0    0 -0.73551568088E+02  0.16939205091E+02  0.40056100920E+03  0.42637284693E+03  0.12509161708E+03 0.  0.
          5    1    4    4  502    0 -0.84010039314E+02  0.38727054258E+02  0.16234834572E+03  0.18690085392E+03  0.41800000000E+01 0.  1.
         -5    1    4    4    0  502  0.10458471226E+02 -0.21787849167E+02  0.23821266349E+03  0.23947199301E+03  0.41800000000E+01 0.  1.
        -11    1    3    3    0    0 -0.10595555338E+02 -0.16663855047E+02  0.65711332066E+02  0.68614349955E+02  0.00000000000E+00 0. -1.
         11    1    3    3    0    0  0.84147123426E+02 -0.27535004402E+00  0.52398204623E+02  0.99128129439E+02  0.00000000000E+00 0.  1.
</event>
<event>
 8    1  0.8061721E-006  0.2211517E+03  0.7561462E-02  0.1133027E+00
         -2   -1    0    0    0  501 -0.00000000000E+00  0.00000000000E+00  0.20666248800E+03  0.20666248800E+03  0.00000000000E+00 0. -1.
          2   -1    0    0  501    0  0.00000000000E+00 -0.00000000000E+00 -0.26781634965E+03  0.26781634965E+03  0.00000000000E+00 0.  1.
         23    2    1    2    0    0 -0.13121865326E+03  0.15869980791E+03 -0.18764061450E+01  0.22635355815E+03  0.93959823287E+02 0.  0.
         23    2    1    2    0    0  0.13121865326E+03 -0.15869980791E+03 -0.59277455501E+02  0.24812527950E+03  0.12509345947E+03 0.  0.
          5    1    4    4  502    0  0.94955492132E+02 -0.25708038693E+02 -0.11610928884E+01  0.98469636316E+02  0.41800000000E+01 0. -1.
         -5    1    4    4    0  502  0.36263161132E+02 -0.13299176922E+03 -0.58116362613E+02  0.14965564319E+03  0.41800000000E+01 0. -1.
        -11    1    3    3    0    0 -0.43885481190E+02  0.51743159536E+02  0.43980855827E+02  0.80855461766E+02  0.00000000000E+00 0. -1.
         11    1    3    3    0    0 -0.87333172074E+02  0.10695664837E+03 -0.45857261972E+02  0.14549809638E+03  0.00000000000E+00 0.  1.
</event>
<event>
 8    1  0.8061721E-006  0.1096794E+03  0.7561462E-02  0.1261165E+00
         -1   -1    0    0    0  501 -0.00000000000E+00  0.00000000000E+00  0.21982637463E+02  0.21982637463E+02  0.00000000000E+00 0.  1.
          1   -1    0    0  501    0  0.00000000000E+00 -0.00000000000E+00 -0.80615387318E+03  0.80615387318E+03  0.00000000000E+00 0. -1.
         23    2    1    2    0    0 -0.30881970699E+02 -0.77368001483E+01 -0.12943797555E+03  0.16080014257E+03  0.89938546501E+02 0.  0.
         23    2    1    2    0    0  0.30881970699E+02  0.77368001483E+01 -0.65473326017E+03  0.66733636807E+03  0.12509449223E+03 0.  0.
          5    1    4    4  502    0  0.54180719513E+02  0.51323503272E+02 -0.30097043420E+03  0.31011340993E+03  0.41800000000E+01 0. -1.
         -5    1    4    4    0  502 -0.23298748814E+02 -0.43586703124E+02 -0.35376282597E+03  0.35722295814E+03  0.41800000000E+01 0. -1.
        -11    1    3    3    0    0 -0.76264817837E+01 -0.47953351203E+02 -0.58833686513E+02  0.76282958678E+02  0.00000000000E+00 0. -1.
         11    1    3    3    0    0 -0.23255488915E+02  0.40216551054E+02 -0.70604289034E+02  0.84517183894E+02  0.00000000000E+00 0.  1.
</event>
<event>
 8    1  0.8061721E-006  0.8732047E+02  0.7561462E-02  0.1309473E+00
          3   -1    0    0  501    0  0.00000000000E+00  0.00000000000E+00  0.33644601622E+03  0.33644601622E+03  0.00000000000E+00 0. -1.
         -3   -1    0    0    0  501 -0.00000000000E+00 -0.00000000000E+00 -0.65761696913E+02  0.65761696913E+02  0.00000000000E+00 0.  1.
         23    2    1    2    0    0  0.72221314558E+02  0.41427110320E+02  0.40317513179E+02  0.12716399843E+03  0.87252833089E+02 0.  0.
         23    2    1    2    0    0 -0.72221314558E+02 -0.41427110320E+02  0.23036680613E+03  0.27504371470E+03  0.12509218955E+03 0.  0.
          5    1    4    4  502    0 -0.77072816063E+01 -0.11717820261E+02 -0.14167453994E+02  0.20369061198E+02  0.41800000000E+01 0. -1.
         -5    1    4    4    0  502 -0.64514032952E+02 -0.29709290059E+02  0.24453426012E+03  0.25467465350E+03  0.41800000000E+01 0. -1.
        -11    1    3    3    0    0  0.27444034698E+02  0.33628554531E+02 -0.23077502755E+02  0.49159188904E+02  0.00000000000E+00 0.  1.
         11    1    3    3    0    0  0.44777279860E+02  0.77985557894E+01  0.63395015934E+02  0.78004809527E+02  0.00000000000E+00 0. -1.
</event>
<event>
 7    1  0.8061721E-006  0.1438300E+03  0.7561462E-02  0.1208266E+00
          1   -1    0    0  501    0  0.00000000000E+00  0.00000000000E+00  0.17688109310E+04  0.17688109310E+04  0.00000000000E+00 0. -1.
         -1   -1    0    0    0  501 -0.00000000000E+00 -0.00000000000E+00 -0.29583962491E+02  0.29583962491E+02  0.00000000000E+00 0.  1.
         23    2    1    2    0    0 -0.61753979648E+02 -0.17730904509E+02  0.17108502075E+03  0.20463846699E+03  0.92080827925E+02 0.  0.
          5    1    1    2  502    0  0.11573042474E+03  0.48740729928E+02  0.14824132654E+04  0.14877283865E+04  0.41800000000E+01 0. -1.
         -5    1    1    2    0  502 -0.53976445095E+02 -0.31009825419E+02  0.85728682274E+02  0.10602803998E+03  0.41800000000E+01 0.  1.
        -11    1    3    3    0    0 -0.34667818704E+02  0.29273934877E+02  0.12658585795E+03  0.13447230328E+03  0.00000000000E+00 0. -1.
         11    1    3    3    0    0 -0.27086160944E+02 -0.47004839386E+02  0.44499162804E+02  0.70166163716E+02  0.00000000000E+00 0.  1.
</event>
<event>
 8    1  0.8061721E-006  0.1089904E+03  0.7561462E-02  0.1262451E+00
         -1   -1    0    0    0  501 -0.00000000000E+00  0.00000000000E+00  0.24155204912E+02  0.24155204912E+02  0.00000000000E+00 0.  1.
          1   -1    0    0  501    0  0.00000000000E+00 -0.00000000000E+00 -0.64212040867E+03  0.64212040867E+03  0.00000000000E+00 0. -1.
         23    2    1    2    0    0 -0.36420950185E+02 -0.88596753134E+01 -0.14331648143E+03  0.17399112302E+03  0.91259616364E+02 0.  0.
         23    2    1    2    0    0  0.36420950185E+02  0.88596753134E+01 -0.47464872233E+03  0.49228449057E+03  0.12509048960E+03 0.  0.
          5    1    4    4  502    0 -0.91024747460E+01  0.59827316468E+02 -0.18665960521E+03  0.19626880410E+03  0.41800000000E+01 0. -1.
         -5    1    4    4    0  502  0.45523424931E+02 -0.50967641154E+02 -0.28798911711E+03  0.29601568647E+03  0.41800000000E+01 0. -1.
        -11    1    3    3    0    0 -0.47868489671E+02  0.24365670645E+02 -0.46677472373E+02  0.71160836395E+02  0.00000000000E+00 0.  1.
         11    1    3    3    0    0  0.11447539486E+02 -0.33225345958E+02 -0.96639009060E+02  0.10283028662E+03  0.00000000000E+00 0. -1.
</event>
<event>
 8    1  0.8061721E-006  0.1494722E+03  0.7561462E-02  0.1201123E+00
         -1   -1    0    0    0  501 -0.00000000000E+00  0.00000000000E+00  0.15310189440E+03  0.15310189440E+03  0.00000000000E+00 0.  1.
          1   -1    0    0  501    0  0.00000000000E+00 -0.00000000000E+00 -0.20070675069E+03  0.20070675069E+03  0.00000000000E+00 0. -1.
         23    2    1    2    0    0  0.11983884989E+03 -0.30482643955E+02  0.38430007794E+02  0.15799569507E+03  0.90527524201E+02 0.  0.
         23    2    1    2    0    0 -0.11983884989E+03  0.30482643955E+02 -0.86034864089E+02  0.19581295002E+03  0.12510064761E+03 0.  0.
          5    1    4    4  502    0 -0.10747901433E+03 -0.69698138413E+01 -0.10620496443E+03  0.15131848432E+03  0.41800000000E+01 0.  1.
         -5    1    4    4    0  502 -0.12359835553E+02  0.37452457796E+02  0.20170100344E+02  0.44494465698E+02  0.41800000000E+01 0.  1.
        -11    1    3    3    0    0  0.98880002449E+02 -0.59727354267E+02  0.18891842061E+02  0.11705346397E+03  0.00000000000E+00 0.  1.
         11    1    3    3    0    0  0.20958847437E+02  0.29244710312E+02  0.19538165732E+02  0.40942231098E+02  0.00000000000E+00 0. -1.
</event>
<event>
 8    1  0.8061721E-006  0.1112102E+03  0.7561462E-02  0.1258345E+00
         -2   -1    0    0    0  501 -0.00000000000E+00  0.00000000000E+00  0.34402376192E+02  0.34402376192E+02  0.00000000000E+00 0.  1.
          2   -1    0    0  501    0  0.00000000000E+00 -0.00000000000E+00 -0.54096598696E+03  0.54096598696E+03  0.00000000000E+00 0. -1.
         23    2    1    2    0    0 -0.31413032041E+01  0.67417595550E+02 -0.13324905011E+03  0.17591107632E+03  0.92921458465E+02 0.  0.
         23    2    1    2    0    0  0.31413032041E+01 -0.67417595550E+02 -0.37331456067E+03  0.39945728683E+03  0.12508941931E+03 0.  0.
          5    1    4    4  502    0  0.78879003577E+01 -0.87321892669E+02 -0.14021413337E+03  0.16542311661E+03  0.41800000000E+01 0.  1.
         -5    1    4    4    0  502 -0.47465971536E+01  0.19904297119E+02 -0.23310042729E+03  0.23403417023E+03  0.41800000000E+01 0.  1.
        -11    1    3    3    0    0 -0.47363201961E+02  0.36617241507E+02 -0.82114058237E+02  0.10162093207E+03  0.00000000000E+00 0. -1.
         11    1    3    3    0    0  0.44221898757E+02  0.30800354043E+02 -0.51134991870E+02  0.74290144248E+02  0.00000000000E+00 0.  1.
</event>
<event>
 8    1  0.8061721E-006  0.1284294E+03  0.7561462E-02  0.1229805E+00
          2   -1    0    0  501    0  0.00000000000E+00  0.00000000000E+00  0.68405114504E+03  0.68405114504E+03  0.00000000000E+00 0. -1.
         -2   -1    0    0    0  501 -0.00000000000E+00 -0.00000000000E+00 -0.26434855580E+02  0.26434855580E+02  0.00000000000E+00 0.  1.
         23    2    1    2    0    0 -0.58385162128E+02  0.25332143934E+02  0.21388356508E+03  0.24508653311E+03  0.10134438627E+03 0.  0.
         23    2    1    2    0    0  0.58385162128E+02 -0.25332143934E+02  0.44373272438E+03  0.46539946751E+03  0.12508952394E+03 0.  0.
          5    1    4    4  502    0  0.20612346546E+02  0.49726740637E+02  0.21529661836E+03  0.22196333895E+03  0.41800000000E+01 0.  1.
         -5    1    4    4    0  502  0.37772815583E+02 -0.75058884572E+02  0.22843610603E+03  0.24343612856E+03  0.41800000000E+01 0.  1.
        -11    1    3    3    0    0 -0.17219492916E+02  0.61545233921E+02  0.13024331861E+03  0.14507807828E+03  0.00000000000E+00 0. -1.
         11    1    3    3    0    0 -0.41165669212E+02 -0.36213089987E+02  0.83640246468E+02  0.10000845483E+03  0.00000000000E+00 0.  1.
</event>
<event>
 8    1  0.8061721E-006  0.1419537E+03  0.7561462E-02  0.1210724E+00
          2   -1    0    0  501    0  0.00000000000E+00  0.00000000000E+00  0.14777930497E+04  0.14777930497E+04  0.00000000000E+00 0. -1.
         -2   -1    0    0    0  501 -0.00000000000E+00 -0.00000000000E+00 -0.16852736052E+02  0.16852736052E+02  0.00000000000E+00 0.  1.
         23    2    1    2    0    0  0.44658936567E+02 -0.10275969133E+03  0.55589568482E+03  0.57415242273E+03  0.89872227906E+02 0.  0.
         23    2    1    2    0    0 -0.44658936567E+02  0.10275969133E+03  0.90504462881E+03  0.92049336301E+03  0.12509307102E+03 0.  0.
          5    1    4    4  502    0  0.25107650445E+02  0.31530577746E+02  0.82470436018E+02  0.91888065933E+02  0.41800000000E+01 0. -1.
         -5    1    4    4    0  502 -0.69766587012E+02  0.71229113587E+02  0.82257419279E+03  0.82860529707E+03  0.41800000000E+01 0. -1.
        -11    1    3    3    0    0  0.67286591630E+02 -0.43404752010E+02  0.31682200284E+03  0.32678378080E+03  0.00000000000E+00 0. -1.
         11    1    3    3    0    0 -0.22627655063E+02 -0.59354939323E+02  0.23907368197E+03  0.24736864192E+03  0.00000000000E+00 0.  1.
</event>
<event>
 7    1  0.8061721E-006  0.1507224E+03  0.7561462E-02  0.1199588E+00
          2   -1    0    0  501    0  0.00000000000E+00  0.00000000000E+00  0.24462913611E+04  0.24462913611E+04  0.00000000000E+00 0. -1.
         -2   -1    0    0    0  501 -0.00000000000E+00 -0.00000000000E+00 -0.21928198018E+02  0.21928198018E+02  0.00000000000E+00 0.  1.
         23    2    1    2    0    0  0.15865412004E+02 -0.28955262831E+02  0.12441873400E+03  0.15794171834E+03  0.91517465440E+02 0.  0.
          5    1    1    2  502    0  0.53310672819E+02  0.98816868915E+02  0.15205973154E+04  0.15247427551E+04  0.41800000000E+01 0. -1.
         -5    1    1    2    0  502 -0.69176084823E+02 -0.69861606083E+02  0.77934711369E+03  0.78553508562E+03  0.41800000000E+01 0.  1.
        -11    1    3    3    0    0  0.77298825986E+01 -0.59026302837E+02  0.51757386080E+02  0.78883981425E+02  0.00000000000E+00 0.  1.
         11    1    3    3    0    0  0.81355294052E+01  0.30071040006E+02  0.72661347915E+02  0.79057736918E+02  0.00000000000E+00 0. -1.
</event>
<event>
 8    1  0.8061721E-006  0.1119562E+03  0.7561462E-02  0.1256990E+00
         -1   -1    0    0    0  501 -0.00000000000E+00  0.00000000000E+00  0.10149751796E+03  0.10149751796E+03  0.00000000000E+00 0.  1.
          1   -1    0    0  501    0  0.00000000000E+00 -0.00000000000E+00 -0.27679832634E+03  0.27679832634E+03  0.00000000000E+00 0. -1.
         23    2    1    2    0    0 -0.67038091497E+02  0.49168095536E+02  0.26975944538E+02  0.12756983990E+03  0.92923383167E+02 0.  0.
         23    2    1    2    0    0  0.67038091497E+02 -0.49168095536E+02 -0.20227675292E+03  0.25072600439E+03  0.12262152005E+03 0.  0.
          5    1    4    4  502    0  0.92478614861E+02 -0.14840662130E+02 -0.87736089386E+02  0.12840417921E+03  0.41800000000E+01 0. -1.
         -5    1    4    4    0  502 -0.25440523364E+02 -0.34327433406E+02 -0.11454066353E+03  0.12232182518E+03  0.41800000000E+01 0.  1.
        -11    1    3    3    0    0 -0.53329600282E+02  0.23816973235E+02 -0.28549443913E+02  0.65010500906E+02  0.00000000000E+00 0. -1.
         11    1    3    3    0    0 -0.13708491215E+02  0.25351122301E+02  0.55525388451E+02  0.62559338998E+02  0.00000000000E+00 0.  1.
</event>
<event>
 8    1  0.8061721E-006  0.1374223E+03  0.7561462E-02  0.1216840E+00
          1   -1    0    0  501    0  0.00000000000E+00  0.00000000000E+00  0.28415988631E+03  0.28415988631E+03  0.00000000000E+00 0. -1.
         -1   -1    0    0    0  501 -0.00000000000E+00 -0.00000000000E+00 -0.76252761713E+02  0.76252761713E+02  0.00000000000E+00 0.  1.
         23    2    1    2    0    0  0.86468939732E+01 -0.79378288271E+02  0.72214942822E+02  0.15932913602E+03  0.11745251890E+03 0.  0.
         23    2    1    2    0    0 -0.86468939732E+01  0.79378288271E+02  0.13569218178E+03  0.20108351200E+03  0.12508608707E+03 0.  0.
          5    1    4    4  502    0  0.42878365396E+02  0.81375655935E+02  0.10959669563E+03  0.14314139754E+03  0.41800000000E+01 0. -1.
         -5    1    4    4    0  502 -0.51525259369E+02 -0.19973676644E+01  0.26095486149E+02  0.57942114459E+02  0.41800000000E+01 0. -1.
        -11    1    3    3    0    0 -0.47371408607E+02 -0.28025073802E+02  0.61581912213E+02  0.82594110122E+02  0.00000000000E+00 0. -1.
         11    1    3    3    0    0  0.56018302580E+02 -0.51353214469E+02  0.10633030609E+02  0.76735025902E+02  0.00000000000E+00 0.  1.
</event>
<event>
 8    1  0.8061721E-006  0.1294393E+03  0.7561462E-02  0.1228290E+00
          1   -1    0    0  501    0  0.00000000000E+00  0.00000000000E+00  0.13851456267E+03  0.13851456267E+03  0.00000000000E+00 0. -1.
         -1   -1    0    0    0  501 -0.00000000000E+00 -0.00000000000E+00 -0.15233909749E+03  0.15233909749E+03  0.00000000000E+00 0.  1.
         23    2    1    2    0    0 -0.81190422739E+02 -0.57344640909E+02 -0.33132971859E+02  0.13928239340E+03  0.91768723983E+02 0.  0.
         23    2    1    2    0    0  0.81190422739E+02  0.57344640909E+02  0.19308437032E+02  0.15157126676E+03  0.11278626060E+03 0.  0.
          5    1    4    4  502    0  0.63222282093E+02 -0.10048491380E+02 -0.24981127266E+02  0.68844449679E+02  0.41800000000E+01 0. -1.
         -5    1    4    4    0  502  0.17968140646E+02  0.67393132290E+02  0.44289564299E+02  0.82726817078E+02  0.41800000000E+01 0.  1.
        -11    1    3    3    0    0 -0.94915330024E+02 -0.40681772370E+02 -0.47173068324E+02  0.11353072206E+03  0.00000000000E+00 0.  1.
         11    1    3    3    0    0  0.13724907285E+02 -0.16662868539E+02  0.14040096466E+02  0.25751671338E+02  0.00000000000E+00 0. -1.
</event>
<event>
 8    1  0.8061721E-006  0.8926223E+02  0.7561462E-02  0.1304648E+00
         -2   -1    0    0    0  501 -0.00000000000E+00  0.00000000000E+00  0.11150853653E+03  0.11150853653E+03  0.00000000000E+00 0.  1.
          2   -1    0    0  501    0  0.00000000000E+00 -0.00000000000E+00 -0.14196757655E+04  0.14196757655E+04  0.00000000000E+00 0. -1.
         23    2    1    2    0    0  0.70569069606E+01 -0.14688532585E+02  0.89764508906E+02  0.12863386749E+03  0.90683250285E+02 0.  0.
         23    2    1    2    0    0 -0.70569069606E+01  0.14688532585E+02 -0.13979317378E+04  0.14025504345E+04  0.11255676224E+03 0.  0.
          5    1    4    4  502    0  0.61263567654E+01  0.63019665511E+02 -0.77361861093E+03  0.77621661800E+03  0.41800000000E+01 0. -1.
         -5    1    4    4    0  502 -0.13183263726E+02 -0.48331132926E+02 -0.62431312690E+03  0.62633381649E+03  0.41800000000E+01 0.  1.
        -11    1    3    3    0    0  0.18647767740E+02 -0.35997909374E+02  0.95463808864E+02  0.10371560887E+03  0.00000000000E+00 0.  1.
         11    1    3    3    0    0 -0.11590860779E+02  0.21309376789E+02 -0.56992999587E+01  0.24918258622E+02  0.00000000000E+00 0. -1.
</event>
<event>
 8    1  0.8061721E-006  0.1500147E+03  0.7561462E-02  0.1200455E+00
          2   -1    0    0  501    0  0.00000000000E+00  0.00000000000E+00  0.12500550264E+04  0.12500550264E+04  0.00000000000E+00 0. -1.
         -2   -1    0    0    0  501 -0.00000000000E+00 -0.00000000000E+00 -0.20752229759E+02  0.20752229759E+02  0.00000000000E+00 0.  1.
         23    2    1    2    0    0 -0.80504881928E+02 -0.75805520219E+02  0.41689285864E+03  0.44142075046E+03  0.93942058956E+02 0.  0.
         23    2    1    2    0    0  0.80504881928E+02  0.75805520219E+02  0.81240993804E+03  0.82938650574E+03  0.12507819780E+03 0.  0.
          5    1    4    4  502    0  0.74738857348E+02  0.10277421822E+03  0.75415804857E+03  0.76480080501E+03  0.41800000000E+01 0. -1.
         -5    1    4    4    0  502  0.57660245805E+01 -0.26968698000E+02  0.58251889471E+02  0.64585700726E+02  0.41800000000E+01 0. -1.
        -11    1    3    3    0    0 -0.39216028250E+02  0.17511132541E+02  0.11597308411E+03  0.12367009692E+03  0.00000000000E+00 0.  1.
         11    1    3    3    0    0 -0.41288853678E+02 -0.93316652760E+02  0.30091977454E+03  0.31775065354E+03  0.00000000000E+00 0. -1.
</event>
<event>
 8    1  0.8061721E-006  0.1324646E+03  0.7561462E-02  0.1223844E+00
         -3   -1    0    0    0  501 -0.00000000000E+00  0.00000000000E+00  0.13771951105E+03  0.13771951105E+03  0.00000000000E+00 0.  1.
          3   -1    0    0  501    0  0.00000000000E+00 -0.00000000000E+00 -0.19759974438E+03  0.19759974438E+03  0.00000000000E+00 0. -1.
         23    2    1    2    0    0 -0.65584652821E+02  0.10613360221E+03 -0.37483859086E+02  0.15723046659E+03  0.88038012984E+02 0.  0.
         23    2    1    2    0    0  0.65584652821E+02 -0.10613360221E+03 -0.22396374241E+02  0.17808878883E+03  0.12509328889E+03 0.  0.
          5    1    4    4  502    0  0.30329411776E+02 -0.52387327112E+02 -0.73898181368E+02  0.95617565698E+02  0.41800000000E+01 0.  1.
         -5    1    4    4    0  502  0.35255241046E+02 -0.53746275094E+02  0.51501807127E+02  0.82471223133E+02  0.41800000000E+01 0.  1.
        -11    1    3    3    0    0 -0.32067852778E+02  0.10095267541E+03 -0.54680801774E+02  0.11920478152E+03  0.00000000000E+00 0. -1.
         11    1    3    3    0    0 -0.33516800044E+02  0.51809267971E+01  0.17196942688E+02  0.38025685075E+02  0.00000000000E+00 0.  1.
</event>
<event>
 8    1  0.8061721E-006  0.1118554E+03  0.7561462E-02  0.1257172E+00
         -2   -1    0    0    0  501 -0.00000000000E+00  0.00000000000E+00  0.53104555007E+02  0.53104555007E+02  0.00000000000E+00 0. -1.
          2   -1    0    0  501    0  0.00000000000E+00 -0.00000000000E+00 -0.39271559095E+03  0.39271559095E+03  0.00000000000E+00 0.  1.
         23    2    1    2    0    0  0.70640902098E+02  0.54411780070E+02 -0.98569878201E+02  0.15999072475E+03  0.89051851512E+02 0.  0.
         23    2    1    2    0    0 -0.70640902098E+02 -0.54411780070E+02 -0.24104115775E+03  0.28582942121E+03  0.12508732727E+03 0.  0.
          5    1    4    4  502    0 -0.91192511274E+02 -0.55950674764E+02 -0.11146864908E+03  0.15456158723E+03  0.41800000000E+01 0. -1.
         -5    1    4    4    0  502  0.20551609177E+02  0.15388946941E+01 -0.12957250866E+03  0.13126783398E+03  0.41800000000E+01 0. -1.
        -11    1    3    3    0    0  0.23758636801E+02  0.40071443349E+02 -0.10066266495E+03  0.11091963537E+03  0.00000000000E+00 0.  1.
         11    1    3    3    0    0  0.46882265297E+02  0.14340336721E+02  0.20927867527E+01  0.49071089381E+02  0.00000000000E+00 0. -1.
</event>
<event>
 6    1  0.8061721E-006  0.8663941E+02  0.7561462E-02  0.1311200E+00
          2   -1    0    0  501    0  0.00000000000E+00  0.00000000000E+00  0.14125104841E+04  0.14125104841E+04  0.00000000000E+00 0. -1.
         -2   -1    0    0    0  501 -0.00000000000E+00 -0.00000000000E+00 -0.71609730546E+01  0.71609730546E+01  0.00000000000E+00 0.  1.
          5    1    1    2  502    0 -0.63543156919E+02 -0.19219178587E+02  0.90930897888E+03  0.91173866930E+03  0.41800000000E+01 0. -1.
         -5    1    1    2    0  502  0.53295232422E+02  0.87028795838E+01  0.30294781707E+03  0.30775148120E+03  0.41800000000E+01 0.  1.
        -11    1    1    2    0    0 -0.16789047570E+02 -0.91922858643E+01  0.62076203778E+02  0.64960182521E+02  0.00000000000E+00 0. -1.
         11    1    1    2    0    0  0.27036972068E+02  0.19708584868E+02  0.13101651134E+03  0.13522112416E+03  0.00000000000E+00 0.  1.
</event>
<event>
 8    1  0.8061721E-006  0.1600216E+03  0.7561462E-02  0.1188672E+00
         -1   -1    0    0    0  501 -0.00000000000E+00  0.00000000000E+00  0.26295058364E+03  0.26295058364E+03  0.00000000000E+00 0.  1.
          1   -1    0    0  501    0  0.00000000000E+00 -0.00000000000E+00 -0.11850043087E+03  0.11850043087E+03  0.00000000000E+00 0. -1.
         23    2    1    2    0    0 -0.12155275341E+03 -0.41474044708E+02  0.12592922184E+03  0.20124835417E+03  0.90263851559E+02 0.  0.
         23    2    1    2    0    0  0.12155275341E+03  0.41474044708E+02  0.18520930934E+02  0.18020266034E+03  0.12503921650E+03 0.  0.
          5    1    4    4  502    0 -0.10891536890E+02 -0.26706788355E+02 -0.42465758262E+01  0.29451382418E+02  0.41800000000E+01 0.  1.
         -5    1    4    4    0  502  0.13244429030E+03  0.68180833064E+02  0.22767506760E+02  0.15075127792E+03  0.41800000000E+01 0.  1.
        -11    1    3    3    0    0 -0.10699436308E+03 -0.56465779491E+02  0.13242268343E+03  0.17936539541E+03  0.00000000000E+00 0.  1.
         11    1    3    3    0    0 -0.14558390327E+02  0.14991734783E+02 -0.64934615887E+01  0.21882958761E+02  0.00000000000E+00 0. -1.
</event>
<event>
 8    1  0.8061721E-006  0.1223065E+03  0.7561462E-02  0.1239340E+00
          1   -1    0    0  501    0  0.00000000000E+00  0.00000000000E+00  0.91720693768E+02  0.91720693768E+02  0.00000000000E+00 0. -1.
         -1   -1    0    0    0  501 -0.00000000000E+00 -0.00000000000E+00 -0.21571558683E+03  0.21571558683E+03  0.00000000000E+00 0.  1.
         23    2    1    2    0    0  0.34263213092E+02  0.74655373291E+02 -0.88872273127E+02  0.15372106728E+03  0.94786565831E+02 0.  0.
         23    2    1    2    0    0 -0.34263213092E+02 -0.74655373291E+02 -0.35122619932E+02  0.15371521332E+03  0.12508947134E+03 0.  0.
          5    1    4    4  502    0  0.25572499578E+02  0.55459593826E+01  0.25393251470E+02  0.36701498884E+02  0.41800000000E+01 0.  1.
         -5    1    4    4    0  502 -0.59835712670E+02 -0.80201332673E+02 -0.60515871402E+02  0.11701371443E+03  0.41800000000E+01 0.  1.
        -11    1    3    3    0    0  0.41958166313E+01  0.85796492965E+02 -0.85962042760E+02  0.12152413702E+03  0.00000000000E+00 0.  1.
         11    1    3    3    0    0  0.30067396461E+02 -0.11141119674E+02 -0.29102303673E+01  0.32196930262E+02  0.00000000000E+00 0. -1.
</event>
<event>
 8    1  0.8061721E-006  0.1063111E+03  0.7561462E-02  0.1267558E+00
          1   -1    0    0  501    0  0.00000000000E+00  0.00000000000E+00  0.11620152924E+04  0.11620152924E+04  0.00000000000E+00 0. -1.
         -1   -1    0    0    0  501 -0.00000000000E+00 -0.00000000000E+00 -0.11687459876E+02  0.11687459876E+02  0.00000000000E+00 0.  1.
         23    2    1    2    0    0  0.46383360107E+01  0.92380336138E+01  0.28504865061E+03  0.29936688860E+03  0.90889742799E+02 0.  0.
         23    2    1    2    0    0 -0.46383360107E+01 -0.92380336138E+01  0.86527918194E+03  0.87433586371E+03  0.12509310309E+03 0.  0.
          5    1    4    4  502    0 -0.64338005536E+02 -0.64764044023E+01  0.49898436820E+03  0.50317411984E+03  0.41800000000E+01 0.  1.
         -5    1    4    4    0  502  0.59699669526E+02 -0.27616292114E+01  0.36629481374E+03  0.37116174386E+03  0.41800000000E+01 0.  1.
        -11    1    3    3    0    0  0.45938957731E+02  0.77424987429E+01  0.19168927150E+03  0.19726913325E+03  0.00000000000E+00 0. -1.
         11    1    3    3    0    0 -0.41300621720E+02  0.14955348708E+01  0.93359379116E+02  0.10209775535E+03  0.00000000000E+00 0.  1.
</event>
<event>
 8    1  0.8061721E-006  0.1015551E+03  0.7561462E-02  0.1277059E+00
         -3   -1    0    0    0  501 -0.00000000000E+00  0.00000000000E+00  0.22011781694E+03  0.22011781694E+03  0.00000000000E+00 0.  1.
          3   -1    0    0  501    0  0.00000000000E+00 -0.00000000000E+00 -0.77210049995E+02  0.77210049995E+02  0.00000000000E+00 0. -1.
         23    2    1    2    0    0  0.41807571830E+02  0.63779627627E+02  0.12539198785E+03  0.16047517442E+03  0.64910839044E+02 0.  0.
         23    2    1    2    0    0 -0.41807571830E+02 -0.63779627627E+02  0.17515779095E+02  0.13685269252E+03  0.11227708123E+03 0.  0.
          5    1    4    4  502    0 -0.35197291721E+02 -0.83139566999E+02 -0.21229250176E+02  0.92839595046E+02  0.41800000000E+01 0. -1.
         -5    1    4    4    0  502 -0.66102801091E+01  0.19359939372E+02  0.38745029272E+02  0.44013097470E+02  0.41800000000E+01 0.  1.
        -11    1    3    3    0    0  0.53379379360E+02  0.45120894434E+02  0.11829530344E+03  0.13740099007E+03  0.00000000000E+00 0.  1.
         11    1    3    3    0    0 -0.11571807529E+02  0.18658733193E+02  0.70966844078E+01  0.23074184351E+02  0.00000000000E+00 0. -1.
</event>
<event>
 8    1  0.8061721E-006  0.1367932E+03  0.7561462E-02  0.1217710E+00
          1   -1    0    0  501    0  0.00000000000E+00  0.00000000000E+00  0.56270567075E+03  0.56270567075E+03  0.00000000000E+00 0. -1.
         -1   -1    0    0    0  501 -0.00000000000E+00 -0.00000000000E+00 -0.48496974788E+02  0.48496974788E+02  0.00000000000E+00 0.  1.
         23    2    1    2    0    0 -0.11425883616E+03  0.17884921499E+02  0.15654763520E+03  0.21504203897E+03  0.91438309153E+02 0.  0.
         23    2    1    2    0    0  0.11425883616E+03 -0.17884921499E+02  0.35766106077E+03  0.39616060657E+03  0.12508732849E+03 0.  0.
          5    1    4    4  502    0  0.67921272505E+01  0.32420806433E+02  0.17600769983E+03  0.17914637725E+03  0.41800000000E+01 0. -1.
         -5    1    4    4    0  502  0.10746670891E+03 -0.50305727932E+02  0.18165336094E+03  0.21701422932E+03  0.41800000000E+01 0. -1.
        -11    1    3    3    0    0 -0.67323368339E+02 -0.81163822014E+01  0.23809502402E+02  0.71869353616E+02  0.00000000000E+00 0.  1.
         11    1    3    3    0    0 -0.46935467824E+02  0.26001303701E+02  0.13273813279E+03  0.14317268535E+03  0.00000000000E+00 0. -1.
</event>
<event>
 8    1  0.8061721E-006  0.1448910E+03  0.7561462E-02  0.1206895E+00
          2   -1    0    0  501    0  0.00000000000E+00  0.00000000000E+00  0.47244613610E+03  0.47244613610E+03  0.00000000000E+00 0. -1.
         -2   -1    0    0    0  501 -0.00000000000E+00 -0.00000000000E+00 -0.11722248586E+03  0.11722248586E+03  0.00000000000E+00 0.  1.
         23    2    1    2    0    0 -0.78216272535E+02 -0.57453201336E+02 -0.59346067078E+02  0.14589562068E+03  0.91350538160E+02 0.  0.
         23    2    1    2    0    0  0.78216272535E+02  0.57453201336E+02  0.41456971732E+03  0.44377300128E+03  0.12509104890E+03 0.  0.
          5    1    4    4  502    0  0.67560015315E+02 -0.25904477178E+02  0.22458766477E+03  0.23599256169E+03  0.41800000000E+01 0.  1.
         -5    1    4    4    0  502  0.10656257221E+02  0.83357678514E+02  0.18998205256E+03  0.20778043959E+03  0.41800000000E+01 0.  1.
        -11    1    3    3    0    0  0.20831607158E+02 -0.67761105928E+01 -0.75515974003E+01  0.23171062877E+02  0.00000000000E+00 0.  1.
         11    1    3    3    0    0 -0.99047879693E+02 -0.50677090743E+02 -0.51794469677E+02  0.12272455780E+03  0.00000000000E+00 0. -1.
</event>
<event>
 8    1  0.8061721E-006  0.7213549E+02  0.7561462E-02  0.1352978E+00
          4   -1    0    0  501    0  0.00000000000E+00  0.00000000000E+00  0.11950947948E+03  0.11950947948E+03  0.00000000000E+00 0. -1.
         -4   -1    0    0    0  501 -0.00000000000E+00 -0.00000000000E+00 -0.11135498043E+03  0.11135498043E+03  0.00000000000E+00 0.  1.
         23    2    1    2    0    0 -0.26233729122E+02  0.21280780287E+02 -0.21582287118E+02  0.97926770669E+02  0.89346388529E+02 0.  0.
         23    2    1    2    0    0  0.26233729122E+02 -0.21280780287E+02  0.29736786167E+02  0.13293768924E+03  0.12508825931E+03 0.  0.
          5    1    4    4  502    0  0.74571973932E+01  0.13958135463E+02  0.72474872777E+02  0.74300194634E+02  0.41800000000E+01 0.  1.
         -5    1    4    4    0  502  0.18776531729E+02 -0.35238915750E+02 -0.42738086610E+02  0.58637494609E+02  0.41800000000E+01 0.  1.
        -11    1    3    3    0    0  0.29447009106E+02  0.67738459715E+01 -0.26482766572E+02  0.40178952946E+02  0.00000000000E+00 0.  1.
         11    1    3    3    0    0 -0.55680738228E+02  0.14506934316E+02  0.49004794545E+01  0.57747817723E+02  0.00000000000E+00 0. -1.
</event>
<event>
 8    1  0.8061721E-006  0.1492352E+03  0.7561462E-02  0.1201416E+00
         -1   -1    0    0    0  501 -0.00000000000E+00  0.00000000000E+00  0.34016331534E+02  0.34016331534E+02  0.00000000000E+00 0.  1.
          1   -1    0    0  501    0  0.00000000000E+00 -0.00000000000E+00 -0.12648075247E+04  0.12648075247E+04  0.00000000000E+00 0. -1.
         23    2    1    2    0    0 -0.11374801165E+03  0.12135160560E+02 -0.18120955138E+03  0.23564182549E+03  0.98001510874E+02 0.  0.
         23    2    1    2    0    0  0.11374801165E+03 -0.12135160560E+02 -0.10495816418E+04  0.10631820308E+04  0.12509410633E+03 0.  0.
          5    1    4    4  502    0 -0.25753340970E+02  0.87105580974E+01 -0.13446530285E+03  0.13724976672E+03  0.41800000000E+01 0.  1.
         -5    1    4    4    0  502  0.13950135262E+03 -0.20845718658E+02 -0.91511633895E+03  0.92593226403E+03  0.41800000000E+01 0.  1.
        -11    1    3    3    0    0 -0.47500819513E+02  0.35825846692E+02 -0.14453380111E+03  0.15630047603E+03  0.00000000000E+00 0. -1.
         11    1    3    3    0    0 -0.66247192141E+02 -0.23690686132E+02 -0.36675750268E+02  0.79341349457E+02  0.00000000000E+00 0.  1.
</event>
<event>
 8    1  0.8061721E-006  0.1265488E+03  0.7561462E-02  0.1232668E+00
          1   -1    0    0  501    0  0.00000000000E+00  0.00000000000E+00  0.64011295825E+02  0.64011295825E+02  0.00000000000E+00 0. -1.
         -1   -1    0    0    0  501 -0.00000000000E+00 -0.00000000000E+00 -0.35232443772E+03  0.35232443772E+03  0.00000000000E+00 0.  1.
         23    2    1    2    0    0 -0.87740834477E+02 -0.50413627398E+02 -0.15167294155E+03  0.20524614353E+03  0.94240704451E+02 0.  0.
         23    2    1    2    0    0  0.87740834477E+02  0.50413627398E+02 -0.13664020035E+03  0.21108959001E+03  0.12509309653E+03 0.  0.
          5    1    4    4  502    0  0.50050279927E-01  0.27874627773E+02  0.16847795819E+02  0.32837752701E+02  0.41800000000E+01 0. -1.
         -5    1    4    4    0  502  0.87690784197E+02  0.22538999625E+02 -0.15348799617E+03  0.17825183731E+03  0.41800000000E+01 0. -1.
        -11    1    3    3    0    0 -0.80676193454E+02  0.26717607102E+01 -0.11434859271E+03  0.13996923644E+03  0.00000000000E+00 0.  1.
         11    1    3    3    0    0 -0.70646410238E+01 -0.53085388108E+02 -0.37324348843E+02  0.65276907095E+02  0.00000000000E+00 0. -1.
</event>
<event>
 8    1  0.8061721E-006  0.6944882E+02  0.7561462E-02  0.1361977E+00
         -1   -1    0    0    0  501 -0.00000000000E+00  0.00000000000E+00  0.27172723324E+03  0.27172723324E+03  0.00000000000E+00 0.  1.
          1   -1    0    0  501    0  0.00000000000E+00 -0.00000000000E+00 -0.51409046061E+02  0.51409046061E+02  0.00000000000E+00 0. -1.
         23    2    1    2    0    0  0.72760199513E+01  0.12479928437E+02  0.15670583510E+03  0.18205619384E+03  0.91537150286E+02 0.  0.
         23    2    1    2    0    0 -0.72760199513E+01 -0.12479928437E+02  0.63612352075E+02  0.14108008545E+03  0.12509344545E+03 0.  0.
          5    1    4    4  502    0  0.22682185900E+02 -0.34578810300E+02  0.87347482372E+02  0.96732780150E+02  0.41800000000E+01 0. -1.
         -5    1    4    4    0  502 -0.29958205851E+02  0.22098881862E+02 -0.23735130297E+02  0.44347305302E+02  0.41800000000E+01 0. -1.
        -11    1    3    3    0    0  0.29761156561E+02 -0.64815186362E+01  0.14839931332E+03  0.15149288009E+03  0.00000000000E+00 0.  1.
         11    1    3    3    0    0 -0.22485136609E+02  0.18961447074E+02  0.83065217759E+01  0.30563313752E+02  0.00000000000E+00 0. -1.
</event>
<event>
 8    1  0.8061721E-006  0.1703115E+03  0.7561462E-02  0.1177523E+00
          2   -1    0    0  501    0  0.00000000000E+00  0.00000000000E+00  0.11810472624E+04  0.11810472624E+04  0.00000000000E+00 0. -1.
         -2   -1    0    0    0  501 -0.00000000000E+00 -0.00000000000E+00 -0.26684008674E+02  0.26684008674E+02  0.00000000000E+00 0.  1.
         23    2    1    2    0    0  0.11235916526E+03 -0.66925076160E+02  0.42160683605E+03  0.45295774417E+03  0.10156203015E+03 0.  0.
         23    2    1    2    0    0 -0.11235916526E+03  0.66925076160E+02  0.73275641769E+03  0.75477352691E+03  0.12509021316E+03 0.  0.
          5    1    4    4  502    0 -0.70869809588E+02 -0.28631149883E+02  0.32626389108E+03  0.33512366625E+03  0.41800000000E+01 0.  1.
         -5    1    4    4    0  502 -0.41489355670E+02  0.95556226043E+02  0.40649252661E+03  0.41964986066E+03  0.41800000000E+01 0.  1.
        -11    1    3    3    0    0  0.17739639099E+02 -0.62635216963E+02  0.11610431725E+03  0.13310926971E+03  0.00000000000E+00 0.  1.
         11    1    3    3    0    0  0.94619526159E+02 -0.42898591974E+01  0.30550251880E+03  0.31984847446E+03  0.00000000000E+00 0. -1.
</event>
<event>
 8    1  0.8061721E-006  0.9668420E+02  0.7561462E-02  0.1287427E+00
          2   -1    0    0  501    0  0.00000000000E+00  0.00000000000E+00  0.15062814430E+03  0.15062814430E+03  0.00000000000E+00 0.  1.
         -2   -1    0    0    0  501 -0.00000000000E+00 -0.00000000000E+00 -0.10089836692E+03  0.10089836692E+03  0.00000000000E+00 0. -1.
         23    2    1    2    0    0  0.24219722386E+02 -0.54999048876E+02  0.13209011183E+02  0.10809205868E+03  0.88870269743E+02 0.  0.
         23    2    1    2    0    0 -0.24219722386E+02  0.54999048876E+02  0.36520766191E+02  0.14343445254E+03  0.12501274128E+03 0.  0.
          5    1    4    4  502    0 -0.68320483071E+02  0.26476076671E+02  0.50302797796E+02  0.88974799292E+02  0.41800000000E+01 0.  1.
         -5    1    4    4    0  502  0.44100760685E+02  0.28522972205E+02 -0.13782031606E+02  0.54459653245E+02  0.41800000000E+01 0.  1.
        -11    1    3    3    0    0  0.17827994565E+02 -0.74625175294E+01  0.46063932533E+02  0.49954103320E+02  0.00000000000E+00 0.  1.
         11    1    3    3    0    0  0.63917278206E+01 -0.47536531347E+02 -0.32854921349E+02  0.58137955364E+02  0.00000000000E+00 0. -1.
</event>
<event>
 8    1  0.8061721E-006  0.8673074E+02  0.7561462E-02  0.1310968E+00
          2   -1    0    0  501    0  0.00000000000E+00  0.00000000000E+00  0.23878084371E+03  0.23878084371E+03  0.00000000000E+00 0. -1.
         -2   -1    0    0    0  501 -0.00000000000E+00 -0.00000000000E+00 -0.68708674933E+02  0.68708674933E+02  0.00000000000E+00 0.  1.
         23    2    1    2    0    0  0.28499045018E+02 -0.19232335196E+02  0.49517555589E+01  0.97501821652E+02  0.91104374529E+02 0.  0.
         23    2    1    2    0    0 -0.28499045018E+02  0.19232335196E+02  0.16512041321E+03  0.20998769699E+03  0.12509198113E+03 0.  0.
          5    1    4    4  502    0  0.42963477090E+02 -0.20511574195E+02  0.63994413595E+02  0.79870785717E+02  0.41800000000E+01 0.  1.
         -5    1    4    4    0  502 -0.71462522109E+02  0.39743909391E+02  0.10112599962E+03  0.13011691127E+03  0.41800000000E+01 0.  1.
        -11    1    3    3    0    0  0.31604452441E+02 -0.86547938343E+01 -0.39718819375E+02  0.51491081586E+02  0.00000000000E+00 0.  1.
         11    1    3    3    0    0 -0.31054074225E+01 -0.10577541361E+02  0.44670574934E+02  0.46010740066E+02  0.00000000000E+00 0. -1.
</event>
<event>
 8    1  0.8061721E-006  0.5646875E+02  0.7561462E-02  0.1413278E+00
          2   -1    0    0  501    0  0.00000000000E+00  0.00000000000E+00  0.72848665869E+03  0.72848665869E+03  0.00000000000E+00 0. -1.
         -2   -1    0    0    0  501 -0.00000000000E+00 -0.00000000000E+00 -0.25051153686E+02  0.25051153686E+02  0.00000000000E+00 0.  1.
         23    2    1    2    0    0 -0.26531726671E+02 -0.22322036474E+02  0.11547464635E+03  0.15141720822E+03  0.91600060931E+02 0.  0.
         23    2    1    2    0    0  0.26531726671E+02  0.22322036474E+02  0.58796085866E+03  0.60212060416E+03  0.12509614226E+03 0.  0.
          5    1    4    4  502    0  0.38361284399E+02  0.11234208498E+02  0.58337841071E+03  0.58476118037E+03  0.41800000000E+01 0.  1.
         -5    1    4    4    0  502 -0.11829557728E+02  0.11087827975E+02  0.45824479485E+01  0.17359423794E+02  0.41800000000E+01 0.  1.
        -11    1    3    3    0    0 -0.19926140359E+01 -0.30173216579E+02 -0.28005318186E+01  0.30368346809E+02  0.00000000000E+00 0.  1.
         11    1    3    3    0    0 -0.24539112635E+02  0.78511801058E+01  0.11827517816E+03  0.12104886141E+03  0.00000000000E+00 0. -1.
</event>
<event>
 8    1  0.8061721E-006  0.1042124E+03  0.7561462E-02  0.1271679E+00
          2   -1    0    0  501    0  0.00000000000E+00  0.00000000000E+00  0.92268173727E+02  0.92268173727E+02  0.00000000000E+00 0. -1.
         -2   -1    0    0    0  501 -0.00000000000E+00 -0.00000000000E+00 -0.15632965411E+03  0.15632965411E+03  0.00000000000E+00 0.  1.
         23    2    1    2    0    0 -0.71799764901E+01 -0.48787512542E+02 -0.45340439315E+02  0.11282821566E+03  0.90789191916E+02 0.  0.
         23    2    1    2    0    0  0.71799764901E+01  0.48787512542E+02 -0.18721041063E+02  0.13576961217E+03  0.12510450339E+03 0.  0.
          5    1    4    4  502    0  0.49571938578E+02  0.33465832166E+02 -0.52175485860E+02  0.79480140549E+02  0.41800000000E+01 0. -1.
         -5    1    4    4    0  502 -0.42391962088E+02  0.15321680376E+02  0.33454444797E+02  0.56289471626E+02  0.41800000000E+01 0. -1.
        -11    1    3    3    0    0 -0.48202785653E+02 -0.16347265378E+02 -0.25062868514E+02  0.56735253663E+02  0.00000000000E+00 0. -1.
         11    1    3    3    0    0  0.41022809163E+02 -0.32440247165E+02 -0.20277570801E+02  0.56092961995E+02  0.00000000000E+00 0.  1.
</event>
<event>
 8    1  0.8061721E-006  0.1197979E+03  0.7561462E-02  0.1243431E+00
          2   -1    0    0  501    0  0.00000000000E+00  0.00000000000E+00  0.31640695994E+03  0.31640695994E+03  0.00000000000E+00 0.  1.
         -2   -1    0    0    0  501 -0.00000000000E+00 -0.00000000000E+00 -0.52306571230E+02  0.52306571230E+02  0.00000000000E+00 0. -1.
         23    2    1    2    0    0  0.28199102614E+02 -0.50693525046E+02  0.64879412945E+02  0.12642963445E+03  0.91706550330E+02 0.  0.
         23    2    1    2    0    0 -0.28199102614E+02  0.50693525046E+02  0.19922097576E+03  0.24228389672E+03  0.12508983394E+03 0.  0.
          5    1    4    4  502    0  0.33318364481E+02 -0.21233692560E+02  0.36278153006E+02  0.53801114272E+02  0.41800000000E+01 0. -1.
         -5    1    4    4    0  502 -0.61517467095E+02  0.71927217606E+02  0.16294282276E+03  0.18848278245E+03  0.41800000000E+01 0. -1.
        -11    1    3    3    0    0  0.57546109415E+02 -0.49252068223E+02  0.60032852164E+02  0.96650216099E+02  0.00000000000E+00 0. -1.
         11    1    3    3    0    0 -0.29347006801E+02 -0.14414568225E+01  0.48465607809E+01  0.29779418351E+02  0.00000000000E+00 0.  1.
</event>
<event>
 8    1  0.8061721E-006  0.4548368E+03  0.7561462E-02  0.1026289E+00
          2   -1    0    0  501    0  0.00000000000E+00  0.00000000000E+00  0.17935454089E+03  0.17935454089E+03  0.00000000000E+00 0.  1.
         -2   -1    0    0    0  501 -0.00000000000E+00 -0.00000000000E+00 -0.13033971932E+04  0.13033971932E+04  0.00000000000E+00 0. -1.
         23    2    1    2    0    0  0.12665342506E+03  0.42729176572E+03 -0.79042708466E+03  0.91216696525E+03  0.93028238703E+02 0.  0.
         23    2    1    2    0    0 -0.12665342506E+03 -0.42729176572E+03 -0.33361556770E+03  0.57058476889E+03  0.12509311870E+03 0.  0.
          5    1    4    4  502    0 -0.66653095906E+02 -0.87499526935E+02 -0.12830584820E+03  0.16905225669E+03  0.41800000000E+01 0. -1.
         -5    1    4    4    0  502 -0.60000329157E+02 -0.33979223878E+03 -0.20530971950E+03  0.40153251220E+03  0.41800000000E+01 0. -1.
        -11    1    3    3    0    0  0.93040228313E+02  0.40154884351E+03 -0.73098220388E+03  0.83918587941E+03  0.00000000000E+00 0.  1.
         11    1    3    3    0    0  0.33613196749E+02  0.25742922207E+02 -0.59444880786E+02  0.72981085845E+02  0.00000000000E+00 0. -1.
</event>
<event>
 8    1  0.8061721E-006  0.8642610E+02  0.7561462E-02  0.1311745E+00
         -2   -1    0    0    0  501 -0.00000000000E+00  0.00000000000E+00  0.84900294904E+02  0.84900294904E+02  0.00000000000E+00 0.  1.
          2   -1    0    0  501    0  0.00000000000E+00 -0.00000000000E+00 -0.13741098936E+03  0.13741098936E+03  0.00000000000E+00 0. -1.
         23    2    1    2    0    0  0.14342413735E+02  0.10406508623E+02 -0.21697536551E+02  0.92264377998E+02  0.87908657717E+02 0.  0.
         23    2    1    2    0    0 -0.14342413735E+02 -0.10406508623E+02 -0.30813157907E+02  0.13004690627E+03  0.12509495144E+03 0.  0.
          5    1    4    4  502    0  0.37417211079E+02 -0.31601000752E+02 -0.50626401814E+02  0.70563275818E+02  0.41800000000E+01 0. -1.
         -5    1    4    4    0  502 -0.51759624814E+02  0.21194492129E+02  0.19813243907E+02  0.59483630451E+02  0.41800000000E+01 0. -1.
        -11    1    3    3    0    0 -0.25978846284E+02  0.81477156108E+01 -0.39626823042E+02  0.48078798116E+02  0.00000000000E+00 0.  1.
         11    1    3    3    0    0  0.40321260019E+02  0.22587930125E+01  0.17929286491E+02  0.44185579881E+02  0.00000000000E+00 0. -1.
</event>
<event>
 8    1  0.8061721E-006  0.1195526E+03  0.7561462E-02  0.1243837E+00
         -1   -1    0    0    0  501 -0.00000000000E+00  0.00000000000E+00  0.21000515193E+02  0.21000515193E+02  0.00000000000E+00 0.  1.
          1   -1    0    0  501    0  0.00000000000E+00 -0.00000000000E+00 -0.85980060064E+03  0.85980060064E+03  0.00000000000E+00 0. -1.
         23    2    1    2    0    0 -0.50096362949E+02 -0.10231523477E+02 -0.18450923892E+03  0.21269805319E+03  0.92641637125E+02 0.  0.
         23    2    1    2    0    0  0.50096362949E+02  0.10231523477E+02 -0.65429084652E+03  0.66810306265E+03  0.12510340050E+03 0.  0.
          5    1    4    4  502    0 -0.32762434490E+02  0.34824485115E+02 -0.26493797646E+03  0.26925030296E+03  0.41800000000E+01 0. -1.
         -5    1    4    4    0  502  0.82858797439E+02 -0.24592961638E+02 -0.38935287007E+03  0.39885275968E+03  0.41800000000E+01 0. -1.
        -11    1    3    3    0    0 -0.19472520360E+02  0.40716633172E+02 -0.95995758499E+02  0.10607642960E+03  0.00000000000E+00 0. -1.
         11    1    3    3    0    0 -0.30623842589E+02 -0.50948156649E+02 -0.88513480424E+02  0.10662162359E+03  0.00000000000E+00 0.  1.
</event>
<event>
 8    1  0.8061721E-006  0.7803033E+02  0.7561462E-02  0.1334736E+00
          2   -1    0    0  501    0  0.00000000000E+00  0.00000000000E+00  0.24990703295E+03  0.24990703295E+03  0.00000000000E+00 0. -1.
         -2   -1    0    0    0  501 -0.00000000000E+00 -0.00000000000E+00 -0.84311121098E+02  0.84311121098E+02  0.00000000000E+00 0.  1.
         23    2    1    2    0    0  0.18124394269E+02 -0.50836943724E+02 -0.26950914710E+02  0.98348138024E+02  0.77673135215E+02 0.  0.
         23    2    1    2    0    0 -0.18124394269E+02  0.50836943724E+02  0.19254682656E+03  0.23587001603E+03  0.12508994974E+03 0.  0.
          5    1    4    4  502    0 -0.28569528417E+02  0.23302384717E+02  0.20143688410E+03  0.20482555935E+03  0.41800000000E+01 0. -1.
         -5    1    4    4    0  502  0.10445134148E+02  0.27534559007E+02 -0.88900575379E+01  0.31044456673E+02  0.41800000000E+01 0. -1.
        -11    1    3    3    0    0 -0.34446135802E+00 -0.65579970709E+02 -0.44725211740E+01  0.65733208178E+02  0.00000000000E+00 0. -1.
         11    1    3    3    0    0  0.18468855627E+02  0.14743026985E+02 -0.22478393536E+02  0.32614929845E+02  0.00000000000E+00 0.  1.
</event>
<event>
 8    1  0.8061721E-006  0.1058590E+03  0.7561462E-02  0.1268436E+00
         -1   -1    0    0    0  501 -0.00000000000E+00  0.00000000000E+00  0.13250817995E+03  0.13250817995E+03  0.00000000000E+00 0.  1.
          1   -1    0    0  501    0  0.00000000000E+00 -0.00000000000E+00 -0.90569486823E+02  0.90569486823E+02  0.00000000000E+00 0. -1.
         23    2    1    2    0    0  0.16566234906E+02 -0.25253393777E+02  0.12427542485E+02  0.98097619376E+02  0.92501486900E+02 0.  0.
         23    2    1    2    0    0 -0.16566234906E+02  0.25253393777E+02  0.29511150642E+02  0.12498004740E+03  0.11763048159E+03 0.  0.
          5    1    4    4  502    0  0.19581693923E+02  0.62714262586E+02  0.17983764733E+01  0.65857634535E+02  0.41800000000E+01 0. -1.
         -5    1    4    4    0  502 -0.36147928829E+02 -0.37460868809E+02  0.27712774168E+02  0.59122412862E+02  0.41800000000E+01 0.  1.
        -11    1    3    3    0    0 -0.27392636244E+02 -0.38948875509E+02 -0.69909180701E+01  0.48127376401E+02  0.00000000000E+00 0.  1.
         11    1    3    3    0    0  0.43958871150E+02  0.13695481732E+02  0.19418460555E+02  0.49970242975E+02  0.00000000000E+00 0. -1.
</event>
<event>
 8    1  0.8061721E-006  0.8832720E+02  0.7561462E-02  0.1306954E+00
         -1   -1    0    0    0  501 -0.00000000000E+00  0.00000000000E+00  0.77104092042E+02  0.77104092042E+02  0.00000000000E+00 0.  1.
          1   -1    0    0  501    0  0.00000000000E+00 -0.00000000000E+00 -0.15659452373E+03  0.15659452373E+03  0.00000000000E+00 0. -1.
         23    2    1    2    0    0  0.29850674251E-01 -0.33835002634E+02 -0.37286450560E+02  0.10472778638E+03  0.91830395565E+02 0.  0.
         23    2    1    2    0    0 -0.29850674251E-01  0.33835002634E+02 -0.42203981132E+02  0.12897082940E+03  0.11707899264E+03 0.  0.
          5    1    4    4  502    0  0.57995818500E+02  0.12002720489E+02 -0.15672173324E+02  0.61405778876E+02  0.41800000000E+01 0. -1.
         -5    1    4    4    0  502 -0.58025669174E+02  0.21832282145E+02 -0.26531807808E+02  0.67565050524E+02  0.41800000000E+01 0.  1.
        -11    1    3    3    0    0  0.19437768304E+02 -0.44694069042E+01 -0.59736652796E+02  0.62978330575E+02  0.00000000000E+00 0. -1.
         11    1    3    3    0    0 -0.19407917630E+02 -0.29365595730E+02  0.22450202236E+02  0.41749455801E+02  0.00000000000E+00 0.  1.
</event>
<event>
 8    1  0.8061721E-006  0.5759263E+02  0.7561462E-02  0.1408221E+00
          2   -1    0    0  501    0  0.00000000000E+00  0.00000000000E+00  0.16745679769E+03  0.16745679769E+03  0.00000000000E+00 0. -1.
         -2   -1    0    0    0  501 -0.00000000000E+00 -0.00000000000E+00 -0.75110470965E+02  0.75110470965E+02  0.00000000000E+00 0.  1.
         23    2    1    2    0    0  0.16258856628E+02  0.24578170750E+02  0.31954698628E+02  0.10057201249E+03  0.90692833434E+02 0.  0.
         23    2    1    2    0    0 -0.16258856628E+02 -0.24578170750E+02  0.60391628094E+02  0.14199525616E+03  0.12508823738E+03 0.  0.
          5    1    4    4  502    0  0.15862194858E+01 -0.31116971935E+02 -0.33598336719E+02  0.46011983928E+02  0.41800000000E+01 0. -1.
         -5    1    4    4    0  502 -0.17845076114E+02  0.65388011851E+01  0.93989964814E+02  0.95983272231E+02  0.41800000000E+01 0. -1.
        -11    1    3    3    0    0  0.36714086941E+02  0.71230273732E+01  0.54078178323E+02  0.65750369349E+02  0.00000000000E+00 0. -1.
         11    1    3    3    0    0 -0.20455230312E+02  0.17455143377E+02 -0.22123479695E+02  0.34821643144E+02  0.00000000000E+00 0.  1.
</event>
<event>
 8    1  0.8614642E-006  0.1925162E+03  0.7561462E-02  0.1156211E+00
          1   -1    0    0  501    0  0.00000000000E+00  0.00000000000E+00  0.56449252177E+03  0.56449252177E+03  0.00000000000E+00 0. -1.
         -1   -1    0    0    0  501 -0.00000000000E+00 -0.00000000000E+00 -0.73701939397E+02  0.73701939397E+02  0.00000000000E+00 0.  1.
         23    2    1    2    0    0 -0.42852568344E+02 -0.16021747159E+03  0.16440760338E+03  0.25130954411E+03  0.92847434504E+02 0.  0.
         23    2    1    2    0    0  0.42852568344E+02  0.16021747159E+03  0.32638297900E+03  0.38688491706E+03  0.12509240287E+03 0.  0.
          5    1    4    4  502    0 -0.32043086321E+02  0.46674020885E+01  0.76071187543E+02  0.82781894140E+02  0.41800000000E+01 0.  1.
         -5    1    4    4    0  502  0.74895654665E+02  0.15555006950E+03  0.25031179145E+03  0.30410302292E+03  0.41800000000E+01 0.  1.
        -11    1    3    3    0    0 -0.42410992041E+01 -0.13150436024E+03  0.79529194375E+02  0.15374093938E+03  0.00000000000E+00 0.  1.
         11    1    3    3    0    0 -0.38611469140E+02 -0.28713111350E+02  0.84878409005E+02  0.97568604724E+02  0.00000000000E+00 0. -1.
</event>
<event>
 8    1  0.8061721E-006  0.1045201E+03  0.7561462E-02  0.1271068E+00
         -1   -1    0    0    0  501 -0.00000000000E+00  0.00000000000E+00  0.18093624051E+03  0.18093624051E+03  0.00000000000E+00 0.  1.
          1   -1    0    0  501    0  0.00000000000E+00 -0.00000000000E+00 -0.74941016921E+02  0.74941016921E+02  0.00000000000E+00 0. -1.
         23    2    1    2    0    0 -0.24054201811E+02  0.58652350396E+02  0.39320082214E+02  0.10059566868E+03  0.67488642452E+02 0.  0.
         23    2    1    2    0    0  0.24054201811E+02 -0.58652350396E+02  0.66675141380E+02  0.15528158876E+03  0.12509234388E+03 0.  0.
          5    1    4    4  502    0  0.12119240283E+02  0.27873084625E+02 -0.16294830984E+02  0.34738721168E+02  0.41800000000E+01 0. -1.
         -5    1    4    4    0  502  0.11934961528E+02 -0.86525435022E+02  0.82969972364E+02  0.12054286759E+03  0.41800000000E+01 0. -1.
        -11    1    3    3    0    0  0.98636710188E+01  0.56035488978E+02  0.33663982607E+02  0.66109997398E+02  0.00000000000E+00 0. -1.
         11    1    3    3    0    0 -0.33917872830E+02  0.26168614185E+01  0.56560996067E+01  0.34485671282E+02  0.00000000000E+00 0.  1.
</event>
<event>
 8    1  0.8061721E-006  0.8876895E+02  0.7561462E-02  0.1305861E+00
          2   -1    0    0  501    0  0.00000000000E+00  0.00000000000E+00  0.23132085560E+03  0.23132085560E+03  0.00000000000E+00 0. -1.
         -2   -1    0    0    0  501 -0.00000000000E+00 -0.00000000000E+00 -0.71797742006E+02  0.71797742006E+02  0.00000000000E+00 0.  1.
         23    2    1    2    0    0  0.34478059318E+02 -0.11394328322E+02  0.40373726747E+02  0.13239766240E+03  0.12074988988E+03 0.  0.
         23    2    1    2    0    0 -0.34478059318E+02  0.11394328322E+02  0.11914938684E+03  0.17072093520E+03  0.11674970680E+03 0.  0.
          5    1    4    4  502    0  0.26354519457E+02  0.15884221571E+02  0.10286238003E+03  0.10744771201E+03  0.41800000000E+01 0. -1.
         -5    1    4    4    0  502 -0.60832578776E+02 -0.44898932488E+01  0.16287006813E+02  0.63273223190E+02  0.41800000000E+01 0.  1.
        -11    1    3    3    0    0 -0.17379642132E+02  0.18583427711E+02 -0.30423419503E+02  0.39660814419E+02  0.00000000000E+00 0.  1.
         11    1    3    3    0    0  0.51857701451E+02 -0.29977756033E+02  0.70797146250E+02  0.92736847983E+02  0.00000000000E+00 0. -1.
</event>
<event>
 8    1  0.8061721E-006  0.2259344E+03  0.7561462E-02  0.1129535E+00
         -2   -1    0    0    0  501 -0.00000000000E+00  0.00000000000E+00  0.17517894812E+03  0.17517894812E+03  0.00000000000E+00 0.  1.
          2   -1    0    0  501    0  0.00000000000E+00 -0.00000000000E+00 -0.33751153597E+03  0.33751153597E+03  0.00000000000E+00 0. -1.
         23    2    1    2    0    0  0.15366845936E+03 -0.15310802559E+03 -0.88258614890E+02  0.25156188362E+03  0.91857146074E+02 0.  0.
         23    2    1    2    0    0 -0.15366845936E+03  0.15310802559E+03 -0.74073972960E+02  0.26112860047E+03  0.12508049252E+03 0.  0.
          5    1    4    4  502    0 -0.92743921393E+02  0.64418442916E+02 -0.99415661614E+02  0.15050620226E+03  0.41800000000E+01 0.  1.
         -5    1    4    4    0  502 -0.60924537969E+02  0.88689582679E+02  0.25341688654E+02  0.11062239821E+03  0.41800000000E+01 0.  1.
        -11    1    3    3    0    0 -0.96642542368E+01 -0.11462885140E+02  0.54193158469E+01  0.15942538378E+02  0.00000000000E+00 0.  1.
         11    1    3    3    0    0  0.16333271360E+03 -0.14164514046E+03 -0.93677930737E+02  0.23561934524E+03  0.00000000000E+00 0. -1.
</event>
<event>
 8    1  0.8061721E-006  0.2543285E+03  0.7561462E-02  0.1110599E+00
         -2   -1    0    0    0  501 -0.00000000000E+00  0.00000000000E+00  0.14896767067E+03  0.14896767067E+03  0.00000000000E+00 0.  1.
          2   -1    0    0  501    0  0.00000000000E+00 -0.00000000000E+00 -0.49720538050E+03  0.49720538050E+03  0.00000000000E+00 0. -1.
         23    2    1    2    0    0  0.15407831243E+03  0.19681945345E+03 -0.15313005350E+03  0.30530349538E+03  0.85342764152E+02 0.  0.
         23    2    1    2    0    0 -0.15407831243E+03 -0.19681945345E+03 -0.19510765634E+03  0.34086955579E+03  0.12508810049E+03 0.  0.
          5    1    4    4  502    0 -0.13809949282E+03 -0.15737189412E+03 -0.91023477410E+02  0.22834213105E+03  0.41800000000E+01 0. -1.
         -5    1    4    4    0  502 -0.15978819614E+02 -0.39447559329E+02 -0.10408417893E+03  0.11252742473E+03  0.41800000000E+01 0. -1.
        -11    1    3    3    0    0  0.29070422132E+02  0.81010316028E+02 -0.87383859489E+02  0.12265276045E+03  0.00000000000E+00 0. -1.
         11    1    3    3    0    0  0.12500789030E+03  0.11580913742E+03 -0.65746194009E+02  0.18265073494E+03  0.00000000000E+00 0.  1.
</event>
<event>
 8    1  0.8061721E-006  0.1057366E+03  0.7561462E-02  0.1268675E+00
          2   -1    0    0  501    0  0.00000000000E+00  0.00000000000E+00  0.66771202128E+03  0.66771202128E+03  0.00000000000E+00 0. -1.
         -2   -1    0    0    0  501 -0.00000000000E+00 -0.00000000000E+00 -0.18448918393E+02  0.18448918393E+02  0.00000000000E+00 0.  1.
         23    2    1    2    0    0 -0.16064469788E+02 -0.22262194788E+02  0.24210955884E+03  0.25934128341E+03  0.88809854701E+02 0.  0.
         23    2    1    2    0    0  0.16064469788E+02  0.22262194788E+02  0.40715354405E+03  0.42681965626E+03  0.12508932024E+03 0.  0.
          5    1    4    4  502    0  0.57251375871E+01 -0.52239885687E+02  0.17091586924E+03  0.17886164937E+03  0.41800000000E+01 0. -1.
         -5    1    4    4    0  502  0.10339332201E+02  0.74502080475E+02  0.23623767481E+03  0.24795800690E+03  0.41800000000E+01 0. -1.
        -11    1    3    3    0    0 -0.44321883049E+02  0.44411503265E+01  0.70579172449E+02  0.83460006691E+02  0.00000000000E+00 0.  1.
         11    1    3    3    0    0  0.28257413261E+02 -0.26703345115E+02  0.17153038639E+03  0.17588127672E+03  0.00000000000E+00 0. -1.
</event>
<event>
 8    1  0.8061721E-006  0.1363541E+03  0.7561462E-02  0.1218321E+00
          1   -1    0    0  501    0  0.00000000000E+00  0.00000000000E+00  0.46668401199E+03  0.46668401199E+03  0.00000000000E+00 0. -1.
         -1   -1    0    0    0  501 -0.00000000000E+00 -0.00000000000E+00 -0.43122088666E+02  0.43122088666E+02  0.00000000000E+00 0.  1.
         23    2    1    2    0    0  0.67119436828E+02 -0.60144842533E+02  0.15191756749E+03  0.19745898746E+03  0.88253518525E+02 0.  0.
         23    2    1    2    0    0 -0.67119436828E+02  0.60144842533E+02  0.27164435583E+03  0.31234711320E+03  0.12509053595E+03 0.  0.
          5    1    4    4  502    0 -0.11241330930E+02 -0.35675965443E+02  0.37036004443E+02  0.52804167037E+02  0.41800000000E+01 0.  1.
         -5    1    4    4    0  502 -0.55878105898E+02  0.95820807975E+02  0.23460835139E+03  0.25954294616E+03  0.41800000000E+01 0.  1.
        -11    1    3    3    0    0  0.10902998139E+02 -0.66596111213E+02  0.10016417389E+03  0.12077573899E+03  0.00000000000E+00 0.  1.
         11    1    3    3    0    0  0.56216438689E+02  0.64512686805E+01  0.51753393596E+02  0.76683248465E+02  0.00000000000E+00 0. -1.
</event>
<event>
 8    1  0.8061721E-006  0.1464024E+03  0.7561462E-02  0.1204965E+00
          3   -1    0    0  501    0  0.00000000000E+00  0.00000000000E+00  0.20405000850E+03  0.20405000850E+03  0.00000000000E+00 0. -1.
         -3   -1    0    0    0  501 -0.00000000000E+00 -0.00000000000E+00 -0.13936437265E+03  0.13936437265E+03  0.00000000000E+00 0.  1.
         23    2    1    2    0    0  0.42072133643E+02  0.11722313823E+03 -0.50102800682E+01  0.15362815038E+03  0.89806331173E+02 0.  0.
         23    2    1    2    0    0 -0.42072133643E+02 -0.11722313823E+03  0.69695915922E+02  0.18978623077E+03  0.12509981666E+03 0.  0.
          5    1    4    4  502    0  0.33654308460E+02 -0.61172731672E+02  0.64808499941E+02  0.95353708070E+02  0.41800000000E+01 0.  1.
         -5    1    4    4    0  502 -0.75726442103E+02 -0.56050406556E+02  0.48874159810E+01  0.94432522701E+02  0.41800000000E+01 0.  1.
        -11    1    3    3    0    0 -0.49255198288E+00  0.42925036323E+02 -0.42270095269E+02  0.60245848860E+02  0.00000000000E+00 0.  1.
         11    1    3    3    0    0  0.42564685626E+02  0.74298101904E+02  0.37259815201E+02  0.93382301524E+02  0.00000000000E+00 0. -1.
</event>
<event>
 8    1  0.8061721E-006  0.8007703E+02  0.7561462E-02  0.1328833E+00
         -3   -1    0    0    0  501 -0.00000000000E+00  0.00000000000E+00  0.20076958841E+03  0.20076958841E+03  0.00000000000E+00 0.  1.
          3   -1    0    0  501    0  0.00000000000E+00 -0.00000000000E+00 -0.62236096727E+02  0.62236096727E+02  0.00000000000E+00 0. -1.
         23    2    1    2    0    0 -0.13874202908E+02 -0.94961841924E+01  0.85727873768E+02  0.12615945242E+03  0.91017954671E+02 0.  0.
         23    2    1    2    0    0  0.13874202908E+02  0.94961841924E+01  0.52805617912E+02  0.13684623272E+03  0.12512308782E+03 0.  0.
          5    1    4    4  502    0  0.17201920169E+02 -0.50111915955E+02  0.55624417424E+02  0.76932817393E+02  0.41800000000E+01 0.  1.
         -5    1    4    4    0  502 -0.33277172607E+01  0.59608100147E+02 -0.28187995122E+01  0.59913415326E+02  0.41800000000E+01 0.  1.
        -11    1    3    3    0    0  0.16010654016E+02 -0.58848727155E+01  0.93521685738E+02  0.95064601572E+02  0.00000000000E+00 0.  1.
         11    1    3    3    0    0 -0.29884856924E+02 -0.36113114768E+01 -0.77938119698E+01  0.31094850843E+02  0.00000000000E+00 0. -1.
</event>
<event>
 8    1  0.8061721E-006  0.9403529E+02  0.7561462E-02  0.1293364E+00
         -1   -1    0    0    0  501 -0.00000000000E+00  0.00000000000E+00  0.16912164531E+03  0.16912164531E+03  0.00000000000E+00 0.  1.
          1   -1    0    0  501    0  0.00000000000E+00 -0.00000000000E+00 -0.12214636547E+03  0.12214636547E+03  0.00000000000E+00 0. -1.
         23    2    1    2    0    0 -0.38340073412E+02 -0.76050754011E+02  0.62661821669E+02  0.13913217170E+03  0.90429966786E+02 0.  0.
         23    2    1    2    0    0  0.38340073412E+02  0.76050754011E+02 -0.15686541831E+02  0.15213583908E+03  0.12508224304E+03 0.  0.
          5    1    4    4  502    0 -0.13906983884E+02  0.15834510905E+02  0.46314264591E+02  0.51055062834E+02  0.41800000000E+01 0.  1.
         -5    1    4    4    0  502  0.52247057296E+02  0.60216243106E+02 -0.62000806421E+02  0.10108077625E+03  0.41800000000E+01 0.  1.
        -11    1    3    3    0    0 -0.10980397631E+01 -0.16362051342E+02 -0.23022015304E+02  0.28265448945E+02  0.00000000000E+00 0. -1.
         11    1    3    3    0    0 -0.37242033649E+02 -0.59688702669E+02  0.85683836973E+02  0.11086672276E+03  0.00000000000E+00 0.  1.
</event>
<event>
 8    1  0.8061721E-006  0.1110438E+03  0.7561462E-02  0.1258649E+00
         -4   -1    0    0    0  501 -0.00000000000E+00  0.00000000000E+00  0.13735537791E+03  0.13735537791E+03  0.00000000000E+00 0.  1.
          4   -1    0    0  501    0  0.00000000000E+00 -0.00000000000E+00 -0.99037407265E+02  0.99037407265E+02  0.00000000000E+00 0. -1.
         23    2    1    2    0    0 -0.38836986548E+02  0.16450020790E+02  0.31058687625E+02  0.10418396870E+03  0.90059661050E+02 0.  0.
         23    2    1    2    0    0  0.38836986548E+02 -0.16450020790E+02  0.72592830192E+01  0.13220881648E+03  0.12509020448E+03 0.  0.
          5    1    4    4  502    0 -0.26752899504E+00 -0.67139550721E+02  0.99175331991E+01  0.67997211027E+02  0.41800000000E+01 0.  1.
         -5    1    4    4    0  502  0.39104515543E+02  0.50689529931E+02 -0.26582501799E+01  0.64211605450E+02  0.41800000000E+01 0.  1.
        -11    1    3    3    0    0  0.24021095873E+02 -0.44290019328E+01 -0.98465451927E+01  0.26335974584E+02  0.00000000000E+00 0. -1.
         11    1    3    3    0    0 -0.62858082421E+02  0.20879022723E+02  0.40905232818E+02  0.77847994113E+02  0.00000000000E+00 0.  1.
</event>
<event>
 8    1  0.8061721E-006  0.9255018E+02  0.7561462E-02  0.1296791E+00
         -1   -1    0    0    0  501 -0.00000000000E+00  0.00000000000E+00  0.21162774762E+03  0.21162774762E+03  0.00000000000E+00 0.  1.
          1   -1    0    0  501    0  0.00000000000E+00 -0.00000000000E+00 -0.68766610333E+02  0.68766610333E+02  0.00000000000E+00 0. -1.
         23    2    1    2    0    0  0.15095643763E+02 -0.45402102266E+02  0.77166496318E+02  0.13122041738E+03  0.94735951103E+02 0.  0.
         23    2    1    2    0    0 -0.15095643763E+02  0.45402102266E+02  0.65694640964E+02  0.14917394057E+03  0.12509136399E+03 0.  0.
          5    1    4    4  502    0 -0.18200506959E+02 -0.15121802012E+02  0.82676375878E+02  0.86097519581E+02  0.41800000000E+01 0. -1.
         -5    1    4    4    0  502  0.31048631963E+01  0.60523904278E+02 -0.16981734914E+02  0.63076420992E+02  0.41800000000E+01 0. -1.
        -11    1    3    3    0    0  0.42769990302E+02 -0.56194579691E+02  0.32889834368E+02  0.77902785969E+02  0.00000000000E+00 0. -1.
         11    1    3    3    0    0 -0.27674346539E+02  0.10792477425E+02  0.44276661951E+02  0.53317631407E+02  0.00000000000E+00 0.  1.
</event>
<event>
 8    1  0.8061721E-006  0.8464162E+02  0.7561462E-02  0.1316372E+00
          2   -1    0    0  501    0  0.00000000000E+00  0.00000000000E+00  0.12658004525E+03  0.12658004525E+03  0.00000000000E+00 0. -1.
         -2   -1    0    0    0  501 -0.00000000000E+00 -0.00000000000E+00 -0.12283450976E+03  0.12283450976E+03  0.00000000000E+00 0.  1.
         23    2    1    2    0    0  0.49855099594E+02  0.51709568218E+01 -0.33176424042E+02  0.10969309740E+03  0.91758545953E+02 0.  0.
         23    2    1    2    0    0 -0.49855099594E+02 -0.51709568218E+01  0.36921959533E+02  0.13972145760E+03  0.12508630967E+03 0.  0.
          5    1    4    4  502    0 -0.48286738984E+01  0.15825301846E+02 -0.42584121490E+02  0.45876312768E+02  0.41800000000E+01 0.  1.
         -5    1    4    4    0  502 -0.45026425696E+02 -0.20996258668E+02  0.79506081022E+02  0.93845144832E+02  0.41800000000E+01 0.  1.
        -11    1    3    3    0    0  0.34054537520E+01  0.42582756615E+02 -0.29285129061E+01  0.42818973178E+02  0.00000000000E+00 0. -1.
         11    1    3    3    0    0  0.46449645842E+02 -0.37411799793E+02 -0.30247911136E+02  0.66874124224E+02  0.00000000000E+00 0.  1.
</event>
<event>
 8    1  0.8061721E-006  0.1352742E+03  0.7561462E-02  0.1219833E+00
         -1   -1    0    0    0  501 -0.00000000000E+00  0.00000000000E+00  0.39441781473E+02  0.39441781473E+02  0.00000000000E+00 0.  1.
          1   -1    0    0  501    0  0.00000000000E+00 -0.00000000000E+00 -0.57740876383E+03  0.57740876383E+03  0.00000000000E+00 0. -1.
         23    2    1    2    0    0 -0.83840516421E+02 -0.27330058917E-01 -0.11933166144E+03  0.17195448272E+03  0.91099208361E+02 0.  0.
         23    2    1    2    0    0  0.83840516421E+02  0.27330058917E-01 -0.41863532091E+03  0.44489606258E+03  0.12509093350E+03 0.  0.
          5    1    4    4  502    0 -0.45358229232E+01  0.48830620224E+02 -0.15120619202E+03  0.15901505610E+03  0.41800000000E+01 0. -1.
         -5    1    4    4    0  502  0.88376339344E+02 -0.48803290165E+02 -0.26742912889E+03  0.28588100648E+03  0.41800000000E+01 0. -1.
        -11    1    3    3    0    0 -0.39227048903E+02 -0.43096979690E+02 -0.37569471144E+02  0.69336687158E+02  0.00000000000E+00 0.  1.
         11    1    3    3    0    0 -0.44613467519E+02  0.43069649631E+02 -0.81762190299E+02  0.10261779556E+03  0.00000000000E+00 0. -1.
</event>
<event>
 8    1  0.8061721E-006  0.1544692E+03  0.7561462E-02  0.1195086E+00
         -2   -1    0    0    0  501 -0.00000000000E+00  0.00000000000E+00  0.36134511464E+02  0.36134511464E+02  0.00000000000E+00 0. -1.
          2   -1    0    0  501    0  0.00000000000E+00 -0.00000000000E+00 -0.70539471978E+03  0.70539471978E+03  0.00000000000E+00 0.  1.
         23    2    1    2    0    0  0.11676559772E+03  0.17748915002E+02 -0.29564257942E+03  0.33020597998E+03  0.87648306632E+02 0.  0.
         23    2    1    2    0    0 -0.11676559772E+03 -0.17748915002E+02 -0.37361762890E+03  0.41132325127E+03  0.12508979020E+03 0.  0.
          5    1    4    4  502    0 -0.13592379815E+03 -0.39609781702E+02 -0.29095800113E+03  0.32360198475E+03  0.41800000000E+01 0. -1.
         -5    1    4    4    0  502  0.19158200432E+02  0.21860866700E+02 -0.82659627767E+02  0.87721266516E+02  0.41800000000E+01 0. -1.
        -11    1    3    3    0    0  0.97064490313E+02 -0.16465616445E+02 -0.25590415177E+03  0.27418892519E+03  0.00000000000E+00 0.  1.
         11    1    3    3    0    0  0.19701107407E+02  0.34214531448E+02 -0.39738427646E+02  0.56017054787E+02  0.00000000000E+00 0. -1.
</event>
<event>
 8    1  0.8061721E-006  0.1163539E+03  0.7561462E-02  0.1249236E+00
         -1   -1    0    0    0  501 -0.00000000000E+00  0.00000000000E+00  0.14343020908E+03  0.14343020908E+03  0.00000000000E+00 0.  1.
          1   -1    0    0  501    0  0.00000000000E+00 -0.00000000000E+00 -0.11502884968E+03  0.11502884968E+03  0.00000000000E+00 0. -1.
         23    2    1    2    0    0 -0.55148496868E+02  0.42850741334E+02 -0.32389454866E+01  0.11170973179E+03  0.87126521047E+02 0.  0.
         23    2    1    2    0    0  0.55148496868E+02 -0.42850741334E+02  0.31640304883E+02  0.14674932697E+03  0.12512678903E+03 0.  0.
          5    1    4    4  502    0  0.94611898330E+02 -0.20074394053E+02  0.14499111987E+02  0.97888146629E+02  0.41800000000E+01 0. -1.
         -5    1    4    4    0  502 -0.39463401462E+02 -0.22776347280E+02  0.17141192896E+02  0.48861180341E+02  0.41800000000E+01 0. -1.
        -11    1    3    3    0    0  0.21336567954E+01  0.31717836646E+02 -0.33325592768E+02  0.46056148191E+02  0.00000000000E+00 0. -1.
         11    1    3    3    0    0 -0.57282153663E+02  0.11132904687E+02  0.30086647282E+02  0.65653583602E+02  0.00000000000E+00 0.  1.
</event>
<event>
 8    1  0.8061721E-006  0.1402729E+03  0.7561462E-02  0.1212962E+00
          3   -1    0    0  501    0  0.00000000000E+00  0.00000000000E+00  0.29902576322E+03  0.29902576322E+03  0.00000000000E+00 0. -1.
         -3   -1    0    0    0  501 -0.00000000000E+00 -0.00000000000E+00 -0.11150989732E+03  0.11150989732E+03  0.00000000000E+00 0.  1.
         23    2    1    2    0    0 -0.93700419129E+02 -0.40861559128E+02 -0.28547617075E+02  0.14075857039E+03  0.92458494142E+02 0.  0.
         23    2    1    2    0    0  0.93700419129E+02  0.40861559128E+02  0.21606348297E+03  0.26977709015E+03  0.12508722611E+03 0.  0.
          5    1    4    4  502    0 -0.19235657944E+02 -0.12428249405E+02  0.39702639466E+01  0.23615827650E+02  0.41800000000E+01 0. -1.
         -5    1    4    4    0  502  0.11293607707E+03  0.53289808533E+02  0.21209321902E+03  0.24616126250E+03  0.41800000000E+01 0. -1.
        -11    1    3    3    0    0 -0.47617162080E+02 -0.64780093024E+02  0.21780005518E+01  0.80427596403E+02  0.00000000000E+00 0.  1.
         11    1    3    3    0    0 -0.46083257049E+02  0.23918533896E+02 -0.30725617626E+02  0.60330973989E+02  0.00000000000E+00 0. -1.
</event>
<event>
 8    1  0.8061721E-006  0.9859548E+02  0.7561462E-02  0.1283277E+00
         -1   -1    0    0    0  501 -0.00000000000E+00  0.00000000000E+00  0.19554891133E+03  0.19554891133E+03  0.00000000000E+00 0.  1.
          1   -1    0    0  501    0  0.00000000000E+00 -0.00000000000E+00 -0.68852136598E+02  0.68852136598E+02  0.00000000000E+00 0. -1.
         23    2    1    2    0    0  0.37700458380E+02  0.15710802167E+02  0.64366268698E+02  0.11879548208E+03  0.91110900282E+02 0.  0.
         23    2    1    2    0    0 -0.37700458380E+02 -0.15710802167E+02  0.62330506039E+02  0.14560556585E+03  0.12509090677E+03 0.  0.
          5    1    4    4  502    0 -0.51375471818E+02 -0.51765260730E+02  0.10229282369E+01  0.73058881083E+02  0.41800000000E+01 0.  1.
         -5    1    4    4    0  502  0.13675013438E+02  0.36054458563E+02  0.61307577802E+02  0.72546684768E+02  0.41800000000E+01 0.  1.
        -11    1    3    3    0    0 -0.22936328320E+02  0.10064354732E+01 -0.69982474916E+01  0.24001323653E+02  0.00000000000E+00 0.  1.
         11    1    3    3    0    0  0.60636786700E+02  0.14704366693E+02  0.71364516190E+02  0.94794158428E+02  0.00000000000E+00 0. -1.
</event>
<event>
 8    1  0.8061721E-006  0.1203627E+03  0.7561462E-02  0.1242500E+00
         -1   -1    0    0    0  501 -0.00000000000E+00  0.00000000000E+00  0.39926711228E+02  0.39926711228E+02  0.00000000000E+00 0.  1.
          1   -1    0    0  501    0  0.00000000000E+00 -0.00000000000E+00 -0.48577321290E+03  0.48577321290E+03  0.00000000000E+00 0. -1.
         23    2    1    2    0    0 -0.26883328485E+02  0.82563201029E+02 -0.20524809724E+03  0.24096756972E+03  0.91647109735E+02 0.  0.
         23    2    1    2    0    0  0.26883328485E+02 -0.82563201029E+02 -0.24059840443E+03  0.28473235440E+03  0.12508207671E+03 0.  0.
          5    1    4    4  502    0  0.33204674229E+02 -0.99205413097E+02 -0.10632852210E+03  0.14922295866E+03  0.41800000000E+01 0. -1.
         -5    1    4    4    0  502 -0.63213457434E+01  0.16642212068E+02 -0.13426988233E+03  0.13550939575E+03  0.41800000000E+01 0. -1.
        -11    1    3    3    0    0  0.17960265178E+02  0.68392366312E+02 -0.77869178149E+02  0.10518410432E+03  0.00000000000E+00 0.  1.
         11    1    3    3    0    0 -0.44843593664E+02  0.14170834718E+02 -0.12737891909E+03  0.13578346541E+03  0.00000000000E+00 0. -1.
</event>
<event>
 8    1  0.8061721E-006  0.2071054E+03  0.7561462E-02  0.1143879E+00
          2   -1    0    0  501    0  0.00000000000E+00  0.00000000000E+00  0.52848640542E+03  0.52848640542E+03  0.00000000000E+00 0. -1.
         -2   -1    0    0    0  501 -0.00000000000E+00 -0.00000000000E+00 -0.94923270203E+02  0.94923270203E+02  0.00000000000E+00 0.  1.
         23    2    1    2    0    0  0.16139498681E+02  0.19470320496E+03  0.23961433177E+03  0.32103292457E+03  0.86471320292E+02 0.  0.
         23    2    1    2    0    0 -0.16139498681E+02 -0.19470320496E+03  0.19394880345E+03  0.30237675105E+03  0.12508293161E+03 0.  0.
          5    1    4    4  502    0 -0.44007800303E+02 -0.15724856544E+03  0.85799057233E+02  0.18450677072E+03  0.41800000000E+01 0.  1.
         -5    1    4    4    0  502  0.27868301622E+02 -0.37454639520E+02  0.10814974622E+03  0.11786998034E+03  0.41800000000E+01 0.  1.
        -11    1    3    3    0    0 -0.13137923929E+02  0.14989577098E+03  0.12919498990E+03  0.19832471510E+03  0.00000000000E+00 0.  1.
         11    1    3    3    0    0  0.29277422610E+02  0.44807433974E+02  0.11041934187E+03  0.12270820947E+03  0.00000000000E+00 0. -1.
</event>
<event>
 6    1  0.8061721E-006  0.5196955E+03  0.7561462E-02  0.1008762E+00
         -2   -1    0    0    0  501 -0.00000000000E+00  0.00000000000E+00  0.11375458413E+04  0.11375458413E+04  0.00000000000E+00 0. -1.
          2   -1    0    0  501    0  0.00000000000E+00 -0.00000000000E+00 -0.91445937725E+03  0.91445937725E+03  0.00000000000E+00 0.  1.
          5    1    1    2  502    0  0.17199994698E+03  0.21243235910E+03 -0.74562782915E+03  0.79415982079E+03  0.41800000000E+01 0.  1.
         -5    1    1    2    0  502 -0.12135301419E+03 -0.47758013027E+03  0.43114305072E+03  0.65476036645E+03  0.41800000000E+01 0. -1.
        -11    1    1    2    0    0  0.76769042086E+01  0.27638076454E+02  0.51243153846E+02  0.58725283689E+02  0.00000000000E+00 0.  1.
         11    1    1    2    0    0 -0.58323836995E+02  0.23750969472E+03  0.48632808861E+03  0.54435974761E+03  0.00000000000E+00 0. -1.
</event>
<event>
 8    1  0.8061721E-006  0.9018355E+02  0.7561462E-02  0.1302408E+00
          2   -1    0    0  501    0  0.00000000000E+00  0.00000000000E+00  0.24063269887E+03  0.24063269887E+03  0.00000000000E+00 0. -1.
         -2   -1    0    0    0  501 -0.00000000000E+00 -0.00000000000E+00 -0.19845686720E+03  0.19845686720E+03  0.00000000000E+00 0.  1.
         23    2    1    2    0    0  0.32460009519E+02 -0.15355739448E+02 -0.16656895441E+03  0.19309803038E+03  0.90841520311E+02 0.  0.
         23    2    1    2    0    0 -0.32460009519E+02  0.15355739448E+02  0.20874478607E+03  0.24599153569E+03  0.12509196205E+03 0.  0.
          5    1    4    4  502    0 -0.65731130536E+02 -0.20382140882E-01  0.49130443312E+02  0.82169670785E+02  0.41800000000E+01 0.  1.
         -5    1    4    4    0  502  0.33271121017E+02  0.15376121589E+02  0.15961434276E+03  0.16382186491E+03  0.41800000000E+01 0.  1.
        -11    1    3    3    0    0  0.76825875165E+01  0.27257886966E+02 -0.12633227702E+03  0.12946759738E+03  0.00000000000E+00 0.  1.
         11    1    3    3    0    0  0.24777422002E+02 -0.42613626414E+02 -0.40236677384E+02  0.63630433003E+02  0.00000000000E+00 0. -1.
</event>
<event>
 8    1  0.8061721E-006  0.1085944E+03  0.7561462E-02  0.1263195E+00
         -2   -1    0    0    0  501 -0.00000000000E+00  0.00000000000E+00  0.13086490445E+02  0.13086490445E+02  0.00000000000E+00 0.  1.
          2   -1    0    0  501    0  0.00000000000E+00 -0.00000000000E+00 -0.15634057569E+04  0.15634057569E+04  0.00000000000E+00 0. -1.
         23    2    1    2    0    0 -0.15575381835E+01  0.20302764911E+02 -0.24111622350E+03  0.26117107222E+03  0.98278520234E+02 0.  0.
         23    2    1    2    0    0  0.15575381835E+01 -0.20302764911E+02 -0.13092030429E+04  0.13153211751E+04  0.12507021177E+03 0.  0.
          5    1    4    4  502    0 -0.17984359065E+02 -0.65301187020E+02 -0.49489684429E+03  0.49952781813E+03  0.41800000000E+01 0.  1.
         -5    1    4    4    0  502  0.19541897249E+02  0.44998422109E+02 -0.81430619862E+03  0.81579335696E+03  0.41800000000E+01 0.  1.
        -11    1    3    3    0    0  0.13069435759E+02 -0.37893922794E+02 -0.10615628438E+03  0.11347209459E+03  0.00000000000E+00 0. -1.
         11    1    3    3    0    0 -0.14626973943E+02  0.58196687705E+02 -0.13495993912E+03  0.14769897763E+03  0.00000000000E+00 0.  1.
</event>
<event>
 8    1  0.8061721E-006  0.1186841E+03  0.7561462E-02  0.1245284E+00
         -2   -1    0    0    0  501 -0.00000000000E+00  0.00000000000E+00  0.10406662323E+03  0.10406662323E+03  0.00000000000E+00 0.  1.
          2   -1    0    0  501    0  0.00000000000E+00 -0.00000000000E+00 -0.20876694967E+03  0.20876694967E+03  0.00000000000E+00 0. -1.
         23    2    1    2    0    0 -0.28358649503E+02 -0.40739234839E+02  0.40511541389E+02  0.11484685946E+03  0.95313786435E+02 0.  0.
         23    2    1    2    0    0  0.28358649503E+02  0.40739234839E+02 -0.14521186783E+03  0.19798671344E+03  0.12509338066E+03 0.  0.
          5    1    4    4  502    0 -0.30215882338E+02  0.60658546088E+02 -0.49829954827E+02  0.84219686280E+02  0.41800000000E+01 0. -1.
         -5    1    4    4    0  502  0.58574531840E+02 -0.19919311250E+02 -0.95381913004E+02  0.11376702716E+03  0.41800000000E+01 0. -1.
        -11    1    3    3    0    0  0.31725493792E+02 -0.34790739759E+02  0.17352995703E+02  0.50179966014E+02  0.00000000000E+00 0.  1.
         11    1    3    3    0    0 -0.60084143295E+02 -0.59484950799E+01  0.23158545686E+02  0.64666893442E+02  0.00000000000E+00 0. -1.
</event>
<event>
 8    1  0.8061721E-006  0.1034512E+03  0.7561462E-02  0.1273201E+00
          4   -1    0    0  501    0  0.00000000000E+00  0.00000000000E+00  0.95384899745E+02  0.95384899745E+02  0.00000000000E+00 0. -1.
         -4   -1    0    0    0  501 -0.00000000000E+00 -0.00000000000E+00 -0.17576551386E+03  0.17576551386E+03  0.00000000000E+00 0.  1.
         23    2    1    2    0    0 -0.53054755463E+02  0.39941756832E+02 -0.10773622764E+02  0.11334578010E+03  0.91219756104E+02 0.  0.
         23    2    1    2    0    0  0.53054755463E+02 -0.39941756832E+02 -0.69606991349E+02  0.15780463350E+03  0.12508804137E+03 0.  0.
          5    1    4    4  502    0 -0.13354274592E+02 -0.43143804794E+02  0.17089920581E+02  0.48469189465E+02  0.41800000000E+01 0.  1.
         -5    1    4    4    0  502  0.66409030055E+02  0.32020479620E+01 -0.86696911930E+02  0.10933544403E+03  0.41800000000E+01 0.  1.
        -11    1    3    3    0    0 -0.67558610580E+01  0.47533707754E+02 -0.36062898917E+02  0.60046879268E+02  0.00000000000E+00 0.  1.
         11    1    3    3    0    0 -0.46298894405E+02 -0.75919509225E+01  0.25289276153E+02  0.53298900835E+02  0.00000000000E+00 0. -1.
</event>
<event>
 7    1  0.8061721E-006  0.8107680E+02  0.7561462E-02  0.1326023E+00
          1   -1    0    0  501    0  0.00000000000E+00  0.00000000000E+00  0.45438985022E+03  0.45438985022E+03  0.00000000000E+00 0. -1.
         -1   -1    0    0    0  501 -0.00000000000E+00 -0.00000000000E+00 -0.18331962085E+02  0.18331962085E+02  0.00000000000E+00 0.  1.
         23    2    1    2    0    0 -0.28779037976E+02  0.10629602232E+02  0.34269763187E+03  0.36610253324E+03  0.12509267161E+03 0.  0.
          5    1    3    3  502    0 -0.42900011016E+02 -0.42731326553E+02  0.98411008276E+02  0.11562255906E+03  0.41800000000E+01 0. -1.
         -5    1    3    3    0  502  0.14120973040E+02  0.53360928785E+02  0.24428662359E+03  0.25047997418E+03  0.41800000000E+01 0. -1.
        -11    1    1    2    0    0  0.55159077529E+01  0.12274515298E+02  0.90710150381E+01  0.16228748503E+02  0.00000000000E+00 0.  1.
         11    1    1    2    0    0  0.23263130223E+02 -0.22904117531E+02  0.84289241233E+02  0.90390530562E+02  0.00000000000E+00 0. -1.
</event>
<event>
 8    1  0.8061721E-006  0.2522126E+03  0.7561462E-02  0.1111914E+00
         -2   -1    0    0    0  501 -0.00000000000E+00  0.00000000000E+00  0.70139372767E+02  0.70139372767E+02  0.00000000000E+00 0. -1.
          2   -1    0    0  501    0  0.00000000000E+00 -0.00000000000E+00 -0.99005509992E+03  0.99005509992E+03  0.00000000000E+00 0.  1.
         23    2    1    2    0    0  0.23418109594E+03 -0.48306721850E+02 -0.45173128989E+03  0.51980785436E+03  0.94682216476E+02 0.  0.
         23    2    1    2    0    0 -0.23418109594E+03  0.48306721850E+02 -0.46818443726E+03  0.54038661833E+03  0.12508678946E+03 0.  0.
          5    1    4    4  502    0  0.12487961913E+02  0.14348634195E+01 -0.57545725100E+02  0.59050748540E+02  0.41800000000E+01 0. -1.
         -5    1    4    4    0  502 -0.24666905786E+03  0.46871858430E+02 -0.41063871216E+03  0.48133586979E+03  0.41800000000E+01 0. -1.
        -11    1    3    3    0    0  0.11960212172E+03 -0.13783999653E+02 -0.13323388487E+03  0.17957152960E+03  0.00000000000E+00 0. -1.
         11    1    3    3    0    0  0.11457897423E+03 -0.34522722197E+02 -0.31849740502E+03  0.34023632476E+03  0.00000000000E+00 0.  1.
</event>
<event>
 8    1  0.8061721E-006  0.8941979E+02  0.7561462E-02  0.1304263E+00
         -1   -1    0    0    0  501 -0.00000000000E+00  0.00000000000E+00  0.31586477222E+03  0.31586477222E+03  0.00000000000E+00 0.  1.
          1   -1    0    0  501    0  0.00000000000E+00 -0.00000000000E+00 -0.48363323557E+02  0.48363323557E+02  0.00000000000E+00 0. -1.
         23    2    1    2    0    0 -0.46079519616E+02  0.12358628943E+02  0.16165762007E+03  0.19355468047E+03  0.95153404389E+02 0.  0.
         23    2    1    2    0    0  0.46079519616E+02 -0.12358628943E+02  0.10584382858E+03  0.17067341530E+03  0.12510172183E+03 0.  0.
          5    1    4    4  502    0 -0.20258635916E+02  0.43178775531E+01 -0.18896632393E+02  0.28348042464E+02  0.41800000000E+01 0. -1.
         -5    1    4    4    0  502  0.66338155532E+02 -0.16676506496E+02  0.12474046098E+03  0.14232537284E+03  0.41800000000E+01 0. -1.
        -11    1    3    3    0    0 -0.25962509477E+02 -0.31563075165E+02  0.23386508915E+02  0.47087242555E+02  0.00000000000E+00 0.  1.
         11    1    3    3    0    0 -0.20117010139E+02  0.43921704107E+02  0.13827111116E+03  0.14646743792E+03  0.00000000000E+00 0. -1.
</event>
<event>
 7    1  0.8061721E-006  0.2411642E+03  0.7561462E-02  0.1119020E+00
         -3   -1    0    0    0  501 -0.00000000000E+00  0.00000000000E+00  0.15259207041E+03  0.15259207041E+03  0.00000000000E+00 0.  1.
          3   -1    0    0  501    0  0.00000000000E+00 -0.00000000000E+00 -0.49493381913E+03  0.49493381913E+03  0.00000000000E+00 0. -1.
         23    2    1    2    0    0 -0.22327076804E+03  0.42747852538E+02 -0.27273159667E+03  0.37644001236E+03  0.12508934537E+03 0.  0.
          5    1    3    3  502    0 -0.20670069396E+03  0.32049475278E+02 -0.28446322503E+03  0.35311350094E+03  0.41800000000E+01 0. -1.
         -5    1    3    3    0  502 -0.16570074075E+02  0.10698377260E+02  0.11731628362E+02  0.23326511417E+02  0.41800000000E+01 0. -1.
        -11    1    1    2    0    0  0.19254633465E+03  0.90177358530E+01 -0.82256928581E+02  0.20957483829E+03  0.00000000000E+00 0. -1.
         11    1    1    2    0    0  0.30724433387E+02 -0.51765588391E+02  0.12646776539E+02  0.61511038889E+02  0.00000000000E+00 0.  1.
</event>
<event>
 8    1  0.8061721E-006  0.1125018E+03  0.7561462E-02  0.1256006E+00
          2   -1    0    0  501    0  0.00000000000E+00  0.00000000000E+00  0.32776097511E+03  0.32776097511E+03  0.00000000000E+00 0. -1.
         -2   -1    0    0    0  501 -0.00000000000E+00 -0.00000000000E+00 -0.55655982560E+02  0.55655982560E+02  0.00000000000E+00 0.  1.
         23    2    1    2    0    0  0.26717711800E+02  0.28285341040E+02  0.17439718259E+02  0.97035034334E+02  0.87165116151E+02 0.  0.
         23    2    1    2    0    0 -0.26717711800E+02 -0.28285341040E+02  0.25466527430E+03  0.28638192334E+03  0.12508520073E+03 0.  0.
          5    1    4    4  502    0 -0.76465863531E+02 -0.14988368172E+02  0.17242098718E+03  0.18925683260E+03  0.41800000000E+01 0.  1.
         -5    1    4    4    0  502  0.49748151731E+02 -0.13296972868E+02  0.82244287118E+02  0.97125090742E+02  0.41800000000E+01 0.  1.
        -11    1    3    3    0    0  0.17610720298E+02 -0.30823917553E+02  0.91168687314E+01  0.36651993918E+02  0.00000000000E+00 0.  1.
         11    1    3    3    0    0  0.91069915020E+01  0.59109258593E+02  0.83228495278E+01  0.60383040416E+02  0.00000000000E+00 0. -1.
</event>
<event>
 8    1  0.8061721E-006  0.1210050E+03  0.7561462E-02  0.1241448E+00
          2   -1    0    0  501    0  0.00000000000E+00  0.00000000000E+00  0.42272573083E+03  0.42272573083E+03  0.00000000000E+00 0. -1.
         -2   -1    0    0    0  501 -0.00000000000E+00 -0.00000000000E+00 -0.49163781570E+02  0.49163781570E+02  0.00000000000E+00 0.  1.
         23    2    1    2    0    0  0.24034808838E+02  0.89127895016E+02  0.14088305478E+03  0.19205164652E+03  0.92273214432E+02 0.  0.
         23    2    1    2    0    0 -0.24034808838E+02 -0.89127895016E+02  0.23267889448E+03  0.27983786588E+03  0.12509320340E+03 0.  0.
          5    1    4    4  502    0 -0.41399344269E+02 -0.99477891054E+02  0.10501921650E+03  0.15051998123E+03  0.41800000000E+01 0.  1.
         -5    1    4    4    0  502  0.17364535431E+02  0.10349996038E+02  0.12765967798E+03  0.12931788465E+03  0.41800000000E+01 0.  1.
        -11    1    3    3    0    0  0.47103145410E+02  0.56120071224E+02  0.40105494474E+02  0.83526159906E+02  0.00000000000E+00 0.  1.
         11    1    3    3    0    0 -0.23068336572E+02  0.33007823792E+02  0.10077756031E+03  0.10852548662E+03  0.00000000000E+00 0. -1.
</event>
<event>
 8    1  0.8061721E-006  0.1190141E+03  0.7561462E-02  0.1244732E+00
          2   -1    0    0  501    0  0.00000000000E+00  0.00000000000E+00  0.22629108011E+03  0.22629108011E+03  0.00000000000E+00 0. -1.
         -2   -1    0    0    0  501 -0.00000000000E+00 -0.00000000000E+00 -0.91326702681E+02  0.91326702681E+02  0.00000000000E+00 0.  1.
         23    2    1    2    0    0  0.67491284498E+02 -0.19256014282E+02 -0.86489173991E+01  0.11464419048E+03  0.90236461976E+02 0.  0.
         23    2    1    2    0    0 -0.67491284498E+02  0.19256014282E+02  0.14361329483E+03  0.20297359231E+03  0.12509049986E+03 0.  0.
          5    1    4    4  502    0  0.18754147697E+01 -0.46848006021E+02  0.39864031610E+02  0.61683598022E+02  0.41800000000E+01 0.  1.
         -5    1    4    4    0  502 -0.69366699267E+02  0.66104020303E+02  0.10374926322E+03  0.14128999429E+03  0.41800000000E+01 0.  1.
        -11    1    3    3    0    0  0.40342640937E+02 -0.43011852560E+02  0.26161022954E+02  0.64513155715E+02  0.00000000000E+00 0. -1.
         11    1    3    3    0    0  0.27148643561E+02  0.23755838277E+02 -0.34809940353E+02  0.50131034767E+02  0.00000000000E+00 0.  1.
</event>
<event>
 8    1  0.8061721E-006  0.7269256E+02  0.7561462E-02  0.1351169E+00
          1   -1    0    0  501    0  0.00000000000E+00  0.00000000000E+00  0.36188385143E+03  0.36188385143E+03  0.00000000000E+00 0. -1.
         -1   -1    0    0    0  501 -0.00000000000E+00 -0.00000000000E+00 -0.44189812750E+02  0.44189812750E+02  0.00000000000E+00 0.  1.
         23    2    1    2    0    0 -0.35968802476E+02 -0.25061412674E+02  0.65735208455E+02  0.12137796917E+03  0.92139376020E+02 0.  0.
         23    2    1    2    0    0  0.35968802476E+02  0.25061412674E+02  0.25195883022E+03  0.28469569500E+03  0.12508620015E+03 0.  0.
          5    1    4    4  502    0  0.10724249718E+02  0.50465331631E+02  0.29998934554E+02  0.59826145647E+02  0.41800000000E+01 0.  1.
         -5    1    4    4    0  502  0.25244552758E+02 -0.25403918956E+02  0.22195989567E+03  0.22486954935E+03  0.41800000000E+01 0.  1.
        -11    1    3    3    0    0 -0.31632062367E+02  0.50394771239E+00 -0.16125284861E+02  0.35508677035E+02  0.00000000000E+00 0.  1.
         11    1    3    3    0    0 -0.43367401087E+01 -0.25565360387E+02  0.81860493316E+02  0.85869292139E+02  0.00000000000E+00 0. -1.
</event>
<event>
 8    1  0.8061721E-006  0.1008093E+03  0.7561462E-02  0.1278603E+00
          1   -1    0    0  501    0  0.00000000000E+00  0.00000000000E+00  0.14658621042E+03  0.14658621042E+03  0.00000000000E+00 0. -1.
         -1   -1    0    0    0  501 -0.00000000000E+00 -0.00000000000E+00 -0.10716833366E+03  0.10716833366E+03  0.00000000000E+00 0.  1.
         23    2    1    2    0    0  0.83584512362E+01 -0.17672028425E+02 -0.44174160299E+02  0.10204157892E+03  0.89883052317E+02 0.  0.
         23    2    1    2    0    0 -0.83584512362E+01  0.17672028425E+02  0.83592037056E+02  0.15171296517E+03  0.12508809234E+03 0.  0.
          5    1    4    4  502    0  0.60315442648E+01  0.70560834379E+02  0.54910127389E+02  0.89709561165E+02  0.41800000000E+01 0.  1.
         -5    1    4    4    0  502 -0.14389995501E+02 -0.52888805954E+02  0.28681909667E+02  0.62003404003E+02  0.41800000000E+01 0.  1.
        -11    1    3    3    0    0 -0.46859385753E+01  0.27906973922E+02 -0.46657046590E+02  0.54567730485E+02  0.00000000000E+00 0.  1.
         11    1    3    3    0    0  0.13044389811E+02 -0.45579002347E+02  0.24828862904E+01  0.47473848431E+02  0.00000000000E+00 0. -1.
</event>
<event>
 8    1  0.8061721E-006  0.1864946E+03  0.7561462E-02  0.1161661E+00
          4   -1    0    0  501    0  0.00000000000E+00  0.00000000000E+00  0.12169228581E+03  0.12169228581E+03  0.00000000000E+00 0. -1.
         -4   -1    0    0    0  501 -0.00000000000E+00 -0.00000000000E+00 -0.31896686512E+03  0.31896686512E+03  0.00000000000E+00 0.  1.
         23    2    1    2    0    0  0.65072792788E+02 -0.14723581719E+03 -0.12775684799E+03  0.22526981000E+03  0.92259529956E+02 0.  0.
         23    2    1    2    0    0 -0.65072792788E+02  0.14723581719E+03 -0.69517731317E+02  0.21538934093E+03  0.12508796503E+03 0.  0.
          5    1    4    4  502    0 -0.96238101331E+02  0.14258208429E+03 -0.59108236141E+02  0.18194141609E+03  0.41800000000E+01 0.  1.
         -5    1    4    4    0  502  0.31165308542E+02  0.46537328986E+01 -0.10409495176E+02  0.33447924842E+02  0.41800000000E+01 0.  1.
        -11    1    3    3    0    0  0.42918923642E+02 -0.36926279366E+02 -0.21766748626E+01  0.56659703740E+02  0.00000000000E+00 0. -1.
         11    1    3    3    0    0  0.22153869147E+02 -0.11030953782E+03 -0.12558017313E+03  0.16861010627E+03  0.00000000000E+00 0.  1.
</event>
<event>
 8    1  0.8061721E-006  0.1252612E+03  0.7561462E-02  0.1234662E+00
         -2   -1    0    0    0  501 -0.00000000000E+00  0.00000000000E+00  0.23008547515E+03  0.23008547515E+03  0.00000000000E+00 0.  1.
          2   -1    0    0  501    0  0.00000000000E+00 -0.00000000000E+00 -0.71583239730E+02  0.71583239730E+02  0.00000000000E+00 0. -1.
         23    2    1    2    0    0  0.70626613268E+02  0.73707970763E+01  0.69278295389E+02  0.13240164461E+03  0.87682758460E+02 0.  0.
         23    2    1    2    0    0 -0.70626613268E+02 -0.73707970763E+01  0.89223940026E+02  0.16926707027E+03  0.12509189603E+03 0.  0.
          5    1    4    4  502    0 -0.10206558394E+03 -0.20568163325E+02  0.45601813985E+02  0.11374282662E+03  0.41800000000E+01 0. -1.
         -5    1    4    4    0  502  0.31438970673E+02  0.13197366249E+02  0.43622126041E+02  0.55524243653E+02  0.41800000000E+01 0. -1.
        -11    1    3    3    0    0  0.27994283856E+02  0.46386175733E+02  0.25379147443E+02  0.59828574717E+02  0.00000000000E+00 0. -1.
         11    1    3    3    0    0  0.42632329412E+02 -0.39015378656E+02  0.43899147946E+02  0.72573069890E+02  0.00000000000E+00 0.  1.
</event>
<event>
 8    1  0.8061721E-006  0.1019303E+03  0.7561462E-02  0.1276288E+00
         -2   -1    0    0    0  501 -0.00000000000E+00  0.00000000000E+00  0.10227691100E+03  0.10227691100E+03  0.00000000000E+00 0.  1.
          2   -1    0    0  501    0  0.00000000000E+00 -0.00000000000E+00 -0.17310734577E+03  0.17310734577E+03  0.00000000000E+00 0. -1.
         23    2    1    2    0    0  0.19133626875E+02  0.63998205144E+02  0.49949192358E+01  0.11457723392E+03  0.92957664432E+02 0.  0.
         23    2    1    2    0    0 -0.19133626875E+02 -0.63998205144E+02 -0.75825354009E+02  0.16080702284E+03  0.12509016087E+03 0.  0.
          5    1    4    4  502    0 -0.25131140354E+02 -0.96056266453E+02 -0.28874119512E+02  0.10348704130E+03  0.41800000000E+01 0.  1.
         -5    1    4    4    0  502  0.59975134792E+01  0.32058061309E+02 -0.46951234497E+02  0.57319981539E+02  0.41800000000E+01 0.  1.
        -11    1    3    3    0    0  0.23659479229E+02  0.34960197512E+02  0.47088127455E+02  0.63239845942E+02  0.00000000000E+00 0.  1.
         11    1    3    3    0    0 -0.45258523541E+01  0.29038007631E+02 -0.42093208219E+02  0.51337387983E+02  0.00000000000E+00 0. -1.
</event>
<event>
 8    1  0.8061721E-006  0.1217338E+03  0.7561462E-02  0.1240264E+00
         -1   -1    0    0    0  501 -0.00000000000E+00  0.00000000000E+00  0.67382592959E+02  0.67382592959E+02  0.00000000000E+00 0.  1.
          1   -1    0    0  501    0  0.00000000000E+00 -0.00000000000E+00 -0.24627476360E+03  0.24627476360E+03  0.00000000000E+00 0. -1.
         23    2    1    2    0    0 -0.49511990439E+02  0.37274628956E+02 -0.42502058494E+02  0.11849214573E+03  0.91614018913E+02 0.  0.
         23    2    1    2    0    0  0.49511990439E+02 -0.37274628956E+02 -0.13639011215E+03  0.19516521083E+03  0.12508541749E+03 0.  0.
          5    1    4    4  502    0  0.80000540477E+02  0.83897561282E+01 -0.10304256027E+03  0.13078882258E+03  0.41800000000E+01 0.  1.
         -5    1    4    4    0  502 -0.30488550038E+02 -0.45664385084E+02 -0.33347551874E+02  0.64376388253E+02  0.41800000000E+01 0.  1.
        -11    1    3    3    0    0  0.23192786657E+02  0.25033249615E+02 -0.26097615836E+02  0.42961081126E+02  0.00000000000E+00 0.  1.
         11    1    3    3    0    0 -0.72704777095E+02  0.12241379341E+02 -0.16404442658E+02  0.75531064600E+02  0.00000000000E+00 0. -1.
</event>
<event>
 8    1  0.8061721E-006  0.1459102E+03  0.7561462E-02  0.1205590E+00
         -2   -1    0    0    0  501 -0.00000000000E+00  0.00000000000E+00  0.37938559283E+02  0.37938559283E+02  0.00000000000E+00 0.  1.
          2   -1    0    0  501    0  0.00000000000E+00 -0.00000000000E+00 -0.63603051009E+03  0.63603051009E+03  0.00000000000E+00 0. -1.
         23    2    1    2    0    0 -0.88474330951E+02  0.40415180852E+02 -0.18785517414E+03  0.23419377853E+03  0.10047917880E+03 0.  0.
         23    2    1    2    0    0  0.88474330951E+02 -0.40415180852E+02 -0.41023677667E+03  0.43977529084E+03  0.12508796673E+03 0.  0.
          5    1    4    4  502    0 -0.28784126135E+02  0.55996599455E+01 -0.49849304907E+02  0.57985409446E+02  0.41800000000E+01 0. -1.
         -5    1    4    4    0  502  0.11725845709E+03 -0.46014840798E+02 -0.36038747176E+03  0.38178988140E+03  0.41800000000E+01 0. -1.
        -11    1    3    3    0    0 -0.93326307616E+02 -0.21255075362E+01 -0.15185785779E+03  0.17825578938E+03  0.00000000000E+00 0. -1.
         11    1    3    3    0    0  0.48519766648E+01  0.42540688389E+02 -0.35997316352E+02  0.55937989155E+02  0.00000000000E+00 0.  1.
</event>
<event>
 8    1  0.8061721E-006  0.1192727E+03  0.7561462E-02  0.1244302E+00
          1   -1    0    0  501    0  0.00000000000E+00  0.00000000000E+00  0.33463869218E+02  0.33463869218E+02  0.00000000000E+00 0. -1.
         -1   -1    0    0    0  501 -0.00000000000E+00 -0.00000000000E+00 -0.54419806358E+03  0.54419806358E+03  0.00000000000E+00 0.  1.
         23    2    1    2    0    0  0.32159504978E+02  0.50944243365E+02 -0.34197303747E+03  0.35912744785E+03  0.91637414565E+02 0.  0.
         23    2    1    2    0    0 -0.32159504978E+02 -0.50944243365E+02 -0.16876115689E+03  0.21853448495E+03  0.12508974116E+03 0.  0.
          5    1    4    4  502    0  0.42896127423E+02 -0.44587257492E+02 -0.91644818978E+02  0.11065417536E+03  0.41800000000E+01 0.  1.
         -5    1    4    4    0  502 -0.75055632401E+02 -0.63569858731E+01 -0.77116337910E+02  0.10788030959E+03  0.41800000000E+01 0.  1.
        -11    1    3    3    0    0  0.48740833757E+02  0.13063989363E+01 -0.23541758332E+03  0.24041383922E+03  0.00000000000E+00 0.  1.
         11    1    3    3    0    0 -0.16581328778E+02  0.49637844429E+02 -0.10655545416E+03  0.11871360863E+03  0.00000000000E+00 0. -1.
</event>
<event>
 8    1  0.8061721E-006  0.1125508E+03  0.7561462E-02  0.1255918E+00
         -3   -1    0    0    0  501 -0.00000000000E+00  0.00000000000E+00  0.22125779430E+03  0.22125779430E+03  0.00000000000E+00 0.  1.
          3   -1    0    0  501    0  0.00000000000E+00 -0.00000000000E+00 -0.63567502956E+02  0.63567502956E+02  0.00000000000E+00 0. -1.
         23    2    1    2    0    0 -0.11178965195E+02  0.39799506059E+02  0.96386472687E+02  0.13951367290E+03  0.92004037220E+02 0.  0.
         23    2    1    2    0    0  0.11178965195E+02 -0.39799506059E+02  0.61303818660E+02  0.14531162435E+03  0.12509332534E+03 0.  0.
          5    1    4    4  502    0 -0.20272218288E+02 -0.74441896351E+02  0.60822520637E+02  0.98333159124E+02  0.41800000000E+01 0.  1.
         -5    1    4    4    0  502  0.31451183483E+02  0.34642390292E+02  0.48129802323E+00  0.46978465230E+02  0.41800000000E+01 0.  1.
        -11    1    3    3    0    0 -0.93129776327E+01  0.69992348102E+02  0.68122788452E+02  0.98114089975E+02  0.00000000000E+00 0.  1.
         11    1    3    3    0    0 -0.18659875624E+01 -0.30192842042E+02  0.28263684234E+02  0.41399582929E+02  0.00000000000E+00 0. -1.
</event>
<event>
 8    1  0.8061721E-006  0.1012266E+03  0.7561462E-02  0.1277738E+00
          1   -1    0    0  501    0  0.00000000000E+00  0.00000000000E+00  0.22211392543E+03  0.22211392543E+03  0.00000000000E+00 0. -1.
         -1   -1    0    0    0  501 -0.00000000000E+00 -0.00000000000E+00 -0.55298895721E+02  0.55298895721E+02  0.00000000000E+00 0.  1.
         23    2    1    2    0    0 -0.16438016454E+02  0.21012106331E+02  0.67596271726E+02  0.11553644328E+03  0.89820358361E+02 0.  0.
         23    2    1    2    0    0  0.16438016454E+02 -0.21012106331E+02  0.99218757987E+02  0.16187637788E+03  0.12509149764E+03 0.  0.
          5    1    4    4  502    0  0.13234061612E+02 -0.73667249054E+02  0.59690035880E+02  0.95824718906E+02  0.41800000000E+01 0. -1.
         -5    1    4    4    0  502  0.32039548418E+01  0.52655142723E+02  0.39528722107E+02  0.66051658974E+02  0.41800000000E+01 0. -1.
        -11    1    3    3    0    0 -0.27133051406E+02 -0.19020323074E+02  0.66254165074E+02  0.74078266435E+02  0.00000000000E+00 0. -1.
         11    1    3    3    0    0  0.10695034951E+02  0.40032429405E+02  0.13421066523E+01  0.41458176840E+02  0.00000000000E+00 0.  1.
</event>
<event>
 8    1  0.8061721E-006  0.8065711E+02  0.7561462E-02  0.1327197E+00
          2   -1    0    0  501    0  0.00000000000E+00  0.00000000000E+00  0.52479543761E+03  0.52479543761E+03  0.00000000000E+00 0. -1.
         -2   -1    0    0    0  501 -0.00000000000E+00 -0.00000000000E+00 -0.27770682652E+02  0.27770682652E+02  0.00000000000E+00 0.  1.
         23    2    1    2    0    0 -0.40381447819E+02  0.17800168163E+01  0.10312570454E+03  0.13730996316E+03  0.81149770543E+02 0.  0.
         23    2    1    2    0    0  0.40381447819E+02 -0.17800168163E+01  0.39389905042E+03  0.41525615710E+03  0.12508950516E+03 0.  0.
          5    1    4    4  502    0  0.25912576242E+02 -0.47444754290E+02  0.33434738264E+03  0.33871538347E+03  0.41800000000E+01 0.  1.
         -5    1    4    4    0  502  0.14468871577E+02  0.45664737473E+02  0.59551667773E+02  0.76540773629E+02  0.41800000000E+01 0.  1.
        -11    1    3    3    0    0 -0.32197914856E+02 -0.18503945839E+02  0.10859056266E+03  0.11476502965E+03  0.00000000000E+00 0. -1.
         11    1    3    3    0    0 -0.81835329634E+01  0.20283962655E+02 -0.54648581184E+01  0.22544933511E+02  0.00000000000E+00 0.  1.
</event>
<event>
 8    1  0.8061721E-006  0.1217758E+03  0.7561462E-02  0.1240196E+00
         -2   -1    0    0    0  501 -0.00000000000E+00  0.00000000000E+00  0.22933782930E+03  0.22933782930E+03  0.00000000000E+00 0.  1.
          2   -1    0    0  501    0  0.00000000000E+00 -0.00000000000E+00 -0.67266504504E+02  0.67266504504E+02  0.00000000000E+00 0. -1.
         23    2    1    2    0    0 -0.25471676809E+02  0.54651897204E+02  0.78331429164E+02  0.13444519197E+03  0.91126618846E+02 0.  0.
         23    2    1    2    0    0  0.25471676809E+02 -0.54651897204E+02  0.83739895637E+02  0.16215914183E+03  0.12509029128E+03 0.  0.
          5    1    4    4  502    0  0.65635786394E+02  0.12491841073E+01  0.60544685052E+02  0.89402171140E+02  0.41800000000E+01 0.  1.
         -5    1    4    4    0  502 -0.40164109585E+02 -0.55901081312E+02  0.23195210584E+02  0.72756970695E+02  0.41800000000E+01 0.  1.
        -11    1    3    3    0    0 -0.45731129120E+02 -0.48181411836E+01  0.27076247898E+02  0.53363600471E+02  0.00000000000E+00 0.  1.
         11    1    3    3    0    0  0.20259452311E+02  0.59470038388E+02  0.51255181266E+02  0.81081591501E+02  0.00000000000E+00 0. -1.
</event>
<event>
 8    1  0.8061721E-006  0.7835857E+02  0.7561462E-02  0.1333775E+00
          1   -1    0    0  501    0  0.00000000000E+00  0.00000000000E+00  0.14561602714E+03  0.14561602714E+03  0.00000000000E+00 0. -1.
         -1   -1    0    0    0  501 -0.00000000000E+00 -0.00000000000E+00 -0.92901655657E+02  0.92901655657E+02  0.00000000000E+00 0.  1.
         23    2    1    2    0    0  0.12783867924E+02 -0.35717020751E+02 -0.38308569642E+01  0.96089363404E+02  0.88200665779E+02 0.  0.
         23    2    1    2    0    0 -0.12783867924E+02  0.35717020751E+02  0.56545228445E+02  0.14242831939E+03  0.12509728396E+03 0.  0.
          5    1    4    4  502    0 -0.20445769704E+02  0.53983568377E+02  0.87817984481E+02  0.10517474008E+03  0.41800000000E+01 0.  1.
         -5    1    4    4    0  502  0.76619017806E+01 -0.18266547626E+02 -0.31272756036E+02  0.37253579306E+02  0.41800000000E+01 0.  1.
        -11    1    3    3    0    0  0.86199022181E+01  0.20492781560E+02  0.24434902006E+02  0.33035151678E+02  0.00000000000E+00 0. -1.
         11    1    3    3    0    0  0.41639657056E+01 -0.56209802311E+02 -0.28265758971E+02  0.63054211726E+02  0.00000000000E+00 0.  1.
</event>
<event>
 8    1  0.8061721E-006  0.1348306E+03  0.7561462E-02  0.1220459E+00
          2   -1    0    0  501    0  0.00000000000E+00  0.00000000000E+00  0.31151708407E+03  0.31151708407E+03  0.00000000000E+00 0. -1.
         -2   -1    0    0    0  501 -0.00000000000E+00 -0.00000000000E+00 -0.64315610372E+02  0.64315610372E+02  0.00000000000E+00 0.  1.
         23    2    1    2    0    0  0.63093438411E+02  0.62551088526E+02  0.87073245930E+02  0.15406197891E+03  0.90884116004E+02 0.  0.
         23    2    1    2    0    0 -0.63093438411E+02 -0.62551088526E+02  0.16012822776E+03  0.22177071553E+03  0.12509108799E+03 0.  0.
          5    1    4    4  502    0 -0.34676827547E+02 -0.96710990458E+02  0.80892851498E+02  0.13083051581E+03  0.41800000000E+01 0. -1.
         -5    1    4    4    0  502 -0.28416610864E+02  0.34159901932E+02  0.79235376265E+02  0.90940199719E+02  0.41800000000E+01 0. -1.
        -11    1    3    3    0    0  0.43379443502E+02 -0.12067812175E+02  0.53419752114E+02  0.69864713019E+02  0.00000000000E+00 0.  1.
         11    1    3    3    0    0  0.19713994909E+02  0.74618900701E+02  0.33653493816E+02  0.84197265889E+02  0.00000000000E+00 0. -1.
</event>
<event>
 8    1  0.8061721E-006  0.1174502E+03  0.7561462E-02  0.1247364E+00
         -1   -1    0    0    0  501 -0.00000000000E+00  0.00000000000E+00  0.18734709058E+02  0.18734709058E+02  0.00000000000E+00 0.  1.
          1   -1    0    0  501    0  0.00000000000E+00 -0.00000000000E+00 -0.95884203586E+03  0.95884203586E+03  0.00000000000E+00 0. -1.
         23    2    1    2    0    0  0.32426853027E+02  0.70182944806E+02 -0.36602997943E+03  0.38496402759E+03  0.90786618819E+02 0.  0.
         23    2    1    2    0    0 -0.32426853027E+02 -0.70182944806E+02 -0.57407734737E+03  0.59261271733E+03  0.12509150825E+03 0.  0.
          5    1    4    4  502    0  0.35679784066E+02 -0.19004320813E+02 -0.66626721009E+02  0.78043600333E+02  0.41800000000E+01 0. -1.
         -5    1    4    4    0  502 -0.68106637093E+02 -0.51178623993E+02 -0.50745062636E+03  0.51456911700E+03  0.41800000000E+01 0. -1.
        -11    1    3    3    0    0  0.56509838496E+02  0.35483432762E+02 -0.14084111036E+03  0.15584817681E+03  0.00000000000E+00 0.  1.
         11    1    3    3    0    0 -0.24082985469E+02  0.34699512044E+02 -0.22518886906E+03  0.22911585077E+03  0.00000000000E+00 0. -1.
</event>
<event>
 8    1  0.8061721E-006  0.1510471E+03  0.7561462E-02  0.1199192E+00
         -2   -1    0    0    0  501 -0.00000000000E+00  0.00000000000E+00  0.85847198078E+02  0.85847198078E+02  0.00000000000E+00 0.  1.
          2   -1    0    0  501    0  0.00000000000E+00 -0.00000000000E+00 -0.35642056032E+03  0.35642056032E+03  0.00000000000E+00 0. -1.
         23    2    1    2    0    0  0.51177841281E+02 -0.12426434175E+03 -0.10898809327E+03  0.19769096715E+03  0.95616504577E+02 0.  0.
         23    2    1    2    0    0 -0.51177841281E+02  0.12426434175E+03 -0.16158526897E+03  0.24457679125E+03  0.12508880685E+03 0.  0.
          5    1    4    4  502    0 -0.30943184290E+02  0.29910456804E+02  0.12916237274E+02  0.45126684629E+02  0.41800000000E+01 0. -1.
         -5    1    4    4    0  502 -0.20234656991E+02  0.94353884950E+02 -0.17450150625E+03  0.19945010662E+03  0.41800000000E+01 0. -1.
        -11    1    3    3    0    0  0.76233828561E+02 -0.74719362735E+02 -0.54311828288E+02  0.11976791923E+03  0.00000000000E+00 0.  1.
         11    1    3    3    0    0 -0.25055987280E+02 -0.49544979019E+02 -0.54676264981E+02  0.77923047918E+02  0.00000000000E+00 0. -1.
</event>
<event>
 8    1  0.8061721E-006  0.1524354E+03  0.7561462E-02  0.1197512E+00
          1   -1    0    0  501    0  0.00000000000E+00  0.00000000000E+00  0.29290728568E+02  0.29290728568E+02  0.00000000000E+00 0. -1.
         -1   -1    0    0    0  501 -0.00000000000E+00 -0.00000000000E+00 -0.82350427743E+03  0.82350427743E+03  0.00000000000E+00 0.  1.
         23    2    1    2    0    0  0.20587131408E+02 -0.10719185481E+03 -0.39915961869E+03  0.42426977986E+03  0.93608339320E+02 0.  0.
         23    2    1    2    0    0 -0.20587131408E+02  0.10719185481E+03 -0.39505393017E+03  0.42852522613E+03  0.12510930411E+03 0.  0.
          5    1    4    4  502    0 -0.66176035739E+02  0.98281759213E+02 -0.30198659080E+03  0.32442556207E+03  0.41800000000E+01 0. -1.
         -5    1    4    4    0  502  0.45588904332E+02  0.89100956017E+01 -0.93067339365E+02  0.10409966406E+03  0.41800000000E+01 0. -1.
        -11    1    3    3    0    0  0.54804333844E+02 -0.58496747181E+02 -0.27730341137E+03  0.28865648511E+03  0.00000000000E+00 0. -1.
         11    1    3    3    0    0 -0.34217202436E+02 -0.48695107634E+02 -0.12185620732E+03  0.13561329475E+03  0.00000000000E+00 0.  1.
</event>
<event>
 8    1  0.8061721E-006  0.1218902E+03  0.7561462E-02  0.1240011E+00
         -2   -1    0    0    0  501 -0.00000000000E+00  0.00000000000E+00  0.29383991721E+02  0.29383991721E+02  0.00000000000E+00 0.  1.
          2   -1    0    0  501    0  0.00000000000E+00 -0.00000000000E+00 -0.77435166415E+03  0.77435166415E+03  0.00000000000E+00 0. -1.
         23    2    1    2    0    0 -0.58338350824E+02 -0.42241743010E+02 -0.18491492772E+03  0.22538146932E+03  0.10684356879E+03 0.  0.
         23    2    1    2    0    0  0.58338350824E+02  0.42241743010E+02 -0.56005274472E+03  0.57835418656E+03  0.12508701056E+03 0.  0.
          5    1    4    4  502    0  0.66808120924E+02 -0.21183474667E+02 -0.39671441350E+03  0.40287946448E+03  0.41800000000E+01 0. -1.
         -5    1    4    4    0  502 -0.84697701001E+01  0.63425217677E+02 -0.16333833122E+03  0.17547472208E+03  0.41800000000E+01 0. -1.
        -11    1    3    3    0    0 -0.23858578502E+02 -0.64252250443E+02 -0.51205200931E+02  0.85554404080E+02  0.00000000000E+00 0.  1.
         11    1    3    3    0    0 -0.34479772322E+02  0.22010507432E+02 -0.13370972678E+03  0.13982706524E+03  0.00000000000E+00 0. -1.
</event>
<event>
 8    1  0.8061721E-006  0.9693487E+02  0.7561462E-02  0.1286877E+00
          2   -1    0    0  501    0  0.00000000000E+00  0.00000000000E+00  0.31156455538E+03  0.31156455538E+03  0.00000000000E+00 0. -1.
         -2   -1    0    0    0  501 -0.00000000000E+00 -0.00000000000E+00 -0.45823004533E+02  0.45823004533E+02  0.00000000000E+00 0.  1.
         23    2    1    2    0    0  0.29010932987E+02  0.35613024379E+02  0.89465396890E+02  0.13641061328E+03  0.92162228909E+02 0.  0.
         23    2    1    2    0    0 -0.29010932987E+02 -0.35613024379E+02  0.17627615396E+03  0.22097694663E+03  0.12509039432E+03 0.  0.
          5    1    4    4  502    0  0.37435619456E+02  0.14882545408E+02  0.23456350496E+02  0.46803723575E+02  0.41800000000E+01 0.  1.
         -5    1    4    4    0  502 -0.66446552443E+02 -0.50495569787E+02  0.15281980346E+03  0.17417322305E+03  0.41800000000E+01 0.  1.
        -11    1    3    3    0    0  0.36621228770E+02  0.44809227312E+02  0.10313570101E+03  0.11826222589E+03  0.00000000000E+00 0. -1.
         11    1    3    3    0    0 -0.76102957830E+01 -0.91962029332E+01 -0.13670304121E+02  0.18148387395E+02  0.00000000000E+00 0.  1.
</event>
<event>
 8    1  0.8061721E-006  0.1132596E+03  0.7561462E-02  0.1254650E+00
         -2   -1    0    0    0  501 -0.00000000000E+00  0.00000000000E+00  0.36260067360E+02  0.36260067360E+02  0.00000000000E+00 0.  1.
          2   -1    0    0  501    0  0.00000000000E+00 -0.00000000000E+00 -0.58473483887E+03  0.58473483887E+03  0.00000000000E+00 0. -1.
         23    2    1    2    0    0 -0.14508504721E+00  0.80384316972E+02 -0.16130849587E+03  0.20819399651E+03  0.10422403695E+03 0.  0.
         23    2    1    2    0    0  0.14508504721E+00 -0.80384316972E+02 -0.38716627564E+03  0.41280090972E+03  0.11851247449E+03 0.  0.
          5    1    4    4  502    0 -0.26261606994E+02 -0.59154499171E+02 -0.36795540861E+03  0.37362759788E+03  0.41800000000E+01 0. -1.
         -5    1    4    4    0  502  0.26406692042E+02 -0.21229817801E+02 -0.19210867031E+02  0.39173311840E+02  0.41800000000E+01 0.  1.
        -11    1    3    3    0    0 -0.26539883823E+02  0.94104566016E+02 -0.98976053868E+02  0.13912689897E+03  0.00000000000E+00 0.  1.
         11    1    3    3    0    0  0.26394798776E+02 -0.13720249044E+02 -0.62332442004E+02  0.69067097538E+02  0.00000000000E+00 0. -1.
</event>
<event>
 8    1  0.8061721E-006  0.8442805E+02  0.7561462E-02  0.1316935E+00
          2   -1    0    0  501    0  0.00000000000E+00  0.00000000000E+00  0.69941569618E+03  0.69941569618E+03  0.00000000000E+00 0. -1.
         -2   -1    0    0    0  501 -0.00000000000E+00 -0.00000000000E+00 -0.37373252355E+02  0.37373252355E+02  0.00000000000E+00 0.  1.
         23    2    1    2    0    0 -0.40030177374E+02 -0.72631904283E+02  0.10888812687E+03  0.16394411319E+03  0.90239899460E+02 0.  0.
         23    2    1    2    0    0  0.40030177374E+02  0.72631904283E+02  0.55315431696E+03  0.57284483535E+03  0.12366769344E+03 0.  0.
          5    1    4    4  502    0  0.27945203387E+02  0.64486979617E+02  0.55322148480E+03  0.55768359181E+03  0.41800000000E+01 0. -1.
         -5    1    4    4    0  502  0.12084973987E+02  0.81449246663E+01 -0.67167844941E-01  0.15161243537E+02  0.41800000000E+01 0.  1.
        -11    1    3    3    0    0 -0.29446065712E+02 -0.45844221010E+02  0.33976571258E+01  0.54592192298E+02  0.00000000000E+00 0.  1.
         11    1    3    3    0    0 -0.10584111662E+02 -0.26787683273E+02  0.10549046975E+03  0.10935192089E+03  0.00000000000E+00 0. -1.
</event>
<event>
 8    1  0.8061721E-006  0.1006187E+03  0.7561462E-02  0.1279000E+00
         -2   -1    0    0    0  501 -0.00000000000E+00  0.00000000000E+00  0.18755350584E+02  0.18755350584E+02  0.00000000000E+00 0.  1.
          2   -1    0    0  501    0  0.00000000000E+00 -0.00000000000E+00 -0.69530575148E+03  0.69530575148E+03  0.00000000000E+00 0. -1.
         23    2    1    2    0    0 -0.31368301722E+02 -0.72483998302E+01 -0.18311901747E+03  0.20727664370E+03  0.91621628521E+02 0.  0.
         23    2    1    2    0    0  0.31368301722E+02  0.72483998302E+01 -0.49343138343E+03  0.50678445836E+03  0.11099300623E+03 0.  0.
          5    1    4    4  502    0 -0.37098866180E+01 -0.44492629376E+02 -0.11941045294E+03  0.12755267931E+03  0.41800000000E+01 0. -1.
         -5    1    4    4    0  502  0.35078188340E+02  0.51741029206E+02 -0.37402093049E+03  0.37923177905E+03  0.41800000000E+01 0.  1.
        -11    1    3    3    0    0 -0.61269025960E+02  0.49120263476E+01 -0.14393231623E+03  0.15650729440E+03  0.00000000000E+00 0. -1.
         11    1    3    3    0    0  0.29900724238E+02 -0.12160426178E+02 -0.39186701242E+02  0.50769349307E+02  0.00000000000E+00 0.  1.
</event>
<event>
 8    1  0.8061721E-006  0.8428367E+02  0.7561462E-02  0.1317317E+00
         -3   -1    0    0    0  501 -0.00000000000E+00  0.00000000000E+00  0.20368027288E+02  0.20368027288E+02  0.00000000000E+00 0.  1.
          3   -1    0    0  501    0  0.00000000000E+00 -0.00000000000E+00 -0.63683116162E+03  0.63683116162E+03  0.00000000000E+00 0. -1.
         23    2    1    2    0    0 -0.81580271541E+00 -0.31978253482E+02 -0.19822571590E+03  0.21948650342E+03  0.88643197764E+02 0.  0.
         23    2    1    2    0    0  0.81580271541E+00  0.31978253482E+02 -0.41823741844E+03  0.43771268549E+03  0.12508630073E+03 0.  0.
          5    1    4    4  502    0 -0.51284008490E+02  0.34259087806E+02 -0.12067752735E+03  0.13558861542E+03  0.41800000000E+01 0. -1.
         -5    1    4    4    0  502  0.52099811205E+02 -0.22808343237E+01 -0.29755989109E+03  0.30212407008E+03  0.41800000000E+01 0. -1.
        -11    1    3    3    0    0 -0.21037276154E+02 -0.25800988467E+02 -0.19532836278E+03  0.19814496537E+03  0.00000000000E+00 0. -1.
         11    1    3    3    0    0  0.20221473439E+02 -0.61772650151E+01 -0.28973531119E+01  0.21341538046E+02  0.00000000000E+00 0.  1.
</event>
<event>
 7    1  0.8061721E-006  0.5970499E+02  0.7561462E-02  0.1399074E+00
          2   -1    0    0  501    0  0.00000000000E+00  0.00000000000E+00  0.99751991602E+03  0.99751991602E+03  0.00000000000E+00 0. -1.
         -2   -1    0    0    0  501 -0.00000000000E+00 -0.00000000000E+00 -0.14605624889E+02  0.14605624889E+02  0.00000000000E+00 0.  1.
         23    2    1    2    0    0 -0.14287468366E+02 -0.11715495590E+02  0.22803881203E+03  0.24562173401E+03  0.89369747876E+02 0.  0.
          5    1    1    2  502    0 -0.18758062735E+01  0.10818572916E+02  0.74852820352E+03  0.74862040049E+03  0.41800000000E+01 0. -1.
         -5    1    1    2    0  502  0.16163274640E+02  0.89692267404E+00  0.63472755742E+01  0.17883406403E+02  0.41800000000E+01 0.  1.
        -11    1    3    3    0    0 -0.21721587693E+02  0.36328091661E+02  0.95977594660E+02  0.10489640743E+03  0.00000000000E+00 0. -1.
         11    1    3    3    0    0  0.74341193269E+01 -0.48043587251E+02  0.13206121737E+03  0.14072532658E+03  0.00000000000E+00 0.  1.
</event>
<event>
 8    1  0.8061721E-006  0.9718201E+02  0.7561462E-02  0.1286336E+00
         -2   -1    0    0    0  501 -0.00000000000E+00  0.00000000000E+00  0.47967565549E+02  0.47967565549E+02  0.00000000000E+00 0.  1.
          2   -1    0    0  501    0  0.00000000000E+00 -0.00000000000E+00 -0.32245319266E+03  0.32245319266E+03  0.00000000000E+00 0. -1.
         23    2    1    2    0    0  0.55203375260E+02  0.90045033345E+01 -0.15491124946E+03  0.18855884349E+03  0.91806582153E+02 0.  0.
         23    2    1    2    0    0 -0.55203375260E+02 -0.90045033345E+01 -0.11957437765E+03  0.18186191472E+03  0.12508889046E+03 0.  0.
          5    1    4    4  502    0 -0.38043561422E+02 -0.66092535561E+02 -0.77276737564E+02  0.10864944727E+03  0.41800000000E+01 0.  1.
         -5    1    4    4    0  502 -0.17159813837E+02  0.57088032227E+02 -0.42297640084E+02  0.73212467457E+02  0.41800000000E+01 0.  1.
        -11    1    3    3    0    0  0.22331116543E+02  0.11771478716E+02  0.46109609740E+01  0.25661399773E+02  0.00000000000E+00 0.  1.
         11    1    3    3    0    0  0.32872258717E+02 -0.27669753816E+01 -0.15952221044E+03  0.16289744371E+03  0.00000000000E+00 0. -1.
</event>
<event>
 8    1  0.8061721E-006  0.2084222E+03  0.7561462E-02  0.1142822E+00
         -1   -1    0    0    0  501 -0.00000000000E+00  0.00000000000E+00  0.16436279794E+03  0.16436279794E+03  0.00000000000E+00 0.  1.
          1   -1    0    0  501    0  0.00000000000E+00 -0.00000000000E+00 -0.83691662769E+03  0.83691662769E+03  0.00000000000E+00 0. -1.
         23    2    1    2    0    0  0.11042547949E+03  0.14077329501E+03  0.81322497399E+02  0.21643008856E+03  0.90651682522E+02 0.  0.
         23    2    1    2    0    0 -0.11042547949E+03 -0.14077329501E+03 -0.75387632715E+03  0.78484933706E+03  0.12509219858E+03 0.  0.
          5    1    4    4  502    0 -0.35220121371E+02 -0.13847883252E+03 -0.49598757174E+03  0.51617631458E+03  0.41800000000E+01 0. -1.
         -5    1    4    4    0  502 -0.75205358120E+02 -0.22944624873E+01 -0.25788875541E+03  0.26867302249E+03  0.41800000000E+01 0. -1.
        -11    1    3    3    0    0  0.29971848615E+02  0.10728765187E+03  0.60777421051E+02  0.12689699312E+03  0.00000000000E+00 0.  1.
         11    1    3    3    0    0  0.80453630876E+02  0.33485643137E+02  0.20545076348E+02  0.89533095443E+02  0.00000000000E+00 0. -1.
</event>
<event>
 8    1  0.8061721E-006  0.1043879E+03  0.7561462E-02  0.1271330E+00
          1   -1    0    0  501    0  0.00000000000E+00  0.00000000000E+00  0.79184092219E+03  0.79184092219E+03  0.00000000000E+00 0. -1.
         -1   -1    0    0    0  501 -0.00000000000E+00 -0.00000000000E+00 -0.23400789851E+02  0.23400789851E+02  0.00000000000E+00 0.  1.
         23    2    1    2    0    0 -0.74157175383E+02  0.20511655754E+01  0.26340766827E+03  0.28968736956E+03  0.95035143162E+02 0.  0.
         23    2    1    2    0    0  0.74157175383E+02 -0.20511655754E+01  0.50503246407E+03  0.52555434248E+03  0.12508430437E+03 0.  0.
          5    1    4    4  502    0  0.87630530510E+02 -0.34745637215E+01  0.18058680710E+03  0.20079902830E+03  0.41800000000E+01 0.  1.
         -5    1    4    4    0  502 -0.13473355127E+02  0.14233981461E+01  0.32444565697E+03  0.32475531418E+03  0.41800000000E+01 0.  1.
        -11    1    3    3    0    0  0.61349251705E+01 -0.22113536854E+02  0.14768077304E+02  0.27289960174E+02  0.00000000000E+00 0.  1.
         11    1    3    3    0    0 -0.80292100553E+02  0.24164702429E+02  0.24863959097E+03  0.26239740939E+03  0.00000000000E+00 0. -1.
</event>
<event>
 8    1  0.8061721E-006  0.1073028E+03  0.7561462E-02  0.1265648E+00
         -1   -1    0    0    0  501 -0.00000000000E+00  0.00000000000E+00  0.35713080140E+03  0.35713080140E+03  0.00000000000E+00 0.  1.
          1   -1    0    0  501    0  0.00000000000E+00 -0.00000000000E+00 -0.32871588476E+02  0.32871588476E+02  0.00000000000E+00 0. -1.
         23    2    1    2    0    0 -0.89732327391E+01 -0.96079349325E+00  0.13622187253E+03  0.16397460114E+03  0.90828570575E+02 0.  0.
         23    2    1    2    0    0  0.89732327391E+01  0.96079349325E+00  0.18803734040E+03  0.22602778874E+03  0.12509627440E+03 0.  0.
          5    1    4    4  502    0 -0.51684422858E+02 -0.24727477872E+02  0.10760244375E+03  0.12197739967E+03  0.41800000000E+01 0. -1.
         -5    1    4    4    0  502  0.60657655598E+02  0.25688271366E+02  0.80434896647E+02  0.10405038908E+03  0.41800000000E+01 0. -1.
        -11    1    3    3    0    0 -0.50035259229E+02 -0.20379090245E+01  0.70585725369E+02  0.86544929749E+02  0.00000000000E+00 0.  1.
         11    1    3    3    0    0  0.41062026490E+02  0.10771155312E+01  0.65636147161E+02  0.77429671390E+02  0.00000000000E+00 0. -1.
</event>
<event>
 8    1  0.8061721E-006  0.1913544E+03  0.7561462E-02  0.1157245E+00
          1   -1    0    0  501    0  0.00000000000E+00  0.00000000000E+00  0.11694276731E+04  0.11694276731E+04  0.00000000000E+00 0. -1.
         -1   -1    0    0    0  501 -0.00000000000E+00 -0.00000000000E+00 -0.32257361781E+02  0.32257361781E+02  0.00000000000E+00 0.  1.
         23    2    1    2    0    0 -0.96534322913E+02  0.12089604872E+03  0.48342788243E+03  0.51833926562E+03  0.10506353639E+03 0.  0.
         23    2    1    2    0    0  0.96534322913E+02 -0.12089604872E+03  0.65374242890E+03  0.68334576927E+03  0.12509015524E+03 0.  0.
          5    1    4    4  502    0 -0.29098131970E+02 -0.31173121615E+02  0.18160769973E+03  0.18659392754E+03  0.41800000000E+01 0. -1.
         -5    1    4    4    0  502  0.12563245488E+03 -0.89722927106E+02  0.47213472918E+03  0.49675184173E+03  0.41800000000E+01 0. -1.
        -11    1    3    3    0    0 -0.41905546194E+02 -0.10432949673E+02  0.14336363172E+03  0.14972659129E+03  0.00000000000E+00 0. -1.
         11    1    3    3    0    0 -0.54628776718E+02  0.13132899839E+03  0.34006425071E+03  0.36861267433E+03  0.00000000000E+00 0.  1.
</event>
<event>
 8    1  0.8061721E-006  0.9700767E+02  0.7561462E-02  0.1286717E+00
          2   -1    0    0  501    0  0.00000000000E+00  0.00000000000E+00  0.11041138456E+04  0.11041138456E+04  0.00000000000E+00 0. -1.
         -2   -1    0    0    0  501 -0.00000000000E+00 -0.00000000000E+00 -0.49640399224E+02  0.49640399224E+02  0.00000000000E+00 0.  1.
         23    2    1    2    0    0  0.21571999996E+02 -0.26389788849E+02  0.46131694706E+01  0.96598315793E+02  0.90267276143E+02 0.  0.
         23    2    1    2    0    0 -0.21571999996E+02  0.26389788849E+02  0.10498602769E+04  0.10571559290E+04  0.11920690048E+03 0.  0.
          5    1    4    4  502    0 -0.66965009866E+02  0.32947108699E+02  0.52755248132E+03  0.53282165634E+03  0.41800000000E+01 0. -1.
         -5    1    4    4    0  502  0.45393009870E+02 -0.65573198500E+01  0.52230779554E+03  0.52433427264E+03  0.41800000000E+01 0.  1.
        -11    1    3    3    0    0  0.38442273494E+02  0.37995388931E+01  0.33812048540E+02  0.51337116336E+02  0.00000000000E+00 0. -1.
         11    1    3    3    0    0 -0.16870273499E+02 -0.30189327742E+02 -0.29198879069E+02  0.45261199458E+02  0.00000000000E+00 0.  1.
</event>
<event>
 8    1  0.8061721E-006  0.6119833E+02  0.7561462E-02  0.1392871E+00
         -1   -1    0    0    0  501 -0.00000000000E+00  0.00000000000E+00  0.38532949197E+02  0.38532949197E+02  0.00000000000E+00 0.  1.
          1   -1    0    0  501    0  0.00000000000E+00 -0.00000000000E+00 -0.34649149151E+03  0.34649149151E+03  0.00000000000E+00 0. -1.
         23    2    1    2    0    0  0.29125596284E+02 -0.64769957954E+01 -0.86669031850E+02  0.12907899772E+03  0.90882422591E+02 0.  0.
         23    2    1    2    0    0 -0.29125596284E+02  0.64769957954E+01 -0.22128951047E+03  0.25594544299E+03  0.12509504592E+03 0.  0.
          5    1    4    4  502    0 -0.10796102188E+02 -0.29878193652E+02 -0.11814797950E+01  0.32064475247E+02  0.41800000000E+01 0. -1.
         -5    1    4    4    0  502 -0.18329494096E+02  0.36355189447E+02 -0.22010803067E+03  0.22388096775E+03  0.41800000000E+01 0. -1.
        -11    1    3    3    0    0  0.22226031160E+02  0.15035250121E+02 -0.99529519156E+02  0.10308336622E+03  0.00000000000E+00 0. -1.
         11    1    3    3    0    0  0.68995651238E+01 -0.21512245917E+02  0.12860487305E+02  0.25995631499E+02  0.00000000000E+00 0.  1.
</event>
<event>
 8    1  0.8061721E-006  0.2451306E+03  0.7561462E-02  0.1116421E+00
          1   -1    0    0  501    0  0.00000000000E+00  0.00000000000E+00  0.14328872930E+04  0.14328872930E+04  0.00000000000E+00 0. -1.
         -1   -1    0    0    0  501 -0.00000000000E+00 -0.00000000000E+00 -0.11609379149E+03  0.11609379149E+03  0.00000000000E+00 0.  1.
         23    2    1    2    0    0  0.21454661712E+03  0.10089825057E+03  0.55954268007E+02  0.25996119612E+03  0.90764726047E+02 0.  0.
         23    2    1    2    0    0 -0.21454661712E+03 -0.10089825057E+03  0.12608392335E+04  0.12890198883E+04  0.12508393980E+03 0.  0.
          5    1    4    4  502    0 -0.15196013871E+03 -0.26690982665E+02  0.53874765547E+03  0.56042020037E+03  0.41800000000E+01 0.  1.
         -5    1    4    4    0  502 -0.62586478418E+02 -0.74207267908E+02  0.72209157798E+03  0.72859968795E+03  0.41800000000E+01 0.  1.
        -11    1    3    3    0    0  0.16064133607E+03  0.61619038661E+02 -0.13012268723E+01  0.17205882126E+03  0.00000000000E+00 0.  1.
         11    1    3    3    0    0  0.53905281052E+02  0.39279211913E+02  0.57255494880E+02  0.87902374869E+02  0.00000000000E+00 0. -1.
</event>
<event>
 8    1  0.8061721E-006  0.9654863E+02  0.7561462E-02  0.1287726E+00
         -2   -1    0    0    0  501 -0.00000000000E+00  0.00000000000E+00  0.37024358579E+02  0.37024358579E+02  0.00000000000E+00 0.  1.
          2   -1    0    0  501    0  0.00000000000E+00 -0.00000000000E+00 -0.83608519167E+03  0.83608519167E+03  0.00000000000E+00 0. -1.
         23    2    1    2    0    0 -0.37061695577E+02 -0.26614804119E+02 -0.52012671332E+02  0.11428836979E+03  0.90964808651E+02 0.  0.
         23    2    1    2    0    0  0.37061695577E+02  0.26614804119E+02 -0.74704816176E+03  0.75882118046E+03  0.12508681325E+03 0.  0.
          5    1    4    4  502    0 -0.25911403887E+02 -0.29703285402E+02 -0.12732910823E+03  0.13335614053E+03  0.41800000000E+01 0.  1.
         -5    1    4    4    0  502  0.62973099463E+02  0.56318089521E+02 -0.61971905353E+03  0.62546503992E+03  0.41800000000E+01 0.  1.
        -11    1    3    3    0    0  0.11505152852E+02  0.31278585438E+01  0.19508126119E+02  0.22863049356E+02  0.00000000000E+00 0.  1.
         11    1    3    3    0    0 -0.48566848428E+02 -0.29742662663E+02 -0.71520797450E+02  0.91425320434E+02  0.00000000000E+00 0. -1.
</event>
<event>
 8    1  0.8061721E-006  0.1448433E+03  0.7561462E-02  0.1206957E+00
          2   -1    0    0  501    0  0.00000000000E+00  0.00000000000E+00  0.35017700790E+03  0.35017700790E+03  0.00000000000E+00 0. -1.
         -2   -1    0    0    0  501 -0.00000000000E+00 -0.00000000000E+00 -0.62435537288E+02  0.62435537288E+02  0.00000000000E+00 0.  1.
         23    2    1    2    0    0  0.10094237190E+03  0.24531294586E+01  0.14223966182E+03  0.19578627135E+03  0.88908730540E+02 0.  0.
         23    2    1    2    0    0 -0.10094237190E+03 -0.24531294586E+01  0.14550180879E+03  0.21682627383E+03  0.12508987318E+03 0.  0.
          5    1    4    4  502    0  0.14942947842E+02 -0.32244493277E+02  0.59432079460E+02  0.69373218938E+02  0.41800000000E+01 0. -1.
         -5    1    4    4    0  502 -0.11588531975E+03  0.29791363819E+02  0.86069729331E+02  0.14745305489E+03  0.41800000000E+01 0. -1.
        -11    1    3    3    0    0  0.37510844433E+01  0.32291025501E+02  0.28516732397E+02  0.43243323058E+02  0.00000000000E+00 0. -1.
         11    1    3    3    0    0  0.97191287460E+02 -0.29837896043E+02  0.11372292942E+03  0.15254294829E+03  0.00000000000E+00 0.  1.
</event>
<event>
 7    1  0.8061721E-006  0.1051735E+03  0.7561462E-02  0.1269778E+00
         -1   -1    0    0    0  501 -0.00000000000E+00  0.00000000000E+00  0.21189109771E+03  0.21189109771E+03  0.00000000000E+00 0.  1.
          1   -1    0    0  501    0  0.00000000000E+00 -0.00000000000E+00 -0.10731960637E+03  0.10731960637E+03  0.00000000000E+00 0. -1.
         23    2    1    2    0    0 -0.64496044370E+02  0.49799534897E+02  0.52466243725E+02  0.13332504668E+03  0.91559422922E+02 0.  0.
          5    1    1    2  502    0  0.25464337624E+02  0.14553382518E+01 -0.55032501389E+02  0.60799663726E+02  0.41800000000E+01 0. -1.
         -5    1    1    2    0  502  0.39031706745E+02 -0.51254873149E+02  0.10713774900E+03  0.12508599368E+03  0.41800000000E+01 0.  1.
        -11    1    3    3    0    0 -0.16326987688E+02  0.66871501032E+02  0.43530273824E+02  0.81444784464E+02  0.00000000000E+00 0.  1.
         11    1    3    3    0    0 -0.48169056681E+02 -0.17071966135E+02  0.89359699009E+01  0.51880262214E+02  0.00000000000E+00 0. -1.
</event>
<event>
 8    1  0.8061721E-006  0.1070523E+03  0.7561462E-02  0.1266128E+00
         -2   -1    0    0    0  501 -0.00000000000E+00  0.00000000000E+00  0.10426892780E+03  0.10426892780E+03  0.00000000000E+00 0.  1.
          2   -1    0    0  501    0  0.00000000000E+00 -0.00000000000E+00 -0.15691459614E+03  0.15691459614E+03  0.00000000000E+00 0. -1.
         23    2    1    2    0    0 -0.10516581678E+02  0.22520910521E+02  0.39967155451E+02  0.10281371080E+03  0.91408400669E+02 0.  0.
         23    2    1    2    0    0  0.10516581678E+02 -0.22520910521E+02 -0.92612823788E+02  0.15836981314E+03  0.12603996463E+03 0.  0.
          5    1    4    4  502    0  0.47324839653E+02 -0.58726272421E+02 -0.65090845537E+02  0.99713118963E+02  0.41800000000E+01 0. -1.
         -5    1    4    4    0  502 -0.36808257974E+02  0.36205361900E+02 -0.27521978251E+02  0.58656694181E+02  0.41800000000E+01 0.  1.
        -11    1    3    3    0    0  0.31486996409E+02  0.30699196582E+02  0.40836653941E+02  0.60012531347E+02  0.00000000000E+00 0. -1.
         11    1    3    3    0    0 -0.42003578087E+02 -0.81782860602E+01 -0.86949849021E+00  0.42801179453E+02  0.00000000000E+00 0.  1.
</event>
<event>
 8    1  0.8061721E-006  0.2150163E+03  0.7561462E-02  0.1137654E+00
         -1   -1    0    0    0  501 -0.00000000000E+00  0.00000000000E+00  0.64391575668E+03  0.64391575668E+03  0.00000000000E+00 0.  1.
          1   -1    0    0  501    0  0.00000000000E+00 -0.00000000000E+00 -0.98109565179E+02  0.98109565179E+02  0.00000000000E+00 0. -1.
         23    2    1    2    0    0 -0.12643609022E+03  0.17290788523E+03  0.37419994775E+03  0.44039804837E+03  0.89675071378E+02 0.  0.
         23    2    1    2    0    0  0.12643609022E+03 -0.17290788523E+03  0.17160624375E+03  0.30162727349E+03  0.12508831894E+03 0.  0.
          5    1    4    4  502    0  0.93744111276E+02 -0.13847253957E+03  0.18760533106E+03  0.25134803610E+03  0.41800000000E+01 0. -1.
         -5    1    4    4    0  502  0.32691978944E+02 -0.34435345659E+02 -0.15999087301E+02  0.50279237389E+02  0.41800000000E+01 0. -1.
        -11    1    3    3    0    0 -0.98610515014E+02  0.12003255076E+03  0.18281195438E+03  0.23990009916E+03  0.00000000000E+00 0.  1.
         11    1    3    3    0    0 -0.27825575206E+02  0.52875334466E+02  0.19138799336E+03  0.20049794920E+03  0.00000000000E+00 0. -1.
</event>
<event>
 7    1  0.8061721E-006  0.1115977E+03  0.7561462E-02  0.1257639E+00
          2   -1    0    0  501    0  0.00000000000E+00  0.00000000000E+00  0.80490987569E+03  0.80490987569E+03  0.00000000000E+00 0. -1.
         -2   -1    0    0    0  501 -0.00000000000E+00 -0.00000000000E+00 -0.20398083226E+02  0.20398083226E+02  0.00000000000E+00 0.  1.
         23    2    1    2    0    0  0.42015055112E+02 -0.68439657209E+02  0.66748539050E+03  0.68244695155E+03  0.11725119876E+03 0.  0.
          5    1    3    3  502    0  0.77420362731E+02 -0.16967002087E+02  0.35827738172E+03  0.36696314036E+03  0.41800000000E+01 0. -1.
         -5    1    3    3    0  502 -0.35405307620E+02 -0.51472655122E+02  0.30920800877E+03  0.31548381119E+03  0.41800000000E+01 0.  1.
        -11    1    1    2    0    0 -0.24982860399E+02  0.29146715316E+02  0.45902341406E+02  0.59838944459E+02  0.00000000000E+00 0.  1.
         11    1    1    2    0    0 -0.17032194713E+02  0.39292941893E+02  0.71124060561E+02  0.83022062911E+02  0.00000000000E+00 0. -1.
</event>
<event>
 8    1  0.8061721E-006  0.1073519E+03  0.7561462E-02  0.1265554E+00
         -2   -1    0    0    0  501 -0.00000000000E+00  0.00000000000E+00  0.66251099575E+02  0.66251099575E+02  0.00000000000E+00 0.  1.
          2   -1    0    0  501    0  0.00000000000E+00 -0.00000000000E+00 -0.28328847046E+03  0.28328847046E+03  0.00000000000E+00 0. -1.
         23    2    1    2    0    0 -0.19079197555E+02  0.67270598706E+02 -0.42656634680E+02  0.12382955798E+03  0.92869918262E+02 0.  0.
         23    2    1    2    0    0  0.19079197555E+02 -0.67270598706E+02 -0.17438073621E+03  0.22571001205E+03  0.12508804560E+03 0.  0.
          5    1    4    4  502    0 -0.50942765730E+02 -0.18452948629E+02 -0.92919312331E+02  0.10764361429E+03  0.41800000000E+01 0.  1.
         -5    1    4    4    0  502  0.70021963285E+02 -0.48817650077E+02 -0.81461423875E+02  0.11806639776E+03  0.41800000000E+01 0.  1.
        -11    1    3    3    0    0 -0.25991570751E+02  0.54377802002E+02 -0.70272533759E+02  0.92578270137E+02  0.00000000000E+00 0. -1.
         11    1    3    3    0    0  0.69123731957E+01  0.12892796704E+02  0.27615899078E+02  0.31251287845E+02  0.00000000000E+00 0.  1.
</event>
<event>
 8    1  0.8061721E-006  0.8336684E+02  0.7561462E-02  0.1319760E+00
         -1   -1    0    0    0  501 -0.00000000000E+00  0.00000000000E+00  0.15249623686E+02  0.15249623686E+02  0.00000000000E+00 0.  1.
          1   -1    0    0  501    0  0.00000000000E+00 -0.00000000000E+00 -0.87027972511E+03  0.87027972511E+03  0.00000000000E+00 0. -1.
         23    2    1    2    0    0  0.83099365851E+01 -0.64773552837E+01 -0.16620854718E+03  0.18700545447E+03  0.85057319894E+02 0.  0.
         23    2    1    2    0    0 -0.83099365851E+01  0.64773552837E+01 -0.68882155425E+03  0.69852389433E+03  0.11553997654E+03 0.  0.
          5    1    4    4  502    0 -0.45229879438E+02  0.68219698993E+01 -0.60612680553E+03  0.60786467083E+03  0.41800000000E+01 0. -1.
         -5    1    4    4    0  502  0.36919942853E+02 -0.34461461560E+00 -0.82694748718E+02  0.90659223497E+02  0.41800000000E+01 0.  1.
        -11    1    3    3    0    0 -0.31969949024E+02  0.17822503548E+02 -0.52984499983E+02  0.64397798967E+02  0.00000000000E+00 0. -1.
         11    1    3    3    0    0  0.40279885609E+02 -0.24299858832E+02 -0.11322404720E+03  0.12260765550E+03  0.00000000000E+00 0.  1.
</event>
<event>
 8    1  0.8061721E-006  0.1247606E+03  0.7561462E-02  0.1235444E+00
          1   -1    0    0  501    0  0.00000000000E+00  0.00000000000E+00  0.72142609456E+03  0.72142609456E+03  0.00000000000E+00 0. -1.
         -1   -1    0    0    0  501 -0.00000000000E+00 -0.00000000000E+00 -0.27164312104E+02  0.27164312104E+02  0.00000000000E+00 0.  1.
         23    2    1    2    0    0 -0.79853832152E+02 -0.29243971062E+01  0.20522073300E+03  0.23751792393E+03  0.88960824685E+02 0.  0.
         23    2    1    2    0    0  0.79853832152E+02  0.29243971062E+01  0.48904104946E+03  0.51107248273E+03  0.12509495571E+03 0.  0.
          5    1    4    4  502    0  0.15741535380E+02 -0.56898395675E+02  0.23303736225E+03  0.24043524694E+03  0.41800000000E+01 0. -1.
         -5    1    4    4    0  502  0.64112296772E+02  0.59822792782E+02  0.25600368720E+03  0.27063723579E+03  0.41800000000E+01 0. -1.
        -11    1    3    3    0    0 -0.72676747391E+02  0.22541547561E+02  0.83564837454E+02  0.11301819781E+03  0.00000000000E+00 0.  1.
         11    1    3    3    0    0 -0.71770847614E+01 -0.25465944667E+02  0.12165589554E+03  0.12449972612E+03  0.00000000000E+00 0. -1.
</event>
<event>
 8    1  0.8061721E-006  0.1004336E+03  0.7561462E-02  0.1279387E+00
          1   -1    0    0  501    0  0.00000000000E+00  0.00000000000E+00  0.79525074884E+03  0.79525074884E+03  0.00000000000E+00 0. -1.
         -1   -1    0    0    0  501 -0.00000000000E+00 -0.00000000000E+00 -0.19429442349E+02  0.19429442349E+02  0.00000000000E+00 0.  1.
         23    2    1    2    0    0  0.32568658645E+02 -0.17903016636E+02  0.18111632357E+03  0.20582653406E+03  0.90444479824E+02 0.  0.
         23    2    1    2    0    0 -0.32568658645E+02  0.17903016636E+02  0.59470498292E+03  0.60885365713E+03  0.12509006176E+03 0.  0.
          5    1    4    4  502    0  0.21920278734E+02  0.42335003416E+02  0.44587783368E+03  0.44843869827E+03  0.41800000000E+01 0.  1.
         -5    1    4    4    0  502 -0.54488937379E+02 -0.24431986779E+02  0.14882714924E+03  0.16041495886E+03  0.41800000000E+01 0.  1.
        -11    1    3    3    0    0  0.60419837955E+02 -0.23341596805E+02  0.93611206369E+02  0.11383516556E+03  0.00000000000E+00 0.  1.
         11    1    3    3    0    0 -0.27851179310E+02  0.54385801687E+01  0.87505117196E+02  0.91991368501E+02  0.00000000000E+00 0. -1.
</event>
<event>
 8    1  0.8061721E-006  0.1043748E+03  0.7561462E-02  0.1271356E+00
         -2   -1    0    0    0  501 -0.00000000000E+00  0.00000000000E+00  0.55330484424E+02  0.55330484424E+02  0.00000000000E+00 0.  1.
          2   -1    0    0  501    0  0.00000000000E+00 -0.00000000000E+00 -0.25818440029E+03  0.25818440029E+03  0.00000000000E+00 0. -1.
         23    2    1    2    0    0 -0.20790075676E+02 -0.32560817938E+02 -0.56619738684E+02  0.11723572276E+03  0.95110387289E+02 0.  0.
         23    2    1    2    0    0  0.20790075676E+02  0.32560817938E+02 -0.14623417718E+03  0.19627916196E+03  0.12509452718E+03 0.  0.
          5    1    4    4  502    0  0.52279318639E+02 -0.20727052802E+02 -0.11206483332E+03  0.12545412366E+03  0.41800000000E+01 0.  1.
         -5    1    4    4    0  502 -0.31489242963E+02  0.53287870739E+02 -0.34169343858E+02  0.70825038298E+02  0.41800000000E+01 0.  1.
        -11    1    3    3    0    0 -0.47171061882E+02  0.15504620000E+01 -0.57138589844E+02  0.74110265556E+02  0.00000000000E+00 0. -1.
         11    1    3    3    0    0  0.26380986206E+02 -0.34111279937E+02  0.51885115925E+00  0.43125457200E+02  0.00000000000E+00 0.  1.
</event>
<event>
 8    1  0.8061721E-006  0.1569141E+03  0.7561462E-02  0.1192225E+00
         -1   -1    0    0    0  501 -0.00000000000E+00  0.00000000000E+00  0.39419799411E+03  0.39419799411E+03  0.00000000000E+00 0.  1.
          1   -1    0    0  501    0  0.00000000000E+00 -0.00000000000E+00 -0.95725539620E+02  0.95725539620E+02  0.00000000000E+00 0. -1.
         23    2    1    2    0    0  0.14476067139E+02  0.13957309870E+03  0.24059996629E+03  0.29323865689E+03  0.91708013350E+02 0.  0.
         23    2    1    2    0    0 -0.14476067139E+02 -0.13957309870E+03  0.57872488198E+02  0.19668487684E+03  0.12508201104E+03 0.  0.
          5    1    4    4  502    0  0.43060933311E+02 -0.62799215616E+02 -0.12964134557E+02  0.77353258783E+02  0.41800000000E+01 0. -1.
         -5    1    4    4    0  502 -0.57537000450E+02 -0.76773883087E+02  0.70836622756E+02  0.11933161806E+03  0.41800000000E+01 0. -1.
        -11    1    3    3    0    0  0.46759106179E+01  0.11480488439E+03  0.10699073346E+03  0.15700013588E+03  0.00000000000E+00 0.  1.
         11    1    3    3    0    0  0.98001565213E+01  0.24768214308E+02  0.13360923283E+03  0.13623852100E+03  0.00000000000E+00 0. -1.
</event>
<event>
 8    1  0.8061721E-006  0.7330614E+02  0.7561462E-02  0.1349198E+00
          1   -1    0    0  501    0  0.00000000000E+00  0.00000000000E+00  0.35669073234E+03  0.35669073234E+03  0.00000000000E+00 0. -1.
         -1   -1    0    0    0  501 -0.00000000000E+00 -0.00000000000E+00 -0.39440396917E+02  0.39440396917E+02  0.00000000000E+00 0.  1.
         23    2    1    2    0    0  0.40860532304E+01  0.40995540260E+02  0.14246042093E+03  0.17728109731E+03  0.97140546537E+02 0.  0.
         23    2    1    2    0    0 -0.40860532304E+01 -0.40995540260E+02  0.17478991449E+03  0.21885003194E+03  0.12508593894E+03 0.  0.
          5    1    4    4  502    0  0.53472364962E+01 -0.33437707950E+02  0.19333480703E+03  0.19632242169E+03  0.41800000000E+01 0. -1.
         -5    1    4    4    0  502 -0.94332897266E+01 -0.75578323102E+01 -0.18544892535E+02  0.22527610247E+02  0.41800000000E+01 0. -1.
        -11    1    3    3    0    0  0.20245260378E+02 -0.24764376924E+02  0.75740357885E+02  0.82217679028E+02  0.00000000000E+00 0.  1.
         11    1    3    3    0    0 -0.16159207148E+02  0.65759917184E+02  0.66720063043E+02  0.95063418286E+02  0.00000000000E+00 0. -1.
</event>
<event>
 8    1  0.8061721E-006  0.1426323E+03  0.7561462E-02  0.1209830E+00
          2   -1    0    0  501    0  0.00000000000E+00  0.00000000000E+00  0.16264230752E+04  0.16264230752E+04  0.00000000000E+00 0. -1.
         -2   -1    0    0    0  501 -0.00000000000E+00 -0.00000000000E+00 -0.18443676959E+02  0.18443676959E+02  0.00000000000E+00 0.  1.
         23    2    1    2    0    0  0.90045428886E+02 -0.91272291154E+02  0.54644668725E+03  0.56832699291E+03  0.89178352012E+02 0.  0.
         23    2    1    2    0    0 -0.90045428886E+02  0.91272291154E+02  0.10615327110E+04  0.10765397593E+04  0.12508935345E+03 0.  0.
          5    1    4    4  502    0 -0.68976104560E+02  0.85012488713E+02  0.40296219134E+03  0.41758930336E+03  0.41800000000E+01 0.  1.
         -5    1    4    4    0  502 -0.21069324326E+02  0.62598024404E+01  0.65857051968E+03  0.65895045591E+03  0.41800000000E+01 0.  1.
        -11    1    3    3    0    0  0.22996692822E+02 -0.82584776183E+02  0.35794142275E+03  0.36806406406E+03  0.00000000000E+00 0. -1.
         11    1    3    3    0    0  0.67048736063E+02 -0.86875149711E+01  0.18850526450E+03  0.20026292884E+03  0.00000000000E+00 0.  1.
</event>
<event>
 8    1  0.8061721E-006  0.8129778E+02  0.7561462E-02  0.1325408E+00
          2   -1    0    0  501    0  0.00000000000E+00  0.00000000000E+00  0.84402548335E+03  0.84402548335E+03  0.00000000000E+00 0. -1.
         -2   -1    0    0    0  501 -0.00000000000E+00 -0.00000000000E+00 -0.20915478011E+02  0.20915478011E+02  0.00000000000E+00 0.  1.
         23    2    1    2    0    0  0.82792888139E+01  0.30354389283E+02  0.13748085605E+03  0.16761716814E+03  0.90579212303E+02 0.  0.
         23    2    1    2    0    0 -0.82792888139E+01 -0.30354389283E+02  0.68562914929E+03  0.69732379322E+03  0.12322015530E+03 0.  0.
          5    1    4    4  502    0 -0.13502832773E+02 -0.61423081711E+02  0.63086778985E+03  0.63400848743E+03  0.41800000000E+01 0. -1.
         -5    1    4    4    0  502  0.52235439587E+01  0.31068692429E+02  0.54761359433E+02  0.63315305794E+02  0.41800000000E+01 0.  1.
        -11    1    3    3    0    0  0.15844868112E+02 -0.14991844315E+02  0.11386060361E+03  0.11593123952E+03  0.00000000000E+00 0. -1.
         11    1    3    3    0    0 -0.75655792979E+01  0.45346233597E+02  0.23620252436E+02  0.51685928614E+02  0.00000000000E+00 0.  1.
</event>
<event>
 8    1  0.8061721E-006  0.1374681E+03  0.7561462E-02  0.1216777E+00
          2   -1    0    0  501    0  0.00000000000E+00  0.00000000000E+00  0.14670257418E+04  0.14670257418E+04  0.00000000000E+00 0.  1.
         -2   -1    0    0    0  501 -0.00000000000E+00 -0.00000000000E+00 -0.20610859266E+02  0.20610859266E+02  0.00000000000E+00 0. -1.
         23    2    1    2    0    0 -0.37236097403E+02  0.93466008041E+02  0.28395565900E+03  0.31414578912E+03  0.89074906328E+02 0.  0.
         23    2    1    2    0    0  0.37236097403E+02 -0.93466008041E+02  0.11624592235E+04  0.11734908119E+04  0.12508724046E+03 0.  0.
          5    1    4    4  502    0 -0.25533853942E+02 -0.67922755686E+02  0.87955244481E+03  0.88255053907E+03  0.41800000000E+01 0.  1.
         -5    1    4    4    0  502  0.62769951345E+02 -0.25543252356E+02  0.28290677872E+03  0.29094027287E+03  0.41800000000E+01 0.  1.
        -11    1    3    3    0    0  0.11385905011E+02  0.84065427756E+02  0.18189809429E+03  0.20070762737E+03  0.00000000000E+00 0.  1.
         11    1    3    3    0    0 -0.48622002414E+02  0.94005802854E+01  0.10205756471E+03  0.11343816176E+03  0.00000000000E+00 0. -1.
</event>
<event>
 8    1  0.8061721E-006  0.1050277E+03  0.7561462E-02  0.1270065E+00
         -1   -1    0    0    0  501 -0.00000000000E+00  0.00000000000E+00  0.65063985824E+02  0.65063985824E+02  0.00000000000E+00 0.  1.
          1   -1    0    0  501    0  0.00000000000E+00 -0.00000000000E+00 -0.22802771682E+03  0.22802771682E+03  0.00000000000E+00 0. -1.
         23    2    1    2    0    0 -0.43153519867E+02  0.32086882340E+02 -0.54947308314E+02  0.11928911660E+03  0.91207962119E+02 0.  0.
         23    2    1    2    0    0  0.43153519867E+02 -0.32086882340E+02 -0.10801642269E+03  0.17380258604E+03  0.12509195438E+03 0.  0.
          5    1    4    4  502    0 -0.33649913197E+02 -0.46788932423E+02 -0.48571521188E+02  0.75486329398E+02  0.41800000000E+01 0.  1.
         -5    1    4    4    0  502  0.76803433064E+02  0.14702050083E+02 -0.59444901498E+02  0.98316256647E+02  0.41800000000E+01 0.  1.
        -11    1    3    3    0    0 -0.79289310475E+00  0.31588322994E+02 -0.67981097389E+02  0.74965861773E+02  0.00000000000E+00 0. -1.
         11    1    3    3    0    0 -0.42360626762E+02  0.49855934591E+00  0.13033789076E+02  0.44323254831E+02  0.00000000000E+00 0.  1.
</event>
<event>
 8    1  0.8061721E-006  0.1099099E+03  0.7561462E-02  0.1260737E+00
          1   -1    0    0  501    0  0.00000000000E+00  0.00000000000E+00  0.13076673889E+04  0.13076673889E+04  0.00000000000E+00 0. -1.
         -1   -1    0    0    0  501 -0.00000000000E+00 -0.00000000000E+00 -0.11337098350E+02  0.11337098350E+02  0.00000000000E+00 0.  1.
         23    2    1    2    0    0 -0.54944308657E+02 -0.29281293123E+00  0.56564789907E+03  0.57565915929E+03  0.91689471397E+02 0.  0.
         23    2    1    2    0    0  0.54944308657E+02  0.29281293123E+00  0.73068239144E+03  0.74334532791E+03  0.12508619660E+03 0.  0.
          5    1    4    4  502    0 -0.26798260818E+02  0.16571642312E+02  0.43362574309E+03  0.43478905642E+03  0.41800000000E+01 0.  1.
         -5    1    4    4    0  502  0.81742569475E+02 -0.16278829381E+02  0.29705664835E+03  0.30855627149E+03  0.41800000000E+01 0.  1.
        -11    1    3    3    0    0  0.22058728516E+02  0.14191703575E+02  0.95941004466E+02  0.99461893668E+02  0.00000000000E+00 0.  1.
         11    1    3    3    0    0 -0.77003037173E+02 -0.14484516506E+02  0.46970689460E+03  0.47619726562E+03  0.00000000000E+00 0. -1.
</event>
<event>
 8    1  0.8061721E-006  0.1560596E+03  0.7561462E-02  0.1193219E+00
         -1   -1    0    0    0  501 -0.00000000000E+00  0.00000000000E+00  0.67428704349E+03  0.67428704349E+03  0.00000000000E+00 0.  1.
          1   -1    0    0  501    0  0.00000000000E+00 -0.00000000000E+00 -0.55335632218E+02  0.55335632218E+02  0.00000000000E+00 0. -1.
         23    2    1    2    0    0 -0.12319873488E+03 -0.89271146155E+02  0.38521050202E+03  0.42396174392E+03  0.90604434956E+02 0.  0.
         23    2    1    2    0    0  0.12319873488E+03  0.89271146155E+02  0.23374090925E+03  0.30566093178E+03  0.12508607736E+03 0.  0.
          5    1    4    4  502    0  0.47748686909E+01 -0.47525552669E+01  0.10984298874E+03  0.11012874615E+03  0.41800000000E+01 0. -1.
         -5    1    4    4    0  502  0.11842386619E+03  0.94023701422E+02  0.12389792051E+03  0.19553218563E+03  0.41800000000E+01 0. -1.
        -11    1    3    3    0    0 -0.66315586182E+02 -0.57473410083E+02  0.10781594588E+03  0.13901520788E+03  0.00000000000E+00 0. -1.
         11    1    3    3    0    0 -0.56883148697E+02 -0.31797736072E+02  0.27739455614E+03  0.28494653604E+03  0.00000000000E+00 0.  1.
</event>
<event>
 8    1  0.8061721E-006  0.1041338E+03  0.7561462E-02  0.1271836E+00
         -2   -1    0    0    0  501 -0.00000000000E+00  0.00000000000E+00  0.18336692573E+02  0.18336692573E+02  0.00000000000E+00 0.  1.
          2   -1    0    0  501    0  0.00000000000E+00 -0.00000000000E+00 -0.72671463407E+03  0.72671463407E+03  0.00000000000E+00 0. -1.
         23    2    1    2    0    0 -0.54998968441E+01  0.41853540966E+02 -0.28161823563E+03  0.29833845647E+03  0.88966489257E+02 0.  0.
         23    2    1    2    0    0  0.54998968441E+01 -0.41853540966E+02 -0.42675970587E+03  0.44671287018E+03  0.12508626652E+03 0.  0.
          5    1    4    4  502    0 -0.49462434131E+02 -0.29191373662E+02 -0.32704094460E+03  0.33207216163E+03  0.41800000000E+01 0. -1.
         -5    1    4    4    0  502  0.54962330975E+02 -0.12662167305E+02 -0.99718761274E+02  0.11464070855E+03  0.41800000000E+01 0. -1.
        -11    1    3    3    0    0  0.30860060551E+02  0.48182772416E+02 -0.12567477964E+03  0.13808719394E+03  0.00000000000E+00 0.  1.
         11    1    3    3    0    0 -0.36359957395E+02 -0.63292314496E+01 -0.15594345599E+03  0.16025126252E+03  0.00000000000E+00 0. -1.
</event>
<event>
 8    1  0.8061721E-006  0.9949857E+02  0.7561462E-02  0.1281354E+00
          1   -1    0    0  501    0  0.00000000000E+00  0.00000000000E+00  0.53521452889E+03  0.53521452889E+03  0.00000000000E+00 0. -1.
         -1   -1    0    0    0  501 -0.00000000000E+00 -0.00000000000E+00 -0.49908583942E+02  0.49908583942E+02  0.00000000000E+00 0.  1.
         23    2    1    2    0    0 -0.56490677765E+02 -0.18492339454E+02  0.37291735047E+02  0.11619566828E+03  0.92615314782E+02 0.  0.
         23    2    1    2    0    0  0.56490677765E+02  0.18492339454E+02  0.44801420990E+03  0.46892744455E+03  0.12507218990E+03 0.  0.
          5    1    4    4  502    0  0.14780764379E+02  0.43285793298E+02  0.49803084184E+02  0.67749173363E+02  0.41800000000E+01 0. -1.
         -5    1    4    4    0  502  0.41709913386E+02 -0.24793453844E+02  0.39821112572E+03  0.40117827119E+03  0.41800000000E+01 0. -1.
        -11    1    3    3    0    0  0.24777506984E+01 -0.41126731786E+02 -0.29429524758E+01  0.41306274163E+02  0.00000000000E+00 0.  1.
         11    1    3    3    0    0 -0.58968428463E+02  0.22634392332E+02  0.40234687523E+02  0.74889394121E+02  0.00000000000E+00 0. -1.
</event>
<event>
 8    1  0.8061721E-006  0.7322091E+02  0.7561462E-02  0.1349471E+00
          1   -1    0    0  501    0  0.00000000000E+00  0.00000000000E+00  0.65268059557E+03  0.65268059557E+03  0.00000000000E+00 0. -1.
         -1   -1    0    0    0  501 -0.00000000000E+00 -0.00000000000E+00 -0.17843834517E+02  0.17843834517E+02  0.00000000000E+00 0.  1.
         23    2    1    2    0    0 -0.41026478311E+02  0.61671500268E+01  0.28417166987E+03  0.30065552020E+03  0.88988753265E+02 0.  0.
         23    2    1    2    0    0  0.41026478311E+02 -0.61671500268E+01  0.35066509119E+03  0.36986890989E+03  0.11007178869E+03 0.  0.
          5    1    4    4  502    0 -0.18634706088E+01  0.25774250276E+01  0.30978652027E+03  0.30983104458E+03  0.41800000000E+01 0. -1.
         -5    1    4    4    0  502  0.42889948919E+02 -0.87445750544E+01  0.40878570915E+02  0.60037865312E+02  0.41800000000E+01 0.  1.
        -11    1    3    3    0    0 -0.41419507455E+01 -0.38821560425E+02  0.94030354867E+02  0.10181344187E+03  0.00000000000E+00 0. -1.
         11    1    3    3    0    0 -0.36884527565E+02  0.44988710451E+02  0.19014131500E+03  0.19884207832E+03  0.00000000000E+00 0.  1.
</event>
<event>
 8    1  0.1062583E-005  0.2992648E+03  0.7561462E-02  0.1085609E+00
          1   -1    0    0  501    0  0.00000000000E+00  0.00000000000E+00  0.19334298417E+03  0.19334298417E+03  0.00000000000E+00 0. -1.
         -1   -1    0    0    0  501 -0.00000000000E+00 -0.00000000000E+00 -0.59522848493E+03  0.59522848493E+03  0.00000000000E+00 0.  1.
         23    2    1    2    0    0 -0.28467023897E+03 -0.21961681773E+02 -0.37198434232E+03  0.47542463471E+03  0.78337551206E+02 0.  0.
         23    2    1    2    0    0  0.28467023897E+03  0.21961681773E+02 -0.29901158442E+02  0.31314683440E+03  0.12508956869E+03 0.  0.
          5    1    4    4  502    0  0.13760268867E+03  0.71494639206E+02 -0.38481857290E+00  0.15512447856E+03  0.41800000000E+01 0.  1.
         -5    1    4    4    0  502  0.14706755030E+03 -0.49532957432E+02 -0.29516339869E+02  0.15802235583E+03  0.41800000000E+01 0.  1.
        -11    1    3    3    0    0 -0.19023151471E+03  0.38195819282E+01 -0.29430897810E+03  0.35045740538E+03  0.00000000000E+00 0. -1.
         11    1    3    3    0    0 -0.94438724261E+02 -0.25781263701E+02 -0.77675364222E+02  0.12496722933E+03  0.00000000000E+00 0.  1.
</event>
<event>
 8    1  0.8061721E-006  0.1120451E+03  0.7561462E-02  0.1256829E+00
          1   -1    0    0  501    0  0.00000000000E+00  0.00000000000E+00  0.66476965962E+03  0.66476965962E+03  0.00000000000E+00 0. -1.
         -1   -1    0    0    0  501 -0.00000000000E+00 -0.00000000000E+00 -0.33759717534E+02  0.33759717534E+02  0.00000000000E+00 0.  1.
         23    2    1    2    0    0 -0.27937687879E+02 -0.48527090764E+02  0.85556480583E+02  0.13612216466E+03  0.89855102243E+02 0.  0.
         23    2    1    2    0    0  0.27937687879E+02  0.48527090764E+02  0.54545346150E+03  0.56240721250E+03  0.12508797328E+03 0.  0.
          5    1    4    4  502    0 -0.34647867239E+02  0.55364347841E+02  0.37462500005E+03  0.38029863105E+03  0.41800000000E+01 0.  1.
         -5    1    4    4    0  502  0.62585555118E+02 -0.68372570769E+01  0.17082846145E+03  0.18210858144E+03  0.41800000000E+01 0.  1.
        -11    1    3    3    0    0 -0.54805163466E+02 -0.38005958168E+02  0.29194490369E+02  0.72803688551E+02  0.00000000000E+00 0.  1.
         11    1    3    3    0    0  0.26867475586E+02 -0.10521132596E+02  0.56361990214E+02  0.63318476105E+02  0.00000000000E+00 0. -1.
</event>
<event>
 8    1  0.8061721E-006  0.1165725E+03  0.7561462E-02  0.1248861E+00
         -4   -1    0    0    0  501 -0.00000000000E+00  0.00000000000E+00  0.41664488481E+02  0.41664488481E+02  0.00000000000E+00 0.  1.
          4   -1    0    0  501    0  0.00000000000E+00 -0.00000000000E+00 -0.37380000421E+03  0.37380000421E+03  0.00000000000E+00 0. -1.
         23    2    1    2    0    0  0.45743821814E+02 -0.38184523413E+02 -0.12907759350E+03  0.16963870869E+03  0.92551127922E+02 0.  0.
         23    2    1    2    0    0 -0.45743821814E+02  0.38184523413E+02 -0.20305792223E+03  0.24582578400E+03  0.12508893331E+03 0.  0.
          5    1    4    4  502    0 -0.62970991206E+01  0.75464193375E+02 -0.74930704728E+02  0.10661416815E+03  0.41800000000E+01 0. -1.
         -5    1    4    4    0  502 -0.39446722694E+02 -0.37279669962E+02 -0.12812721750E+03  0.13921161585E+03  0.41800000000E+01 0. -1.
        -11    1    3    3    0    0  0.57728756256E+01 -0.57977368938E+02 -0.10197713044E+03  0.11744801631E+03  0.00000000000E+00 0.  1.
         11    1    3    3    0    0  0.39970946189E+02  0.19792845525E+02 -0.27100463060E+02  0.52190692382E+02  0.00000000000E+00 0. -1.
</event>
<event>
 8    1  0.8061721E-006  0.1198193E+03  0.7561462E-02  0.1243396E+00
          1   -1    0    0  501    0  0.00000000000E+00  0.00000000000E+00  0.42062241526E+03  0.42062241526E+03  0.00000000000E+00 0. -1.
         -1   -1    0    0    0  501 -0.00000000000E+00 -0.00000000000E+00 -0.57818794381E+02  0.57818794381E+02  0.00000000000E+00 0.  1.
         23    2    1    2    0    0  0.49538043221E+02 -0.54482477237E+02  0.38876665253E+02  0.12347950478E+03  0.91178039829E+02 0.  0.
         23    2    1    2    0    0 -0.49538043221E+02  0.54482477237E+02  0.32392695563E+03  0.35496170486E+03  0.12508709480E+03 0.  0.
          5    1    4    4  502    0 -0.90477318099E+02  0.50657635091E+02  0.23560893526E+03  0.25745171170E+03  0.41800000000E+01 0. -1.
         -5    1    4    4    0  502  0.40939274878E+02  0.38248421456E+01  0.88318020368E+02  0.97509993163E+02  0.41800000000E+01 0. -1.
        -11    1    3    3    0    0  0.28287532483E+01  0.12530579877E+02  0.39765863025E+02  0.41789246692E+02  0.00000000000E+00 0. -1.
         11    1    3    3    0    0  0.46709289973E+02 -0.67013057113E+02 -0.88919777229E+00  0.81690258086E+02  0.00000000000E+00 0.  1.
</event>
<event>
 8    1  0.8061721E-006  0.2506076E+03  0.7561462E-02  0.1112921E+00
          2   -1    0    0  501    0  0.00000000000E+00  0.00000000000E+00  0.82254295235E+03  0.82254295235E+03  0.00000000000E+00 0. -1.
         -2   -1    0    0    0  501 -0.00000000000E+00 -0.00000000000E+00 -0.99624840896E+02  0.99624840896E+02  0.00000000000E+00 0.  1.
         23    2    1    2    0    0  0.15105755549E+03  0.17419884682E+03  0.14267002351E+03  0.28537124261E+03  0.88985320138E+02 0.  0.
         23    2    1    2    0    0 -0.15105755549E+03 -0.17419884682E+03  0.58024808794E+03  0.63679655063E+03  0.12513344886E+03 0.  0.
          5    1    4    4  502    0  0.16027722917E+02 -0.40913105161E+02  0.61265256238E+02  0.75509430522E+02  0.41800000000E+01 0.  1.
         -5    1    4    4    0  502 -0.16708527841E+03 -0.13328574166E+03  0.51898283170E+03  0.56128712010E+03  0.41800000000E+01 0.  1.
        -11    1    3    3    0    0 -0.88262595907E+01  0.16599953233E+02 -0.10140435971E+01  0.18827893937E+02  0.00000000000E+00 0.  1.
         11    1    3    3    0    0  0.15988381508E+03  0.15759889359E+03  0.14368406710E+03  0.26654334868E+03  0.00000000000E+00 0. -1.
</event>
<event>
 8    1  0.8061721E-006  0.1708895E+03  0.7561462E-02  0.1176923E+00
         -2   -1    0    0    0  501 -0.00000000000E+00  0.00000000000E+00  0.13302952585E+03  0.13302952585E+03  0.00000000000E+00 0. -1.
          2   -1    0    0  501    0  0.00000000000E+00 -0.00000000000E+00 -0.27106733322E+03  0.27106733322E+03  0.00000000000E+00 0.  1.
         23    2    1    2    0    0  0.92119385846E+02  0.11923185430E+03 -0.10582087023E+03  0.20563667816E+03  0.91576036712E+02 0.  0.
         23    2    1    2    0    0 -0.92119385846E+02 -0.11923185430E+03 -0.32216937138E+02  0.19846018091E+03  0.12508515516E+03 0.  0.
          5    1    4    4  502    0  0.99519234222E+01 -0.24456181816E+02  0.34759361614E+02  0.43850099529E+02  0.41800000000E+01 0.  1.
         -5    1    4    4    0  502 -0.10207130927E+03 -0.94775672487E+02 -0.66976298752E+02  0.15461008138E+03  0.41800000000E+01 0.  1.
        -11    1    3    3    0    0 -0.88531871731E+01  0.55700736760E+02 -0.42167373094E+02  0.70420439876E+02  0.00000000000E+00 0.  1.
         11    1    3    3    0    0  0.10097257302E+03  0.63531117543E+02 -0.63653497138E+02  0.13521623829E+03  0.00000000000E+00 0. -1.
</event>
<event>
 8    1  0.8061721E-006  0.8470834E+02  0.7561462E-02  0.1316197E+00
          2   -1    0    0  501    0  0.00000000000E+00  0.00000000000E+00  0.10480854262E+04  0.10480854262E+04  0.00000000000E+00 0.  1.
         -2   -1    0    0    0  501 -0.00000000000E+00 -0.00000000000E+00 -0.17288651484E+02  0.17288651484E+02  0.00000000000E+00 0. -1.
         23    2    1    2    0    0 -0.42679374940E+02 -0.48570504212E+02  0.28645084776E+03  0.30782607234E+03  0.92315652558E+02 0.  0.
         23    2    1    2    0    0  0.42679374940E+02  0.48570504212E+02  0.74434592693E+03  0.75754800531E+03  0.12508996160E+03 0.  0.
          5    1    4    4  502    0 -0.97378871998E+00  0.30639299438E+02  0.35373638378E+02  0.46994485066E+02  0.41800000000E+01 0. -1.
         -5    1    4    4    0  502  0.43653163660E+02  0.17931204774E+02  0.70897228855E+03  0.71055352025E+03  0.41800000000E+01 0. -1.
        -11    1    3    3    0    0 -0.42754574354E+02 -0.22470167331E+00  0.22799040281E+03  0.23196471260E+03  0.00000000000E+00 0.  1.
         11    1    3    3    0    0  0.75199414367E-01 -0.48345802539E+02  0.58460444950E+02  0.75861359742E+02  0.00000000000E+00 0. -1.
</event>
<event>
 8    1  0.8061721E-006  0.9885294E+02  0.7561462E-02  0.1282727E+00
         -2   -1    0    0    0  501 -0.00000000000E+00  0.00000000000E+00  0.54569196630E+02  0.54569196630E+02  0.00000000000E+00 0.  1.
          2   -1    0    0  501    0  0.00000000000E+00 -0.00000000000E+00 -0.32772301525E+03  0.32772301525E+03  0.00000000000E+00 0. -1.
         23    2    1    2    0    0 -0.66165677950E+02 -0.40140940657E+02 -0.91068694371E+02  0.14963898394E+03  0.90050687757E+02 0.  0.
         23    2    1    2    0    0  0.66165677950E+02  0.40140940657E+02 -0.18208512425E+03  0.23265322793E+03  0.12240645384E+03 0.  0.
          5    1    4    4  502    0  0.64072608914E+02  0.20926346759E+02 -0.19676067514E+03  0.20802751473E+03  0.41800000000E+01 0. -1.
         -5    1    4    4    0  502  0.20930690362E+01  0.19214593898E+02  0.14675550898E+02  0.24625713204E+02  0.41800000000E+01 0.  1.
        -11    1    3    3    0    0 -0.73849677453E+02 -0.56062732808E+02 -0.50945106217E+02  0.10579323569E+03  0.00000000000E+00 0.  1.
         11    1    3    3    0    0  0.76839995033E+01  0.15921792151E+02 -0.40123588154E+02  0.43845748255E+02  0.00000000000E+00 0. -1.
</event>
<event>
 8    1  0.8061721E-006  0.8716662E+02  0.7561462E-02  0.1309862E+00
         -1   -1    0    0    0  501 -0.00000000000E+00  0.00000000000E+00  0.49335911887E+02  0.49335911887E+02  0.00000000000E+00 0.  1.
          1   -1    0    0  501    0  0.00000000000E+00 -0.00000000000E+00 -0.31494393345E+03  0.31494393345E+03  0.00000000000E+00 0. -1.
         23    2    1    2    0    0 -0.43688636382E+02 -0.35892098775E+02 -0.80682245883E+02  0.13397067609E+03  0.90783134714E+02 0.  0.
         23    2    1    2    0    0  0.43688636382E+02  0.35892098775E+02 -0.18492577568E+03  0.23030916925E+03  0.12509129156E+03 0.  0.
          5    1    4    4  502    0  0.64550798919E+02  0.46860318617E+02 -0.52149908817E+02  0.95392769597E+02  0.41800000000E+01 0.  1.
         -5    1    4    4    0  502 -0.20862162536E+02 -0.10968219842E+02 -0.13277586687E+03  0.13491639965E+03  0.41800000000E+01 0.  1.
        -11    1    3    3    0    0 -0.20126645694E+02 -0.41655655406E+02 -0.95097770850E+02  0.10575377778E+03  0.00000000000E+00 0. -1.
         11    1    3    3    0    0 -0.23561990688E+02  0.57635566313E+01  0.14415524967E+02  0.28216898312E+02  0.00000000000E+00 0.  1.
</event>
<event>
 8    1  0.8061721E-006  0.1148835E+03  0.7561462E-02  0.1251785E+00
         -2   -1    0    0    0  501 -0.00000000000E+00  0.00000000000E+00  0.10784179073E+03  0.10784179073E+03  0.00000000000E+00 0. -1.
          2   -1    0    0  501    0  0.00000000000E+00 -0.00000000000E+00 -0.25166830884E+03  0.25166830884E+03  0.00000000000E+00 0.  1.
         23    2    1    2    0    0  0.95101535844E+02 -0.15206275288E+02  0.16178665098E+02  0.13473337231E+03  0.92821330963E+02 0.  0.
         23    2    1    2    0    0 -0.95101535844E+02  0.15206275288E+02 -0.16000518322E+03  0.22477672726E+03  0.12508951009E+03 0.  0.
          5    1    4    4  502    0 -0.77466778288E+02 -0.17587259367E+02 -0.23095920722E+02  0.82833009026E+02  0.41800000000E+01 0. -1.
         -5    1    4    4    0  502 -0.17634757556E+02  0.32793534655E+02 -0.13690926249E+03  0.14194371823E+03  0.41800000000E+01 0. -1.
        -11    1    3    3    0    0  0.48109909600E+02  0.21914597518E+02  0.43925173915E+02  0.68733062565E+02  0.00000000000E+00 0. -1.
         11    1    3    3    0    0  0.46991626244E+02 -0.37120872807E+02 -0.27746508817E+02  0.66000309745E+02  0.00000000000E+00 0.  1.
</event>
<event>
 8    1  0.8061721E-006  0.1330515E+03  0.7561462E-02  0.1222997E+00
         -2   -1    0    0    0  501 -0.00000000000E+00  0.00000000000E+00  0.25904044035E+02  0.25904044035E+02  0.00000000000E+00 0.  1.
          2   -1    0    0  501    0  0.00000000000E+00 -0.00000000000E+00 -0.12277900668E+04  0.12277900668E+04  0.00000000000E+00 0. -1.
         23    2    1    2    0    0  0.68889520352E+02 -0.86758184800E+02 -0.27386822645E+03  0.31075303725E+03  0.96389294310E+02 0.  0.
         23    2    1    2    0    0 -0.68889520352E+02  0.86758184800E+02 -0.92801779636E+03  0.94294107363E+03  0.12509232323E+03 0.  0.
          5    1    4    4  502    0 -0.73729019271E+02  0.25888256347E+02 -0.76187507589E+03  0.76588332908E+03  0.41800000000E+01 0. -1.
         -5    1    4    4    0  502  0.48394989191E+01  0.60869928453E+02 -0.16614272048E+03  0.17705774455E+03  0.41800000000E+01 0. -1.
        -11    1    3    3    0    0  0.51810469094E+02 -0.16551187971E+02 -0.20063010669E+03  0.20787185053E+03  0.00000000000E+00 0. -1.
         11    1    3    3    0    0  0.17079051258E+02 -0.70206996830E+02 -0.73238119757E+02  0.10288118672E+03  0.00000000000E+00 0.  1.
</event>
<event>
 8    1  0.8061721E-006  0.1022828E+03  0.7561462E-02  0.1275567E+00
          1   -1    0    0  501    0  0.00000000000E+00  0.00000000000E+00  0.51110987834E+02  0.51110987834E+02  0.00000000000E+00 0. -1.
         -1   -1    0    0    0  501 -0.00000000000E+00 -0.00000000000E+00 -0.28887374390E+03  0.28887374390E+03  0.00000000000E+00 0.  1.
         23    2    1    2    0    0  0.32089262710E+02 -0.25729987810E+02 -0.15631932290E+03  0.18515401505E+03  0.90302411499E+02 0.  0.
         23    2    1    2    0    0 -0.32089262710E+02  0.25729987810E+02 -0.81443433168E+02  0.15483071669E+03  0.12509102673E+03 0.  0.
          5    1    4    4  502    0 -0.16945555869E+02 -0.43952921708E+02 -0.10720230088E+01  0.47303623790E+02  0.41800000000E+01 0.  1.
         -5    1    4    4    0  502 -0.15143706842E+02  0.69682909518E+02 -0.80371410159E+02  0.10752709290E+03  0.41800000000E+01 0.  1.
        -11    1    3    3    0    0  0.24604644564E+02 -0.52535347498E+02 -0.14296221417E+03  0.15428397828E+03  0.00000000000E+00 0.  1.
         11    1    3    3    0    0  0.74846181467E+01  0.26805359688E+02 -0.13357108724E+02  0.30870036772E+02  0.00000000000E+00 0. -1.
</event>
<event>
 8    1  0.8061721E-006  0.1183340E+03  0.7561462E-02  0.1245871E+00
          2   -1    0    0  501    0  0.00000000000E+00  0.00000000000E+00  0.33427416728E+03  0.33427416728E+03  0.00000000000E+00 0. -1.
         -2   -1    0    0    0  501 -0.00000000000E+00 -0.00000000000E+00 -0.56715520749E+02  0.56715520749E+02  0.00000000000E+00 0.  1.
         23    2    1    2    0    0  0.70709601223E+02  0.37420734291E+02  0.96446343891E+02  0.15678979215E+03  0.94238965462E+02 0.  0.
         23    2    1    2    0    0 -0.70709601223E+02 -0.37420734291E+02  0.18111230263E+03  0.23419989588E+03  0.12509103087E+03 0.  0.
          5    1    4    4  502    0 -0.88378799445E+02 -0.52321076981E+02  0.18376784543E+03  0.21056210652E+03  0.41800000000E+01 0. -1.
         -5    1    4    4    0  502  0.17669198222E+02  0.14900342689E+02 -0.26555427987E+01  0.23637789356E+02  0.41800000000E+01 0. -1.
        -11    1    3    3    0    0  0.80025004994E+02  0.90573972244E+01  0.98059316110E+02  0.12689234549E+03  0.00000000000E+00 0. -1.
         11    1    3    3    0    0 -0.93154037713E+01  0.28363337067E+02 -0.16129722191E+01  0.29897446653E+02  0.00000000000E+00 0.  1.
</event>
<event>
 8    1  0.8061721E-006  0.1925030E+03  0.7561462E-02  0.1156223E+00
          1   -1    0    0  501    0  0.00000000000E+00  0.00000000000E+00  0.18873076733E+03  0.18873076733E+03  0.00000000000E+00 0. -1.
         -1   -1    0    0    0  501 -0.00000000000E+00 -0.00000000000E+00 -0.22372113239E+03  0.22372113239E+03  0.00000000000E+00 0.  1.
         23    2    1    2    0    0 -0.11026395125E+03  0.13197206777E+03  0.10376906087E+02  0.19501049590E+03  0.91359989674E+02 0.  0.
         23    2    1    2    0    0  0.11026395125E+03 -0.13197206777E+03 -0.45367271150E+02  0.21744140383E+03  0.12509120348E+03 0.  0.
          5    1    4    4  502    0  0.93567634449E+02 -0.15655478728E+03 -0.42325622836E+02  0.18727849419E+03  0.41800000000E+01 0.  1.
         -5    1    4    4    0  502  0.16696316802E+02  0.24582719510E+02 -0.30416483133E+01  0.30162909636E+02  0.41800000000E+01 0.  1.
        -11    1    3    3    0    0 -0.15991968645E+02  0.27774348928E+02 -0.34898212241E+02  0.47381881950E+02  0.00000000000E+00 0.  1.
         11    1    3    3    0    0 -0.94271982607E+02  0.10419771885E+03  0.45275118328E+02  0.14762861395E+03  0.00000000000E+00 0. -1.
</event>
<event>
 8    1  0.8061721E-006  0.6607768E+02  0.7561462E-02  0.1373963E+00
          1   -1    0    0  501    0  0.00000000000E+00  0.00000000000E+00  0.16185309263E+03  0.16185309263E+03  0.00000000000E+00 0. -1.
         -1   -1    0    0    0  501 -0.00000000000E+00 -0.00000000000E+00 -0.88255780687E+02  0.88255780687E+02  0.00000000000E+00 0.  1.
         23    2    1    2    0    0 -0.46364363520E+02 -0.17512598240E+02  0.39551261131E+02  0.11132248662E+03  0.91498898724E+02 0.  0.
         23    2    1    2    0    0  0.46364363520E+02  0.17512598240E+02  0.34046050810E+02  0.13878638670E+03  0.12508470033E+03 0.  0.
          5    1    4    4  502    0  0.16713435898E+02  0.98500033454E+01  0.80543816114E+02  0.82952638413E+02  0.41800000000E+01 0.  1.
         -5    1    4    4    0  502  0.29650927621E+02  0.76625948949E+01 -0.46497765304E+02  0.55833748286E+02  0.41800000000E+01 0.  1.
        -11    1    3    3    0    0 -0.33836371717E+02 -0.41976535411E+02  0.57242335093E+02  0.78635961894E+02  0.00000000000E+00 0. -1.
         11    1    3    3    0    0 -0.12527991803E+02  0.24463937170E+02 -0.17691073962E+02  0.32686524722E+02  0.00000000000E+00 0.  1.
</event>
<event>
 8    1  0.8061721E-006  0.1076949E+03  0.7561462E-02  0.1264899E+00
         -1   -1    0    0    0  501 -0.00000000000E+00  0.00000000000E+00  0.72921024202E+02  0.72921024202E+02  0.00000000000E+00 0.  1.
          1   -1    0    0  501    0  0.00000000000E+00 -0.00000000000E+00 -0.28516292082E+03  0.28516292082E+03  0.00000000000E+00 0. -1.
         23    2    1    2    0    0  0.99681149164E+01  0.84969525378E+02 -0.48467414569E+02  0.13496047275E+03  0.92444877484E+02 0.  0.
         23    2    1    2    0    0 -0.99681149164E+01 -0.84969525378E+02 -0.16377448205E+03  0.22312347227E+03  0.12507125709E+03 0.  0.
          5    1    4    4  502    0 -0.50314656102E+02 -0.68220616534E+02 -0.44075162816E+02  0.95633203001E+02  0.41800000000E+01 0. -1.
         -5    1    4    4    0  502  0.40346541185E+02 -0.16748908844E+02 -0.11969931924E+03  0.12749026927E+03  0.41800000000E+01 0. -1.
        -11    1    3    3    0    0 -0.25139936032E+01  0.36398405772E+02 -0.71119803543E+02  0.79932412465E+02  0.00000000000E+00 0. -1.
         11    1    3    3    0    0  0.12482108520E+02  0.48571119606E+02  0.22652388974E+02  0.55028060289E+02  0.00000000000E+00 0.  1.
</event>
<event>
 8    1  0.8061721E-006  0.1003350E+03  0.7561462E-02  0.1279593E+00
         -1   -1    0    0    0  501 -0.00000000000E+00  0.00000000000E+00  0.20432167830E+02  0.20432167830E+02  0.00000000000E+00 0.  1.
          1   -1    0    0  501    0  0.00000000000E+00 -0.00000000000E+00 -0.59837184280E+03  0.59837184280E+03  0.00000000000E+00 0. -1.
         23    2    1    2    0    0  0.36735094563E+02 -0.17023501823E+02 -0.27764916151E+03  0.29498055733E+03  0.91023104369E+02 0.  0.
         23    2    1    2    0    0 -0.36735094563E+02  0.17023501823E+02 -0.30029051346E+03  0.32382345330E+03  0.11422770963E+03 0.  0.
          5    1    4    4  502    0  0.19906548505E+02 -0.36756502834E+02 -0.86195311863E+02  0.95887514104E+02  0.41800000000E+01 0. -1.
         -5    1    4    4    0  502 -0.56641643068E+02  0.53780004656E+02 -0.21409520159E+03  0.22793593919E+03  0.41800000000E+01 0.  1.
        -11    1    3    3    0    0 -0.10353026925E+02 -0.29886891876E+02 -0.33789143167E+02  0.46283017063E+02  0.00000000000E+00 0.  1.
         11    1    3    3    0    0  0.47088121488E+02  0.12863390053E+02 -0.24386001834E+03  0.24869754027E+03  0.00000000000E+00 0. -1.
</event>
<event>
 7    1  0.8061721E-006  0.1756135E+03  0.7561462E-02  0.1172117E+00
         -1   -1    0    0    0  501 -0.00000000000E+00  0.00000000000E+00  0.50029359219E+02  0.50029359219E+02  0.00000000000E+00 0.  1.
          1   -1    0    0  501    0  0.00000000000E+00 -0.00000000000E+00 -0.70338106295E+03  0.70338106295E+03  0.00000000000E+00 0. -1.
         23    2    1    2    0    0  0.12907601205E+03 -0.10152454244E+03 -0.31521683847E+03  0.37679821313E+03  0.12508952217E+03 0.  0.
          5    1    3    3  502    0  0.62353068756E+02 -0.10073355664E+03 -0.11283733227E+03  0.16366090116E+03  0.41800000000E+01 0. -1.
         -5    1    3    3    0  502  0.66722943298E+02 -0.79098580306E+00 -0.20237950621E+03  0.21313731197E+03  0.41800000000E+01 0. -1.
        -11    1    1    2    0    0 -0.11469960894E+03  0.98373681825E+02 -0.30934720117E+03  0.34428051417E+03  0.00000000000E+00 0.  1.
         11    1    1    2    0    0 -0.14376403118E+02  0.31508606184E+01 -0.28787664090E+02  0.32331694868E+02  0.00000000000E+00 0. -1.
</event>
<event>
 8    1  0.8061721E-006  0.9181257E+02  0.7561462E-02  0.1298521E+00
          1   -1    0    0  501    0  0.00000000000E+00  0.00000000000E+00  0.21527696238E+03  0.21527696238E+03  0.00000000000E+00 0. -1.
         -1   -1    0    0    0  501 -0.00000000000E+00 -0.00000000000E+00 -0.56078371771E+02  0.56078371771E+02  0.00000000000E+00 0.  1.
         23    2    1    2    0    0  0.25724433969E+01  0.81601075805E+01  0.59549438275E+02  0.11119917757E+03  0.93519605814E+02 0.  0.
         23    2    1    2    0    0 -0.25724433969E+01 -0.81601075805E+01  0.99649152331E+02  0.16015615658E+03  0.12508731394E+03 0.  0.
          5    1    4    4  502    0 -0.58380056375E+02  0.20820475700E+02  0.44570703683E+02  0.76457460182E+02  0.41800000000E+01 0.  1.
         -5    1    4    4    0  502  0.55807612978E+02 -0.28980583280E+02  0.55078448647E+02  0.83698696399E+02  0.41800000000E+01 0.  1.
        -11    1    3    3    0    0 -0.22183887114E+02 -0.13173027870E+02  0.71802905981E+02  0.76297515150E+02  0.00000000000E+00 0. -1.
         11    1    3    3    0    0  0.24756330511E+02  0.21333135451E+02 -0.12253467706E+02  0.34901662415E+02  0.00000000000E+00 0.  1.
</event>
<event>
 8    1  0.8061721E-006  0.9987714E+02  0.7561462E-02  0.1280555E+00
         -2   -1    0    0    0  501 -0.00000000000E+00  0.00000000000E+00  0.18387509685E+02  0.18387509685E+02  0.00000000000E+00 0.  1.
          2   -1    0    0  501    0  0.00000000000E+00 -0.00000000000E+00 -0.66008202931E+03  0.66008202931E+03  0.00000000000E+00 0. -1.
         23    2    1    2    0    0  0.21213814866E+02  0.74524609901E+01 -0.27252109492E+03  0.28803037059E+03  0.90488574379E+02 0.  0.
         23    2    1    2    0    0 -0.21213814866E+02 -0.74524609901E+01 -0.36917342471E+03  0.39043916840E+03  0.12509261207E+03 0.  0.
          5    1    4    4  502    0  0.36335808598E+02  0.32333632399E+02 -0.87711243307E+02  0.10038171832E+03  0.41800000000E+01 0.  1.
         -5    1    4    4    0  502 -0.57549623464E+02 -0.39786093389E+02 -0.28146218141E+03  0.29005745008E+03  0.41800000000E+01 0.  1.
        -11    1    3    3    0    0 -0.27659594106E+02  0.14888068444E+02 -0.18380964942E+03  0.18647438148E+03  0.00000000000E+00 0. -1.
         11    1    3    3    0    0  0.48873408972E+02 -0.74356074543E+01 -0.88711445499E+02  0.10155598912E+03  0.00000000000E+00 0.  1.
</event>
<event>
 8    1  0.8061721E-006  0.1348518E+03  0.7561462E-02  0.1220429E+00
         -1   -1    0    0    0  501 -0.00000000000E+00  0.00000000000E+00  0.94998394595E+02  0.94998394595E+02  0.00000000000E+00 0.  1.
          1   -1    0    0  501    0  0.00000000000E+00 -0.00000000000E+00 -0.28923138946E+03  0.28923138946E+03  0.00000000000E+00 0. -1.
         23    2    1    2    0    0 -0.61194270184E+02 -0.63038859074E+02 -0.59534535759E+01  0.14170645187E+03  0.11102539545E+03 0.  0.
         23    2    1    2    0    0  0.61194270184E+02  0.63038859074E+02 -0.18827954129E+03  0.24252333218E+03  0.12509893896E+03 0.  0.
          5    1    4    4  502    0  0.41982125712E+02 -0.32741517087E+02 -0.84299793068E+02  0.99791950235E+02  0.41800000000E+01 0.  1.
         -5    1    4    4    0  502  0.19212144472E+02  0.95780376161E+02 -0.10397974822E+03  0.14273138195E+03  0.41800000000E+01 0.  1.
        -11    1    3    3    0    0  0.14810563559E+02 -0.34130044124E+02 -0.39028158162E+02  0.53920402765E+02  0.00000000000E+00 0. -1.
         11    1    3    3    0    0 -0.76004833743E+02 -0.28908814950E+02  0.33074704586E+02  0.87786049105E+02  0.00000000000E+00 0.  1.
</event>
<event>
 8    1  0.8061721E-006  0.1035493E+03  0.7561462E-02  0.1273004E+00
         -1   -1    0    0    0  501 -0.00000000000E+00  0.00000000000E+00  0.98292088492E+03  0.98292088492E+03  0.00000000000E+00 0.  1.
          1   -1    0    0  501    0  0.00000000000E+00 -0.00000000000E+00 -0.21132764227E+02  0.21132764227E+02  0.00000000000E+00 0. -1.
         23    2    1    2    0    0  0.92257977313E+02 -0.25113361813E+01  0.52536906297E+03  0.54069493898E+03  0.88433723866E+02 0.  0.
         23    2    1    2    0    0 -0.92257977313E+02  0.25113361813E+01  0.43641905772E+03  0.46335871017E+03  0.12538683808E+03 0.  0.
          5    1    4    4  502    0 -0.25444869964E+02  0.15390187392E+02  0.10188379630E+02  0.31710798712E+02  0.41800000000E+01 0.  1.
         -5    1    4    4    0  502 -0.66813107348E+02 -0.12878851211E+02  0.42623067809E+03  0.43164791146E+03  0.41800000000E+01 0.  1.
        -11    1    3    3    0    0  0.91291688371E+02 -0.18276410660E+02  0.51077204277E+03  0.51918809620E+03  0.00000000000E+00 0.  1.
         11    1    3    3    0    0  0.96628894148E+00  0.15765074479E+02  0.14597020200E+02  0.21506842780E+02  0.00000000000E+00 0. -1.
</event>
<event>
 8    1  0.8061721E-006  0.1077307E+03  0.7561462E-02  0.1264831E+00
         -1   -1    0    0    0  501 -0.00000000000E+00  0.00000000000E+00  0.49324503316E+02  0.49324503316E+02  0.00000000000E+00 0.  1.
          1   -1    0    0  501    0  0.00000000000E+00 -0.00000000000E+00 -0.33424268020E+03  0.33424268020E+03  0.00000000000E+00 0. -1.
         23    2    1    2    0    0  0.44265944504E+02 -0.36107107079E+02 -0.87339883900E+02  0.14284337575E+03  0.97533469384E+02 0.  0.
         23    2    1    2    0    0 -0.44265944504E+02  0.36107107079E+02 -0.19757829299E+03  0.24072380777E+03  0.12509025839E+03 0.  0.
          5    1    4    4  502    0 -0.46959553620E+02 -0.19280964969E+02 -0.17223792493E+03  0.17961161007E+03  0.41800000000E+01 0. -1.
         -5    1    4    4    0  502  0.26936091158E+01  0.55388072048E+02 -0.25340368054E+02  0.61112197705E+02  0.41800000000E+01 0. -1.
        -11    1    3    3    0    0 -0.28422547528E+02 -0.16425656638E+01 -0.41279170759E+02  0.50144881777E+02  0.00000000000E+00 0.  1.
         11    1    3    3    0    0  0.72688492032E+02 -0.34464541415E+02 -0.46060713141E+02  0.92698493968E+02  0.00000000000E+00 0. -1.
</event>
<event>
 8    1  0.8061721E-006  0.2364885E+03  0.7561462E-02  0.1122154E+00
          4   -1    0    0  501    0  0.00000000000E+00  0.00000000000E+00  0.52113960673E+02  0.52113960673E+02  0.00000000000E+00 0. -1.
         -4   -1    0    0    0  501 -0.00000000000E+00 -0.00000000000E+00 -0.12996334629E+04  0.12996334629E+04  0.00000000000E+00 0.  1.
         23    2    1    2    0    0 -0.98621800887E+02 -0.20538413955E+03 -0.77070623433E+03  0.80869381982E+03  0.89937145786E+02 0.  0.
         23    2    1    2    0    0  0.98621800887E+02  0.20538413955E+03 -0.47681326788E+03  0.54305360374E+03  0.12508964672E+03 0.  0.
          5    1    4    4  502    0  0.54017968477E+02  0.12932016916E+03 -0.15346412139E+03  0.20787100814E+03  0.41800000000E+01 0. -1.
         -5    1    4    4    0  502  0.44603832410E+02  0.76063970390E+02 -0.32334914649E+03  0.33518259560E+03  0.41800000000E+01 0. -1.
        -11    1    3    3    0    0 -0.10659488549E+03 -0.12745675986E+03 -0.54623717540E+03  0.57094898812E+03  0.00000000000E+00 0.  1.
         11    1    3    3    0    0  0.79730846019E+01 -0.77927379690E+02 -0.22446905893E+03  0.23774483170E+03  0.00000000000E+00 0. -1.
</event>
<event>
 8    1  0.8061721E-006  0.1022779E+03  0.7561462E-02  0.1275577E+00
          2   -1    0    0  501    0  0.00000000000E+00  0.00000000000E+00  0.10380030394E+03  0.10380030394E+03  0.00000000000E+00 0. -1.
         -2   -1    0    0    0  501 -0.00000000000E+00 -0.00000000000E+00 -0.12061046272E+03  0.12061046272E+03  0.00000000000E+00 0.  1.
         23    2    1    2    0    0  0.10997751150E+01 -0.76744070934E+01 -0.34270717142E+02  0.97871385921E+02  0.91346702727E+02 0.  0.
         23    2    1    2    0    0 -0.10997751150E+01  0.76744070934E+01  0.17460558369E+02  0.12653938074E+03  0.12508891938E+03 0.  0.
          5    1    4    4  502    0 -0.53271425116E+02  0.34823764263E+02 -0.37193598502E+01  0.63889320931E+02  0.41800000000E+01 0. -1.
         -5    1    4    4    0  502  0.52171650001E+02 -0.27149357170E+02  0.21179918219E+02  0.62650059811E+02  0.41800000000E+01 0. -1.
        -11    1    3    3    0    0 -0.39775844263E+02 -0.95092185921E+01 -0.39211219212E+02  0.56657415553E+02  0.00000000000E+00 0.  1.
         11    1    3    3    0    0  0.40875619378E+02  0.18348114988E+01  0.49405020694E+01  0.41213970368E+02  0.00000000000E+00 0. -1.
</event>
<event>
 8    1  0.8061721E-006  0.2328599E+03  0.7561462E-02  0.1124643E+00
         -3   -1    0    0    0  501 -0.00000000000E+00  0.00000000000E+00  0.71450849704E+03  0.71450849704E+03  0.00000000000E+00 0.  1.
          3   -1    0    0  501    0  0.00000000000E+00 -0.00000000000E+00 -0.10164767203E+03  0.10164767203E+03  0.00000000000E+00 0. -1.
         23    2    1    2    0    0 -0.10139583074E+03  0.20052853964E+03  0.45166151705E+03  0.51263390118E+03  0.91118499516E+02 0.  0.
         23    2    1    2    0    0  0.10139583074E+03 -0.20052853964E+03  0.16119930795E+03  0.30352226789E+03  0.12509092901E+03 0.  0.
          5    1    4    4  502    0  0.94018457205E+02 -0.17908419452E+03  0.77399261630E+02  0.21660733395E+03  0.41800000000E+01 0. -1.
         -5    1    4    4    0  502  0.73773735326E+01 -0.21444345120E+02  0.83800046320E+02  0.86914933936E+02  0.41800000000E+01 0. -1.
        -11    1    3    3    0    0 -0.99711070734E+02  0.10496829799E+03  0.23810189557E+03  0.27866315487E+03  0.00000000000E+00 0. -1.
         11    1    3    3    0    0 -0.16847600032E+01  0.95560241652E+02  0.21355962149E+03  0.23397074631E+03  0.00000000000E+00 0.  1.
</event>
<event>
 8    1  0.8061721E-006  0.1129870E+03  0.7561462E-02  0.1255136E+00
          2   -1    0    0  501    0  0.00000000000E+00  0.00000000000E+00  0.30983677076E+03  0.30983677076E+03  0.00000000000E+00 0. -1.
         -2   -1    0    0    0  501 -0.00000000000E+00 -0.00000000000E+00 -0.45744308979E+02  0.45744308979E+02  0.00000000000E+00 0.  1.
         23    2    1    2    0    0  0.25257101697E+01 -0.45190889858E+02  0.89824876242E+02  0.13634477382E+03  0.92047776828E+02 0.  0.
         23    2    1    2    0    0 -0.25257101697E+01  0.45190889858E+02  0.17426758554E+03  0.21923630592E+03  0.12508705258E+03 0.  0.
          5    1    4    4  502    0 -0.24318550386E+02  0.81301118399E+02  0.83818257539E+02  0.11934922054E+03  0.41800000000E+01 0. -1.
         -5    1    4    4    0  502  0.21792840217E+02 -0.36110228541E+02  0.90449328002E+02  0.99887085381E+02  0.41800000000E+01 0. -1.
        -11    1    3    3    0    0  0.39938490138E+02 -0.46366977813E+02  0.73135807872E+02  0.95361554198E+02  0.00000000000E+00 0.  1.
         11    1    3    3    0    0 -0.37412779968E+02  0.11760879543E+01  0.16689068370E+02  0.40983219626E+02  0.00000000000E+00 0. -1.
</event>
<event>
 8    1  0.8061721E-006  0.8477953E+02  0.7561462E-02  0.1316010E+00
         -1   -1    0    0    0  501 -0.00000000000E+00  0.00000000000E+00  0.24029282818E+03  0.24029282818E+03  0.00000000000E+00 0.  1.
          1   -1    0    0  501    0  0.00000000000E+00 -0.00000000000E+00 -0.46266498685E+02  0.46266498685E+02  0.00000000000E+00 0. -1.
         23    2    1    2    0    0  0.53270007401E+01 -0.17801213542E+02  0.11379940133E+03  0.14850154138E+03  0.93579612684E+02 0.  0.
         23    2    1    2    0    0 -0.53270007401E+01  0.17801213542E+02  0.80226928172E+02  0.13805778549E+03  0.11080763507E+03 0.  0.
          5    1    4    4  502    0  0.60089368637E+01 -0.39751885059E+02  0.23733862504E+01  0.40489814155E+02  0.41800000000E+01 0. -1.
         -5    1    4    4    0  502 -0.11335937604E+02  0.57553098601E+02  0.77853541922E+02  0.97567971331E+02  0.41800000000E+01 0.  1.
        -11    1    3    3    0    0 -0.30704898339E+00 -0.43763552557E+02  0.15111155471E+02  0.46299998177E+02  0.00000000000E+00 0. -1.
         11    1    3    3    0    0  0.56340497235E+01  0.25962339015E+02  0.98688245856E+02  0.10220154321E+03  0.00000000000E+00 0.  1.
</event>
<event>
 8    1  0.8061721E-006  0.7598043E+02  0.7561462E-02  0.1340862E+00
          1   -1    0    0  501    0  0.00000000000E+00  0.00000000000E+00  0.13671363795E+03  0.13671363795E+03  0.00000000000E+00 0. -1.
         -1   -1    0    0    0  501 -0.00000000000E+00 -0.00000000000E+00 -0.10079646133E+03  0.10079646133E+03  0.00000000000E+00 0.  1.
         23    2    1    2    0    0  0.41223889776E+02 -0.29689136148E+02  0.58638574958E+01  0.99199051923E+02  0.85001254015E+02 0.  0.
         23    2    1    2    0    0 -0.41223889776E+02  0.29689136148E+02  0.30053319120E+02  0.13831104736E+03  0.12508353184E+03 0.  0.
          5    1    4    4  502    0 -0.29542335555E+02  0.45460011735E+02 -0.38665642934E+02  0.66722309616E+02  0.41800000000E+01 0. -1.
         -5    1    4    4    0  502 -0.11681554222E+02 -0.15770875587E+02  0.68718962054E+02  0.71588737743E+02  0.41800000000E+01 0. -1.
        -11    1    3    3    0    0  0.54218774773E+01 -0.39917042938E+02 -0.27846806107E+02  0.48971539517E+02  0.00000000000E+00 0.  1.
         11    1    3    3    0    0  0.35802012299E+02  0.10227906789E+02  0.33710663603E+02  0.50227512406E+02  0.00000000000E+00 0. -1.
</event>
<event>
 8    1  0.8061721E-006  0.9449239E+02  0.7561462E-02  0.1292323E+00
          1   -1    0    0  501    0  0.00000000000E+00  0.00000000000E+00  0.39693441336E+03  0.39693441336E+03  0.00000000000E+00 0. -1.
         -1   -1    0    0    0  501 -0.00000000000E+00 -0.00000000000E+00 -0.45943000517E+02  0.45943000517E+02  0.00000000000E+00 0.  1.
         23    2    1    2    0    0  0.23624930456E+02  0.60837188690E+02  0.70892288301E+02  0.12925072631E+03  0.86143675584E+02 0.  0.
         23    2    1    2    0    0 -0.23624930456E+02 -0.60837188690E+02  0.28009912454E+03  0.31362668757E+03  0.12508748427E+03 0.  0.
          5    1    4    4  502    0 -0.17808650532E+02  0.10719603779E+02  0.21676459744E+03  0.21779903820E+03  0.41800000000E+01 0. -1.
         -5    1    4    4    0  502 -0.58162799241E+01 -0.71556792469E+02  0.63334527106E+02  0.95827649373E+02  0.41800000000E+01 0. -1.
        -11    1    3    3    0    0  0.16961949855E+02 -0.13224158746E+02 -0.59542373659E+01  0.22316788748E+02  0.00000000000E+00 0.  1.
         11    1    3    3    0    0  0.66629806016E+01  0.74061347435E+02  0.76846525667E+02  0.10693393756E+03  0.00000000000E+00 0. -1.
</event>
<event>
 8    1  0.8061721E-006  0.2508170E+03  0.7561462E-02  0.1112790E+00
          2   -1    0    0  501    0  0.00000000000E+00  0.00000000000E+00  0.68358580242E+03  0.68358580242E+03  0.00000000000E+00 0. -1.
         -2   -1    0    0    0  501 -0.00000000000E+00 -0.00000000000E+00 -0.19135633009E+03  0.19135633009E+03  0.00000000000E+00 0.  1.
         23    2    1    2    0    0 -0.14137774358E+03  0.18143562263E+03 -0.67775672759E+02  0.25675141382E+03  0.91767070032E+02 0.  0.
         23    2    1    2    0    0  0.14137774358E+03 -0.18143562263E+03  0.56000514509E+03  0.61819071869E+03  0.12508977021E+03 0.  0.
          5    1    4    4  502    0 -0.53625899343E+01 -0.82958529783E+02  0.14668475234E+03  0.16865575592E+03  0.41800000000E+01 0.  1.
         -5    1    4    4    0  502  0.14674033351E+03 -0.98477092851E+02  0.41332039275E+03  0.44953496277E+03  0.41800000000E+01 0.  1.
        -11    1    3    3    0    0 -0.10357402769E+03  0.17489213112E+03 -0.76890477248E+02  0.21731769884E+03  0.00000000000E+00 0.  1.
         11    1    3    3    0    0 -0.37803715889E+02  0.65434915149E+01  0.91148044886E+01  0.39433714980E+02  0.00000000000E+00 0. -1.
</event>
<event>
 8    1  0.8061721E-006  0.1256675E+03  0.7561462E-02  0.1234030E+00
         -2   -1    0    0    0  501 -0.00000000000E+00  0.00000000000E+00  0.24763581105E+02  0.24763581105E+02  0.00000000000E+00 0.  1.
          2   -1    0    0  501    0  0.00000000000E+00 -0.00000000000E+00 -0.71905717877E+03  0.71905717877E+03  0.00000000000E+00 0. -1.
         23    2    1    2    0    0  0.49826480673E+02  0.40364951488E+02 -0.19079726688E+03  0.22107107919E+03  0.91415630615E+02 0.  0.
         23    2    1    2    0    0 -0.49826480673E+02 -0.40364951488E+02 -0.50349633078E+03  0.52274968068E+03  0.12508663420E+03 0.  0.
          5    1    4    4  502    0 -0.65514830201E+01 -0.80652491098E+02 -0.30652835200E+03  0.31705653948E+03  0.41800000000E+01 0. -1.
         -5    1    4    4    0  502 -0.43274997653E+02  0.40287539610E+02 -0.19696797879E+03  0.20569314120E+03  0.41800000000E+01 0. -1.
        -11    1    3    3    0    0  0.71536362836E+02  0.78864716390E+01 -0.11216547799E+03  0.13326943421E+03  0.00000000000E+00 0.  1.
         11    1    3    3    0    0 -0.21709882163E+02  0.32478479849E+02 -0.78631788885E+02  0.87801644974E+02  0.00000000000E+00 0. -1.
</event>
<event>
 8    1  0.8061721E-006  0.6975830E+02  0.7561462E-02  0.1360917E+00
          1   -1    0    0  501    0  0.00000000000E+00  0.00000000000E+00  0.64534692698E+02  0.64534692698E+02  0.00000000000E+00 0. -1.
         -1   -1    0    0    0  501 -0.00000000000E+00 -0.00000000000E+00 -0.19772443566E+03  0.19772443566E+03  0.00000000000E+00 0.  1.
         23    2    1    2    0    0 -0.14890129397E+02 -0.13844129195E+02 -0.85520062200E+02  0.12685709759E+03  0.91464016447E+02 0.  0.
         23    2    1    2    0    0  0.14890129397E+02  0.13844129195E+02 -0.47669680759E+02  0.13540203076E+03  0.12509170877E+03 0.  0.
          5    1    4    4  502    0 -0.31868871998E+02  0.21156192258E+02  0.26923156220E+02  0.46963158051E+02  0.41800000000E+01 0.  1.
         -5    1    4    4    0  502  0.46759001395E+02 -0.73120630629E+01 -0.74592836980E+02  0.88438872711E+02  0.41800000000E+01 0.  1.
        -11    1    3    3    0    0  0.16190826336E+02 -0.15481605125E+02 -0.92319915912E+02  0.94998893829E+02  0.00000000000E+00 0.  1.
         11    1    3    3    0    0 -0.31080955733E+02  0.16374759293E+01  0.67998537116E+01  0.31858203766E+02  0.00000000000E+00 0. -1.
</event>
<event>
 8    1  0.8061721E-006  0.1047066E+03  0.7561462E-02  0.1270699E+00
         -2   -1    0    0    0  501 -0.00000000000E+00  0.00000000000E+00  0.32700571417E+02  0.32700571417E+02  0.00000000000E+00 0.  1.
          2   -1    0    0  501    0  0.00000000000E+00 -0.00000000000E+00 -0.36660507760E+03  0.36660507760E+03  0.00000000000E+00 0. -1.
         23    2    1    2    0    0  0.40322508557E+00  0.84993510062E+00 -0.10992225021E+03  0.14275889076E+03  0.91084108495E+02 0.  0.
         23    2    1    2    0    0 -0.40322508557E+00 -0.84993510062E+00 -0.22398225598E+03  0.25654675826E+03  0.12508918099E+03 0.  0.
          5    1    4    4  502    0 -0.61763677091E+02  0.90284595737E+01 -0.10425777212E+03  0.12158708952E+03  0.41800000000E+01 0.  1.
         -5    1    4    4    0  502  0.61360452005E+02 -0.98783946744E+01 -0.11972448386E+03  0.13495966874E+03  0.41800000000E+01 0.  1.
        -11    1    3    3    0    0 -0.41147826278E+02 -0.83945700744E+01 -0.81172745288E+02  0.91392707541E+02  0.00000000000E+00 0. -1.
         11    1    3    3    0    0  0.41551051363E+02  0.92445051751E+01 -0.28749504917E+02  0.51366183217E+02  0.00000000000E+00 0.  1.
</event>
<event>
 8    1  0.8061721E-006  0.2059641E+03  0.7561462E-02  0.1144802E+00
          1   -1    0    0  501    0  0.00000000000E+00  0.00000000000E+00  0.52644393952E+03  0.52644393952E+03  0.00000000000E+00 0. -1.
         -1   -1    0    0    0  501 -0.00000000000E+00 -0.00000000000E+00 -0.86904861945E+02  0.86904861945E+02  0.00000000000E+00 0.  1.
         23    2    1    2    0    0 -0.70780686145E+02 -0.17031903123E+03  0.20490196969E+03  0.28974419202E+03  0.89153809202E+02 0.  0.
         23    2    1    2    0    0  0.70780686145E+02  0.17031903123E+03  0.23463710789E+03  0.32360460945E+03  0.12508754105E+03 0.  0.
          5    1    4    4  502    0  0.10403521687E+03  0.13848916371E+03  0.20622362576E+03  0.26934778825E+03  0.41800000000E+01 0.  1.
         -5    1    4    4    0  502 -0.33254530720E+02  0.31829867523E+02  0.28413482129E+02  0.54256821199E+02  0.41800000000E+01 0.  1.
        -11    1    3    3    0    0 -0.32371622374E+02 -0.13947568795E+03  0.10243694267E+03  0.17605316438E+03  0.00000000000E+00 0.  1.
         11    1    3    3    0    0 -0.38409063771E+02 -0.30843343286E+02  0.10246502702E+03  0.11369102764E+03  0.00000000000E+00 0. -1.
</event>
<event>
 8    1  0.8061721E-006  0.1102380E+03  0.7561462E-02  0.1260130E+00
         -1   -1    0    0    0  501 -0.00000000000E+00  0.00000000000E+00  0.40412782465E+02  0.40412782465E+02  0.00000000000E+00 0.  1.
          1   -1    0    0  501    0  0.00000000000E+00 -0.00000000000E+00 -0.45175414039E+03  0.45175414039E+03  0.00000000000E+00 0. -1.
         23    2    1    2    0    0 -0.18884428611E+02 -0.30033609545E+02 -0.55313322285E+02  0.11313950705E+03  0.92099647599E+02 0.  0.
         23    2    1    2    0    0  0.18884428611E+02  0.30033609545E+02 -0.35602803564E+03  0.37902741580E+03  0.12508869022E+03 0.  0.
          5    1    4    4  502    0  0.23996765584E+02 -0.46731665128E+02 -0.13265058932E+03  0.14273522527E+03  0.41800000000E+01 0. -1.
         -5    1    4    4    0  502 -0.51123369725E+01  0.76765274673E+02 -0.22337744632E+03  0.23629219054E+03  0.41800000000E+01 0. -1.
        -11    1    3    3    0    0 -0.41890165045E+02 -0.46387200734E+02 -0.57367918372E+02  0.84838884821E+02  0.00000000000E+00 0. -1.
         11    1    3    3    0    0  0.23005736434E+02  0.16353591189E+02  0.20545960868E+01  0.28300622232E+02  0.00000000000E+00 0.  1.
</event>
<event>
 8    1  0.8061721E-006  0.8674796E+02  0.7561462E-02  0.1310924E+00
         -1   -1    0    0    0  501 -0.00000000000E+00  0.00000000000E+00  0.12794723745E+03  0.12794723745E+03  0.00000000000E+00 0.  1.
          1   -1    0    0  501    0  0.00000000000E+00 -0.00000000000E+00 -0.99303879343E+02  0.99303879343E+02  0.00000000000E+00 0. -1.
         23    2    1    2    0    0 -0.21640721872E+02 -0.10364464406E+02  0.26190398032E+02  0.99854848294E+02  0.93323688382E+02 0.  0.
         23    2    1    2    0    0  0.21640721872E+02  0.10364464406E+02  0.24529600712E+01  0.12739626849E+03  0.12509216301E+03 0.  0.
          5    1    4    4  502    0 -0.20685483257E+02 -0.36259243147E+02  0.36570692610E+02  0.55655277281E+02  0.41800000000E+01 0.  1.
         -5    1    4    4    0  502  0.42326205130E+02  0.46623707554E+02 -0.34117732539E+02  0.71740991214E+02  0.41800000000E+01 0.  1.
        -11    1    3    3    0    0  0.17846930805E+02 -0.20979721933E+02  0.46617668703E+02  0.54146733114E+02  0.00000000000E+00 0.  1.
         11    1    3    3    0    0 -0.39487652677E+02  0.10615257526E+02 -0.20427270671E+02  0.45708115181E+02  0.00000000000E+00 0. -1.
</event>
<event>
 8    1  0.8061721E-006  0.1015569E+03  0.7561462E-02  0.1277056E+00
          1   -1    0    0  501    0  0.00000000000E+00  0.00000000000E+00  0.52090703300E+03  0.52090703300E+03  0.00000000000E+00 0.  1.
         -1   -1    0    0    0  501 -0.00000000000E+00 -0.00000000000E+00 -0.22634278186E+02  0.22634278186E+02  0.00000000000E+00 0. -1.
         23    2    1    2    0    0  0.29779210925E+01  0.14939480663E+02  0.22007028119E+03  0.23812910257E+03  0.89679901487E+02 0.  0.
         23    2    1    2    0    0 -0.29779210925E+01 -0.14939480663E+02  0.27820247362E+03  0.30541220861E+03  0.12509174531E+03 0.  0.
          5    1    4    4  502    0  0.57562273208E+02  0.47246711689E+01  0.17241857753E+03  0.18188286366E+03  0.41800000000E+01 0. -1.
         -5    1    4    4    0  502 -0.60540194300E+02 -0.19664151832E+02  0.10578389609E+03  0.12352934495E+03  0.41800000000E+01 0. -1.
        -11    1    3    3    0    0  0.68835525416E+01 -0.32801343428E+02  0.42026592409E+02  0.53754496517E+02  0.00000000000E+00 0.  1.
         11    1    3    3    0    0 -0.39056314491E+01  0.47740824092E+02  0.17804368878E+03  0.18437460605E+03  0.00000000000E+00 0. -1.
</event>
<event>
 8    1  0.8061721E-006  0.8830202E+02  0.7561462E-02  0.1307016E+00
         -2   -1    0    0    0  501 -0.00000000000E+00  0.00000000000E+00  0.76951589188E+02  0.76951589188E+02  0.00000000000E+00 0. -1.
          2   -1    0    0  501    0  0.00000000000E+00 -0.00000000000E+00 -0.17448468041E+03  0.17448468041E+03  0.00000000000E+00 0.  1.
         23    2    1    2    0    0  0.14797016586E+02 -0.20516661003E+02 -0.66453151515E+01  0.94770683605E+02  0.91090269398E+02 0.  0.
         23    2    1    2    0    0 -0.14797016586E+02  0.20516661003E+02 -0.90887776071E+02  0.15666558599E+03  0.12507450946E+03 0.  0.
          5    1    4    4  502    0  0.36278759105E+02 -0.13179674992E+02  0.86248074976E+01  0.39770741752E+02  0.41800000000E+01 0.  1.
         -5    1    4    4    0  502 -0.51075775691E+02  0.33696335995E+02 -0.99512583569E+02  0.11689484424E+03  0.41800000000E+01 0.  1.
        -11    1    3    3    0    0  0.41479375808E+02 -0.26341553386E+02  0.23180393184E+02  0.54329979573E+02  0.00000000000E+00 0.  1.
         11    1    3    3    0    0 -0.26682359222E+02  0.58248923826E+01 -0.29825708336E+02  0.40440704033E+02  0.00000000000E+00 0. -1.
</event>
<event>
 8    1  0.8061721E-006  0.8782020E+02  0.7561462E-02  0.1308218E+00
          1   -1    0    0  501    0  0.00000000000E+00  0.00000000000E+00  0.48102138357E+03  0.48102138357E+03  0.00000000000E+00 0. -1.
         -1   -1    0    0    0  501 -0.00000000000E+00 -0.00000000000E+00 -0.33202645082E+02  0.33202645082E+02  0.00000000000E+00 0.  1.
         23    2    1    2    0    0 -0.59029778391E+02  0.17390179266E+02  0.15546041975E+03  0.19032922391E+03  0.90941400324E+02 0.  0.
         23    2    1    2    0    0  0.59029778391E+02 -0.17390179266E+02  0.29235831873E+03  0.32389480474E+03  0.12509006729E+03 0.  0.
          5    1    4    4  502    0  0.52332124806E+02  0.14686567186E+02  0.28484823713E+03  0.29001782211E+03  0.41800000000E+01 0. -1.
         -5    1    4    4    0  502  0.66976535856E+01 -0.32076746452E+02  0.75100815963E+01  0.33876982629E+02  0.41800000000E+01 0. -1.
        -11    1    3    3    0    0 -0.14705770153E-01 -0.18842027257E+02  0.99574883549E+02  0.10134189480E+03  0.00000000000E+00 0. -1.
         11    1    3    3    0    0 -0.59015072621E+02  0.36232206522E+02  0.55885536206E+02  0.88987329115E+02  0.00000000000E+00 0.  1.
</event>
<event>
 8    1  0.8061721E-006  0.1355027E+03  0.7561462E-02  0.1219512E+00
          1   -1    0    0  501    0  0.00000000000E+00  0.00000000000E+00  0.34489978275E+02  0.34489978275E+02  0.00000000000E+00 0. -1.
         -1   -1    0    0    0  501 -0.00000000000E+00 -0.00000000000E+00 -0.56983707257E+03  0.56983707257E+03  0.00000000000E+00 0.  1.
         23    2    1    2    0    0 -0.45002265761E+02  0.76032141281E+02 -0.25361287562E+03  0.28365966050E+03  0.91308388891E+02 0.  0.
         23    2    1    2    0    0  0.45002265761E+02 -0.76032141281E+02 -0.28173421867E+03  0.32066739035E+03  0.12508922747E+03 0.  0.
          5    1    4    4  502    0 -0.30152377366E+02 -0.61652526881E+02 -0.83683481616E+02  0.10830788257E+03  0.41800000000E+01 0.  1.
         -5    1    4    4    0  502  0.75154643127E+02 -0.14379614400E+02 -0.19805073706E+03  0.21235950778E+03  0.41800000000E+01 0.  1.
        -11    1    3    3    0    0 -0.53821100333E+02  0.50167372941E+01 -0.88435237700E+02  0.10364685119E+03  0.00000000000E+00 0.  1.
         11    1    3    3    0    0  0.88188345714E+01  0.71015403987E+02 -0.16517763792E+03  0.18001280931E+03  0.00000000000E+00 0. -1.
</event>
<event>
 7    1  0.8061721E-006  0.7684685E+02  0.7561462E-02  0.1338245E+00
         -2   -1    0    0    0  501 -0.00000000000E+00  0.00000000000E+00  0.14968442083E+02  0.14968442083E+02  0.00000000000E+00 0.  1.
          2   -1    0    0  501    0  0.00000000000E+00 -0.00000000000E+00 -0.10859572273E+04  0.10859572273E+04  0.00000000000E+00 0. -1.
         23    2    1    2    0    0 -0.35519921290E+01  0.50886706877E+02 -0.27857364629E+03  0.29644598777E+03  0.87606356340E+02 0.  0.
          5    1    1    2  502    0 -0.90530372779E+01 -0.31336273420E+02 -0.77352540772E+03  0.77422409437E+03  0.41800000000E+01 0. -1.
         -5    1    1    2    0  502  0.12605029407E+02 -0.19550433456E+02 -0.18889731215E+02  0.30255587254E+02  0.41800000000E+01 0.  1.
        -11    1    3    3    0    0  0.36940254776E+02  0.72495813473E+01 -0.15169186203E+03  0.15629318558E+03  0.00000000000E+00 0. -1.
         11    1    3    3    0    0 -0.40492246906E+02  0.43637125529E+02 -0.12688178426E+03  0.14015280219E+03  0.00000000000E+00 0.  1.
</event>
<event>
 8    1  0.8061721E-006  0.8566698E+02  0.7561462E-02  0.1313697E+00
          2   -1    0    0  501    0  0.00000000000E+00  0.00000000000E+00  0.17398537748E+03  0.17398537748E+03  0.00000000000E+00 0. -1.
         -2   -1    0    0    0  501 -0.00000000000E+00 -0.00000000000E+00 -0.10626689713E+03  0.10626689713E+03  0.00000000000E+00 0.  1.
         23    2    1    2    0    0 -0.43595150026E+02  0.65089368974E+02  0.61014215359E+01  0.12030944824E+03  0.91104187230E+02 0.  0.
         23    2    1    2    0    0  0.43595150026E+02 -0.65089368974E+02  0.61617058817E+02  0.15994282638E+03  0.12509149736E+03 0.  0.
          5    1    4    4  502    0 -0.68039834963E+01 -0.27646734629E+02 -0.34583608687E+02  0.44990382493E+02  0.41800000000E+01 0.  1.
         -5    1    4    4    0  502  0.50399133522E+02 -0.37442634346E+02  0.96200667504E+02  0.11495244388E+03  0.41800000000E+01 0.  1.
        -11    1    3    3    0    0 -0.40118116141E+02  0.49781739099E+02  0.45119207447E+02  0.78252333327E+02  0.00000000000E+00 0. -1.
         11    1    3    3    0    0 -0.34770338846E+01  0.15307629875E+02 -0.39017785911E+02  0.42057114909E+02  0.00000000000E+00 0.  1.
</event>
<event>
 8    1  0.8061721E-006  0.1009481E+03  0.7561462E-02  0.1278315E+00
          2   -1    0    0  501    0  0.00000000000E+00  0.00000000000E+00  0.70610117421E+02  0.70610117421E+02  0.00000000000E+00 0. -1.
         -2   -1    0    0    0  501 -0.00000000000E+00 -0.00000000000E+00 -0.16835093092E+03  0.16835093092E+03  0.00000000000E+00 0.  1.
         23    2    1    2    0    0  0.11473769437E+02  0.18565646422E+01 -0.55781030891E+02  0.10650428616E+03  0.89980805425E+02 0.  0.
         23    2    1    2    0    0 -0.11473769437E+02 -0.18565646422E+01 -0.41959782606E+02  0.13245676218E+03  0.12509626803E+03 0.  0.
          5    1    4    4  502    0 -0.57771251779E+02  0.18960082093E+02  0.75656829729E+01  0.61414283387E+02  0.41800000000E+01 0. -1.
         -5    1    4    4    0  502  0.46297482342E+02 -0.20816646735E+02 -0.49525465579E+02  0.71042478795E+02  0.41800000000E+01 0. -1.
        -11    1    3    3    0    0 -0.19703983681E+02  0.37682524887E+02 -0.33025860119E+02  0.53841685443E+02  0.00000000000E+00 0. -1.
         11    1    3    3    0    0  0.31177753118E+02 -0.35825960245E+02 -0.22755170772E+02  0.52662600713E+02  0.00000000000E+00 0.  1.
</event>
<event>
 8    1  0.8061721E-006  0.8970408E+02  0.7561462E-02  0.1303570E+00
         -2   -1    0    0    0  501 -0.00000000000E+00  0.00000000000E+00  0.27909250181E+02  0.27909250181E+02  0.00000000000E+00 0. -1.
          2   -1    0    0  501    0  0.00000000000E+00 -0.00000000000E+00 -0.57771067884E+03  0.57771067884E+03  0.00000000000E+00 0.  1.
         23    2    1    2    0    0 -0.16167980100E+02 -0.27501193852E+02 -0.11004945303E+03  0.14731074691E+03  0.92584311835E+02 0.  0.
         23    2    1    2    0    0  0.16167980100E+02  0.27501193852E+02 -0.43975197562E+03  0.45830918211E+03  0.12509111519E+03 0.  0.
          5    1    4    4  502    0  0.40351907941E+02  0.38276915490E+02 -0.79794905977E+02  0.97355524516E+02  0.41800000000E+01 0. -1.
         -5    1    4    4    0  502 -0.24183927840E+02 -0.10775721639E+02 -0.35995706965E+03  0.36095365759E+03  0.41800000000E+01 0. -1.
        -11    1    3    3    0    0 -0.39033058776E+02  0.20185808607E+02 -0.61006341131E+02  0.75185239275E+02  0.00000000000E+00 0. -1.
         11    1    3    3    0    0  0.22865078676E+02 -0.47687002459E+02 -0.49043111900E+02  0.72125507632E+02  0.00000000000E+00 0.  1.
</event>
<event>
 8    1  0.8061721E-006  0.1278577E+03  0.7561462E-02  0.1230670E+00
          1   -1    0    0  501    0  0.00000000000E+00  0.00000000000E+00  0.15614415445E+03  0.15614415445E+03  0.00000000000E+00 0. -1.
         -1   -1    0    0    0  501 -0.00000000000E+00 -0.00000000000E+00 -0.22970802751E+03  0.22970802751E+03  0.00000000000E+00 0.  1.
         23    2    1    2    0    0  0.55131734323E+02  0.50866836384E+02 -0.17173995487E+03  0.21002858047E+03  0.94817980059E+02 0.  0.
         23    2    1    2    0    0 -0.55131734323E+02 -0.50866836384E+02  0.98176081809E+02  0.17582360149E+03  0.12509377533E+03 0.  0.
          5    1    4    4  502    0 -0.89502903834E+01 -0.81310073064E+02  0.28414942969E+02  0.86696695805E+02  0.41800000000E+01 0. -1.
         -5    1    4    4    0  502 -0.46181443940E+02  0.30443236679E+02  0.69761138840E+02  0.89126905680E+02  0.41800000000E+01 0. -1.
        -11    1    3    3    0    0  0.80518238357E+02  0.31726288769E+02 -0.10474463187E+03  0.13587193240E+03  0.00000000000E+00 0. -1.
         11    1    3    3    0    0 -0.25386504034E+02  0.19140547615E+02 -0.66995322994E+02  0.74156648071E+02  0.00000000000E+00 0.  1.
</event>
<event>
 8    1  0.8061721E-006  0.1898376E+03  0.7561462E-02  0.1158608E+00
         -1   -1    0    0    0  501 -0.00000000000E+00  0.00000000000E+00  0.68278766628E+03  0.68278766628E+03  0.00000000000E+00 0.  1.
          1   -1    0    0  501    0  0.00000000000E+00 -0.00000000000E+00 -0.62875701087E+02  0.62875701087E+02  0.00000000000E+00 0. -1.
         23    2    1    2    0    0  0.17298435597E+03  0.21918882468E+02  0.25303384698E+03  0.32063253792E+03  0.91515418558E+02 0.  0.
         23    2    1    2    0    0 -0.17298435597E+03 -0.21918882468E+02  0.36687811822E+03  0.42503082945E+03  0.12509047741E+03 0.  0.
          5    1    4    4  502    0 -0.93997477227E+02  0.36449123163E+02  0.10647800391E+03  0.14669390587E+03  0.41800000000E+01 0. -1.
         -5    1    4    4    0  502 -0.78986878745E+02 -0.58368005631E+02  0.26040011431E+03  0.27833692358E+03  0.41800000000E+01 0. -1.
        -11    1    3    3    0    0  0.95024887289E+02 -0.11365803125E+02  0.68901208777E+02  0.11792492212E+03  0.00000000000E+00 0. -1.
         11    1    3    3    0    0  0.77959468683E+02  0.33284685593E+02  0.18413263820E+03  0.20270761580E+03  0.00000000000E+00 0.  1.
</event>
<event>
 8    1  0.8153314E-006  0.1176386E+03  0.7561462E-02  0.1247044E+00
          1   -1    0    0  501    0  0.00000000000E+00  0.00000000000E+00  0.38433902552E+03  0.38433902552E+03  0.00000000000E+00 0. -1.
         -1   -1    0    0    0  501 -0.00000000000E+00 -0.00000000000E+00 -0.36919529853E+02  0.36919529853E+02  0.00000000000E+00 0.  1.
         23    2    1    2    0    0  0.10383979910E+02  0.47237723372E+02  0.14657284517E+03  0.17975021728E+03  0.92126609200E+02 0.  0.
         23    2    1    2    0    0 -0.10383979910E+02 -0.47237723372E+02  0.20084665049E+03  0.24150833809E+03  0.12509065035E+03 0.  0.
          5    1    4    4  502    0  0.26245854910E+02 -0.79127036438E+02  0.10650107665E+03  0.13531402190E+03  0.41800000000E+01 0.  1.
         -5    1    4    4    0  502 -0.36629834821E+02  0.31889313066E+02  0.94345573843E+02  0.10619431619E+03  0.41800000000E+01 0.  1.
        -11    1    3    3    0    0 -0.32879598571E+02  0.49851420666E+02  0.72494502538E+02  0.93923825746E+02  0.00000000000E+00 0. -1.
         11    1    3    3    0    0  0.43263578481E+02 -0.26136972939E+01  0.74078342634E+02  0.85826391535E+02  0.00000000000E+00 0.  1.
</event>
<event>
 8    1  0.8061721E-006  0.9413668E+02  0.7561462E-02  0.1293132E+00
          2   -1    0    0  501    0  0.00000000000E+00  0.00000000000E+00  0.41911506553E+03  0.41911506553E+03  0.00000000000E+00 0. -1.
         -2   -1    0    0    0  501 -0.00000000000E+00 -0.00000000000E+00 -0.35005114440E+02  0.35005114440E+02  0.00000000000E+00 0.  1.
         23    2    1    2    0    0  0.13417945307E+02  0.48300018016E+02  0.14032862010E+03  0.17557038128E+03  0.92843439000E+02 0.  0.
         23    2    1    2    0    0 -0.13417945307E+02 -0.48300018016E+02  0.24378133099E+03  0.27854979869E+03  0.12509084706E+03 0.  0.
          5    1    4    4  502    0 -0.30759022360E+02 -0.86514412113E+02  0.15372661385E+03  0.17910947816E+03  0.41800000000E+01 0.  1.
         -5    1    4    4    0  502  0.17341077053E+02  0.38214394097E+02  0.90054717140E+02  0.99440320538E+02  0.41800000000E+01 0.  1.
        -11    1    3    3    0    0  0.15413295094E+02  0.17494152197E+02 -0.75472357243E+01  0.24506647952E+02  0.00000000000E+00 0.  1.
         11    1    3    3    0    0 -0.19953497872E+01  0.30805865818E+02  0.14787585583E+03  0.15106373332E+03  0.00000000000E+00 0. -1.
</event>
<event>
 8    1  0.8061721E-006  0.8883094E+02  0.7561462E-02  0.1305708E+00
         -1   -1    0    0    0  501 -0.00000000000E+00  0.00000000000E+00  0.33801381470E+02  0.33801381470E+02  0.00000000000E+00 0.  1.
          1   -1    0    0  501    0  0.00000000000E+00 -0.00000000000E+00 -0.76951784283E+03  0.76951784283E+03  0.00000000000E+00 0. -1.
         23    2    1    2    0    0 -0.56794125252E+02 -0.32116325224E+02 -0.89307740370E+02  0.14229262463E+03  0.89522553159E+02 0.  0.
         23    2    1    2    0    0  0.56794125252E+02  0.32116325224E+02 -0.64640872099E+03  0.66102659968E+03  0.12188067893E+03 0.  0.
          5    1    4    4  502    0  0.28054680008E+02  0.49675415499E+02 -0.11409084634E+03  0.12762799691E+03  0.41800000000E+01 0. -1.
         -5    1    4    4    0  502  0.28739445244E+02 -0.17559090275E+02 -0.53231787465E+03  0.53339860277E+03  0.41800000000E+01 0.  1.
        -11    1    3    3    0    0 -0.27846362454E+02  0.14692484421E+02 -0.80651735868E+02  0.86579394193E+02  0.00000000000E+00 0. -1.
         11    1    3    3    0    0 -0.28947762797E+02 -0.46808809645E+02 -0.86560045017E+01  0.55713230433E+02  0.00000000000E+00 0.  1.
</event>
<event>
 8    1  0.8061721E-006  0.1073071E+03  0.7561462E-02  0.1265640E+00
         -3   -1    0    0    0  501 -0.00000000000E+00  0.00000000000E+00  0.85354631772E+02  0.85354631772E+02  0.00000000000E+00 0.  1.
          3   -1    0    0  501    0  0.00000000000E+00 -0.00000000000E+00 -0.27802543413E+03  0.27802543413E+03  0.00000000000E+00 0. -1.
         23    2    1    2    0    0  0.36223160016E+02  0.23269248855E+01  0.32529537370E+02  0.10326557013E+03  0.91038866821E+02 0.  0.
         23    2    1    2    0    0 -0.36223160016E+02 -0.23269248855E+01 -0.22520033973E+03  0.26011449577E+03  0.12500730377E+03 0.  0.
          5    1    4    4  502    0 -0.80333036307E+02 -0.54620929169E+01 -0.17739759892E+03  0.19486049287E+03  0.41800000000E+01 0. -1.
         -5    1    4    4    0  502  0.44109876291E+02  0.31351680314E+01 -0.47802740809E+02  0.65254002895E+02  0.41800000000E+01 0. -1.
        -11    1    3    3    0    0 -0.23378959325E+02  0.16112414086E+02 -0.84603968428E+01  0.29627081219E+02  0.00000000000E+00 0. -1.
         11    1    3    3    0    0  0.59602119342E+02 -0.13785489201E+02  0.40989934213E+02  0.73638488913E+02  0.00000000000E+00 0.  1.
</event>
<event>
 8    1  0.8061721E-006  0.1050227E+03  0.7561462E-02  0.1270075E+00
          2   -1    0    0  501    0  0.00000000000E+00  0.00000000000E+00  0.75247358373E+03  0.75247358373E+03  0.00000000000E+00 0. -1.
         -2   -1    0    0    0  501 -0.00000000000E+00 -0.00000000000E+00 -0.22676971621E+02  0.22676971621E+02  0.00000000000E+00 0.  1.
         23    2    1    2    0    0 -0.69354450763E+02  0.19243223899E+02  0.27830484864E+03  0.30115096584E+03  0.89766218270E+02 0.  0.
         23    2    1    2    0    0  0.69354450763E+02 -0.19243223899E+02  0.45149176347E+03  0.47399958951E+03  0.12510178604E+03 0.  0.
          5    1    4    4  502    0  0.64277816379E+02 -0.56695187897E+02  0.40474056932E+03  0.41373709389E+03  0.41800000000E+01 0. -1.
         -5    1    4    4    0  502  0.50766343831E+01  0.37451963998E+02  0.46751194152E+02  0.60262495622E+02  0.41800000000E+01 0. -1.
        -11    1    3    3    0    0 -0.14459696185E+02 -0.15537014014E+02  0.72712847964E+01  0.22435534334E+02  0.00000000000E+00 0.  1.
         11    1    3    3    0    0 -0.54894754577E+02  0.34780237913E+02  0.27103356384E+03  0.27871543150E+03  0.00000000000E+00 0. -1.
</event>
<event>
 8    1  0.8061721E-006  0.1447117E+03  0.7561462E-02  0.1207126E+00
          2   -1    0    0  501    0  0.00000000000E+00  0.00000000000E+00  0.13047510296E+03  0.13047510296E+03  0.00000000000E+00 0. -1.
         -2   -1    0    0    0  501 -0.00000000000E+00 -0.00000000000E+00 -0.23104952356E+03  0.23104952356E+03  0.00000000000E+00 0.  1.
         23    2    1    2    0    0 -0.36797142512E+02 -0.90382538091E+02 -0.14423268149E+03  0.19696570126E+03  0.92029278898E+02 0.  0.
         23    2    1    2    0    0  0.36797142512E+02  0.90382538091E+02  0.43658260887E+02  0.16455892527E+03  0.12510221122E+03 0.  0.
          5    1    4    4  502    0  0.31917499422E+01  0.11559963741E+03  0.24952908189E+02  0.11837898236E+03  0.41800000000E+01 0. -1.
         -5    1    4    4    0  502  0.33605392570E+02 -0.25217099317E+02  0.18705352698E+02  0.46179942911E+02  0.41800000000E+01 0. -1.
        -11    1    3    3    0    0  0.13124711556E+02 -0.79255983150E+02 -0.68473163848E+02  0.10555729764E+03  0.00000000000E+00 0. -1.
         11    1    3    3    0    0 -0.49921854068E+02 -0.11126554942E+02 -0.75759517642E+02  0.91408403617E+02  0.00000000000E+00 0.  1.
</event>
<event>
 8    1  0.8061721E-006  0.1078736E+03  0.7561462E-02  0.1264559E+00
          1   -1    0    0  501    0  0.00000000000E+00  0.00000000000E+00  0.20779918295E+03  0.20779918295E+03  0.00000000000E+00 0. -1.
         -1   -1    0    0    0  501 -0.00000000000E+00 -0.00000000000E+00 -0.59872072298E+02  0.59872072298E+02  0.00000000000E+00 0.  1.
         23    2    1    2    0    0 -0.22727260103E+02  0.25986605668E+01  0.42453645974E+02  0.10245725828E+03  0.90398541634E+02 0.  0.
         23    2    1    2    0    0  0.22727260103E+02 -0.25986605668E+01  0.10547346468E+03  0.16521399696E+03  0.12509089357E+03 0.  0.
          5    1    4    4  502    0  0.60576120720E+02  0.34089696503E+02  0.37484667474E+02  0.79083161955E+02  0.41800000000E+01 0. -1.
         -5    1    4    4    0  502 -0.37848860617E+02 -0.36688357070E+02  0.67988797201E+02  0.86130835009E+02  0.41800000000E+01 0. -1.
        -11    1    3    3    0    0  0.13934049160E+02  0.39095043868E+02  0.18031934971E+02  0.45251860291E+02  0.00000000000E+00 0.  1.
         11    1    3    3    0    0 -0.36661309263E+02 -0.36496383301E+02  0.24421711003E+02  0.57205397990E+02  0.00000000000E+00 0. -1.
</event>
<event>
 8    1  0.8061721E-006  0.1061422E+03  0.7561462E-02  0.1267885E+00
         -1   -1    0    0    0  501 -0.00000000000E+00  0.00000000000E+00  0.22162086463E+03  0.22162086463E+03  0.00000000000E+00 0.  1.
          1   -1    0    0  501    0  0.00000000000E+00 -0.00000000000E+00 -0.13613283141E+03  0.13613283141E+03  0.00000000000E+00 0. -1.
         23    2    1    2    0    0  0.15082462798E+02  0.87020232025E+02  0.14720767970E+03  0.19266661935E+03  0.87466129349E+02 0.  0.
         23    2    1    2    0    0 -0.15082462798E+02 -0.87020232025E+02 -0.61719646485E+02  0.16508707669E+03  0.12507768252E+03 0.  0.
          5    1    4    4  502    0  0.25618473714E+02 -0.91980237744E+01  0.28136968577E+02  0.39370944077E+02  0.41800000000E+01 0.  1.
         -5    1    4    4    0  502 -0.40700936512E+02 -0.77822208251E+02 -0.89856615062E+02  0.12571613262E+03  0.41800000000E+01 0.  1.
        -11    1    3    3    0    0 -0.12041620478E+02  0.11788619047E+02  0.96529409115E+02  0.97989279959E+02  0.00000000000E+00 0.  1.
         11    1    3    3    0    0  0.27124083276E+02  0.75231612978E+02  0.50678270588E+02  0.94677339393E+02  0.00000000000E+00 0. -1.
</event>
<event>
 8    1  0.8061721E-006  0.1016330E+03  0.7561462E-02  0.1276899E+00
         -1   -1    0    0    0  501 -0.00000000000E+00  0.00000000000E+00  0.17963870760E+03  0.17963870760E+03  0.00000000000E+00 0.  1.
          1   -1    0    0  501    0  0.00000000000E+00 -0.00000000000E+00 -0.83545399772E+02  0.83545399772E+02  0.00000000000E+00 0. -1.
         23    2    1    2    0    0 -0.28157410929E+02 -0.35019769585E+01  0.94742320765E+02  0.13491323262E+03  0.91762570576E+02 0.  0.
         23    2    1    2    0    0  0.28157410929E+02  0.35019769585E+01  0.13509870663E+01  0.12827087476E+03  0.12508592452E+03 0.  0.
          5    1    4    4  502    0 -0.48984969288E+02  0.11810325820E+02  0.27715294852E+00  0.50562438884E+02  0.41800000000E+01 0.  1.
         -5    1    4    4    0  502  0.77142380217E+02 -0.83083488619E+01  0.10738341178E+01  0.77708435874E+02  0.41800000000E+01 0.  1.
        -11    1    3    3    0    0 -0.31798632975E+02 -0.32680887703E+02  0.95142893726E+02  0.10550527810E+03  0.00000000000E+00 0.  1.
         11    1    3    3    0    0  0.36412220469E+01  0.29178910745E+02 -0.40057296185E+00  0.29407954518E+02  0.00000000000E+00 0. -1.
</event>
<event>
 8    1  0.8061721E-006  0.1275555E+03  0.7561462E-02  0.1231129E+00
         -1   -1    0    0    0  501 -0.00000000000E+00  0.00000000000E+00  0.32348470898E+02  0.32348470898E+02  0.00000000000E+00 0.  1.
          1   -1    0    0  501    0  0.00000000000E+00 -0.00000000000E+00 -0.63002867983E+03  0.63002867983E+03  0.00000000000E+00 0. -1.
         23    2    1    2    0    0  0.59733714782E+02  0.70461099180E+02 -0.28251417092E+03  0.31093655912E+03  0.91292956190E+02 0.  0.
         23    2    1    2    0    0 -0.59733714782E+02 -0.70461099180E+02 -0.31516603802E+03  0.35144059161E+03  0.12509186517E+03 0.  0.
          5    1    4    4  502    0  0.10305280452E+02  0.26431612046E+02 -0.26819750963E+02  0.39263218949E+02  0.41800000000E+01 0. -1.
         -5    1    4    4    0  502 -0.70038995234E+02 -0.96892711226E+02 -0.28834628705E+03  0.31217737266E+03  0.41800000000E+01 0. -1.
        -11    1    3    3    0    0 -0.16044291642E+01  0.36807226948E+02 -0.19715770484E+03  0.20057045327E+03  0.00000000000E+00 0. -1.
         11    1    3    3    0    0  0.61338143947E+02  0.33653872232E+02 -0.85356466081E+02  0.11036610585E+03  0.00000000000E+00 0.  1.
</event>
<event>
 8    1  0.8061721E-006  0.9889967E+02  0.7561462E-02  0.1282627E+00
         -1   -1    0    0    0  501 -0.00000000000E+00  0.00000000000E+00  0.13290253230E+03  0.13290253230E+03  0.00000000000E+00 0.  1.
          1   -1    0    0  501    0  0.00000000000E+00 -0.00000000000E+00 -0.93773759841E+02  0.93773759841E+02  0.00000000000E+00 0. -1.
         23    2    1    2    0    0  0.36899906785E+01  0.47832319094E+01  0.15084376132E+02  0.99151726534E+02  0.97811201468E+02 0.  0.
         23    2    1    2    0    0 -0.36899906785E+01 -0.47832319094E+01  0.24044396324E+02  0.12752456560E+03  0.12509151250E+03 0.  0.
          5    1    4    4  502    0 -0.56198035237E+02  0.26138098167E+02  0.66494596119E+00  0.62123537354E+02  0.41800000000E+01 0. -1.
         -5    1    4    4    0  502  0.52508044558E+02 -0.30921330076E+02  0.23379450363E+02  0.65401028251E+02  0.41800000000E+01 0. -1.
        -11    1    3    3    0    0  0.38866889501E+02 -0.13598789095E+01 -0.24402793008E+02  0.45912750699E+02  0.00000000000E+00 0. -1.
         11    1    3    3    0    0 -0.35176898822E+02  0.61431108189E+01  0.39487169140E+02  0.53238975835E+02  0.00000000000E+00 0.  1.
</event>
<event>
 6    1  0.8061721E-006  0.1114791E+03  0.7561462E-02  0.1257855E+00
          2   -1    0    0  501    0  0.00000000000E+00  0.00000000000E+00  0.40844738929E+03  0.40844738929E+03  0.00000000000E+00 0. -1.
         -2   -1    0    0    0  501 -0.00000000000E+00 -0.00000000000E+00 -0.46436122138E+02  0.46436122138E+02  0.00000000000E+00 0.  1.
          5    1    1    2  502    0  0.59055415343E+02 -0.55167287680E+02  0.11762776766E+03  0.14277512331E+03  0.41800000000E+01 0. -1.
         -5    1    1    2    0  502 -0.71261182972E+02  0.80721649546E+02  0.25414381798E+03  0.27604473102E+03  0.41800000000E+01 0.  1.
        -11    1    1    2    0    0  0.16305936615E+02 -0.12357744188E+02 -0.29954496924E+01  0.20677768960E+02  0.00000000000E+00 0. -1.
         11    1    1    2    0    0 -0.41001689854E+01 -0.13196617678E+02 -0.67648688030E+01  0.15385888137E+02  0.00000000000E+00 0.  1.
</event>
<event>
 7    1  0.8061721E-006  0.2279067E+03  0.7561462E-02  0.1128122E+00
         -1   -1    0    0    0  501 -0.00000000000E+00  0.00000000000E+00  0.35991534271E+03  0.35991534271E+03  0.00000000000E+00 0.  1.
          1   -1    0    0  501    0  0.00000000000E+00 -0.00000000000E+00 -0.35406741869E+03  0.35406741869E+03  0.00000000000E+00 0. -1.
         23    2    1    2    0    0 -0.11810707833E+03  0.13009988714E+03  0.19545610726E+03  0.27738267097E+03  0.88672395391E+02 0.  0.
          5    1    1    2  502    0  0.75599289548E+00 -0.14100494854E+03 -0.26246883434E+03  0.29797706025E+03  0.41800000000E+01 0. -1.
         -5    1    1    2    0  502  0.11735108543E+03  0.10905061392E+02  0.72860651091E+02  0.13862303017E+03  0.41800000000E+01 0.  1.
        -11    1    3    3    0    0 -0.63772890307E+02  0.12733177804E+03  0.14239776961E+03  0.20138889748E+03  0.00000000000E+00 0.  1.
         11    1    3    3    0    0 -0.54334188021E+02  0.27681091036E+01  0.53058337650E+02  0.75993773495E+02  0.00000000000E+00 0. -1.
</event>
<event>
 8    1  0.8061721E-006  0.1189939E+03  0.7561462E-02  0.1244766E+00
         -1   -1    0    0    0  501 -0.00000000000E+00  0.00000000000E+00  0.15484883630E+03  0.15484883630E+03  0.00000000000E+00 0.  1.
          1   -1    0    0  501    0  0.00000000000E+00 -0.00000000000E+00 -0.20180278203E+03  0.20180278203E+03  0.00000000000E+00 0. -1.
         23    2    1    2    0    0  0.25353190071E+02  0.90770817115E+02  0.82215628231E+02  0.15363743355E+03  0.89235228337E+02 0.  0.
         23    2    1    2    0    0 -0.25353190071E+02 -0.90770817115E+02 -0.12916957396E+03  0.20301418479E+03  0.12509138620E+03 0.  0.
          5    1    4    4  502    0  0.13896481931E+02 -0.47371278133E+02  0.11273939273E+02  0.50810671209E+02  0.41800000000E+01 0.  1.
         -5    1    4    4    0  502 -0.39249672002E+02 -0.43399538982E+02 -0.14044351323E+03  0.15220351358E+03  0.41800000000E+01 0.  1.
        -11    1    3    3    0    0  0.28385133624E+02 -0.91414515498E+01  0.19672535435E+02  0.35725209555E+02  0.00000000000E+00 0.  1.
         11    1    3    3    0    0 -0.30319435530E+01  0.99912268664E+02  0.62543092796E+02  0.11791222400E+03  0.00000000000E+00 0. -1.
</event>
<event>
 8    1  0.8061721E-006  0.1107937E+03  0.7561462E-02  0.1259107E+00
         -2   -1    0    0    0  501 -0.00000000000E+00  0.00000000000E+00  0.30372003963E+02  0.30372003963E+02  0.00000000000E+00 0.  1.
          2   -1    0    0  501    0  0.00000000000E+00 -0.00000000000E+00 -0.56489984421E+03  0.56489984421E+03  0.00000000000E+00 0. -1.
         23    2    1    2    0    0 -0.34347580590E+02 -0.15265774467E+02 -0.92048638178E+02  0.13391728011E+03  0.89711125056E+02 0.  0.
         23    2    1    2    0    0  0.34347580590E+02  0.15265774467E+02 -0.44247920207E+03  0.46135456806E+03  0.12508954012E+03 0.  0.
          5    1    4    4  502    0 -0.40190181184E+02  0.30998490499E+02 -0.12815067615E+03  0.13789933022E+03  0.41800000000E+01 0.  1.
         -5    1    4    4    0  502  0.74537761774E+02 -0.15732716033E+02 -0.31432852591E+03  0.32345523784E+03  0.41800000000E+01 0.  1.
        -11    1    3    3    0    0 -0.48162682288E+02  0.23225078218E+02 -0.35699307804E+02  0.64292214156E+02  0.00000000000E+00 0.  1.
         11    1    3    3    0    0  0.13815101698E+02 -0.38490852685E+02 -0.56349330373E+02  0.69625065952E+02  0.00000000000E+00 0. -1.
</event>
<event>
 8    1  0.8061721E-006  0.1778894E+03  0.7561462E-02  0.1169861E+00
          1   -1    0    0  501    0  0.00000000000E+00  0.00000000000E+00  0.75070353950E+03  0.75070353950E+03  0.00000000000E+00 0. -1.
         -1   -1    0    0    0  501 -0.00000000000E+00 -0.00000000000E+00 -0.62921502586E+02  0.62921502586E+02  0.00000000000E+00 0.  1.
         23    2    1    2    0    0  0.41639171427E+02 -0.16859813081E+03  0.22539865405E+03  0.30411764814E+03  0.10734915161E+03 0.  0.
         23    2    1    2    0    0 -0.41639171427E+02  0.16859813081E+03  0.46238338287E+03  0.50950739395E+03  0.12506095085E+03 0.  0.
          5    1    4    4  502    0 -0.20396503463E+02  0.86126730628E+02  0.38263156770E+03  0.39275720246E+03  0.41800000000E+01 0. -1.
         -5    1    4    4    0  502 -0.21242667964E+02  0.82471400185E+02  0.79751815167E+02  0.11675019149E+03  0.41800000000E+01 0. -1.
        -11    1    3    3    0    0  0.41774257309E+02 -0.58915849859E+02  0.16214623049E+03  0.17750370700E+03  0.00000000000E+00 0. -1.
         11    1    3    3    0    0 -0.13508588188E+00 -0.10968228095E+03  0.63252423560E+02  0.12661394114E+03  0.00000000000E+00 0.  1.
</event>
<event>
 8    1  0.8061721E-006  0.1433622E+03  0.7561462E-02  0.1208875E+00
         -1   -1    0    0    0  501 -0.00000000000E+00  0.00000000000E+00  0.25777139614E+03  0.25777139614E+03  0.00000000000E+00 0.  1.
          1   -1    0    0  501    0  0.00000000000E+00 -0.00000000000E+00 -0.81958894261E+02  0.81958894261E+02  0.00000000000E+00 0. -1.
         23    2    1    2    0    0  0.91180151816E+02  0.24430026979E+02  0.10038969325E+03  0.16581446857E+03  0.92226358339E+02 0.  0.
         23    2    1    2    0    0 -0.91180151816E+02 -0.24430026979E+02  0.75422808632E+02  0.17391582184E+03  0.12508983460E+03 0.  0.
          5    1    4    4  502    0  0.30445459412E+02  0.47719962906E+01  0.98251893394E+01  0.32614485937E+02  0.41800000000E+01 0. -1.
         -5    1    4    4    0  502 -0.12162561123E+03 -0.29202023270E+02  0.65597619293E+02  0.14130133590E+03  0.41800000000E+01 0. -1.
        -11    1    3    3    0    0 -0.10922972427E+02  0.26166788980E+02  0.12128875177E+02  0.30840262406E+02  0.00000000000E+00 0. -1.
         11    1    3    3    0    0  0.10210312424E+03 -0.17367620011E+01  0.88260818071E+02  0.13497420616E+03  0.00000000000E+00 0.  1.
</event>
<event>
 8    1  0.8061721E-006  0.9427135E+02  0.7561462E-02  0.1292826E+00
         -2   -1    0    0    0  501 -0.00000000000E+00  0.00000000000E+00  0.93189919966E+02  0.93189919966E+02  0.00000000000E+00 0.  1.
          2   -1    0    0  501    0  0.00000000000E+00 -0.00000000000E+00 -0.20778797209E+03  0.20778797209E+03  0.00000000000E+00 0. -1.
         23    2    1    2    0    0  0.47752562803E+02 -0.53811071398E+02  0.23996970784E+01  0.11520044031E+03  0.89941337780E+02 0.  0.
         23    2    1    2    0    0 -0.47752562803E+02  0.53811071398E+02 -0.11699774920E+03  0.18577745175E+03  0.12509536203E+03 0.  0.
          5    1    4    4  502    0  0.23582139224E+02  0.31602629886E+02 -0.10203297310E+03  0.10946708868E+03  0.41800000000E+01 0.  1.
         -5    1    4    4    0  502 -0.71334702027E+02  0.22208441512E+02 -0.14964776109E+02  0.76310363068E+02  0.41800000000E+01 0.  1.
        -11    1    3    3    0    0  0.27908549676E+02 -0.18272858716E+02  0.45173325266E+02  0.56155265348E+02  0.00000000000E+00 0.  1.
         11    1    3    3    0    0  0.19844013127E+02 -0.35538212682E+02 -0.42773628188E+02  0.59045174959E+02  0.00000000000E+00 0. -1.
</event>
<event>
 8    1  0.8061721E-006  0.1202188E+03  0.7561462E-02  0.1242736E+00
         -1   -1    0    0    0  501 -0.00000000000E+00  0.00000000000E+00  0.18620782131E+03  0.18620782131E+03  0.00000000000E+00 0.  1.
          1   -1    0    0  501    0  0.00000000000E+00 -0.00000000000E+00 -0.13368791265E+03  0.13368791265E+03  0.00000000000E+00 0. -1.
         23    2    1    2    0    0  0.96366822846E+02 -0.56822046176E+02  0.27388429614E+01  0.14484730941E+03  0.91967017493E+02 0.  0.
         23    2    1    2    0    0 -0.96366822846E+02  0.56822046176E+02  0.49781065689E+02  0.17504842455E+03  0.12509391255E+03 0.  0.
          5    1    4    4  502    0 -0.73382219177E+02  0.14469925033E+02 -0.30855758541E+02  0.81017770007E+02  0.41800000000E+01 0.  1.
         -5    1    4    4    0  502 -0.22984603669E+02  0.42352121144E+02  0.80636824230E+02  0.94030654539E+02  0.41800000000E+01 0.  1.
        -11    1    3    3    0    0  0.79118383483E+02 -0.60404633221E+02  0.37102622884E+02  0.10623108276E+03  0.00000000000E+00 0.  1.
         11    1    3    3    0    0  0.17248439363E+02  0.35825870446E+01 -0.34363779923E+02  0.38616226654E+02  0.00000000000E+00 0. -1.
</event>
<event>
 8    1  0.8061721E-006  0.1081328E+03  0.7561462E-02  0.1264067E+00
         -1   -1    0    0    0  501 -0.00000000000E+00  0.00000000000E+00  0.38981009961E+02  0.38981009961E+02  0.00000000000E+00 0.  1.
          1   -1    0    0  501    0  0.00000000000E+00 -0.00000000000E+00 -0.31357342765E+03  0.31357342765E+03  0.00000000000E+00 0. -1.
         23    2    1    2    0    0 -0.13857167477E+02 -0.14076760293E+01 -0.81387176557E+02  0.12196661817E+03  0.89766256453E+02 0.  0.
         23    2    1    2    0    0  0.13857167477E+02  0.14076760293E+01 -0.19320524114E+03  0.23058781944E+03  0.12509386328E+03 0.  0.
          5    1    4    4  502    0 -0.51699887393E+02  0.22661199098E+02 -0.80272229138E+02  0.98221746430E+02  0.41800000000E+01 0. -1.
         -5    1    4    4    0  502  0.65557054870E+02 -0.21253523068E+02 -0.11293301200E+03  0.13236607301E+03  0.41800000000E+01 0. -1.
        -11    1    3    3    0    0  0.38171347456E+02 -0.48466289093E+01 -0.30388426996E+02  0.49030583044E+02  0.00000000000E+00 0.  1.
         11    1    3    3    0    0 -0.52028514933E+02  0.34389528800E+01 -0.50998749561E+02  0.72936035126E+02  0.00000000000E+00 0. -1.
</event>
<event>
 8    1  0.8061721E-006  0.8142646E+02  0.7561462E-02  0.1325051E+00
         -4   -1    0    0    0  501 -0.00000000000E+00  0.00000000000E+00  0.52365684320E+03  0.52365684320E+03  0.00000000000E+00 0.  1.
          4   -1    0    0  501    0  0.00000000000E+00 -0.00000000000E+00 -0.28328275887E+02  0.28328275887E+02  0.00000000000E+00 0. -1.
         23    2    1    2    0    0 -0.36725619147E+02  0.39894683392E+02  0.19057650151E+03  0.21812581752E+03  0.91209168815E+02 0.  0.
         23    2    1    2    0    0  0.36725619147E+02 -0.39894683392E+02  0.30475206580E+03  0.33385930157E+03  0.12509138567E+03 0.  0.
          5    1    4    4  502    0  0.35753935712E+02 -0.43655640706E+02  0.31611763288E+03  0.32114169630E+03  0.41800000000E+01 0.  1.
         -5    1    4    4    0  502  0.97168343587E+00  0.37609573136E+01 -0.11365567081E+02  0.12717605265E+02  0.41800000000E+01 0.  1.
        -11    1    3    3    0    0 -0.41514457185E+02  0.63836191871E+02  0.10893096429E+03  0.13290772938E+03  0.00000000000E+00 0.  1.
         11    1    3    3    0    0  0.47888380377E+01 -0.23941508479E+02  0.81645537227E+02  0.85218088145E+02  0.00000000000E+00 0. -1.
</event>
<event>
 8    1  0.8061721E-006  0.1116283E+03  0.7561462E-02  0.1257584E+00
         -1   -1    0    0    0  501 -0.00000000000E+00  0.00000000000E+00  0.12140670161E+03  0.12140670161E+03  0.00000000000E+00 0.  1.
          1   -1    0    0  501    0  0.00000000000E+00 -0.00000000000E+00 -0.14692802601E+03  0.14692802601E+03  0.00000000000E+00 0. -1.
         23    2    1    2    0    0  0.52753109927E+02  0.57002307601E+02 -0.19019164235E+02  0.12095997715E+03  0.90760309520E+02 0.  0.
         23    2    1    2    0    0 -0.52753109927E+02 -0.57002307601E+02 -0.65021601626E+01  0.14737475047E+03  0.12507951595E+03 0.  0.
          5    1    4    4  502    0  0.37015077429E+02 -0.11844834252E+02 -0.23155467955E+02  0.45431972792E+02  0.41800000000E+01 0.  1.
         -5    1    4    4    0  502 -0.89768187356E+02 -0.45157473349E+02  0.16653307793E+02  0.10194277768E+03  0.41800000000E+01 0.  1.
        -11    1    3    3    0    0  0.43751963328E+02  0.25085431468E+02 -0.53220902794E+02  0.73321058784E+02  0.00000000000E+00 0. -1.
         11    1    3    3    0    0  0.90011465990E+01  0.31916876134E+02  0.34201738559E+02  0.47638918362E+02  0.00000000000E+00 0.  1.
</event>
<event>
 7    1  0.8061721E-006  0.1813616E+03  0.7561462E-02  0.1166492E+00
          2   -1    0    0  501    0  0.00000000000E+00  0.00000000000E+00  0.20474293101E+04  0.20474293101E+04  0.00000000000E+00 0. -1.
         -2   -1    0    0    0  501 -0.00000000000E+00 -0.00000000000E+00 -0.25910889957E+02  0.25910889957E+02  0.00000000000E+00 0.  1.
         23    2    1    2    0    0 -0.10045048588E+02 -0.15225680275E+03  0.38738197580E+03  0.42602825734E+03  0.90289777308E+02 0.  0.
          5    1    1    2  502    0 -0.39182992409E+02  0.12346411101E+03  0.14119370417E+04  0.14178724822E+04  0.41800000000E+01 0. -1.
         -5    1    1    2    0  502  0.49228040997E+02  0.28792691749E+02  0.22219940261E+03  0.22943946051E+03  0.41800000000E+01 0.  1.
        -11    1    3    3    0    0 -0.15755278696E+02  0.65269854674E+01  0.24134321594E+02  0.29551579059E+02  0.00000000000E+00 0. -1.
         11    1    3    3    0    0  0.57102301079E+01 -0.15878378822E+03  0.36324765421E+03  0.39647667828E+03  0.00000000000E+00 0.  1.
</event>
<event>
 8    1  0.8061721E-006  0.1399127E+03  0.7561462E-02  0.1213447E+00
          2   -1    0    0  501    0  0.00000000000E+00  0.00000000000E+00  0.44651794789E+03  0.44651794789E+03  0.00000000000E+00 0. -1.
         -2   -1    0    0    0  501 -0.00000000000E+00 -0.00000000000E+00 -0.44623624335E+02  0.44623624335E+02  0.00000000000E+00 0.  1.
         23    2    1    2    0    0 -0.24941368127E+02  0.84423950233E+02  0.18381201439E+03  0.22476530531E+03  0.94779273147E+02 0.  0.
         23    2    1    2    0    0  0.24941368127E+02 -0.84423950233E+02  0.21808230917E+03  0.26637626692E+03  0.12508775636E+03 0.  0.
          5    1    4    4  502    0 -0.51106523420E+02 -0.36022893860E+02  0.85966376043E+02  0.10638240375E+03  0.41800000000E+01 0. -1.
         -5    1    4    4    0  502  0.76047891547E+02 -0.48401056373E+02  0.13211593313E+03  0.15999386317E+03  0.41800000000E+01 0. -1.
        -11    1    3    3    0    0 -0.10371644724E+01  0.98944415292E+02  0.12324146787E+03  0.15804914562E+03  0.00000000000E+00 0.  1.
         11    1    3    3    0    0 -0.23904203654E+02 -0.14520465059E+02  0.60570546519E+02  0.66716159688E+02  0.00000000000E+00 0. -1.
</event>
<event>
 8    1  0.8061721E-006  0.1508280E+03  0.7561462E-02  0.1199459E+00
         -1   -1    0    0    0  501 -0.00000000000E+00  0.00000000000E+00  0.20659296280E+03  0.20659296280E+03  0.00000000000E+00 0.  1.
          1   -1    0    0  501    0  0.00000000000E+00 -0.00000000000E+00 -0.11546509534E+03  0.11546509534E+03  0.00000000000E+00 0. -1.
         23    2    1    2    0    0  0.10814623431E+03  0.57683463965E+01  0.34287795433E+02  0.14710780169E+03  0.93467484113E+02 0.  0.
         23    2    1    2    0    0 -0.10814623431E+03 -0.57683463965E+01  0.56840072025E+02  0.17495025646E+03  0.12509163293E+03 0.  0.
          5    1    4    4  502    0 -0.63296909257E+02  0.56166023921E+02  0.49230845256E+02  0.97991170466E+02  0.41800000000E+01 0.  1.
         -5    1    4    4    0  502 -0.44849325055E+02 -0.61934370317E+02  0.76092267684E+01  0.76959085990E+02  0.41800000000E+01 0.  1.
        -11    1    3    3    0    0  0.49307121842E+02  0.47300691895E+02  0.24687636889E+01  0.68371357396E+02  0.00000000000E+00 0. -1.
         11    1    3    3    0    0  0.58839112470E+02 -0.41532345498E+02  0.31819031744E+02  0.78736444294E+02  0.00000000000E+00 0.  1.
</event>
<event>
 7    1  0.8061721E-006  0.7801716E+02  0.7561462E-02  0.1334775E+00
          3   -1    0    0  501    0  0.00000000000E+00  0.00000000000E+00  0.22059812718E+03  0.22059812718E+03  0.00000000000E+00 0. -1.
         -3   -1    0    0    0  501 -0.00000000000E+00 -0.00000000000E+00 -0.58551177498E+02  0.58551177498E+02  0.00000000000E+00 0.  1.
         23    2    1    2    0    0 -0.11620416982E+02  0.56318371291E+01  0.47844703120E+02  0.10418551669E+03  0.91644719380E+02 0.  0.
          5    1    1    2  502    0  0.21241878271E+02 -0.30405917261E+02  0.13556535186E+03  0.14061000754E+03  0.41800000000E+01 0. -1.
         -5    1    1    2    0  502 -0.96214612884E+01  0.24774080132E+02 -0.21363105292E+02  0.34353780453E+02  0.41800000000E+01 0.  1.
        -11    1    3    3    0    0  0.29464144581E+02 -0.26515215029E+02  0.14174550149E+02  0.42096440655E+02  0.00000000000E+00 0. -1.
         11    1    3    3    0    0 -0.41084561563E+02  0.32147052158E+02  0.33670152971E+02  0.62089076031E+02  0.00000000000E+00 0.  1.
</event>
<event>
 8    1  0.8061721E-006  0.1276599E+03  0.7561462E-02  0.1230970E+00
          1   -1    0    0  501    0  0.00000000000E+00  0.00000000000E+00  0.10862682296E+03  0.10862682296E+03  0.00000000000E+00 0. -1.
         -1   -1    0    0    0  501 -0.00000000000E+00 -0.00000000000E+00 -0.18541125997E+03  0.18541125997E+03  0.00000000000E+00 0.  1.
         23    2    1    2    0    0  0.80220197620E+02 -0.44691283775E+02 -0.37267879784E+02  0.13390813602E+03  0.90055000286E+02 0.  0.
         23    2    1    2    0    0 -0.80220197620E+02  0.44691283775E+02 -0.39516557228E+02  0.16012994692E+03  0.12508977038E+03 0.  0.
          5    1    4    4  502    0 -0.37903962348E+02  0.80353657461E+02  0.48544075189E+01  0.89075576346E+02  0.41800000000E+01 0.  1.
         -5    1    4    4    0  502 -0.42316235272E+02 -0.35662373686E+02 -0.44370964747E+02  0.71054370570E+02  0.41800000000E+01 0.  1.
        -11    1    3    3    0    0 -0.83266385834E+01 -0.15587638856E+02 -0.36662055304E+02  0.40699062573E+02  0.00000000000E+00 0.  1.
         11    1    3    3    0    0  0.88546836203E+02 -0.29103644919E+02 -0.60582447984E+00  0.93209073445E+02  0.00000000000E+00 0. -1.
</event>
<event>
 8    1  0.8061721E-006  0.2332364E+03  0.7561462E-02  0.1124382E+00
          1   -1    0    0  501    0  0.00000000000E+00  0.00000000000E+00  0.92781973883E+03  0.92781973883E+03  0.00000000000E+00 0. -1.
         -1   -1    0    0    0  501 -0.00000000000E+00 -0.00000000000E+00 -0.12735259128E+03  0.12735259128E+03  0.00000000000E+00 0.  1.
         23    2    1    2    0    0 -0.12604786829E+03 -0.19530570515E+03  0.43441315576E+02  0.25349528446E+03  0.91325395050E+02 0.  0.
         23    2    1    2    0    0  0.12604786829E+03  0.19530570515E+03  0.75702583198E+03  0.80167704564E+03  0.12476214034E+03 0.  0.
          5    1    4    4  502    0  0.67646147052E+02  0.12318892870E+03  0.62259279128E+03  0.63827170509E+03  0.41800000000E+01 0. -1.
         -5    1    4    4    0  502  0.58401721243E+02  0.72116776445E+02  0.13443304069E+03  0.16340534055E+03  0.41800000000E+01 0.  1.
        -11    1    3    3    0    0 -0.10598292599E+03 -0.17379971853E+03  0.68576532252E+02  0.21480564130E+03  0.00000000000E+00 0.  1.
         11    1    3    3    0    0 -0.20064942309E+02 -0.21505986623E+02 -0.25135216676E+02  0.38689643160E+02  0.00000000000E+00 0. -1.
</event>
<event>
 8    1  0.8061721E-006  0.1486064E+03  0.7561462E-02  0.1202196E+00
         -1   -1    0    0    0  501 -0.00000000000E+00  0.00000000000E+00  0.40814659894E+02  0.40814659894E+02  0.00000000000E+00 0.  1.
          1   -1    0    0  501    0  0.00000000000E+00 -0.00000000000E+00 -0.59395582291E+03  0.59395582291E+03  0.00000000000E+00 0. -1.
         23    2    1    2    0    0 -0.25302151388E+02 -0.10702658549E+03 -0.29405827820E+03  0.32677289639E+03  0.90638656039E+02 0.  0.
         23    2    1    2    0    0  0.25302151388E+02  0.10702658549E+03 -0.25908288482E+03  0.30799758642E+03  0.12507471034E+03 0.  0.
          5    1    4    4  502    0 -0.14815234007E+02  0.12117473649E+03 -0.17164339736E+03  0.21066973247E+03  0.41800000000E+01 0. -1.
         -5    1    4    4    0  502  0.40117385395E+02 -0.14148150993E+02 -0.87439487461E+02  0.97327853952E+02  0.41800000000E+01 0. -1.
        -11    1    3    3    0    0 -0.50889074977E+02 -0.59094682484E+02 -0.22952660817E+03  0.24241357905E+03  0.00000000000E+00 0. -1.
         11    1    3    3    0    0  0.25586923589E+02 -0.47931903009E+02 -0.64531670030E+02  0.84359317338E+02  0.00000000000E+00 0.  1.
</event>
<event>
 8    1  0.8061721E-006  0.2289273E+03  0.7561462E-02  0.1127397E+00
         -2   -1    0    0    0  501 -0.00000000000E+00  0.00000000000E+00  0.37927597815E+02  0.37927597815E+02  0.00000000000E+00 0.  1.
          2   -1    0    0  501    0  0.00000000000E+00 -0.00000000000E+00 -0.19430395397E+04  0.19430395397E+04  0.00000000000E+00 0. -1.
         23    2    1    2    0    0 -0.16966978168E+03  0.15000288948E+03 -0.55086219902E+03  0.60223643671E+03  0.89167604667E+02 0.  0.
         23    2    1    2    0    0  0.16966978168E+03 -0.15000288948E+03 -0.13542497429E+04  0.13787307008E+04  0.12496910667E+03 0.  0.
          5    1    4    4  502    0  0.88672359296E+02 -0.10630076964E+03 -0.47822615792E+03  0.49787585948E+03  0.41800000000E+01 0.  1.
         -5    1    4    4    0  502  0.80997422388E+02 -0.43702119838E+02 -0.87602358496E+03  0.88085484134E+03  0.41800000000E+01 0.  1.
        -11    1    3    3    0    0 -0.12984617354E+03  0.10380602985E+03 -0.48390712860E+03  0.51166574024E+03  0.00000000000E+00 0. -1.
         11    1    3    3    0    0 -0.39823608143E+02  0.46196859634E+02 -0.66955070414E+02  0.90570696473E+02  0.00000000000E+00 0.  1.
</event>
<event>
 8    1  0.8061721E-006  0.1071470E+03  0.7561462E-02  0.1265946E+00
         -2   -1    0    0    0  501 -0.00000000000E+00  0.00000000000E+00  0.11735914973E+03  0.11735914973E+03  0.00000000000E+00 0.  1.
          2   -1    0    0  501    0  0.00000000000E+00 -0.00000000000E+00 -0.14138448217E+03  0.14138448217E+03  0.00000000000E+00 0. -1.
         23    2    1    2    0    0 -0.27548526482E+02 -0.54260128286E+01  0.53543129399E+02  0.10856053806E+03  0.90167404264E+02 0.  0.
         23    2    1    2    0    0  0.27548526482E+02  0.54260128286E+01 -0.77568461842E+02  0.15018309384E+03  0.12549793814E+03 0.  0.
          5    1    4    4  502    0 -0.39328364340E+02 -0.32790286209E+02 -0.28326876409E+02  0.58666919456E+02  0.41800000000E+01 0. -1.
         -5    1    4    4    0  502  0.66876890823E+02  0.38216299038E+02 -0.49241585434E+02  0.91516174386E+02  0.41800000000E+01 0.  1.
        -11    1    3    3    0    0  0.11508481723E+02  0.30570339806E+02 -0.65982681098E+00  0.32671489083E+02  0.00000000000E+00 0. -1.
         11    1    3    3    0    0 -0.39057008206E+02 -0.35996352635E+02  0.54202956210E+02  0.75889048979E+02  0.00000000000E+00 0.  1.
</event>
<event>
 8    1  0.8061721E-006  0.1216956E+03  0.7561462E-02  0.1240326E+00
         -1   -1    0    0    0  501 -0.00000000000E+00  0.00000000000E+00  0.37372096554E+03  0.37372096554E+03  0.00000000000E+00 0.  1.
          1   -1    0    0  501    0  0.00000000000E+00 -0.00000000000E+00 -0.42428602540E+02  0.42428602540E+02  0.00000000000E+00 0. -1.
         23    2    1    2    0    0 -0.23612884070E+02 -0.58834290391E+02  0.14185988820E+03  0.18045908532E+03  0.91772607975E+02 0.  0.
         23    2    1    2    0    0  0.23612884070E+02  0.58834290391E+02  0.18943247480E+03  0.23569048276E+03  0.12508516752E+03 0.  0.
          5    1    4    4  502    0 -0.49302127421E+02  0.13102622785E+02  0.94570190829E+02  0.10753311995E+03  0.41800000000E+01 0.  1.
         -5    1    4    4    0  502  0.72915011492E+02  0.45731667606E+02  0.94862283970E+02  0.12815736281E+03  0.41800000000E+01 0.  1.
        -11    1    3    3    0    0 -0.44211898703E+02 -0.69857446483E+02  0.83074301711E+02  0.11720108541E+03  0.00000000000E+00 0. -1.
         11    1    3    3    0    0  0.20599014633E+02  0.11023156092E+02  0.58785586485E+02  0.63257999909E+02  0.00000000000E+00 0.  1.
</event>
<event>
 8    1  0.8061721E-006  0.1100196E+03  0.7561462E-02  0.1260534E+00
          1   -1    0    0  501    0  0.00000000000E+00  0.00000000000E+00  0.26588168211E+03  0.26588168211E+03  0.00000000000E+00 0. -1.
         -1   -1    0    0    0  501 -0.00000000000E+00 -0.00000000000E+00 -0.52381671398E+02  0.52381671398E+02  0.00000000000E+00 0.  1.
         23    2    1    2    0    0 -0.36462944071E+02  0.15746905790E+01  0.53460955517E+02  0.11188342437E+03  0.91256785737E+02 0.  0.
         23    2    1    2    0    0  0.36462944071E+02 -0.15746905790E+01  0.16003905519E+03  0.20637992914E+03  0.12509256582E+03 0.  0.
          5    1    4    4  502    0 -0.32762097482E+02  0.31670701035E+02  0.28205648030E+02  0.53753319119E+02  0.41800000000E+01 0.  1.
         -5    1    4    4    0  502  0.69225041553E+02 -0.33245391614E+02  0.13183340716E+03  0.15262661002E+03  0.41800000000E+01 0.  1.
        -11    1    3    3    0    0 -0.21220531835E+02  0.45863099519E+02  0.35324181290E+02  0.61656570231E+02  0.00000000000E+00 0. -1.
         11    1    3    3    0    0 -0.15242412236E+02 -0.44288408940E+02  0.18136774227E+02  0.50226854138E+02  0.00000000000E+00 0.  1.
</event>
<event>
 8    1  0.8061721E-006  0.8550571E+02  0.7561462E-02  0.1314115E+00
         -2   -1    0    0    0  501 -0.00000000000E+00  0.00000000000E+00  0.20268936283E+02  0.20268936283E+02  0.00000000000E+00 0. -1.
          2   -1    0    0  501    0  0.00000000000E+00 -0.00000000000E+00 -0.63624011406E+03  0.63624011406E+03  0.00000000000E+00 0.  1.
         23    2    1    2    0    0  0.12647537531E+02 -0.34354504541E+02 -0.26039076593E+03  0.27779346063E+03  0.89586068106E+02 0.  0.
         23    2    1    2    0    0 -0.12647537531E+02  0.34354504541E+02 -0.35558041185E+03  0.37871558972E+03  0.12509147219E+03 0.  0.
          5    1    4    4  502    0 -0.33465429149E+02  0.55693046998E+02 -0.33723585039E+03  0.34346345020E+03  0.41800000000E+01 0.  1.
         -5    1    4    4    0  502  0.20817891619E+02 -0.21338542456E+02 -0.18344561456E+02  0.35252139518E+02  0.41800000000E+01 0.  1.
        -11    1    3    3    0    0  0.37001251291E+02 -0.45028427595E+01 -0.21522439170E+03  0.21842826505E+03  0.00000000000E+00 0.  1.
         11    1    3    3    0    0 -0.24353713760E+02 -0.29851661782E+02 -0.45166374230E+02  0.59365195579E+02  0.00000000000E+00 0. -1.
</event>
<event>
 8    1  0.8061721E-006  0.8541060E+02  0.7561462E-02  0.1314362E+00
          2   -1    0    0  501    0  0.00000000000E+00  0.00000000000E+00  0.54890790111E+03  0.54890790111E+03  0.00000000000E+00 0. -1.
         -2   -1    0    0    0  501 -0.00000000000E+00 -0.00000000000E+00 -0.28865914148E+02  0.28865914148E+02  0.00000000000E+00 0.  1.
         23    2    1    2    0    0  0.84089424576E+01 -0.35616167369E+02  0.12716687876E+03  0.16384489412E+03  0.96615281316E+02 0.  0.
         23    2    1    2    0    0 -0.84089424576E+01  0.35616167369E+02  0.39287510820E+03  0.41392892114E+03  0.12508828650E+03 0.  0.
          5    1    4    4  502    0 -0.26064141024E+02  0.54794741825E+02  0.82832376526E+02  0.10276418724E+03  0.41800000000E+01 0.  1.
         -5    1    4    4    0  502  0.17655198566E+02 -0.19178574456E+02  0.31004273168E+03  0.31116473390E+03  0.41800000000E+01 0.  1.
        -11    1    3    3    0    0 -0.14502373079E+02 -0.52930307045E+02  0.30046747894E+02  0.62567909409E+02  0.00000000000E+00 0.  1.
         11    1    3    3    0    0  0.22911315537E+02  0.17314139676E+02  0.97120130864E+02  0.10127698471E+03  0.00000000000E+00 0. -1.
</event>
<event>
 8    1  0.8061721E-006  0.1930674E+03  0.7561462E-02  0.1155723E+00
         -3   -1    0    0    0  501 -0.00000000000E+00  0.00000000000E+00  0.15102800247E+03  0.15102800247E+03  0.00000000000E+00 0. -1.
          3   -1    0    0  501    0  0.00000000000E+00 -0.00000000000E+00 -0.34699179749E+03  0.34699179749E+03  0.00000000000E+00 0.  1.
         23    2    1    2    0    0 -0.76236902217E+02  0.17699971347E+03 -0.22392465553E+02  0.21006862170E+03  0.80538434797E+02 0.  0.
         23    2    1    2    0    0  0.76236902217E+02 -0.17699971347E+03 -0.17357132947E+03  0.28795117826E+03  0.12509160970E+03 0.  0.
          5    1    4    4  502    0  0.47692503932E+02 -0.10257055033E+03 -0.17464515676E+03  0.20811942703E+03  0.41800000000E+01 0. -1.
         -5    1    4    4    0  502  0.28544398285E+02 -0.74429163144E+02  0.10738272902E+01  0.79831751232E+02  0.41800000000E+01 0. -1.
        -11    1    3    3    0    0 -0.11010629841E+02  0.38198623740E+02 -0.39147202334E+02  0.55793120326E+02  0.00000000000E+00 0.  1.
         11    1    3    3    0    0 -0.65226272376E+02  0.13880108973E+03  0.16754736781E+02  0.15427550137E+03  0.00000000000E+00 0. -1.
</event>
<event>
 8    1  0.8061721E-006  0.1335543E+03  0.7561462E-02  0.1222275E+00
          1   -1    0    0  501    0  0.00000000000E+00  0.00000000000E+00  0.11274046379E+04  0.11274046379E+04  0.00000000000E+00 0. -1.
         -1   -1    0    0    0  501 -0.00000000000E+00 -0.00000000000E+00 -0.18326709197E+02  0.18326709197E+02  0.00000000000E+00 0.  1.
         23    2    1    2    0    0 -0.68691159962E+02  0.49933490746E+02  0.33564654073E+03  0.35765418970E+03  0.89700000816E+02 0.  0.
         23    2    1    2    0    0  0.68691159962E+02 -0.49933490746E+02  0.77343138800E+03  0.78807715743E+03  0.12513059245E+03 0.  0.
          5    1    4    4  502    0  0.65792156756E+02  0.28940862112E+02  0.38850110304E+03  0.39511613591E+03  0.41800000000E+01 0.  1.
         -5    1    4    4    0  502  0.28990032064E+01 -0.78874352859E+02  0.38493028495E+03  0.39296102152E+03  0.41800000000E+01 0.  1.
        -11    1    3    3    0    0 -0.39319996819E+02 -0.17107284916E+02  0.18841959000E+03  0.19323732362E+03  0.00000000000E+00 0.  1.
         11    1    3    3    0    0 -0.29371163143E+02  0.67040775663E+02  0.14722695074E+03  0.16441686607E+03  0.00000000000E+00 0. -1.
</event>
<event>
 8    1  0.8061721E-006  0.1235657E+03  0.7561462E-02  0.1237328E+00
         -1   -1    0    0    0  501 -0.00000000000E+00  0.00000000000E+00  0.21671120767E+02  0.21671120767E+02  0.00000000000E+00 0.  1.
          1   -1    0    0  501    0  0.00000000000E+00 -0.00000000000E+00 -0.94759883496E+03  0.94759883496E+03  0.00000000000E+00 0. -1.
         23    2    1    2    0    0  0.55095043783E+02  0.49494273246E+02 -0.23916138792E+03  0.26728643129E+03  0.93588033133E+02 0.  0.
         23    2    1    2    0    0 -0.55095043783E+02 -0.49494273246E+02 -0.68676632627E+03  0.70198352443E+03  0.12509090593E+03 0.  0.
          5    1    4    4  502    0  0.35162575518E+02 -0.31759438440E+02 -0.14952100996E+03  0.15690466362E+03  0.41800000000E+01 0. -1.
         -5    1    4    4    0  502 -0.90257619301E+02 -0.17734834806E+02 -0.53724531631E+03  0.54507886081E+03  0.41800000000E+01 0. -1.
        -11    1    3    3    0    0  0.88818712046E+01  0.59536283088E+02 -0.18896664360E+03  0.19832258831E+03  0.00000000000E+00 0. -1.
         11    1    3    3    0    0  0.46213172578E+02 -0.10042009841E+02 -0.50194744326E+02  0.68963842986E+02  0.00000000000E+00 0.  1.
</event>
<event>
 8    1  0.1470255E-005  0.2904291E+03  0.7561462E-02  0.1090125E+00
         -2   -1    0    0    0  501 -0.00000000000E+00  0.00000000000E+00  0.25456979943E+02  0.25456979943E+02  0.00000000000E+00 0. -1.
          2   -1    0    0  501    0  0.00000000000E+00 -0.00000000000E+00 -0.38671292161E+04  0.38671292161E+04  0.00000000000E+00 0.  1.
         23    2    1    2    0    0  0.24511997472E+03 -0.12895412589E+03 -0.12660248878E+04  0.12990712400E+04  0.89744645717E+02 0.  0.
         23    2    1    2    0    0 -0.24511997472E+03  0.12895412589E+03 -0.25756473483E+04  0.25935149560E+04  0.12509034977E+03 0.  0.
          5    1    4    4  502    0 -0.99990666591E+02  0.73154757678E+01 -0.55402343334E+03  0.56303737592E+03  0.41800000000E+01 0. -1.
         -5    1    4    4    0  502 -0.14512930813E+03  0.12163865013E+03 -0.20216239150E+04  0.20304775801E+04  0.41800000000E+01 0. -1.
        -11    1    3    3    0    0  0.10318637117E+03 -0.10490363363E+03 -0.62863815149E+03  0.64563002181E+03  0.00000000000E+00 0. -1.
         11    1    3    3    0    0  0.14193360355E+03 -0.24050492259E+02 -0.63738673631E+03  0.65344121818E+03  0.00000000000E+00 0.  1.
</event>
<event>
 8    1  0.8061721E-006  0.2033143E+03  0.7561462E-02  0.1146973E+00
         -1   -1    0    0    0  501 -0.00000000000E+00  0.00000000000E+00  0.63771551122E+02  0.63771551122E+02  0.00000000000E+00 0.  1.
          1   -1    0    0  501    0  0.00000000000E+00 -0.00000000000E+00 -0.91965724357E+03  0.91965724357E+03  0.00000000000E+00 0. -1.
         23    2    1    2    0    0  0.17181062058E+03  0.47944724543E+02 -0.19115041218E+03  0.28390169956E+03  0.11065310198E+03 0.  0.
         23    2    1    2    0    0 -0.17181062058E+03 -0.47944724543E+02 -0.66473528026E+03  0.69952709513E+03  0.12509027957E+03 0.  0.
          5    1    4    4  502    0 -0.60597722100E+02 -0.77668163521E+02 -0.37464774536E+03  0.38740525687E+03  0.41800000000E+01 0. -1.
         -5    1    4    4    0  502 -0.11121289848E+03  0.29723438978E+02 -0.29008753490E+03  0.31212183826E+03  0.41800000000E+01 0. -1.
        -11    1    3    3    0    0  0.16023725522E+03  0.18625916755E+02 -0.10579734288E+03  0.19291443827E+03  0.00000000000E+00 0. -1.
         11    1    3    3    0    0  0.11573365363E+02  0.29318807788E+02 -0.85353069309E+02  0.90987261287E+02  0.00000000000E+00 0.  1.
</event>
<event>
 8    1  0.8061721E-006  0.9643336E+02  0.7561462E-02  0.1287980E+00
          2   -1    0    0  501    0  0.00000000000E+00  0.00000000000E+00  0.74996114200E+03  0.74996114200E+03  0.00000000000E+00 0.  1.
         -2   -1    0    0    0  501 -0.00000000000E+00 -0.00000000000E+00 -0.20775081903E+02  0.20775081903E+02  0.00000000000E+00 0. -1.
         23    2    1    2    0    0  0.31325618398E+02  0.37246111606E+02  0.21201029455E+03  0.23642691433E+03  0.92632357360E+02 0.  0.
         23    2    1    2    0    0 -0.31325618398E+02 -0.37246111606E+02  0.51717576555E+03  0.53430930957E+03  0.12508836325E+03 0.  0.
          5    1    4    4  502    0 -0.75615718686E+02 -0.27057052543E+02  0.41013695244E+03  0.41794690232E+03  0.41800000000E+01 0. -1.
         -5    1    4    4    0  502  0.44290100288E+02 -0.10189059063E+02  0.10703881312E+03  0.11636240725E+03  0.41800000000E+01 0. -1.
        -11    1    3    3    0    0 -0.28429686945E+00  0.35126356916E+02  0.19916805952E+03  0.20224207700E+03  0.00000000000E+00 0.  1.
         11    1    3    3    0    0  0.31609915267E+02  0.21197546906E+01  0.12842235022E+02  0.34184837333E+02  0.00000000000E+00 0. -1.
</event>
<event>
 7    1  0.8061721E-006  0.2243747E+03  0.7561462E-02  0.1130663E+00
          1   -1    0    0  501    0  0.00000000000E+00  0.00000000000E+00  0.16378575254E+03  0.16378575254E+03  0.00000000000E+00 0. -1.
         -1   -1    0    0    0  501 -0.00000000000E+00 -0.00000000000E+00 -0.63260621753E+03  0.63260621753E+03  0.00000000000E+00 0.  1.
         23    2    1    2    0    0  0.76164660862E+02 -0.72754771531E+02 -0.32015627045E+03  0.34594166181E+03  0.77982584746E+02 0.  0.
          5    1    1    2  502    0 -0.92504588973E+02  0.19278412601E+03  0.48228207639E+02  0.21924016656E+03  0.41800000000E+01 0. -1.
         -5    1    1    2    0  502  0.16339928110E+02 -0.12002935448E+03 -0.19689240218E+03  0.23121014169E+03  0.41800000000E+01 0.  1.
        -11    1    3    3    0    0 -0.10575293309E+01 -0.20278602005E+02 -0.11207880935E+02  0.23193892787E+02  0.00000000000E+00 0. -1.
         11    1    3    3    0    0  0.77222190193E+02 -0.52476169526E+02 -0.30894838952E+03  0.32274776903E+03  0.00000000000E+00 0.  1.
</event>
<event>
 8    1  0.8061721E-006  0.1036440E+03  0.7561462E-02  0.1272815E+00
          1   -1    0    0  501    0  0.00000000000E+00  0.00000000000E+00  0.92855082187E+02  0.92855082187E+02  0.00000000000E+00 0. -1.
         -1   -1    0    0    0  501 -0.00000000000E+00 -0.00000000000E+00 -0.18669533106E+03  0.18669533106E+03  0.00000000000E+00 0.  1.
         23    2    1    2    0    0 -0.31529775114E+02 -0.68224007156E+02 -0.59491247871E+02  0.12963106222E+03  0.87271770048E+02 0.  0.
         23    2    1    2    0    0  0.31529775114E+02  0.68224007156E+02 -0.34349001003E+02  0.14991935103E+03  0.12508923244E+03 0.  0.
          5    1    4    4  502    0  0.46915848170E+02  0.59675816263E+02  0.31007684558E+02  0.82105107989E+02  0.41800000000E+01 0. -1.
         -5    1    4    4    0  502 -0.15386073056E+02  0.85481908926E+01 -0.65356685561E+02  0.67814243041E+02  0.41800000000E+01 0. -1.
        -11    1    3    3    0    0  0.28109927737E+02 -0.35041527235E+02 -0.12044389004E+02  0.46509611639E+02  0.00000000000E+00 0. -1.
         11    1    3    3    0    0 -0.59639702852E+02 -0.33182479921E+02 -0.47446858867E+02  0.83121450579E+02  0.00000000000E+00 0.  1.
</event>
<event>
 8    1  0.8061721E-006  0.3885082E+03  0.7561462E-02  0.1047833E+00
          2   -1    0    0  501    0  0.00000000000E+00  0.00000000000E+00  0.18436857656E+04  0.18436857656E+04  0.00000000000E+00 0.  1.
         -2   -1    0    0    0  501 -0.00000000000E+00 -0.00000000000E+00 -0.92584234443E+02  0.92584234443E+02  0.00000000000E+00 0. -1.
         23    2    1    2    0    0 -0.26361122134E+03  0.26755588225E+03  0.55575042162E+03  0.67706832481E+03  0.92119266055E+02 0.  0.
         23    2    1    2    0    0  0.26361122134E+03 -0.26755588225E+03  0.11953511096E+04  0.12592016753E+04  0.12509019829E+03 0.  0.
          5    1    4    4  502    0  0.17258567673E+03 -0.87172534116E+02  0.55643287773E+03  0.58908393828E+03  0.41800000000E+01 0. -1.
         -5    1    4    4    0  502  0.91025544613E+02 -0.18038334814E+03  0.63891823184E+03  0.67011773699E+03  0.41800000000E+01 0. -1.
        -11    1    3    3    0    0 -0.10958861162E+03  0.15894136552E+03  0.33648849548E+03  0.38793882129E+03  0.00000000000E+00 0. -1.
         11    1    3    3    0    0 -0.15402260972E+03  0.10861451673E+03  0.21926192614E+03  0.28912950352E+03  0.00000000000E+00 0.  1.
</event>
<event>
 7    1  0.8061721E-006  0.7311278E+02  0.7561462E-02  0.1349817E+00
          2   -1    0    0  501    0  0.00000000000E+00  0.00000000000E+00  0.48727563570E+02  0.48727563570E+02  0.00000000000E+00 0. -1.
         -2   -1    0    0    0  501 -0.00000000000E+00 -0.00000000000E+00 -0.48244447624E+03  0.48244447624E+03  0.00000000000E+00 0.  1.
         23    2    1    2    0    0  0.17527298249E+01  0.10331856155E+02 -0.37118440147E+03  0.38249085260E+03  0.91714628691E+02 0.  0.
          5    1    1    2  502    0  0.18049245928E+02 -0.24346666187E+02 -0.99594976145E+02  0.10418813323E+03  0.41800000000E+01 0. -1.
         -5    1    1    2    0  502 -0.19801975753E+02  0.14014810033E+02  0.37062464948E+02  0.44493053974E+02  0.41800000000E+01 0.  1.
        -11    1    3    3    0    0  0.14157948674E+02 -0.38295799102E+02 -0.13526187318E+03  0.14128973804E+03  0.00000000000E+00 0. -1.
         11    1    3    3    0    0 -0.12405218850E+02  0.48627655257E+02 -0.23592252829E+03  0.24120111456E+03  0.00000000000E+00 0.  1.
</event>
<event>
 8    1  0.8061721E-006  0.1512644E+03  0.7561462E-02  0.1198928E+00
          1   -1    0    0  501    0  0.00000000000E+00  0.00000000000E+00  0.19757094580E+03  0.19757094580E+03  0.00000000000E+00 0. -1.
         -1   -1    0    0    0  501 -0.00000000000E+00 -0.00000000000E+00 -0.22556735026E+03  0.22556735026E+03  0.00000000000E+00 0.  1.
         23    2    1    2    0    0 -0.30569505717E+02 -0.11272818474E+03 -0.15231432423E+03  0.21160742390E+03  0.89083725612E+02 0.  0.
         23    2    1    2    0    0  0.30569505717E+02  0.11272818474E+03  0.12431791977E+03  0.21153087216E+03  0.12509287103E+03 0.  0.
          5    1    4    4  502    0  0.73616103573E+02  0.91821217944E+02  0.11064232849E+03  0.16158485085E+03  0.41800000000E+01 0.  1.
         -5    1    4    4    0  502 -0.43046597856E+02  0.20906966798E+02  0.13675591285E+02  0.49946021310E+02  0.41800000000E+01 0.  1.
        -11    1    3    3    0    0 -0.41955627651E+02 -0.26219879247E+02 -0.95299881057E+02  0.10737701844E+03  0.00000000000E+00 0.  1.
         11    1    3    3    0    0  0.11386121934E+02 -0.86508305495E+02 -0.57014443174E+02  0.10423040546E+03  0.00000000000E+00 0. -1.
</event>
<event>
 8    1  0.8061721E-006  0.1068749E+03  0.7561462E-02  0.1266469E+00
          1   -1    0    0  501    0  0.00000000000E+00  0.00000000000E+00  0.31900352885E+03  0.31900352885E+03  0.00000000000E+00 0. -1.
         -1   -1    0    0    0  501 -0.00000000000E+00 -0.00000000000E+00 -0.69331432635E+02  0.69331432635E+02  0.00000000000E+00 0.  1.
         23    2    1    2    0    0  0.26709814695E+02 -0.50640827829E+02 -0.25039227051E+00  0.10305322861E+03  0.85685457267E+02 0.  0.
         23    2    1    2    0    0 -0.26709814695E+02  0.50640827829E+02  0.24992248848E+03  0.28528173287E+03  0.12508600727E+03 0.  0.
          5    1    4    4  502    0  0.16062737681E+02 -0.21245264235E+02  0.16055445860E+03  0.16280227078E+03  0.41800000000E+01 0.  1.
         -5    1    4    4    0  502 -0.42772552377E+02  0.71886092064E+02  0.89368029882E+02  0.12247946209E+03  0.41800000000E+01 0.  1.
        -11    1    3    3    0    0  0.18915952060E+02  0.22549336109E+02 -0.89749857495E+00  0.29446414128E+02  0.00000000000E+00 0. -1.
         11    1    3    3    0    0  0.77938626355E+01 -0.73190163938E+02  0.64710630444E+00  0.73606814485E+02  0.00000000000E+00 0.  1.
</event>
<event>
 7    1  0.8061721E-006  0.1029954E+03  0.7561462E-02  0.1274120E+00
          1   -1    0    0  501    0  0.00000000000E+00  0.00000000000E+00  0.49380900149E+02  0.49380900149E+02  0.00000000000E+00 0. -1.
         -1   -1    0    0    0  501 -0.00000000000E+00 -0.00000000000E+00 -0.28730858745E+03  0.28730858745E+03  0.00000000000E+00 0.  1.
         23    2    1    2    0    0 -0.38419608350E+02 -0.37557822799E+01 -0.70652646174E+02  0.12157475412E+03  0.91095840851E+02 0.  0.
          5    1    1    2  502    0  0.67113093629E+02 -0.26051789954E+02 -0.15625782457E+03  0.17209544804E+03  0.41800000000E+01 0. -1.
         -5    1    1    2    0  502 -0.28693485279E+02  0.29807572234E+02 -0.11017216563E+02  0.43019285452E+02  0.41800000000E+01 0.  1.
        -11    1    3    3    0    0 -0.65317572133E+02 -0.24874846760E+01 -0.27947933595E+02  0.71089097628E+02  0.00000000000E+00 0.  1.
         11    1    3    3    0    0  0.26897963783E+02 -0.12682976039E+01 -0.42704712579E+02  0.50485656487E+02  0.00000000000E+00 0. -1.
</event>
<event>
 8    1  0.8061721E-006  0.9179958E+02  0.7561462E-02  0.1298551E+00
         -1   -1    0    0    0  501 -0.00000000000E+00  0.00000000000E+00  0.64915501544E+02  0.64915501544E+02  0.00000000000E+00 0.  1.
          1   -1    0    0  501    0  0.00000000000E+00 -0.00000000000E+00 -0.25514288011E+03  0.25514288011E+03  0.00000000000E+00 0. -1.
         23    2    1    2    0    0 -0.45870921751E+02 -0.52034560155E+02 -0.87585140186E+02  0.14397148141E+03  0.90801397379E+02 0.  0.
         23    2    1    2    0    0  0.45870921751E+02  0.52034560155E+02 -0.10264223838E+03  0.17608690024E+03  0.12513764591E+03 0.  0.
          5    1    4    4  502    0  0.34548042191E+02  0.50216391636E+02 -0.13136538707E+03  0.14487784692E+03  0.41800000000E+01 0.  1.
         -5    1    4    4    0  502  0.11322879560E+02  0.18181685193E+01  0.28723148692E+02  0.31209053319E+02  0.41800000000E+01 0.  1.
        -11    1    3    3    0    0 -0.31511900344E+02  0.19684495223E+02 -0.12629726427E+02  0.39242696201E+02  0.00000000000E+00 0.  1.
         11    1    3    3    0    0 -0.14359021407E+02 -0.71719055378E+02 -0.74955413759E+02  0.10472878521E+03  0.00000000000E+00 0. -1.
</event>
<event>
 8    1  0.8061721E-006  0.8465442E+02  0.7561462E-02  0.1316339E+00
          2   -1    0    0  501    0  0.00000000000E+00  0.00000000000E+00  0.13645048323E+04  0.13645048323E+04  0.00000000000E+00 0. -1.
         -2   -1    0    0    0  501 -0.00000000000E+00 -0.00000000000E+00 -0.22778679745E+02  0.22778679745E+02  0.00000000000E+00 0.  1.
         23    2    1    2    0    0 -0.42729683211E+02  0.17748306337E+02  0.11890759529E+03  0.15720570361E+03  0.91835662056E+02 0.  0.
         23    2    1    2    0    0  0.42729683211E+02 -0.17748306337E+02  0.12228185572E+04  0.12300778084E+04  0.12516134627E+03 0.  0.
          5    1    4    4  502    0 -0.23003544795E+02 -0.77052913716E+01  0.90575151045E+03  0.90608598139E+03  0.41800000000E+01 0. -1.
         -5    1    4    4    0  502  0.65733228006E+02 -0.10043014965E+02  0.31706704679E+03  0.32399182701E+03  0.41800000000E+01 0. -1.
        -11    1    3    3    0    0 -0.38411359553E+02 -0.17743004303E+02  0.11339303852E+03  0.12102986379E+03  0.00000000000E+00 0. -1.
         11    1    3    3    0    0 -0.43183236588E+01  0.35491310640E+02  0.55145567649E+01  0.36175839817E+02  0.00000000000E+00 0.  1.
</event>
<event>
 8    1  0.8061721E-006  0.1068446E+03  0.7561462E-02  0.1266527E+00
          2   -1    0    0  501    0  0.00000000000E+00  0.00000000000E+00  0.64055696363E+03  0.64055696363E+03  0.00000000000E+00 0. -1.
         -2   -1    0    0    0  501 -0.00000000000E+00 -0.00000000000E+00 -0.23076221435E+02  0.23076221435E+02  0.00000000000E+00 0.  1.
         23    2    1    2    0    0 -0.40264765579E+02  0.24058506246E+02  0.33409997081E+03  0.35034128542E+03  0.94425434644E+02 0.  0.
         23    2    1    2    0    0  0.40264765579E+02 -0.24058506246E+02  0.28338077139E+03  0.31329189965E+03  0.12508832767E+03 0.  0.
          5    1    4    4  502    0 -0.32073626285E+02  0.23757455290E+02  0.14036202966E+03  0.14598666362E+03  0.41800000000E+01 0.  1.
         -5    1    4    4    0  502  0.72338391864E+02 -0.47815961536E+02  0.14301874174E+03  0.16730523603E+03  0.41800000000E+01 0.  1.
        -11    1    3    3    0    0 -0.41433606925E+02  0.47637221183E+02  0.31088671055E+03  0.31723271493E+03  0.00000000000E+00 0. -1.
         11    1    3    3    0    0  0.11688413462E+01 -0.23578714937E+02  0.23213260251E+02  0.33108570486E+02  0.00000000000E+00 0.  1.
</event>
<event>
 8    1  0.8061721E-006  0.9515241E+02  0.7561462E-02  0.1290833E+00
          1   -1    0    0  501    0  0.00000000000E+00  0.00000000000E+00  0.42354444585E+02  0.42354444585E+02  0.00000000000E+00 0. -1.
         -1   -1    0    0    0  501 -0.00000000000E+00 -0.00000000000E+00 -0.29279119544E+03  0.29279119544E+03  0.00000000000E+00 0.  1.
         23    2    1    2    0    0 -0.74125609529E+01  0.18346298632E+02 -0.14077584063E+03  0.16762090851E+03  0.88811029328E+02 0.  0.
         23    2    1    2    0    0  0.74125609529E+01 -0.18346298632E+02 -0.10966091023E+03  0.16752473152E+03  0.12508991848E+03 0.  0.
          5    1    4    4  502    0 -0.39379574180E+02  0.36223117251E+02 -0.36709408985E+02  0.65022443772E+02  0.41800000000E+01 0. -1.
         -5    1    4    4    0  502  0.46792135133E+02 -0.54569415883E+02 -0.72951501240E+02  0.10250228775E+03  0.41800000000E+01 0. -1.
        -11    1    3    3    0    0  0.68350087968E+01 -0.21369755422E+02 -0.11711626854E+03  0.11924598168E+03  0.00000000000E+00 0.  1.
         11    1    3    3    0    0 -0.14247569750E+02  0.39716054054E+02 -0.23659572092E+02  0.48374926821E+02  0.00000000000E+00 0. -1.
</event>
<event>
 8    1  0.8061721E-006  0.8730431E+02  0.7561462E-02  0.1309514E+00
          1   -1    0    0  501    0  0.00000000000E+00  0.00000000000E+00  0.48840902719E+03  0.48840902719E+03  0.00000000000E+00 0. -1.
         -1   -1    0    0    0  501 -0.00000000000E+00 -0.00000000000E+00 -0.27354990785E+02  0.27354990785E+02  0.00000000000E+00 0.  1.
         23    2    1    2    0    0  0.35520732941E+02 -0.47196449574E+01  0.20954799900E+03  0.23259271632E+03  0.94366362030E+02 0.  0.
         23    2    1    2    0    0 -0.35520732941E+02  0.47196449574E+01  0.25150603740E+03  0.28317130165E+03  0.12508677673E+03 0.  0.
          5    1    4    4  502    0 -0.87390975579E+01 -0.34800545597E+02  0.22602900761E+03  0.22889743223E+03  0.41800000000E+01 0.  1.
         -5    1    4    4    0  502 -0.26781635383E+02  0.39520190554E+02  0.25477029793E+02  0.54273869425E+02  0.41800000000E+01 0.  1.
        -11    1    3    3    0    0  0.55558757134E+02 -0.25992319184E+02  0.85986186922E+02  0.10562196974E+03  0.00000000000E+00 0.  1.
         11    1    3    3    0    0 -0.20038024193E+02  0.21272674227E+02  0.12356181208E+03  0.12697074658E+03  0.00000000000E+00 0. -1.
</event>
<event>
 8    1  0.8061721E-006  0.1285698E+03  0.7561462E-02  0.1229594E+00
         -2   -1    0    0    0  501 -0.00000000000E+00  0.00000000000E+00  0.80542607082E+02  0.80542607082E+02  0.00000000000E+00 0. -1.
          2   -1    0    0  501    0  0.00000000000E+00 -0.00000000000E+00 -0.24701155962E+03  0.24701155962E+03  0.00000000000E+00 0.  1.
         23    2    1    2    0    0 -0.37273648392E+01  0.84366560551E+02 -0.41906146316E+02  0.13186477648E+03  0.92198613816E+02 0.  0.
         23    2    1    2    0    0  0.37273648392E+01 -0.84366560551E+02 -0.12456280623E+03  0.19568939022E+03  0.12508730936E+03 0.  0.
          5    1    4    4  502    0  0.43823168879E+02 -0.94315987138E+02 -0.63758137310E+02  0.12205960853E+03  0.41800000000E+01 0.  1.
         -5    1    4    4    0  502 -0.40095804040E+02  0.99494265873E+01 -0.60804668915E+02  0.73629781698E+02  0.41800000000E+01 0.  1.
        -11    1    3    3    0    0  0.33964546183E+02  0.29619938784E+02 -0.47110125293E+02  0.65194287143E+02  0.00000000000E+00 0.  1.
         11    1    3    3    0    0 -0.37691911022E+02  0.54746621766E+02  0.52039789770E+01  0.66670489338E+02  0.00000000000E+00 0. -1.
</event>
<event>
 8    1  0.9802656E-006  0.1592500E+03  0.7561462E-02  0.1189546E+00
          1   -1    0    0  501    0  0.00000000000E+00  0.00000000000E+00  0.91154934222E+03  0.91154934222E+03  0.00000000000E+00 0. -1.
         -1   -1    0    0    0  501 -0.00000000000E+00 -0.00000000000E+00 -0.39101899108E+02  0.39101899108E+02  0.00000000000E+00 0.  1.
         23    2    1    2    0    0 -0.14976219545E+03  0.20006646726E+02  0.33182253551E+03  0.37554092325E+03  0.89976712917E+02 0.  0.
         23    2    1    2    0    0  0.14976219545E+03 -0.20006646726E+02  0.54062490761E+03  0.57511031808E+03  0.12509039185E+03 0.  0.
          5    1    4    4  502    0  0.64726628028E+02 -0.40683336655E+02  0.41467846928E+03  0.42168753307E+03  0.41800000000E+01 0. -1.
         -5    1    4    4    0  502  0.85035567425E+02  0.20676689929E+02  0.12594643833E+03  0.15342278501E+03  0.41800000000E+01 0. -1.
        -11    1    3    3    0    0 -0.99821069181E+02 -0.17774879364E+01  0.29044472920E+03  0.30712464250E+03  0.00000000000E+00 0. -1.
         11    1    3    3    0    0 -0.49941126273E+02  0.21784134662E+02  0.41377806310E+02  0.68416280748E+02  0.00000000000E+00 0.  1.
</event>
<event>
 8    1  0.8061721E-006  0.8528204E+02  0.7561462E-02  0.1314697E+00
         -1   -1    0    0    0  501 -0.00000000000E+00  0.00000000000E+00  0.11078752527E+03  0.11078752527E+03  0.00000000000E+00 0.  1.
          1   -1    0    0  501    0  0.00000000000E+00 -0.00000000000E+00 -0.14906089458E+03  0.14906089458E+03  0.00000000000E+00 0. -1.
         23    2    1    2    0    0  0.20131700291E+01  0.45229124903E+02  0.36015264511E+02  0.10748398344E+03  0.90586868946E+02 0.  0.
         23    2    1    2    0    0 -0.20131700291E+01 -0.45229124903E+02 -0.74288633822E+02  0.15236443640E+03  0.12508554582E+03 0.  0.
          5    1    4    4  502    0 -0.24641733061E+02 -0.40669638179E+02  0.22500585281E+02  0.52772940186E+02  0.41800000000E+01 0. -1.
         -5    1    4    4    0  502  0.22628563032E+02 -0.45594867239E+01 -0.96789219103E+02  0.99591496216E+02  0.41800000000E+01 0. -1.
        -11    1    3    3    0    0 -0.42969881239E+02  0.27514326116E+02  0.28835283379E+02  0.58608211053E+02  0.00000000000E+00 0.  1.
         11    1    3    3    0    0  0.44983051268E+02  0.17714798787E+02  0.71799811325E+01  0.48875772388E+02  0.00000000000E+00 0. -1.
</event>
<event>
 8    1  0.8061721E-006  0.7691019E+02  0.7561462E-02  0.1338056E+00
          1   -1    0    0  501    0  0.00000000000E+00  0.00000000000E+00  0.14093905923E+03  0.14093905923E+03  0.00000000000E+00 0.  1.
         -1   -1    0    0    0  501 -0.00000000000E+00 -0.00000000000E+00 -0.12266249415E+03  0.12266249415E+03  0.00000000000E+00 0. -1.
         23    2    1    2    0    0 -0.83072452690E+01  0.14917229137E+02 -0.64028269676E+02  0.11289297776E+03  0.91398419350E+02 0.  0.
         23    2    1    2    0    0  0.83072452690E+01 -0.14917229137E+02  0.82304834755E+02  0.15070857563E+03  0.12508978733E+03 0.  0.
          5    1    4    4  502    0 -0.24172160390E+02 -0.50557831739E+02  0.85376290341E+02  0.10221042530E+03  0.41800000000E+01 0. -1.
         -5    1    4    4    0  502  0.32479405659E+02  0.35640602602E+02 -0.30714555861E+01  0.48498150328E+02  0.41800000000E+01 0. -1.
        -11    1    3    3    0    0 -0.18475730129E+02 -0.10917914820E+02 -0.78642011547E+02  0.81517602074E+02  0.00000000000E+00 0. -1.
         11    1    3    3    0    0  0.10168484860E+02  0.25835143957E+02  0.14613741871E+02  0.31375375681E+02  0.00000000000E+00 0.  1.
</event>
<event>
 8    1  0.8061721E-006  0.1200839E+03  0.7561462E-02  0.1242959E+00
         -2   -1    0    0    0  501 -0.00000000000E+00  0.00000000000E+00  0.24165818870E+02  0.24165818870E+02  0.00000000000E+00 0.  1.
          2   -1    0    0  501    0  0.00000000000E+00 -0.00000000000E+00 -0.11843598201E+04  0.11843598201E+04  0.00000000000E+00 0. -1.
         23    2    1    2    0    0  0.24453958206E+02 -0.95875331988E+02 -0.24593735430E+03  0.28046239741E+03  0.91563632332E+02 0.  0.
         23    2    1    2    0    0 -0.24453958206E+02  0.95875331988E+02 -0.91425664694E+03  0.92806324157E+03  0.12508432564E+03 0.  0.
          5    1    4    4  502    0 -0.47592164181E+02  0.13316354262E+02 -0.13028400865E+03  0.13940493066E+03  0.41800000000E+01 0. -1.
         -5    1    4    4    0  502  0.23138205975E+02  0.82558977725E+02 -0.78397263829E+03  0.78865831091E+03  0.41800000000E+01 0. -1.
        -11    1    3    3    0    0 -0.87101480428E+01 -0.25123146567E+02 -0.48507839711E+01  0.27029045071E+02  0.00000000000E+00 0.  1.
         11    1    3    3    0    0  0.33164106248E+02 -0.70752185421E+02 -0.24108657033E+03  0.25343335234E+03  0.00000000000E+00 0. -1.
</event>
<event>
 8    1  0.8061721E-006  0.1450428E+03  0.7561462E-02  0.1206700E+00
          2   -1    0    0  501    0  0.00000000000E+00  0.00000000000E+00  0.14562552940E+03  0.14562552940E+03  0.00000000000E+00 0. -1.
         -2   -1    0    0    0  501 -0.00000000000E+00 -0.00000000000E+00 -0.16533956831E+03  0.16533956831E+03  0.00000000000E+00 0.  1.
         23    2    1    2    0    0 -0.10090710304E+03  0.34944383449E+02 -0.35859005625E+02  0.14570499455E+03  0.92416036345E+02 0.  0.
         23    2    1    2    0    0  0.10090710304E+03 -0.34944383449E+02  0.16144966715E+02  0.16526010315E+03  0.12508752282E+03 0.  0.
          5    1    4    4  502    0  0.11904376771E+03 -0.58130701953E+02  0.25553702156E+01  0.13256922515E+03  0.41800000000E+01 0. -1.
         -5    1    4    4    0  502 -0.18136664672E+02  0.23186318504E+02  0.13589596499E+02  0.32690877997E+02  0.41800000000E+01 0. -1.
        -11    1    3    3    0    0 -0.57894221201E+02 -0.17027260497E+02  0.13839670342E+02  0.61912881726E+02  0.00000000000E+00 0. -1.
         11    1    3    3    0    0 -0.43012881841E+02  0.51971643946E+02 -0.49698675967E+02  0.83792112825E+02  0.00000000000E+00 0.  1.
</event>
<event>
 7    1  0.8061721E-006  0.4379867E+03  0.7561462E-02  0.1031366E+00
         -1   -1    0    0    0  501 -0.00000000000E+00  0.00000000000E+00  0.69794229670E+03  0.69794229670E+03  0.00000000000E+00 0.  1.
          1   -1    0    0  501    0  0.00000000000E+00 -0.00000000000E+00 -0.37487862191E+03  0.37487862191E+03  0.00000000000E+00 0. -1.
         23    2    1    2    0    0 -0.31502271582E+03 -0.19391950618E+03  0.30342361658E+03  0.48768860321E+03  0.94499715595E+02 0.  0.
          5    1    1    2  502    0  0.89792649386E+02  0.24744057018E+03 -0.14544423240E+03  0.30076743971E+03  0.41800000000E+01 0. -1.
         -5    1    1    2    0  502  0.22523006643E+03 -0.53521063997E+02  0.16508429061E+03  0.28436487568E+03  0.41800000000E+01 0.  1.
        -11    1    3    3    0    0 -0.19215406816E+03 -0.16878874110E+03  0.21660520252E+03  0.33515763276E+03  0.00000000000E+00 0.  1.
         11    1    3    3    0    0 -0.12286864765E+03 -0.25130765083E+02  0.86818414054E+02  0.15253097046E+03  0.00000000000E+00 0. -1.
</event>
<event>
 8    1  0.8061721E-006  0.1451742E+03  0.7561462E-02  0.1206531E+00
         -1   -1    0    0    0  501 -0.00000000000E+00  0.00000000000E+00  0.22164843034E+03  0.22164843034E+03  0.00000000000E+00 0.  1.
          1   -1    0    0  501    0  0.00000000000E+00 -0.00000000000E+00 -0.13288765970E+03  0.13288765970E+03  0.00000000000E+00 0. -1.
         23    2    1    2    0    0 -0.92002114592E+02  0.69997923817E+02  0.10677310269E+03  0.18325666272E+03  0.93906392464E+02 0.  0.
         23    2    1    2    0    0  0.92002114592E+02 -0.69997923817E+02 -0.18012332051E+02  0.17127942732E+03  0.12509236463E+03 0.  0.
          5    1    4    4  502    0  0.83911472961E+02 -0.10887856234E+02  0.34708436716E+02  0.91552327590E+02  0.41800000000E+01 0. -1.
         -5    1    4    4    0  502  0.80906416310E+01 -0.59110067582E+02 -0.52720768767E+02  0.79727099727E+02  0.41800000000E+01 0. -1.
        -11    1    3    3    0    0 -0.21442220359E+02  0.72110916815E+02  0.36381882754E+02  0.83566707070E+02  0.00000000000E+00 0.  1.
         11    1    3    3    0    0 -0.70559894233E+02 -0.21129929986E+01  0.70391219938E+02  0.99689955652E+02  0.00000000000E+00 0. -1.
</event>
<event>
 7    1  0.8061721E-006  0.1420894E+03  0.7561462E-02  0.1210545E+00
         -2   -1    0    0    0  501 -0.00000000000E+00  0.00000000000E+00  0.48669237825E+02  0.48669237825E+02  0.00000000000E+00 0.  1.
          2   -1    0    0  501    0  0.00000000000E+00 -0.00000000000E+00 -0.74922131161E+03  0.74922131161E+03  0.00000000000E+00 0. -1.
         23    2    1    2    0    0 -0.94174194662E+02  0.68845011716E+02 -0.31204008995E+03  0.34540761765E+03  0.91263300467E+02 0.  0.
          5    1    1    2  502    0 -0.98008606581E+01 -0.16896959807E+02 -0.31339099045E+03  0.31402698835E+03  0.41800000000E+01 0. -1.
         -5    1    1    2    0  502  0.10397505532E+03 -0.51948051908E+02 -0.75120993388E+02  0.13845594344E+03  0.41800000000E+01 0.  1.
        -11    1    3    3    0    0 -0.17634103578E+02 -0.22588420935E+02 -0.68098862028E+02  0.73882700133E+02  0.00000000000E+00 0.  1.
         11    1    3    3    0    0 -0.76540091084E+02  0.91433432651E+02 -0.24394122793E+03  0.27152491752E+03  0.00000000000E+00 0. -1.
</event>
<event>
 7    1  0.8061721E-006  0.8651826E+02  0.7561462E-02  0.1311509E+00
          1   -1    0    0  501    0  0.00000000000E+00  0.00000000000E+00  0.13924509756E+03  0.13924509756E+03  0.00000000000E+00 0. -1.
         -1   -1    0    0    0  501 -0.00000000000E+00 -0.00000000000E+00 -0.10578468118E+03  0.10578468118E+03  0.00000000000E+00 0.  1.
         23    2    1    2    0    0  0.36524067908E+02 -0.23388671881E+02  0.76050721824E+01  0.10157448337E+03  0.91534152317E+02 0.  0.
          5    1    1    2  502    0 -0.59089059763E+02  0.61350248942E+02  0.43477220516E+02  0.95724140804E+02  0.41800000000E+01 0. -1.
         -5    1    1    2    0  502  0.22564991856E+02 -0.37961577061E+02 -0.17621876323E+02  0.47731154559E+02  0.41800000000E+01 0.  1.
        -11    1    3    3    0    0  0.16440641669E+02 -0.96515357197E+01  0.49545543186E+02  0.53086793930E+02  0.00000000000E+00 0. -1.
         11    1    3    3    0    0  0.20083426239E+02 -0.13737136161E+02 -0.41940471003E+02  0.48487689441E+02  0.00000000000E+00 0.  1.
</event>
<event>
 8    1  0.8061721E-006  0.1393954E+03  0.7561462E-02  0.1214145E+00
         -2   -1    0    0    0  501 -0.00000000000E+00  0.00000000000E+00  0.74165305581E+02  0.74165305581E+02  0.00000000000E+00 0.  1.
          2   -1    0    0  501    0  0.00000000000E+00 -0.00000000000E+00 -0.59400093161E+03  0.59400093161E+03  0.00000000000E+00 0. -1.
         23    2    1    2    0    0 -0.11670732435E+03 -0.58632195509E+02 -0.53166339521E+02  0.16768146861E+03  0.90730818082E+02 0.  0.
         23    2    1    2    0    0  0.11670732435E+03  0.58632195509E+02 -0.46666928650E+03  0.50048476857E+03  0.12508575739E+03 0.  0.
          5    1    4    4  502    0  0.34793091551E+02  0.56069581125E+02 -0.35937459353E+03  0.36540652433E+03  0.41800000000E+01 0. -1.
         -5    1    4    4    0  502  0.81914232803E+02  0.25626143835E+01 -0.10729469297E+03  0.13507824424E+03  0.41800000000E+01 0. -1.
        -11    1    3    3    0    0 -0.94855071892E+02 -0.47291217888E+02 -0.78850224932E+02  0.13210337590E+03  0.00000000000E+00 0. -1.
         11    1    3    3    0    0 -0.21852252463E+02 -0.11340977621E+02  0.25683885411E+02  0.35578092710E+02  0.00000000000E+00 0.  1.
</event>
<event>
 8    1  0.8061721E-006  0.1609174E+03  0.7561462E-02  0.1187665E+00
          1   -1    0    0  501    0  0.00000000000E+00  0.00000000000E+00  0.42411581448E+03  0.42411581448E+03  0.00000000000E+00 0. -1.
         -1   -1    0    0    0  501 -0.00000000000E+00 -0.00000000000E+00 -0.95349893213E+02  0.95349893213E+02  0.00000000000E+00 0.  1.
         23    2    1    2    0    0  0.12363726435E+03 -0.37827124954E+02  0.16571199351E+02  0.15914677313E+03  0.91301841335E+02 0.  0.
         23    2    1    2    0    0 -0.12363726435E+03  0.37827124954E+02  0.31219472192E+03  0.36031893457E+03  0.12508847149E+03 0.  0.
          5    1    4    4  502    0  0.16865554094E+02 -0.17718517242E+02  0.75593908015E+02  0.79563208188E+02  0.41800000000E+01 0. -1.
         -5    1    4    4    0  502 -0.14050281844E+03  0.55545642196E+02  0.23660081390E+03  0.28075572638E+03  0.41800000000E+01 0. -1.
        -11    1    3    3    0    0  0.10619278095E+03 -0.56529120076E+02  0.37595794993E+02  0.12603924763E+03  0.00000000000E+00 0. -1.
         11    1    3    3    0    0  0.17444483399E+02  0.18701995121E+02 -0.21024595643E+02  0.33107525497E+02  0.00000000000E+00 0.  1.
</event>
<event>
 8    1  0.8061721E-006  0.8203793E+02  0.7561462E-02  0.1323366E+00
         -2   -1    0    0    0  501 -0.00000000000E+00  0.00000000000E+00  0.16723690549E+02  0.16723690549E+02  0.00000000000E+00 0.  1.
          2   -1    0    0  501    0  0.00000000000E+00 -0.00000000000E+00 -0.14370784576E+04  0.14370784576E+04  0.00000000000E+00 0. -1.
         23    2    1    2    0    0 -0.46433361970E+02 -0.15874300523E+02 -0.19325171006E+03  0.21936431409E+03  0.91468182081E+02 0.  0.
         23    2    1    2    0    0  0.46433361970E+02  0.15874300523E+02 -0.12271030570E+04  0.12344378341E+04  0.12508718225E+03 0.  0.
          5    1    4    4  502    0  0.40038534158E+02 -0.26328130599E+01 -0.11014777267E+03  0.11730311226E+03  0.41800000000E+01 0. -1.
         -5    1    4    4    0  502  0.63948278119E+01  0.18507113583E+02 -0.11169552844E+04  0.11171347218E+04  0.41800000000E+01 0. -1.
        -11    1    3    3    0    0  0.27126320766E+02  0.42301939278E+01 -0.55229394192E+02  0.61676720096E+02  0.00000000000E+00 0. -1.
         11    1    3    3    0    0 -0.73559682736E+02 -0.20104494451E+02 -0.13802231587E+03  0.15768759399E+03  0.00000000000E+00 0.  1.
</event>
<event>
 8    1  0.8061721E-006  0.1507077E+03  0.7561462E-02  0.1199606E+00
          2   -1    0    0  501    0  0.00000000000E+00  0.00000000000E+00  0.97523903979E+03  0.97523903979E+03  0.00000000000E+00 0. -1.
         -2   -1    0    0    0  501 -0.00000000000E+00 -0.00000000000E+00 -0.33744447641E+02  0.33744447641E+02  0.00000000000E+00 0.  1.
         23    2    1    2    0    0 -0.14279827225E+03  0.30453197522E+02  0.36677751033E+03  0.40504386242E+03  0.90642399571E+02 0.  0.
         23    2    1    2    0    0  0.14279827225E+03 -0.30453197522E+02  0.57471708181E+03  0.60393962501E+03  0.11456265854E+03 0.  0.
          5    1    4    4  502    0  0.94487849795E+02 -0.40649035553E+02  0.52011718258E+03  0.53020718014E+03  0.41800000000E+01 0. -1.
         -5    1    4    4    0  502  0.48310422457E+02  0.10195838030E+02  0.54599899232E+02  0.73732444875E+02  0.41800000000E+01 0.  1.
        -11    1    3    3    0    0 -0.10647328973E+03  0.92887649484E+01  0.14972658913E+03  0.18395894670E+03  0.00000000000E+00 0.  1.
         11    1    3    3    0    0 -0.36324982522E+02  0.21164432574E+02  0.21705092121E+03  0.22108491572E+03  0.00000000000E+00 0. -1.
</event>
<event>
 8    1  0.8061721E-006  0.7773775E+02  0.7561462E-02  0.1335597E+00
         -1   -1    0    0    0  501 -0.00000000000E+00  0.00000000000E+00  0.35949444337E+02  0.35949444337E+02  0.00000000000E+00 0.  1.
          1   -1    0    0  501    0  0.00000000000E+00 -0.00000000000E+00 -0.40661665046E+03  0.40661665046E+03  0.00000000000E+00 0. -1.
         23    2    1    2    0    0 -0.23927120973E+02 -0.58048759308E+01 -0.73504936024E+02  0.11921055185E+03  0.90564763285E+02 0.  0.
         23    2    1    2    0    0  0.23927120973E+02  0.58048759308E+01 -0.29716227010E+03  0.32335554295E+03  0.12508872325E+03 0.  0.
          5    1    4    4  502    0 -0.34431054392E+02  0.27630992802E+02 -0.43494445320E+02  0.62114478533E+02  0.41800000000E+01 0. -1.
         -5    1    4    4    0  502  0.58358175365E+02 -0.21826116871E+02 -0.25366782478E+03  0.26124106442E+03  0.41800000000E+01 0. -1.
        -11    1    3    3    0    0 -0.28238649340E+02 -0.19506392913E+02 -0.90599546838E+02  0.96882395554E+02  0.00000000000E+00 0. -1.
         11    1    3    3    0    0  0.43115283668E+01  0.13701516983E+02  0.17094610814E+02  0.22328156291E+02  0.00000000000E+00 0.  1.
</event>
<event>
 8    1  0.8061721E-006  0.1281924E+03  0.7561462E-02  0.1230163E+00
          2   -1    0    0  501    0  0.00000000000E+00  0.00000000000E+00  0.13618861292E+03  0.13618861292E+03  0.00000000000E+00 0. -1.
         -2   -1    0    0    0  501 -0.00000000000E+00 -0.00000000000E+00 -0.17580320558E+03  0.17580320558E+03  0.00000000000E+00 0.  1.
         23    2    1    2    0    0 -0.30353199157E+02  0.89559559993E+02 -0.74578039577E+02  0.15132944492E+03  0.91632338327E+02 0.  0.
         23    2    1    2    0    0  0.30353199157E+02 -0.89559559993E+02  0.34963446914E+02  0.16066237359E+03  0.12509086370E+03 0.  0.
          5    1    4    4  502    0  0.72960611741E+02 -0.46889863198E+02 -0.69504392832E+01  0.87107354125E+02  0.41800000000E+01 0. -1.
         -5    1    4    4    0  502 -0.42607412584E+02 -0.42669696795E+02  0.41913886197E+02  0.73555019461E+02  0.41800000000E+01 0. -1.
        -11    1    3    3    0    0 -0.41736423782E+02  0.38447799285E+02  0.40165695644E+01  0.56888444969E+02  0.00000000000E+00 0. -1.
         11    1    3    3    0    0  0.11383224625E+02  0.51111760708E+02 -0.78594609141E+02  0.94440999950E+02  0.00000000000E+00 0.  1.
</event>
<event>
 8    1  0.8061721E-006  0.1302780E+03  0.7561462E-02  0.1227044E+00
         -4   -1    0    0    0  501 -0.00000000000E+00  0.00000000000E+00  0.17644117686E+03  0.17644117686E+03  0.00000000000E+00 0.  1.
          4   -1    0    0  501    0  0.00000000000E+00 -0.00000000000E+00 -0.99122141237E+02  0.99122141237E+02  0.00000000000E+00 0. -1.
         23    2    1    2    0    0 -0.59450226880E+02  0.48021815575E+02  0.54236568351E+02  0.12719249505E+03  0.85999425596E+02 0.  0.
         23    2    1    2    0    0  0.59450226880E+02 -0.48021815575E+02  0.23082467272E+02  0.14837082305E+03  0.12506269064E+03 0.  0.
          5    1    4    4  502    0 -0.39056561616E+02 -0.16592981004E+02  0.11992137827E+02  0.44294760339E+02  0.41800000000E+01 0. -1.
         -5    1    4    4    0  502  0.98506788496E+02 -0.31428834570E+02  0.11090329445E+02  0.10407606271E+03  0.41800000000E+01 0. -1.
        -11    1    3    3    0    0 -0.80717051796E+02  0.28608324751E+02  0.46164048534E+02  0.97287193776E+02  0.00000000000E+00 0.  1.
         11    1    3    3    0    0  0.21266824916E+02  0.19413490824E+02  0.80725198176E+01  0.29905301272E+02  0.00000000000E+00 0. -1.
</event>
<event>
 8    1  0.8061721E-006  0.1249130E+03  0.7561462E-02  0.1235205E+00
         -2   -1    0    0    0  501 -0.00000000000E+00  0.00000000000E+00  0.42408421386E+02  0.42408421386E+02  0.00000000000E+00 0. -1.
          2   -1    0    0  501    0  0.00000000000E+00 -0.00000000000E+00 -0.73680348392E+03  0.73680348392E+03  0.00000000000E+00 0.  1.
         23    2    1    2    0    0  0.54172575518E+02 -0.78007009278E+02 -0.10649801232E+03  0.17069696353E+03  0.93679588462E+02 0.  0.
         23    2    1    2    0    0 -0.54172575518E+02  0.78007009278E+02 -0.58789705021E+03  0.60851494178E+03  0.12509089209E+03 0.  0.
          5    1    4    4  502    0 -0.65141420419E+02  0.29014393487E+02 -0.13418292698E+03  0.15201240073E+03  0.41800000000E+01 0.  1.
         -5    1    4    4    0  502  0.10968844901E+02  0.48992615791E+02 -0.45371412323E+03  0.45650254105E+03  0.41800000000E+01 0.  1.
        -11    1    3    3    0    0  0.16251708025E+02 -0.87439673780E+02 -0.94616468517E+02  0.12985411306E+03  0.00000000000E+00 0.  1.
         11    1    3    3    0    0  0.37920867493E+02  0.94326645023E+01 -0.11881543807E+02  0.40842850467E+02  0.00000000000E+00 0. -1.
</event>
<event>
 8    1  0.8061721E-006  0.1462248E+03  0.7561462E-02  0.1205190E+00
          4   -1    0    0  501    0  0.00000000000E+00  0.00000000000E+00  0.12578333475E+03  0.12578333475E+03  0.00000000000E+00 0. -1.
         -4   -1    0    0    0  501 -0.00000000000E+00 -0.00000000000E+00 -0.25599600101E+03  0.25599600101E+03  0.00000000000E+00 0.  1.
         23    2    1    2    0    0 -0.11520460796E+03 -0.68725855640E+02 -0.11563422459E+03  0.19778203239E+03  0.88040408386E+02 0.  0.
         23    2    1    2    0    0  0.11520460796E+03  0.68725855640E+02 -0.14578441658E+02  0.18399730337E+03  0.12508849571E+03 0.  0.
          5    1    4    4  502    0  0.10005651281E+03  0.83772578244E+02  0.30380614272E+02  0.13405075436E+03  0.41800000000E+01 0. -1.
         -5    1    4    4    0  502  0.15148095148E+02 -0.15046722605E+02 -0.44959055930E+02  0.49946549009E+02  0.41800000000E+01 0. -1.
        -11    1    3    3    0    0 -0.88792684217E+02 -0.30939968385E+02 -0.11887402734E+03  0.15156667441E+03  0.00000000000E+00 0.  1.
         11    1    3    3    0    0 -0.26411923744E+02 -0.37785887255E+02  0.32398027471E+01  0.46215357981E+02  0.00000000000E+00 0. -1.
</event>
<event>
 8    1  0.8061721E-006  0.1245774E+03  0.7561462E-02  0.1235731E+00
          1   -1    0    0  501    0  0.00000000000E+00  0.00000000000E+00  0.20393189638E+03  0.20393189638E+03  0.00000000000E+00 0. -1.
         -1   -1    0    0    0  501 -0.00000000000E+00 -0.00000000000E+00 -0.11449783722E+03  0.11449783722E+03  0.00000000000E+00 0.  1.
         23    2    1    2    0    0  0.99838590137E+01 -0.88195214539E+02 -0.17180421747E+02  0.13163822259E+03  0.95683757488E+02 0.  0.
         23    2    1    2    0    0 -0.99838590137E+01  0.88195214539E+02  0.10661448090E+03  0.18679151102E+03  0.12508536182E+03 0.  0.
          5    1    4    4  502    0 -0.65881250249E+02  0.55371375767E+02  0.76383407800E+02  0.11514436928E+03  0.41800000000E+01 0. -1.
         -5    1    4    4    0  502  0.55897391235E+02  0.32823838772E+02  0.30231073103E+02  0.71647141740E+02  0.41800000000E+01 0. -1.
        -11    1    3    3    0    0 -0.13900774088E+02 -0.12613350370E+02  0.32899424345E+02  0.37877437216E+02  0.00000000000E+00 0. -1.
         11    1    3    3    0    0  0.23884633101E+02 -0.75581864168E+02 -0.50079846092E+02  0.93760785375E+02  0.00000000000E+00 0.  1.
</event>
<event>
 8    1  0.8061721E-006  0.9668562E+02  0.7561462E-02  0.1287424E+00
          2   -1    0    0  501    0  0.00000000000E+00  0.00000000000E+00  0.33454442103E+03  0.33454442103E+03  0.00000000000E+00 0. -1.
         -2   -1    0    0    0  501 -0.00000000000E+00 -0.00000000000E+00 -0.45553810928E+02  0.45553810928E+02  0.00000000000E+00 0.  1.
         23    2    1    2    0    0 -0.54273795086E+01 -0.59623848466E+02  0.13799056902E+03  0.17507980744E+03  0.89593984625E+02 0.  0.
         23    2    1    2    0    0  0.54273795086E+01  0.59623848466E+02  0.15100004108E+03  0.20501842452E+03  0.12508829774E+03 0.  0.
          5    1    4    4  502    0 -0.14909394596E+02 -0.25043573260E+02  0.99503896637E+02  0.10376882217E+03  0.41800000000E+01 0.  1.
         -5    1    4    4    0  502  0.20336774104E+02  0.84667421727E+02  0.51496144448E+02  0.10124960235E+03  0.41800000000E+01 0.  1.
        -11    1    3    3    0    0  0.21356250198E+02 -0.29856212059E+02  0.60584779660E+01  0.37204676807E+02  0.00000000000E+00 0.  1.
         11    1    3    3    0    0 -0.26783629707E+02 -0.29767636407E+02  0.13193209106E+03  0.13787513064E+03  0.00000000000E+00 0. -1.
</event>
<event>
 8    1  0.8061721E-006  0.9506419E+02  0.7561462E-02  0.1291032E+00
          1   -1    0    0  501    0  0.00000000000E+00  0.00000000000E+00  0.10101209029E+03  0.10101209029E+03  0.00000000000E+00 0. -1.
         -1   -1    0    0    0  501 -0.00000000000E+00 -0.00000000000E+00 -0.13888506381E+03  0.13888506381E+03  0.00000000000E+00 0.  1.
         23    2    1    2    0    0  0.24383107424E+02 -0.30188388187E+02 -0.41422194076E+02  0.10887466363E+03  0.92908662184E+02 0.  0.
         23    2    1    2    0    0 -0.24383107424E+02  0.30188388187E+02  0.35492205577E+01  0.13102249048E+03  0.12509365026E+03 0.  0.
          5    1    4    4  502    0 -0.27954366564E+02  0.63485043949E+02  0.40938748758E+02  0.80655136012E+02  0.41800000000E+01 0.  1.
         -5    1    4    4    0  502  0.35712591397E+01 -0.33296655762E+02 -0.37389528201E+02  0.50367354465E+02  0.41800000000E+01 0.  1.
        -11    1    3    3    0    0  0.52321414736E+02 -0.12411163349E+02 -0.51299559736E+02  0.74318317020E+02  0.00000000000E+00 0.  1.
         11    1    3    3    0    0 -0.27938307312E+02 -0.17777224838E+02  0.98773656596E+01  0.34556346607E+02  0.00000000000E+00 0. -1.
</event>
<event>
 8    1  0.8061721E-006  0.1103748E+03  0.7561462E-02  0.1259877E+00
          3   -1    0    0  501    0  0.00000000000E+00  0.00000000000E+00  0.53296462887E+03  0.53296462887E+03  0.00000000000E+00 0. -1.
         -3   -1    0    0    0  501 -0.00000000000E+00 -0.00000000000E+00 -0.32238427574E+02  0.32238427574E+02  0.00000000000E+00 0.  1.
         23    2    1    2    0    0  0.43534458479E+02  0.58919278305E+02  0.21432842899E+03  0.24420749194E+03  0.91290159466E+02 0.  0.
         23    2    1    2    0    0 -0.43534458479E+02 -0.58919278305E+02  0.28639777231E+03  0.32099556450E+03  0.12509091901E+03 0.  0.
          5    1    4    4  502    0  0.20767451167E+02  0.23955483659E+02  0.12051684456E+03  0.12468734678E+03  0.41800000000E+01 0.  1.
         -5    1    4    4    0  502 -0.64301909646E+02 -0.82874761964E+02  0.16588092775E+03  0.19630821773E+03  0.41800000000E+01 0.  1.
        -11    1    3    3    0    0  0.31924197807E+02  0.99098902784E+01  0.11703215750E+02  0.35416459307E+02  0.00000000000E+00 0.  1.
         11    1    3    3    0    0  0.11610260673E+02  0.49009388026E+02  0.20262521324E+03  0.20879103263E+03  0.00000000000E+00 0. -1.
</event>
<event>
 7    1  0.8061721E-006  0.9955147E+02  0.7561462E-02  0.1281242E+00
         -2   -1    0    0    0  501 -0.00000000000E+00  0.00000000000E+00  0.42544409160E+02  0.42544409160E+02  0.00000000000E+00 0.  1.
          2   -1    0    0  501    0  0.00000000000E+00 -0.00000000000E+00 -0.54386663332E+03  0.54386663332E+03  0.00000000000E+00 0. -1.
         23    2    1    2    0    0  0.41812997097E+02 -0.68702855879E+02 -0.14773418070E+03  0.19088289678E+03  0.90235708040E+02 0.  0.
          5    1    1    2  502    0 -0.71714627199E+01  0.14296486993E+02 -0.32403796353E+03  0.32445938671E+03  0.41800000000E+01 0. -1.
         -5    1    1    2    0  502 -0.34641534377E+02  0.54406368886E+02 -0.29550079931E+02  0.71068758982E+02  0.41800000000E+01 0.  1.
        -11    1    3    3    0    0  0.42353229632E+02 -0.88510731049E+02 -0.10462418260E+03  0.14343697277E+03  0.00000000000E+00 0. -1.
         11    1    3    3    0    0 -0.54023253499E+00  0.19807875171E+02 -0.43109998096E+02  0.47445924016E+02  0.00000000000E+00 0.  1.
</event>
<event>
 8    1  0.8061721E-006  0.1141618E+03  0.7561462E-02  0.1253051E+00
          3   -1    0    0  501    0  0.00000000000E+00  0.00000000000E+00  0.63165314671E+02  0.63165314671E+02  0.00000000000E+00 0. -1.
         -3   -1    0    0    0  501 -0.00000000000E+00 -0.00000000000E+00 -0.34959610009E+03  0.34959610009E+03  0.00000000000E+00 0.  1.
         23    2    1    2    0    0  0.55881475003E+02  0.73391897845E+02 -0.18749160743E+03  0.22851669195E+03  0.92507652262E+02 0.  0.
         23    2    1    2    0    0 -0.55881475003E+02 -0.73391897845E+02 -0.98939177998E+02  0.18424472282E+03  0.12509215413E+03 0.  0.
          5    1    4    4  502    0 -0.75080215083E+02 -0.32066512035E+02 -0.11011359090E+03  0.13714144229E+03  0.41800000000E+01 0. -1.
         -5    1    4    4    0  502  0.19198740081E+02 -0.41325385810E+02  0.11174412902E+02  0.47103280530E+02  0.41800000000E+01 0. -1.
        -11    1    3    3    0    0  0.23321905366E+01  0.34635693433E+02 -0.14689959718E+03  0.15094555980E+03  0.00000000000E+00 0.  1.
         11    1    3    3    0    0  0.53549284466E+02  0.38756204412E+02 -0.40592010250E+02  0.77571132152E+02  0.00000000000E+00 0. -1.
</event>
<event>
 8    1  0.8061721E-006  0.1925841E+03  0.7561462E-02  0.1156151E+00
          2   -1    0    0  501    0  0.00000000000E+00  0.00000000000E+00  0.75253248486E+03  0.75253248486E+03  0.00000000000E+00 0. -1.
         -2   -1    0    0    0  501 -0.00000000000E+00 -0.00000000000E+00 -0.78505306753E+02  0.78505306753E+02  0.00000000000E+00 0.  1.
         23    2    1    2    0    0  0.54996219555E+02  0.15957412557E+03  0.10103039283E+03  0.22074193773E+03  0.10015676253E+03 0.  0.
         23    2    1    2    0    0 -0.54996219555E+02 -0.15957412557E+03  0.57299678528E+03  0.61029585389E+03  0.12508887885E+03 0.  0.
          5    1    4    4  502    0  0.25538271969E+02 -0.71520913331E+02  0.34096202060E+03  0.34934226235E+03  0.41800000000E+01 0.  1.
         -5    1    4    4    0  502 -0.80534491525E+02 -0.88053212239E+02  0.23203476469E+03  0.26095359153E+03  0.41800000000E+01 0.  1.
        -11    1    3    3    0    0  0.74097299984E+02  0.15211567815E+03  0.69044986084E+02  0.18274791246E+03  0.00000000000E+00 0. -1.
         11    1    3    3    0    0 -0.19101080429E+02  0.74584474161E+01  0.31985406744E+02  0.37994025267E+02  0.00000000000E+00 0.  1.
</event>
<event>
 8    1  0.8061721E-006  0.9778237E+02  0.7561462E-02  0.1285030E+00
          1   -1    0    0  501    0  0.00000000000E+00  0.00000000000E+00  0.71159165451E+03  0.71159165451E+03  0.00000000000E+00 0. -1.
         -1   -1    0    0    0  501 -0.00000000000E+00 -0.00000000000E+00 -0.21199522230E+02  0.21199522230E+02  0.00000000000E+00 0.  1.
         23    2    1    2    0    0  0.25118675200E+02  0.40829340945E+02  0.25426763919E+03  0.27655572071E+03  0.97637346322E+02 0.  0.
         23    2    1    2    0    0 -0.25118675200E+02 -0.40829340945E+02  0.43612449310E+03  0.45623545603E+03  0.12509290520E+03 0.  0.
          5    1    4    4  502    0 -0.22039182317E+02 -0.83942030265E+02  0.23684505553E+03  0.25227969147E+03  0.41800000000E+01 0. -1.
         -5    1    4    4    0  502 -0.30794928835E+01  0.43112689320E+02  0.19927943757E+03  0.20395576455E+03  0.41800000000E+01 0. -1.
        -11    1    3    3    0    0 -0.11920848857E+02  0.18485318064E+02  0.37283048692E+01  0.22309501980E+02  0.00000000000E+00 0.  1.
         11    1    3    3    0    0  0.37039524058E+02  0.22344022882E+02  0.25053933432E+03  0.25424621873E+03  0.00000000000E+00 0. -1.
</event>
<event>
 8    1  0.1067667E-005  0.1204162E+03  0.7561462E-02  0.1242412E+00
          1   -1    0    0  501    0  0.00000000000E+00  0.00000000000E+00  0.78954096891E+03  0.78954096891E+03  0.00000000000E+00 0.  1.
         -1   -1    0    0    0  501 -0.00000000000E+00 -0.00000000000E+00 -0.21948672327E+02  0.21948672327E+02  0.00000000000E+00 0. -1.
         23    2    1    2    0    0 -0.65946538289E+02  0.22433339052E+02  0.26140625863E+03  0.28544395506E+03  0.91064915388E+02 0.  0.
         23    2    1    2    0    0  0.65946538289E+02 -0.22433339052E+02  0.50618603795E+03  0.52604568617E+03  0.12509020072E+03 0.  0.
          5    1    4    4  502    0 -0.81628891806E+01 -0.48120091863E+02  0.89572899137E+02  0.10209286293E+03  0.41800000000E+01 0.  1.
         -5    1    4    4    0  502  0.74109427469E+02  0.25686752811E+02  0.41661313881E+03  0.42395282325E+03  0.41800000000E+01 0.  1.
        -11    1    3    3    0    0  0.22531718906E+02  0.58866806242E+01  0.73302506188E+02  0.76912864847E+02  0.00000000000E+00 0.  1.
         11    1    3    3    0    0 -0.88478257194E+02  0.16546658428E+02  0.18810375244E+03  0.20853109021E+03  0.00000000000E+00 0. -1.
</event>
<event>
 8    1  0.8061721E-006  0.8806880E+02  0.7561462E-02  0.1307597E+00
          1   -1    0    0  501    0  0.00000000000E+00  0.00000000000E+00  0.13026931739E+03  0.13026931739E+03  0.00000000000E+00 0. -1.
         -1   -1    0    0    0  501 -0.00000000000E+00 -0.00000000000E+00 -0.12084316074E+03  0.12084316074E+03  0.00000000000E+00 0.  1.
         23    2    1    2    0    0  0.79329872218E+01  0.65493543222E+01 -0.59522872806E+02  0.10791233278E+03  0.89421881272E+02 0.  0.
         23    2    1    2    0    0 -0.79329872218E+01 -0.65493543222E+01  0.68949029451E+02  0.14320014535E+03  0.12508591703E+03 0.  0.
          5    1    4    4  502    0 -0.31912538733E+02  0.34704278270E+02  0.80993647502E+02  0.93809596494E+02  0.41800000000E+01 0.  1.
         -5    1    4    4    0  502  0.23979551511E+02 -0.41253632592E+02 -0.12044618051E+02  0.49390548860E+02  0.41800000000E+01 0.  1.
        -11    1    3    3    0    0 -0.28533728464E+02  0.26841362690E+02 -0.53638105913E+01  0.39539889671E+02  0.00000000000E+00 0. -1.
         11    1    3    3    0    0  0.36466715686E+02 -0.20292008368E+02 -0.54159062215E+02  0.68372443108E+02  0.00000000000E+00 0.  1.
</event>
<event>
 8    1  0.8061721E-006  0.1061289E+03  0.7561462E-02  0.1267911E+00
         -1   -1    0    0    0  501 -0.00000000000E+00  0.00000000000E+00  0.68124741410E+02  0.68124741410E+02  0.00000000000E+00 0.  1.
          1   -1    0    0  501    0  0.00000000000E+00 -0.00000000000E+00 -0.22830907066E+03  0.22830907066E+03  0.00000000000E+00 0. -1.
         23    2    1    2    0    0  0.45569578096E+02  0.72025080888E+01 -0.59325344837E+02  0.12925777703E+03  0.10516469851E+03 0.  0.
         23    2    1    2    0    0 -0.45569578096E+02 -0.72025080888E+01 -0.10085898441E+03  0.16717603504E+03  0.12508728706E+03 0.  0.
          5    1    4    4  502    0 -0.26020782647E+02  0.55845175847E+02 -0.72439496487E+02  0.95187803033E+02  0.41800000000E+01 0. -1.
         -5    1    4    4    0  502 -0.19548795450E+02 -0.63047683936E+02 -0.28419487926E+02  0.71988232005E+02  0.41800000000E+01 0. -1.
        -11    1    3    3    0    0  0.34072759842E+02 -0.30018099232E+02 -0.74666059402E+02  0.87390272178E+02  0.00000000000E+00 0. -1.
         11    1    3    3    0    0  0.11496818254E+02  0.37220607321E+02  0.15340714565E+02  0.41867504854E+02  0.00000000000E+00 0.  1.
</event>
<event>
 8    1  0.8061721E-006  0.9548021E+02  0.7561462E-02  0.1290098E+00
          2   -1    0    0  501    0  0.00000000000E+00  0.00000000000E+00  0.11023660800E+04  0.11023660800E+04  0.00000000000E+00 0. -1.
         -2   -1    0    0    0  501 -0.00000000000E+00 -0.00000000000E+00 -0.13198614746E+02  0.13198614746E+02  0.00000000000E+00 0.  1.
         23    2    1    2    0    0 -0.48642632999E+02 -0.32132198015E+02  0.38101821709E+03  0.39617720836E+03  0.91558258895E+02 0.  0.
         23    2    1    2    0    0  0.48642632999E+02  0.32132198015E+02  0.70814924816E+03  0.71938748639E+03  0.11244738327E+03 0.  0.
          5    1    4    4  502    0  0.23459751299E+02  0.47195319913E+02  0.12810138158E+03  0.13858280743E+03  0.41800000000E+01 0. -1.
         -5    1    4    4    0  502  0.25182881699E+02 -0.15063121898E+02  0.58004786658E+03  0.58080467896E+03  0.41800000000E+01 0.  1.
        -11    1    3    3    0    0  0.14688474678E+02  0.21106513525E+02  0.97468161594E+02  0.10080316823E+03  0.00000000000E+00 0.  1.
         11    1    3    3    0    0 -0.63331107677E+02 -0.53238711540E+02  0.28355005550E+03  0.29537404012E+03  0.00000000000E+00 0. -1.
</event>
<event>
 7    1  0.8061721E-006  0.1528553E+03  0.7561462E-02  0.1197008E+00
         -2   -1    0    0    0  501 -0.00000000000E+00  0.00000000000E+00  0.32864587060E+03  0.32864587060E+03  0.00000000000E+00 0.  1.
          2   -1    0    0  501    0  0.00000000000E+00 -0.00000000000E+00 -0.83565015314E+02  0.83565015314E+02  0.00000000000E+00 0. -1.
         23    2    1    2    0    0 -0.12410829062E+03 -0.49246053624E+02  0.10165910950E+03  0.20930794471E+03  0.12508876679E+03 0.  0.
          5    1    3    3  502    0 -0.13177046756E+03 -0.63079508139E+02  0.48966914244E+02  0.15413536765E+03  0.41800000000E+01 0.  1.
         -5    1    3    3    0  502  0.76621769456E+01  0.13833454515E+02  0.52692195254E+02  0.55172577066E+02  0.41800000000E+01 0.  1.
        -11    1    1    2    0    0  0.89882615676E+02  0.59118924985E+02  0.11346909652E+03  0.15636229647E+03  0.00000000000E+00 0. -1.
         11    1    1    2    0    0  0.34225674941E+02 -0.98728713609E+01  0.29952649268E+02  0.46540644734E+02  0.00000000000E+00 0.  1.
</event>
<event>
 8    1  0.8061721E-006  0.1139677E+03  0.7561462E-02  0.1253394E+00
          1   -1    0    0  501    0  0.00000000000E+00  0.00000000000E+00  0.84355278638E+03  0.84355278638E+03  0.00000000000E+00 0. -1.
         -1   -1    0    0    0  501 -0.00000000000E+00 -0.00000000000E+00 -0.21656670953E+02  0.21656670953E+02  0.00000000000E+00 0.  1.
         23    2    1    2    0    0  0.59455402243E+02  0.19984219169E+02  0.20362067447E+03  0.23129536592E+03  0.90010295817E+02 0.  0.
         23    2    1    2    0    0 -0.59455402243E+02 -0.19984219169E+02  0.61827544096E+03  0.63391409142E+03  0.12509292758E+03 0.  0.
          5    1    4    4  502    0  0.12433313703E+02 -0.47925506642E+02  0.38476870352E+03  0.38796374712E+03  0.41800000000E+01 0. -1.
         -5    1    4    4    0  502 -0.71888715946E+02  0.27941287472E+02  0.23350673745E+03  0.24595034430E+03  0.41800000000E+01 0. -1.
        -11    1    3    3    0    0  0.22799135907E+02 -0.30833676864E+02  0.37019196539E+02  0.53300442207E+02  0.00000000000E+00 0.  1.
         11    1    3    3    0    0  0.36656266336E+02  0.50817896034E+02  0.16660147793E+03  0.17799492371E+03  0.00000000000E+00 0. -1.
</event>
<event>
 8    1  0.8061721E-006  0.1484113E+03  0.7561462E-02  0.1202439E+00
          1   -1    0    0  501    0  0.00000000000E+00  0.00000000000E+00  0.81839129113E+03  0.81839129113E+03  0.00000000000E+00 0. -1.
         -1   -1    0    0    0  501 -0.00000000000E+00 -0.00000000000E+00 -0.31466060383E+02  0.31466060383E+02  0.00000000000E+00 0.  1.
         23    2    1    2    0    0 -0.22682585416E+02 -0.94466358715E+02  0.27172093707E+03  0.31085253022E+03  0.11557956260E+03 0.  0.
         23    2    1    2    0    0  0.22682585416E+02  0.94466358715E+02  0.51520429368E+03  0.53900482129E+03  0.12510931439E+03 0.  0.
          5    1    4    4  502    0  0.46051046968E+02 -0.12350487697E+02  0.12876449019E+03  0.13737175768E+03  0.41800000000E+01 0.  1.
         -5    1    4    4    0  502 -0.23368461552E+02  0.10681684641E+03  0.38643980349E+03  0.40163306362E+03  0.41800000000E+01 0.  1.
        -11    1    3    3    0    0  0.39092246543E+02 -0.49781001739E+02  0.65944568289E+02  0.91405896751E+02  0.00000000000E+00 0.  1.
         11    1    3    3    0    0 -0.61774831960E+02 -0.44685356975E+02  0.20577636878E+03  0.21944663347E+03  0.00000000000E+00 0. -1.
</event>
<event>
 8    1  0.8061721E-006  0.1063861E+03  0.7561462E-02  0.1267412E+00
         -2   -1    0    0    0  501 -0.00000000000E+00  0.00000000000E+00  0.82611309338E+01  0.82611309338E+01  0.00000000000E+00 0.  1.
          2   -1    0    0  501    0  0.00000000000E+00 -0.00000000000E+00 -0.22135155579E+04  0.22135155579E+04  0.00000000000E+00 0. -1.
         23    2    1    2    0    0  0.30648873354E+02 -0.18028314778E+02 -0.39257236311E+03  0.40443624473E+03  0.90505481604E+02 0.  0.
         23    2    1    2    0    0 -0.30648873354E+02  0.18028314778E+02 -0.18126820638E+04  0.18173404441E+04  0.12508257906E+03 0.  0.
          5    1    4    4  502    0  0.25971571241E+02  0.45500936938E+02 -0.12555551622E+04  0.12566547240E+04  0.41800000000E+01 0.  1.
         -5    1    4    4    0  502 -0.56620444595E+02 -0.27472622161E+02 -0.55712690168E+03  0.56068572007E+03  0.41800000000E+01 0.  1.
        -11    1    3    3    0    0  0.22333920384E+02 -0.54939781494E+02 -0.24842012394E+03  0.25540113854E+03  0.00000000000E+00 0.  1.
         11    1    3    3    0    0  0.83149529702E+01  0.36911466717E+02 -0.14415223917E+03  0.14903510619E+03  0.00000000000E+00 0. -1.
</event>
<event>
 8    1  0.8061721E-006  0.1157387E+03  0.7561462E-02  0.1250297E+00
          2   -1    0    0  501    0  0.00000000000E+00  0.00000000000E+00  0.11357868932E+04  0.11357868932E+04  0.00000000000E+00 0. -1.
         -2   -1    0    0    0  501 -0.00000000000E+00 -0.00000000000E+00 -0.21224891514E+02  0.21224891514E+02  0.00000000000E+00 0.  1.
         23    2    1    2    0    0 -0.14303726729E+02  0.58077233137E+02  0.16599206875E+03  0.19836155151E+03  0.90644231048E+02 0.  0.
         23    2    1    2    0    0  0.14303726729E+02 -0.58077233137E+02  0.94856993292E+03  0.95865023319E+03  0.12509112816E+03 0.  0.
          5    1    4    4  502    0  0.33711934854E+02  0.27600279146E+02  0.18880277655E+03  0.19380977993E+03  0.41800000000E+01 0.  1.
         -5    1    4    4    0  502 -0.19408208125E+02 -0.85677512283E+02  0.75976715636E+03  0.76484045326E+03  0.41800000000E+01 0.  1.
        -11    1    3    3    0    0 -0.21724064827E+01 -0.20317239847E+02  0.74579763470E+02  0.77328201222E+02  0.00000000000E+00 0. -1.
         11    1    3    3    0    0 -0.12131320246E+02  0.78394472984E+02  0.91412305275E+02  0.12103335028E+03  0.00000000000E+00 0.  1.
</event>
<event>
 8    1  0.8061721E-006  0.1086975E+03  0.7561462E-02  0.1263001E+00
         -2   -1    0    0    0  501 -0.00000000000E+00  0.00000000000E+00  0.10430741966E+03  0.10430741966E+03  0.00000000000E+00 0.  1.
          2   -1    0    0  501    0  0.00000000000E+00 -0.00000000000E+00 -0.23112993861E+03  0.23112993861E+03  0.00000000000E+00 0. -1.
         23    2    1    2    0    0  0.51358366961E+02 -0.87435872274E+02 -0.12018594005E+02  0.13766691837E+03  0.92331035917E+02 0.  0.
         23    2    1    2    0    0 -0.51358366961E+02  0.87435872274E+02 -0.11480392494E+03  0.19777043990E+03  0.12510192684E+03 0.  0.
          5    1    4    4  502    0  0.18356830250E+01  0.74336404981E+00 -0.93693202416E+02  0.93807307291E+02  0.41800000000E+01 0.  1.
         -5    1    4    4    0  502 -0.53194049985E+02  0.86692508224E+02 -0.21110722527E+02  0.10396313261E+03  0.41800000000E+01 0.  1.
        -11    1    3    3    0    0  0.58103720085E+02 -0.63355075178E+02  0.28058281976E+02  0.90427733721E+02  0.00000000000E+00 0.  1.
         11    1    3    3    0    0 -0.67453531249E+01 -0.24080797096E+02 -0.40076875981E+02  0.47239184645E+02  0.00000000000E+00 0. -1.
</event>
<event>
 8    1  0.8061721E-006  0.8727616E+02  0.7561462E-02  0.1309585E+00
          2   -1    0    0  501    0  0.00000000000E+00  0.00000000000E+00  0.76819228082E+03  0.76819228082E+03  0.00000000000E+00 0.  1.
         -2   -1    0    0    0  501 -0.00000000000E+00 -0.00000000000E+00 -0.28277041253E+02  0.28277041253E+02  0.00000000000E+00 0. -1.
         23    2    1    2    0    0 -0.46349692904E+02 -0.33803652360E+02  0.12174762705E+03  0.16316814894E+03  0.92251716463E+02 0.  0.
         23    2    1    2    0    0  0.46349692904E+02  0.33803652360E+02  0.61816761251E+03  0.63330117313E+03  0.12509275672E+03 0.  0.
          5    1    4    4  502    0  0.38476533639E+02  0.44946743644E+02  0.11032955151E+03  0.12526266699E+03  0.41800000000E+01 0.  1.
         -5    1    4    4    0  502  0.78731592658E+01 -0.11143091283E+02  0.50783806100E+03  0.50803850614E+03  0.41800000000E+01 0.  1.
        -11    1    3    3    0    0  0.40136459754E+01 -0.48373889668E+02  0.28765313039E+02  0.56423273477E+02  0.00000000000E+00 0. -1.
         11    1    3    3    0    0 -0.50363338880E+02  0.14570237307E+02  0.92982314014E+02  0.10674487546E+03  0.00000000000E+00 0.  1.
</event>
<event>
 8    1  0.8061721E-006  0.6916389E+02  0.7561462E-02  0.1362960E+00
         -1   -1    0    0    0  501 -0.00000000000E+00  0.00000000000E+00  0.83648939241E+02  0.83648939241E+02  0.00000000000E+00 0.  1.
          1   -1    0    0  501    0  0.00000000000E+00 -0.00000000000E+00 -0.16529755148E+03  0.16529755148E+03  0.00000000000E+00 0. -1.
         23    2    1    2    0    0 -0.23318405716E+02 -0.26101701562E+02 -0.44680680015E+01  0.97853249928E+02  0.91270192398E+02 0.  0.
         23    2    1    2    0    0  0.23318405716E+02  0.26101701562E+02 -0.77180544235E+02  0.15109324079E+03  0.12508910478E+03 0.  0.
          5    1    4    4  502    0  0.55500627223E+02 -0.44217040633E+01 -0.88942809725E+02  0.10501507935E+03  0.41800000000E+01 0. -1.
         -5    1    4    4    0  502 -0.32182221507E+02  0.30523405626E+02  0.11762265491E+02  0.46078161439E+02  0.41800000000E+01 0. -1.
        -11    1    3    3    0    0 -0.21145092488E+02 -0.13348527558E+02  0.42404316001E+02  0.49228285973E+02  0.00000000000E+00 0.  1.
         11    1    3    3    0    0 -0.21733132278E+01 -0.12753174005E+02 -0.46872384003E+02  0.48624963956E+02  0.00000000000E+00 0. -1.
</event>
<event>
 8    1  0.8061721E-006  0.1740953E+03  0.7561462E-02  0.1173643E+00
         -2   -1    0    0    0  501 -0.00000000000E+00  0.00000000000E+00  0.14298327648E+03  0.14298327648E+03  0.00000000000E+00 0.  1.
          2   -1    0    0  501    0  0.00000000000E+00 -0.00000000000E+00 -0.28805821059E+03  0.28805821059E+03  0.00000000000E+00 0. -1.
         23    2    1    2    0    0 -0.12808916635E+03 -0.69543214631E+02 -0.16484215408E+03  0.23795978624E+03  0.90602598583E+02 0.  0.
         23    2    1    2    0    0  0.12808916635E+03  0.69543214631E+02  0.19767219975E+02  0.19308170082E+03  0.12508679775E+03 0.  0.
          5    1    4    4  502    0 -0.19344295582E+02  0.35493438849E+02  0.61090977937E+01  0.41094761816E+02  0.41800000000E+01 0.  1.
         -5    1    4    4    0  502  0.14743346193E+03  0.34049775782E+02  0.13658122181E+02  0.15198693901E+03  0.41800000000E+01 0.  1.
        -11    1    3    3    0    0 -0.47785624299E+02  0.31124567696E+01 -0.98605728422E+01  0.48891555238E+02  0.00000000000E+00 0.  1.
         11    1    3    3    0    0 -0.80303542047E+02 -0.72655671401E+02 -0.15498158124E+03  0.18906823100E+03  0.00000000000E+00 0. -1.
</event>
<event>
 8    1  0.8061721E-006  0.1265378E+03  0.7561462E-02  0.1232685E+00
          2   -1    0    0  501    0  0.00000000000E+00  0.00000000000E+00  0.61206807734E+03  0.61206807734E+03  0.00000000000E+00 0. -1.
         -2   -1    0    0    0  501 -0.00000000000E+00 -0.00000000000E+00 -0.35372302458E+02  0.35372302458E+02  0.00000000000E+00 0.  1.
         23    2    1    2    0    0  0.98011137544E+02  0.88077751257E+01  0.27039177477E+03  0.30225472229E+03  0.92533482025E+02 0.  0.
         23    2    1    2    0    0 -0.98011137544E+02 -0.88077751257E+01  0.30630400010E+03  0.34518565751E+03  0.12508891910E+03 0.  0.
          5    1    4    4  502    0  0.97223175753E+01  0.36062808736E+02  0.42770881112E+02  0.56937424459E+02  0.41800000000E+01 0. -1.
         -5    1    4    4    0  502 -0.10773345512E+03 -0.44870583862E+02  0.26353311899E+03  0.28824823305E+03  0.41800000000E+01 0. -1.
        -11    1    3    3    0    0  0.60974904161E+02  0.16856613973E+01  0.50608728611E+02  0.79259219044E+02  0.00000000000E+00 0.  1.
         11    1    3    3    0    0  0.37036233383E+02  0.71221137284E+01  0.21978304616E+03  0.22299550325E+03  0.00000000000E+00 0. -1.
</event>
<event>
 8    1  0.8061721E-006  0.1253937E+03  0.7561462E-02  0.1234455E+00
          2   -1    0    0  501    0  0.00000000000E+00  0.00000000000E+00  0.39757150986E+03  0.39757150986E+03  0.00000000000E+00 0. -1.
         -2   -1    0    0    0  501 -0.00000000000E+00 -0.00000000000E+00 -0.41209644515E+02  0.41209644515E+02  0.00000000000E+00 0.  1.
         23    2    1    2    0    0  0.57125263401E+02 -0.32555862398E+02  0.12462738009E+03  0.16735600690E+03  0.90293240507E+02 0.  0.
         23    2    1    2    0    0 -0.57125263401E+02  0.32555862398E+02  0.23173448525E+03  0.27142514748E+03  0.12509020398E+03 0.  0.
          5    1    4    4  502    0  0.38815228103E+02  0.20842520185E+02  0.64459207658E+02  0.78188838284E+02  0.41800000000E+01 0. -1.
         -5    1    4    4    0  502 -0.95940491504E+02  0.11713342213E+02  0.16727527759E+03  0.19323630919E+03  0.41800000000E+01 0. -1.
        -11    1    3    3    0    0  0.45601439455E+02  0.24372669006E+02  0.43445486706E+02  0.67535387686E+02  0.00000000000E+00 0.  1.
         11    1    3    3    0    0  0.11523823946E+02 -0.56928531404E+02  0.81181893386E+02  0.99820619212E+02  0.00000000000E+00 0. -1.
</event>
<event>
 8    1  0.8061721E-006  0.6581764E+02  0.7561462E-02  0.1374922E+00
         -1   -1    0    0    0  501 -0.00000000000E+00  0.00000000000E+00  0.15738198404E+03  0.15738198404E+03  0.00000000000E+00 0.  1.
          1   -1    0    0  501    0  0.00000000000E+00 -0.00000000000E+00 -0.11272314761E+03  0.11272314761E+03  0.00000000000E+00 0. -1.
         23    2    1    2    0    0 -0.19082921227E+02  0.15208980534E+02  0.95134715715E+02  0.13302367759E+03  0.89717410210E+02 0.  0.
         23    2    1    2    0    0  0.19082921227E+02 -0.15208980534E+02 -0.50475879284E+02  0.13708145405E+03  0.12509212479E+03 0.  0.
          5    1    4    4  502    0  0.13315852692E+02 -0.34523936080E+02  0.33822648649E+02  0.50305646373E+02  0.41800000000E+01 0. -1.
         -5    1    4    4    0  502  0.57670685352E+01  0.19314955546E+02 -0.84298527933E+02  0.86775807682E+02  0.41800000000E+01 0. -1.
        -11    1    3    3    0    0 -0.45308137975E+02  0.46741559141E+01  0.14847579805E+02  0.47907470465E+02  0.00000000000E+00 0. -1.
         11    1    3    3    0    0  0.26225216748E+02  0.10534824620E+02  0.80287135911E+02  0.85116207129E+02  0.00000000000E+00 0.  1.
</event>
<event>
 8    1  0.8061721E-006  0.1205018E+03  0.7561462E-02  0.1242272E+00
          2   -1    0    0  501    0  0.00000000000E+00  0.00000000000E+00  0.81870313591E+03  0.81870313591E+03  0.00000000000E+00 0.  1.
         -2   -1    0    0    0  501 -0.00000000000E+00 -0.00000000000E+00 -0.19298463246E+02  0.19298463246E+02  0.00000000000E+00 0. -1.
         23    2    1    2    0    0 -0.90210297767E+01 -0.55123613341E+02  0.29703422088E+03  0.31728723303E+03  0.96549822074E+02 0.  0.
         23    2    1    2    0    0  0.90210297767E+01  0.55123613341E+02  0.50237045178E+03  0.52071436612E+03  0.12508952210E+03 0.  0.
          5    1    4    4  502    0  0.42549047708E+02  0.79767917351E+02  0.27439952904E+03  0.28893929473E+03  0.41800000000E+01 0.  1.
         -5    1    4    4    0  502 -0.33528017932E+02 -0.24644304010E+02  0.22797092273E+03  0.23177507139E+03  0.41800000000E+01 0.  1.
        -11    1    3    3    0    0 -0.33553938886E+01 -0.81567264214E+02  0.25048326345E+03  0.26345083512E+03  0.00000000000E+00 0.  1.
         11    1    3    3    0    0 -0.56656358881E+01  0.26443650873E+02  0.46550957433E+02  0.53836397905E+02  0.00000000000E+00 0. -1.
</event>
<event>
 8    1  0.8061721E-006  0.9048102E+02  0.7561462E-02  0.1301691E+00
          2   -1    0    0  501    0  0.00000000000E+00  0.00000000000E+00  0.97985230309E+03  0.97985230309E+03  0.00000000000E+00 0. -1.
         -2   -1    0    0    0  501 -0.00000000000E+00 -0.00000000000E+00 -0.18077065575E+02  0.18077065575E+02  0.00000000000E+00 0.  1.
         23    2    1    2    0    0 -0.61959215433E+01  0.67173569810E+02  0.26697888506E+03  0.28977734560E+03  0.90235841141E+02 0.  0.
         23    2    1    2    0    0  0.61959215433E+01 -0.67173569810E+02  0.69479635245E+03  0.70815202307E+03  0.11910767595E+03 0.  0.
          5    1    4    4  502    0  0.55937952278E+01 -0.60673221063E+02  0.69732796972E+03  0.69999735717E+03  0.41800000000E+01 0. -1.
         -5    1    4    4    0  502  0.60212631546E+00 -0.65003487467E+01 -0.25316172629E+01  0.81546658972E+01  0.41800000000E+01 0.  1.
        -11    1    3    3    0    0 -0.45044508391E+02  0.55689082903E+02  0.18364311560E+03  0.19711690845E+03  0.00000000000E+00 0.  1.
         11    1    3    3    0    0  0.38848586848E+02  0.11484486907E+02  0.83335769467E+02  0.92660437146E+02  0.00000000000E+00 0. -1.
</event>
<event>
 8    1  0.8061721E-006  0.3839738E+03  0.7561462E-02  0.1049475E+00
          2   -1    0    0  501    0  0.00000000000E+00  0.00000000000E+00  0.19730440693E+03  0.19730440693E+03  0.00000000000E+00 0. -1.
         -2   -1    0    0    0  501 -0.00000000000E+00 -0.00000000000E+00 -0.81071364187E+03  0.81071364187E+03  0.00000000000E+00 0.  1.
         23    2    1    2    0    0 -0.37790848608E+03  0.20374851360E+02 -0.20684042498E+03  0.44177059321E+03  0.95646940341E+02 0.  0.
         23    2    1    2    0    0  0.37790848608E+03 -0.20374851360E+02 -0.40656880996E+03  0.56624745559E+03  0.11003647263E+03 0.  0.
          5    1    4    4  502    0  0.31620166012E+03  0.17755534067E+02 -0.29326622544E+03  0.43164951087E+03  0.41800000000E+01 0. -1.
         -5    1    4    4    0  502  0.61706825961E+02 -0.38130385427E+02 -0.11330258452E+03  0.13459794472E+03  0.41800000000E+01 0.  1.
        -11    1    3    3    0    0 -0.13054158015E+03  0.11291950493E+02 -0.12491634647E+03  0.18103233388E+03  0.00000000000E+00 0.  1.
         11    1    3    3    0    0 -0.24736690593E+03  0.90829008672E+01 -0.81924078508E+02  0.26073825933E+03  0.00000000000E+00 0. -1.
</event>
<event>
 8    1  0.8061721E-006  0.1144990E+03  0.7561462E-02  0.1252458E+00
         -1   -1    0    0    0  501 -0.00000000000E+00  0.00000000000E+00  0.10666244616E+04  0.10666244616E+04  0.00000000000E+00 0.  1.
          1   -1    0    0  501    0  0.00000000000E+00 -0.00000000000E+00 -0.13268616245E+02  0.13268616245E+02  0.00000000000E+00 0. -1.
         23    2    1    2    0    0  0.45450102260E+02  0.97314173077E+01  0.41343201440E+03  0.42620314116E+03  0.92534721730E+02 0.  0.
         23    2    1    2    0    0 -0.45450102260E+02 -0.97314173077E+01  0.63992383096E+03  0.65368993669E+03  0.12509041379E+03 0.  0.
          5    1    4    4  502    0 -0.13748428893E+02 -0.66282803615E+02  0.29435480218E+03  0.30206729601E+03  0.41800000000E+01 0.  1.
         -5    1    4    4    0  502 -0.31701673367E+02  0.56551386307E+02  0.34556902878E+03  0.35162264068E+03  0.41800000000E+01 0.  1.
        -11    1    3    3    0    0  0.59770099816E+02 -0.20149196370E+02  0.33769459678E+03  0.34353470806E+03  0.00000000000E+00 0.  1.
         11    1    3    3    0    0 -0.14319997556E+02  0.29880613677E+02  0.75737417619E+02  0.82668433101E+02  0.00000000000E+00 0. -1.
</event>
<event>
 8    1  0.8061721E-006  0.1764717E+03  0.7561462E-02  0.1171262E+00
          2   -1    0    0  501    0  0.00000000000E+00  0.00000000000E+00  0.11030000906E+04  0.11030000906E+04  0.00000000000E+00 0.  1.
         -2   -1    0    0    0  501 -0.00000000000E+00 -0.00000000000E+00 -0.40664802333E+02  0.40664802333E+02  0.00000000000E+00 0. -1.
         23    2    1    2    0    0 -0.47318122837E+02 -0.14693372685E+03  0.25862133096E+03  0.31575541716E+03  0.94804882811E+02 0.  0.
         23    2    1    2    0    0  0.47318122837E+02  0.14693372685E+03  0.80371395734E+03  0.82790947580E+03  0.12509776204E+03 0.  0.
          5    1    4    4  502    0  0.50283701256E+02 -0.10865634730E+01  0.21663706063E+03  0.22243812549E+03  0.41800000000E+01 0.  1.
         -5    1    4    4    0  502 -0.29655784197E+01  0.14802029032E+03  0.58707689671E+03  0.60547135031E+03  0.41800000000E+01 0.  1.
        -11    1    3    3    0    0 -0.25519248765E+02 -0.79946273084E+02  0.21990132692E+03  0.23537041492E+03  0.00000000000E+00 0.  1.
         11    1    3    3    0    0 -0.21798874072E+02 -0.66987453768E+02  0.38720004041E+02  0.80385002245E+02  0.00000000000E+00 0. -1.
</event>
<event>
 8    1  0.8061721E-006  0.1947306E+03  0.7561462E-02  0.1154262E+00
          2   -1    0    0  501    0  0.00000000000E+00  0.00000000000E+00  0.10430152840E+04  0.10430152840E+04  0.00000000000E+00 0. -1.
         -2   -1    0    0    0  501 -0.00000000000E+00 -0.00000000000E+00 -0.40631756335E+02  0.40631756335E+02  0.00000000000E+00 0.  1.
         23    2    1    2    0    0 -0.62825854954E+02 -0.15234559340E+03  0.32837128213E+03  0.37859314217E+03  0.91371770744E+02 0.  0.
         23    2    1    2    0    0  0.62825854954E+02  0.15234559340E+03  0.67401224553E+03  0.70505389816E+03  0.12510884984E+03 0.  0.
          5    1    4    4  502    0 -0.33825745602E+02  0.65316670710E+02  0.18793758238E+03  0.20186246756E+03  0.41800000000E+01 0.  1.
         -5    1    4    4    0  502  0.96651600557E+02  0.87028922694E+02  0.48607466315E+03  0.50319143060E+03  0.41800000000E+01 0.  1.
        -11    1    3    3    0    0 -0.71994439160E+01 -0.12215830277E+03  0.18421181741E+03  0.22115260930E+03  0.00000000000E+00 0. -1.
         11    1    3    3    0    0 -0.55626411038E+02 -0.30187290638E+02  0.14415946472E+03  0.15744053286E+03  0.00000000000E+00 0.  1.
</event>
<event>
 8    1  0.8061721E-006  0.1532647E+03  0.7561462E-02  0.1196518E+00
          3   -1    0    0  501    0  0.00000000000E+00  0.00000000000E+00  0.33471774134E+02  0.33471774134E+02  0.00000000000E+00 0. -1.
         -3   -1    0    0    0  501 -0.00000000000E+00 -0.00000000000E+00 -0.72125454416E+03  0.72125454416E+03  0.00000000000E+00 0.  1.
         23    2    1    2    0    0 -0.78241723107E+02 -0.77869719536E+02 -0.35991806580E+03  0.38685128202E+03  0.89036171591E+02 0.  0.
         23    2    1    2    0    0  0.78241723107E+02  0.77869719536E+02 -0.32786470423E+03  0.36787503628E+03  0.12510522605E+03 0.  0.
          5    1    4    4  502    0  0.10892855143E+03  0.38430771432E+02 -0.24731360899E+03  0.27299056229E+03  0.41800000000E+01 0.  1.
         -5    1    4    4    0  502 -0.30686828323E+02  0.39438948103E+02 -0.80551095234E+02  0.94884473985E+02  0.41800000000E+01 0.  1.
        -11    1    3    3    0    0  0.19451138132E+02 -0.10245943086E+02 -0.41047500683E+02  0.46564186202E+02  0.00000000000E+00 0.  1.
         11    1    3    3    0    0 -0.97692861239E+02 -0.67623776450E+02 -0.31887056512E+03  0.34028709582E+03  0.00000000000E+00 0. -1.
</event>
<event>
 8    1  0.8061721E-006  0.2358976E+03  0.7561462E-02  0.1122556E+00
         -1   -1    0    0    0  501 -0.00000000000E+00  0.00000000000E+00  0.84940993392E+02  0.84940993392E+02  0.00000000000E+00 0.  1.
          1   -1    0    0  501    0  0.00000000000E+00 -0.00000000000E+00 -0.93378328822E+03  0.93378328822E+03  0.00000000000E+00 0. -1.
         23    2    1    2    0    0 -0.13203581439E+03  0.18457970740E+03 -0.18336229651E+03  0.30457193068E+03  0.87402542932E+02 0.  0.
         23    2    1    2    0    0  0.13203581439E+03 -0.18457970740E+03 -0.66547999832E+03  0.71415235093E+03  0.12508727956E+03 0.  0.
          5    1    4    4  502    0  0.76036992314E+02 -0.52769188878E+02 -0.12869204329E+03  0.15857277793E+03  0.41800000000E+01 0. -1.
         -5    1    4    4    0  502  0.55998822078E+02 -0.13181051852E+03 -0.53678795503E+03  0.55557957300E+03  0.41800000000E+01 0. -1.
        -11    1    3    3    0    0 -0.73081533554E+02  0.48882139066E+02 -0.33800837176E+02  0.94195916366E+02  0.00000000000E+00 0.  1.
         11    1    3    3    0    0 -0.58954280838E+02  0.13569756834E+03 -0.14956145933E+03  0.21037601431E+03  0.00000000000E+00 0. -1.
</event>
<event>
 8    1  0.8061721E-006  0.6995719E+02  0.7561462E-02  0.1360239E+00
          4   -1    0    0  501    0  0.00000000000E+00  0.00000000000E+00  0.22372482903E+03  0.22372482903E+03  0.00000000000E+00 0. -1.
         -4   -1    0    0    0  501 -0.00000000000E+00 -0.00000000000E+00 -0.11499137920E+03  0.11499137920E+03  0.00000000000E+00 0.  1.
         23    2    1    2    0    0  0.51490897110E+02  0.21131230215E+02 -0.58764211373E+02  0.12238592177E+03  0.91799999636E+02 0.  0.
         23    2    1    2    0    0 -0.51490897110E+02 -0.21131230215E+02  0.16749766120E+03  0.21633028646E+03  0.12508191299E+03 0.  0.
          5    1    4    4  502    0 -0.32249757418E+02 -0.25969680731E+02  0.18495217960E+03  0.18957650780E+03  0.41800000000E+01 0. -1.
         -5    1    4    4    0  502 -0.19241139692E+02  0.48384505156E+01 -0.17454518400E+02  0.26753778660E+02  0.41800000000E+01 0. -1.
        -11    1    3    3    0    0  0.25061337815E+02  0.38828994340E+02  0.94045575180E+01  0.47161500789E+02  0.00000000000E+00 0. -1.
         11    1    3    3    0    0  0.26429559295E+02 -0.17697764125E+02 -0.68168768891E+02  0.75224420979E+02  0.00000000000E+00 0.  1.
</event>
<event>
 8    1  0.8061721E-006  0.6583548E+02  0.7561462E-02  0.1374856E+00
         -3   -1    0    0    0  501 -0.00000000000E+00  0.00000000000E+00  0.55142795251E+02  0.55142795251E+02  0.00000000000E+00 0.  1.
          3   -1    0    0  501    0  0.00000000000E+00 -0.00000000000E+00 -0.21884935194E+03  0.21884935194E+03  0.00000000000E+00 0. -1.
         23    2    1    2    0    0 -0.59918810883E+00  0.12814970988E+02 -0.53558815310E+02  0.10682587282E+03  0.91534899894E+02 0.  0.
         23    2    1    2    0    0  0.59918810883E+00 -0.12814970988E+02 -0.11014774138E+03  0.16716627437E+03  0.12508979114E+03 0.  0.
          5    1    4    4  502    0 -0.17358046660E+02 -0.30080747510E+02  0.16034748643E+02  0.38480367964E+02  0.41800000000E+01 0.  1.
         -5    1    4    4    0  502  0.17957234769E+02  0.17265776522E+02 -0.12618249002E+03  0.12868590641E+03  0.41800000000E+01 0.  1.
        -11    1    3    3    0    0 -0.21208891947E+02  0.35141967328E+02  0.45047128276E+01  0.41292461818E+02  0.00000000000E+00 0.  1.
         11    1    3    3    0    0  0.20609703838E+02 -0.22326996340E+02 -0.58063528138E+02  0.65533411003E+02  0.00000000000E+00 0. -1.
</event>
<event>
 8    1  0.8061721E-006  0.1379435E+03  0.7561462E-02  0.1216123E+00
          2   -1    0    0  501    0  0.00000000000E+00  0.00000000000E+00  0.41505196390E+03  0.41505196390E+03  0.00000000000E+00 0. -1.
         -2   -1    0    0    0  501 -0.00000000000E+00 -0.00000000000E+00 -0.66865734611E+02  0.66865734611E+02  0.00000000000E+00 0.  1.
         23    2    1    2    0    0  0.78398320000E+02 -0.10322732912E+03  0.13335951937E+03  0.20708792418E+03  0.91095932287E+02 0.  0.
         23    2    1    2    0    0 -0.78398320000E+02  0.10322732912E+03  0.21482670992E+03  0.27482977433E+03  0.11215485504E+03 0.  0.
          5    1    4    4  502    0 -0.81720978223E+02  0.74108227700E+02  0.21868837822E+03  0.24497433919E+03  0.41800000000E+01 0. -1.
         -5    1    4    4    0  502  0.33226582233E+01  0.29119101418E+02 -0.38616683049E+01  0.29855435136E+02  0.41800000000E+01 0.  1.
        -11    1    3    3    0    0  0.39370791218E+02 -0.20444564498E+02 -0.11706788012E+01  0.44378034066E+02  0.00000000000E+00 0.  1.
         11    1    3    3    0    0  0.39027528781E+02 -0.82782764620E+02  0.13453019818E+03  0.16270989012E+03  0.00000000000E+00 0. -1.
</event>
<event>
 8    1  0.8061721E-006  0.1075295E+03  0.7561462E-02  0.1265214E+00
          2   -1    0    0  501    0  0.00000000000E+00  0.00000000000E+00  0.10218544509E+04  0.10218544509E+04  0.00000000000E+00 0.  1.
         -2   -1    0    0    0  501 -0.00000000000E+00 -0.00000000000E+00 -0.17428573284E+02  0.17428573284E+02  0.00000000000E+00 0. -1.
         23    2    1    2    0    0  0.12778009035E+02 -0.82370519942E+02  0.33659755133E+03  0.35474566395E+03  0.74822419517E+02 0.  0.
         23    2    1    2    0    0 -0.12778009035E+02  0.82370519942E+02  0.66782832628E+03  0.68453736022E+03  0.12509414091E+03 0.  0.
          5    1    4    4  502    0 -0.25512274498E+02 -0.10645565704E+02  0.39478933214E+03  0.39577808604E+03  0.41800000000E+01 0. -1.
         -5    1    4    4    0  502  0.12734265463E+02  0.93016085646E+02  0.27303899414E+03  0.28875927418E+03  0.41800000000E+01 0. -1.
        -11    1    3    3    0    0 -0.14549018973E+02 -0.17668843913E+02  0.19825517267E+02  0.30280573528E+02  0.00000000000E+00 0. -1.
         11    1    3    3    0    0  0.27327028008E+02 -0.64701676030E+02  0.31677203406E+03  0.32446509042E+03  0.00000000000E+00 0.  1.
</event>
<event>
 8    1  0.8061721E-006  0.9745282E+02  0.7561462E-02  0.1285745E+00
          1   -1    0    0  501    0  0.00000000000E+00  0.00000000000E+00  0.55289111721E+03  0.55289111721E+03  0.00000000000E+00 0. -1.
         -1   -1    0    0    0  501 -0.00000000000E+00 -0.00000000000E+00 -0.35362785528E+02  0.35362785528E+02  0.00000000000E+00 0.  1.
         23    2    1    2    0    0  0.31331810700E+02 -0.15299392393E+02  0.69574041455E+02  0.12185567683E+03  0.93768357999E+02 0.  0.
         23    2    1    2    0    0 -0.31331810700E+02  0.15299392393E+02  0.44795429023E+03  0.46639822591E+03  0.12509398558E+03 0.  0.
          5    1    4    4  502    0  0.33316498826E+02 -0.31394033045E+02  0.22304268233E+03  0.22773028992E+03  0.41800000000E+01 0.  1.
         -5    1    4    4    0  502 -0.64648309526E+02  0.46693425438E+02  0.22491160790E+03  0.23866793599E+03  0.41800000000E+01 0.  1.
        -11    1    3    3    0    0 -0.16558473252E+02 -0.13145340598E+02 -0.14106669390E+02  0.25416158977E+02  0.00000000000E+00 0.  1.
         11    1    3    3    0    0  0.47890283951E+02 -0.21540517957E+01  0.83680710845E+02  0.96439517853E+02  0.00000000000E+00 0. -1.
</event>
<event>
 8    1  0.8061721E-006  0.1659188E+03  0.7561462E-02  0.1182172E+00
         -2   -1    0    0    0  501 -0.00000000000E+00  0.00000000000E+00  0.31009969019E+02  0.31009969019E+02  0.00000000000E+00 0. -1.
          2   -1    0    0  501    0  0.00000000000E+00 -0.00000000000E+00 -0.89707489630E+03  0.89707489630E+03  0.00000000000E+00 0.  1.
         23    2    1    2    0    0  0.56036022282E+02  0.11374510097E+03 -0.36943232325E+03  0.40047750097E+03  0.88453397521E+02 0.  0.
         23    2    1    2    0    0 -0.56036022282E+02 -0.11374510097E+03 -0.49663260403E+03  0.52760736435E+03  0.12509038230E+03 0.  0.
          5    1    4    4  502    0 -0.94110750559E+02 -0.97704558598E+02 -0.40107455356E+03  0.42341620665E+03  0.41800000000E+01 0.  1.
         -5    1    4    4    0  502  0.38074728277E+02 -0.16040542367E+02 -0.95558050467E+02  0.10419115770E+03  0.41800000000E+01 0.  1.
        -11    1    3    3    0    0  0.69152045153E+02  0.40416962076E+02 -0.18874715020E+03  0.20503907647E+03  0.00000000000E+00 0.  1.
         11    1    3    3    0    0 -0.13116022871E+02  0.73328138890E+02 -0.18068517306E+03  0.19543842450E+03  0.00000000000E+00 0. -1.
</event>
<event>
 8    1  0.8061721E-006  0.1412472E+03  0.7561462E-02  0.1211661E+00
         -2   -1    0    0    0  501 -0.00000000000E+00  0.00000000000E+00  0.22068250603E+02  0.22068250603E+02  0.00000000000E+00 0.  1.
          2   -1    0    0  501    0  0.00000000000E+00 -0.00000000000E+00 -0.15930153185E+04  0.15930153185E+04  0.00000000000E+00 0. -1.
         23    2    1    2    0    0  0.10916726587E+03  0.62225704261E+02 -0.37885125587E+03  0.40987471952E+03  0.93163734488E+02 0.  0.
         23    2    1    2    0    0 -0.10916726587E+03 -0.62225704261E+02 -0.11920958120E+04  0.12052088496E+04  0.12508563401E+03 0.  0.
          5    1    4    4  502    0 -0.80272709791E+02  0.73783156141E+01 -0.89657365428E+03  0.90019994303E+03  0.41800000000E+01 0.  1.
         -5    1    4    4    0  502 -0.28894556080E+02 -0.69604019875E+02 -0.29552215772E+03  0.30500890653E+03  0.41800000000E+01 0.  1.
        -11    1    3    3    0    0  0.79616376957E+02  0.51684233559E+02 -0.36204648717E+03  0.37428289615E+03  0.00000000000E+00 0. -1.
         11    1    3    3    0    0  0.29550888914E+02  0.10541470701E+02 -0.16804768700E+02  0.35591823376E+02  0.00000000000E+00 0.  1.
</event>
<event>
 7    1  0.8061721E-006  0.9032670E+02  0.7561462E-02  0.1302062E+00
          1   -1    0    0  501    0  0.00000000000E+00  0.00000000000E+00  0.22789614417E+03  0.22789614417E+03  0.00000000000E+00 0. -1.
         -1   -1    0    0    0  501 -0.00000000000E+00 -0.00000000000E+00 -0.94331799510E+02  0.94331799510E+02  0.00000000000E+00 0.  1.
         23    2    1    2    0    0 -0.17920978515E+02 -0.16354758676E+02 -0.36518835280E+02  0.10178606744E+03  0.91859341343E+02 0.  0.
          5    1    1    2  502    0  0.51883677730E+02 -0.13489203142E+02  0.16641795367E+03  0.17488934307E+03  0.41800000000E+01 0. -1.
         -5    1    1    2    0  502 -0.33962699214E+02  0.29843961818E+02  0.36652262733E+01  0.45552533174E+02  0.41800000000E+01 0.  1.
        -11    1    3    3    0    0 -0.47224749528E+02  0.13432435506E+01  0.55272882985E+01  0.47566082319E+02  0.00000000000E+00 0. -1.
         11    1    3    3    0    0  0.29303771013E+02 -0.17698002227E+02 -0.42046123578E+02  0.54219985120E+02  0.00000000000E+00 0.  1.
</event>
<event>
 7    1  0.8061721E-006  0.1779993E+03  0.7561462E-02  0.1169753E+00
         -2   -1    0    0    0  501 -0.00000000000E+00  0.00000000000E+00  0.20240948485E+03  0.20240948485E+03  0.00000000000E+00 0.  1.
          2   -1    0    0  501    0  0.00000000000E+00 -0.00000000000E+00 -0.24959502057E+03  0.24959502057E+03  0.00000000000E+00 0. -1.
         23    2    1    2    0    0  0.42096823742E+02  0.10860973548E+02  0.64614406276E+01  0.10053630325E+03  0.90419548439E+02 0.  0.
          5    1    1    2  502    0  0.82241288109E+02  0.72133721725E+02 -0.14081880885E+03  0.17836567104E+03  0.41800000000E+01 0. -1.
         -5    1    1    2    0  502 -0.12433811185E+03 -0.82994695272E+02  0.87171832507E+02  0.17310253113E+03  0.41800000000E+01 0.  1.
        -11    1    3    3    0    0  0.65597586554E+02 -0.89909893789E+01  0.16391986519E+02  0.68209812152E+02  0.00000000000E+00 0. -1.
         11    1    3    3    0    0 -0.23500762812E+02  0.19851962927E+02 -0.99305458911E+01  0.32326491095E+02  0.00000000000E+00 0.  1.
</event>
<event>
 8    1  0.8061721E-006  0.1063082E+03  0.7561462E-02  0.1267563E+00
         -1   -1    0    0    0  501 -0.00000000000E+00  0.00000000000E+00  0.53583496979E+02  0.53583496979E+02  0.00000000000E+00 0.  1.
          1   -1    0    0  501    0  0.00000000000E+00 -0.00000000000E+00 -0.33241230865E+03  0.33241230865E+03  0.00000000000E+00 0. -1.
         23    2    1    2    0    0  0.32842376020E+02 -0.19143547450E+02 -0.26904707152E+02  0.10216014629E+03  0.90927087005E+02 0.  0.
         23    2    1    2    0    0 -0.32842376020E+02  0.19143547450E+02 -0.25192410452E+03  0.28383565934E+03  0.12510727398E+03 0.  0.
          5    1    4    4  502    0  0.32392103104E+02 -0.26275243684E+02 -0.14240445849E+03  0.14844574420E+03  0.41800000000E+01 0. -1.
         -5    1    4    4    0  502 -0.65234479124E+02  0.45418791134E+02 -0.10951964603E+03  0.13538991514E+03  0.41800000000E+01 0. -1.
        -11    1    3    3    0    0 -0.25948430717E+02 -0.19250267003E+02  0.86589906370E+01  0.33449543423E+02  0.00000000000E+00 0.  1.
         11    1    3    3    0    0  0.58790806736E+02  0.10671955260E+00 -0.35563697789E+02  0.68710602866E+02  0.00000000000E+00 0. -1.
</event>
<event>
 8    1  0.8061721E-006  0.1696301E+03  0.7561462E-02  0.1178234E+00
          1   -1    0    0  501    0  0.00000000000E+00  0.00000000000E+00  0.59121627871E+02  0.59121627871E+02  0.00000000000E+00 0. -1.
         -1   -1    0    0    0  501 -0.00000000000E+00 -0.00000000000E+00 -0.82162577508E+03  0.82162577508E+03  0.00000000000E+00 0.  1.
         23    2    1    2    0    0  0.10239724707E+03  0.11243338787E+03 -0.60015518566E+03  0.62553893296E+03  0.89365803680E+02 0.  0.
         23    2    1    2    0    0 -0.10239724707E+03 -0.11243338787E+03 -0.16234896156E+03  0.25520846999E+03  0.12509082668E+03 0.  0.
          5    1    4    4  502    0 -0.91736769740E+02 -0.12177339263E+03 -0.81320312814E+02  0.17284345446E+03  0.41800000000E+01 0. -1.
         -5    1    4    4    0  502 -0.10660477335E+02  0.93400047540E+01 -0.81028648743E+02  0.82365015528E+02  0.41800000000E+01 0. -1.
        -11    1    3    3    0    0  0.11301686167E+02  0.70992018732E+02 -0.18460954630E+03  0.19811178516E+03  0.00000000000E+00 0. -1.
         11    1    3    3    0    0  0.91095560907E+02  0.41441369142E+02 -0.41554563935E+03  0.42742714780E+03  0.00000000000E+00 0.  1.
</event>
<event>
 8    1  0.8061721E-006  0.1040324E+03  0.7561462E-02  0.1272038E+00
         -1   -1    0    0    0  501 -0.00000000000E+00  0.00000000000E+00  0.22120651731E+03  0.22120651731E+03  0.00000000000E+00 0.  1.
          1   -1    0    0  501    0  0.00000000000E+00 -0.00000000000E+00 -0.77958494433E+02  0.77958494433E+02  0.00000000000E+00 0. -1.
         23    2    1    2    0    0  0.73668689137E+02 -0.81692365950E+01  0.59881912744E+02  0.13156005135E+03  0.90710481482E+02 0.  0.
         23    2    1    2    0    0 -0.73668689137E+02  0.81692365950E+01  0.83366110136E+02  0.16760496040E+03  0.12509077602E+03 0.  0.
          5    1    4    4  502    0 -0.46436255369E+02 -0.50655361794E+02  0.75495200066E+02  0.10217283946E+03  0.41800000000E+01 0.  1.
         -5    1    4    4    0  502 -0.27232433768E+02  0.58824598389E+02  0.78709100700E+01  0.65432120934E+02  0.41800000000E+01 0.  1.
        -11    1    3    3    0    0  0.32520108792E+02 -0.13179953562E+01 -0.22261217930E+02  0.39431667621E+02  0.00000000000E+00 0. -1.
         11    1    3    3    0    0  0.41148580344E+02 -0.68512412388E+01  0.82143130674E+02  0.92128383725E+02  0.00000000000E+00 0.  1.
</event>
<event>
 8    1  0.8061721E-006  0.8709440E+02  0.7561462E-02  0.1310045E+00
          2   -1    0    0  501    0  0.00000000000E+00  0.00000000000E+00  0.41972808293E+02  0.41972808293E+02  0.00000000000E+00 0. -1.
         -2   -1    0    0    0  501 -0.00000000000E+00 -0.00000000000E+00 -0.45855126368E+03  0.45855126368E+03  0.00000000000E+00 0.  1.
         23    2    1    2    0    0  0.43688483648E+02  0.48873204149E+02 -0.29048783691E+03  0.31119901856E+03  0.90356914893E+02 0.  0.
         23    2    1    2    0    0 -0.43688483648E+02 -0.48873204149E+02 -0.12609061848E+03  0.18932505342E+03  0.12509139897E+03 0.  0.
          5    1    4    4  502    0  0.16588693053E+02 -0.36051298200E+02 -0.12092855103E+03  0.12734232483E+03  0.41800000000E+01 0.  1.
         -5    1    4    4    0  502 -0.60277176701E+02 -0.12821905949E+02 -0.51620674490E+01  0.61982728591E+02  0.41800000000E+01 0.  1.
        -11    1    3    3    0    0  0.30930569640E+02  0.50937729492E+02 -0.29215241317E+03  0.29816838354E+03  0.00000000000E+00 0.  1.
         11    1    3    3    0    0  0.12757914008E+02 -0.20645253435E+01  0.16645762572E+01  0.13030635013E+02  0.00000000000E+00 0. -1.
</event>
<event>
 8    1  0.8061721E-006  0.1341666E+03  0.7561462E-02  0.1221401E+00
          2   -1    0    0  501    0  0.00000000000E+00  0.00000000000E+00  0.11987893127E+04  0.11987893127E+04  0.00000000000E+00 0.  1.
         -2   -1    0    0    0  501 -0.00000000000E+00 -0.00000000000E+00 -0.21169782266E+02  0.21169782266E+02  0.00000000000E+00 0. -1.
         23    2    1    2    0    0 -0.26378930528E+02  0.11411249910E+03  0.54884625683E+03  0.56825269474E+03  0.89226683320E+02 0.  0.
         23    2    1    2    0    0  0.26378930528E+02 -0.11411249910E+03  0.62877327360E+03  0.65170640022E+03  0.12509153476E+03 0.  0.
          5    1    4    4  502    0  0.43979444953E+02 -0.10297497197E+03  0.61764062067E+03  0.62772242682E+03  0.41800000000E+01 0. -1.
         -5    1    4    4    0  502 -0.17600514424E+02 -0.11137527137E+02  0.11132652921E+02  0.23983973394E+02  0.41800000000E+01 0. -1.
        -11    1    3    3    0    0 -0.44378168932E+02  0.43406046037E+02  0.36874715433E+03  0.37393578398E+03  0.00000000000E+00 0.  1.
         11    1    3    3    0    0  0.17999238404E+02  0.70706453065E+02  0.18009910250E+03  0.19431691077E+03  0.00000000000E+00 0. -1.
</event>
<event>
 8    1  0.8061721E-006  0.1765359E+03  0.7561462E-02  0.1171198E+00
         -1   -1    0    0    0  501 -0.00000000000E+00  0.00000000000E+00  0.18964319055E+03  0.18964319055E+03  0.00000000000E+00 0.  1.
          1   -1    0    0  501    0  0.00000000000E+00 -0.00000000000E+00 -0.18508337988E+03  0.18508337988E+03  0.00000000000E+00 0. -1.
         23    2    1    2    0    0 -0.63190215675E+02  0.12820422365E+03 -0.49257264675E+02  0.17731040037E+03  0.92646498249E+02 0.  0.
         23    2    1    2    0    0  0.63190215675E+02 -0.12820422365E+03  0.53817075341E+02  0.19741617007E+03  0.12509012866E+03 0.  0.
          5    1    4    4  502    0  0.75263759180E+02 -0.17111864865E+02  0.31030292083E+02  0.83293461879E+02  0.41800000000E+01 0. -1.
         -5    1    4    4    0  502 -0.12073543505E+02 -0.11109235878E+03  0.22786783258E+02  0.11412270819E+03  0.41800000000E+01 0. -1.
        -11    1    3    3    0    0 -0.75670583660E+02  0.13088448898E+03 -0.57902469607E+02  0.16189342999E+03  0.00000000000E+00 0. -1.
         11    1    3    3    0    0  0.12480367985E+02 -0.26802653359E+01  0.86452049320E+01  0.15416970378E+02  0.00000000000E+00 0.  1.
</event>
<event>
 8    1  0.8313740E-006  0.1982260E+03  0.7561462E-02  0.1151244E+00
         -1   -1    0    0    0  501 -0.00000000000E+00  0.00000000000E+00  0.36223598418E+02  0.36223598418E+02  0.00000000000E+00 0.  1.
          1   -1    0    0  501    0  0.00000000000E+00 -0.00000000000E+00 -0.14811264867E+04  0.14811264867E+04  0.00000000000E+00 0. -1.
         23    2    1    2    0    0 -0.17006956372E+03 -0.97905662023E+02 -0.52311520651E+03  0.56664030635E+03  0.94459209909E+02 0.  0.
         23    2    1    2    0    0  0.17006956372E+03  0.97905662023E+02 -0.92178768178E+03  0.95070977878E+03  0.12508948006E+03 0.  0.
          5    1    4    4  502    0  0.98327610862E+02  0.58100084956E+02 -0.76704415477E+03  0.77551153873E+03  0.41800000000E+01 0. -1.
         -5    1    4    4    0  502  0.71741952859E+02  0.39805577067E+02 -0.15474352701E+03  0.17519824005E+03  0.41800000000E+01 0. -1.
        -11    1    3    3    0    0 -0.11698747882E+03 -0.87080805084E+02 -0.26096853675E+03  0.29895436773E+03  0.00000000000E+00 0.  1.
         11    1    3    3    0    0 -0.53082084904E+02 -0.10824856939E+02 -0.26214666976E+03  0.26768593861E+03  0.00000000000E+00 0. -1.
</event>
<event>
 8    1  0.8061721E-006  0.7843599E+02  0.7561462E-02  0.1333549E+00
          1   -1    0    0  501    0  0.00000000000E+00  0.00000000000E+00  0.69303650407E+03  0.69303650407E+03  0.00000000000E+00 0. -1.
         -1   -1    0    0    0  501 -0.00000000000E+00 -0.00000000000E+00 -0.19255582749E+02  0.19255582749E+02  0.00000000000E+00 0.  1.
         23    2    1    2    0    0  0.20459071932E+02  0.11466535044E+02  0.18913893999E+03  0.21121805944E+03  0.91046553821E+02 0.  0.
         23    2    1    2    0    0 -0.20459071932E+02 -0.11466535044E+02  0.48464198134E+03  0.50107402739E+03  0.12508907144E+03 0.  0.
          5    1    4    4  502    0  0.19235450801E+02 -0.28727267597E+02  0.35137494556E+02  0.49470944955E+02  0.41800000000E+01 0. -1.
         -5    1    4    4    0  502 -0.39694522733E+02  0.17260732553E+02  0.44950448678E+03  0.45160308243E+03  0.41800000000E+01 0. -1.
        -11    1    3    3    0    0 -0.20620458880E+02  0.27578533518E+02  0.14413152650E+03  0.14818797444E+03  0.00000000000E+00 0. -1.
         11    1    3    3    0    0  0.41079530812E+02 -0.16111998474E+02  0.45007413481E+02  0.63030084998E+02  0.00000000000E+00 0.  1.
</event>
<event>
 7    1  0.8061721E-006  0.1659047E+03  0.7561462E-02  0.1182187E+00
         -1   -1    0    0    0  501 -0.00000000000E+00  0.00000000000E+00  0.14776402690E+03  0.14776402690E+03  0.00000000000E+00 0.  1.
          1   -1    0    0  501    0  0.00000000000E+00 -0.00000000000E+00 -0.28028883066E+03  0.28028883066E+03  0.00000000000E+00 0. -1.
         23    2    1    2    0    0 -0.12610732449E+02 -0.45385100626E+02  0.64122828200E+02  0.12021992950E+03  0.90123561958E+02 0.  0.
          5    1    1    2  502    0  0.41868933601E+02  0.13286293247E+03 -0.14866137802E+03  0.20377253039E+03  0.41800000000E+01 0. -1.
         -5    1    1    2    0  502 -0.29258201152E+02 -0.87477831844E+02 -0.47986253938E+02  0.10406039768E+03  0.41800000000E+01 0.  1.
        -11    1    3    3    0    0  0.15836990955E+02  0.21916804822E+02  0.83520773165E+01  0.28300420697E+02  0.00000000000E+00 0. -1.
         11    1    3    3    0    0 -0.28447723404E+02 -0.67301905448E+02  0.55770750883E+02  0.91919508799E+02  0.00000000000E+00 0.  1.
</event>
<event>
 8    1  0.8061721E-006  0.1449018E+03  0.7561462E-02  0.1206881E+00
          1   -1    0    0  501    0  0.00000000000E+00  0.00000000000E+00  0.60359272236E+03  0.60359272236E+03  0.00000000000E+00 0. -1.
         -1   -1    0    0    0  501 -0.00000000000E+00 -0.00000000000E+00 -0.62250902827E+02  0.62250902827E+02  0.00000000000E+00 0.  1.
         23    2    1    2    0    0 -0.82112212192E+02 -0.88018334324E+02  0.76151767042E+02  0.16931632463E+03  0.91538426872E+02 0.  0.
         23    2    1    2    0    0  0.82112212192E+02  0.88018334324E+02  0.46519005249E+03  0.49652730055E+03  0.12509169714E+03 0.  0.
          5    1    4    4  502    0  0.10233005326E+03  0.55211082916E+02  0.42521068205E+03  0.44084158153E+03  0.41800000000E+01 0. -1.
         -5    1    4    4    0  502 -0.20217841070E+02  0.32807251408E+02  0.39979370439E+02  0.55685719024E+02  0.41800000000E+01 0. -1.
        -11    1    3    3    0    0 -0.68482364278E+02 -0.96728025309E+02  0.32689935262E+02  0.12294216919E+03  0.00000000000E+00 0.  1.
         11    1    3    3    0    0 -0.13629847913E+02  0.87096909853E+01  0.43461831779E+02  0.46374155440E+02  0.00000000000E+00 0. -1.
</event>
<event>
 8    1  0.8061721E-006  0.1599224E+03  0.7561462E-02  0.1188784E+00
         -1   -1    0    0    0  501 -0.00000000000E+00  0.00000000000E+00  0.36575887282E+02  0.36575887282E+02  0.00000000000E+00 0.  1.
          1   -1    0    0  501    0  0.00000000000E+00 -0.00000000000E+00 -0.79580137321E+03  0.79580137321E+03  0.00000000000E+00 0. -1.
         23    2    1    2    0    0 -0.28070660323E+02 -0.12491667870E+03 -0.27403666567E+03  0.31522322747E+03  0.88755002198E+02 0.  0.
         23    2    1    2    0    0  0.28070660323E+02  0.12491667870E+03 -0.48518882026E+03  0.51715403302E+03  0.12509182220E+03 0.  0.
          5    1    4    4  502    0  0.67478445590E+02  0.60847760313E+02 -0.16694800413E+03  0.19011811865E+03  0.41800000000E+01 0.  1.
         -5    1    4    4    0  502 -0.39407785267E+02  0.64068918389E+02 -0.31824081613E+03  0.32703591438E+03  0.41800000000E+01 0.  1.
        -11    1    3    3    0    0 -0.50988083638E+02 -0.37797607271E+02 -0.87742148282E+02  0.10829186661E+03  0.00000000000E+00 0.  1.
         11    1    3    3    0    0  0.22917423315E+02 -0.87119071432E+02 -0.18629451739E+03  0.20693136086E+03  0.00000000000E+00 0. -1.
</event>
<event>
 8    1  0.8061721E-006  0.9283149E+02  0.7561462E-02  0.1296136E+00
          1   -1    0    0  501    0  0.00000000000E+00  0.00000000000E+00  0.17214831265E+03  0.17214831265E+03  0.00000000000E+00 0. -1.
         -1   -1    0    0    0  501 -0.00000000000E+00 -0.00000000000E+00 -0.11622623063E+03  0.11622623063E+03  0.00000000000E+00 0.  1.
         23    2    1    2    0    0  0.81174214842E+02  0.39816278146E+02  0.17384111149E+02  0.12928188865E+03  0.90757976239E+02 0.  0.
         23    2    1    2    0    0 -0.81174214842E+02 -0.39816278146E+02  0.38537970869E+02  0.15909265463E+03  0.12510279133E+03 0.  0.
          5    1    4    4  502    0 -0.63544908945E+02 -0.41870322774E+02 -0.34611436968E+02  0.83704858586E+02  0.41800000000E+01 0. -1.
         -5    1    4    4    0  502 -0.17629305897E+02  0.20540446273E+01  0.73149407837E+02  0.75387796046E+02  0.41800000000E+01 0. -1.
        -11    1    3    3    0    0  0.42750017240E+02  0.14249992099E+02 -0.36747353876E+02  0.58146317732E+02  0.00000000000E+00 0.  1.
         11    1    3    3    0    0  0.38424197601E+02  0.25566286048E+02  0.54131465025E+02  0.71135570915E+02  0.00000000000E+00 0. -1.
</event>
<event>
 8    1  0.8061721E-006  0.9415290E+02  0.7561462E-02  0.1293095E+00
          2   -1    0    0  501    0  0.00000000000E+00  0.00000000000E+00  0.62265750786E+02  0.62265750786E+02  0.00000000000E+00 0. -1.
         -2   -1    0    0    0  501 -0.00000000000E+00 -0.00000000000E+00 -0.20930635325E+03  0.20930635325E+03  0.00000000000E+00 0.  1.
         23    2    1    2    0    0  0.56710719015E+01 -0.56705245869E+02 -0.56246348485E+02  0.10859840737E+03  0.73364271959E+02 0.  0.
         23    2    1    2    0    0 -0.56710719015E+01  0.56705245869E+02 -0.90794253979E+02  0.16297369667E+03  0.12275660179E+03 0.  0.
          5    1    4    4  502    0  0.37908061627E+02  0.50261908218E+02 -0.12652177281E+01  0.63105892989E+02  0.41800000000E+01 0. -1.
         -5    1    4    4    0  502 -0.43579133529E+02  0.64433376508E+01 -0.89529036251E+02  0.99867803677E+02  0.41800000000E+01 0.  1.
        -11    1    3    3    0    0  0.30681261287E+02 -0.41784513211E+02 -0.82984528642E+01  0.52499044357E+02  0.00000000000E+00 0. -1.
         11    1    3    3    0    0 -0.25010189386E+02 -0.14920732658E+02 -0.47947895621E+02  0.56099363014E+02  0.00000000000E+00 0.  1.
</event>
<event>
 8    1  0.8061721E-006  0.1763154E+03  0.7561462E-02  0.1171417E+00
         -1   -1    0    0    0  501 -0.00000000000E+00  0.00000000000E+00  0.15601750377E+03  0.15601750377E+03  0.00000000000E+00 0.  1.
          1   -1    0    0  501    0  0.00000000000E+00 -0.00000000000E+00 -0.21995268554E+03  0.21995268554E+03  0.00000000000E+00 0. -1.
         23    2    1    2    0    0  0.38627464678E+01  0.13996265591E+03  0.24884852165E+02  0.16826554879E+03  0.89942054583E+02 0.  0.
         23    2    1    2    0    0 -0.38627464678E+01 -0.13996265591E+03 -0.88820033937E+02  0.20770464052E+03  0.12509098051E+03 0.  0.
          5    1    4    4  502    0  0.55594674108E+02 -0.32969553375E+02 -0.38076637300E+02  0.75133627271E+02  0.41800000000E+01 0.  1.
         -5    1    4    4    0  502 -0.59457420576E+02 -0.10699310254E+03 -0.50743396637E+02  0.13257101325E+03  0.41800000000E+01 0.  1.
        -11    1    3    3    0    0  0.11852216811E+02  0.15116308222E+03  0.27921649322E+02  0.15417642806E+03  0.00000000000E+00 0. -1.
         11    1    3    3    0    0 -0.79894703434E+01 -0.11200426309E+02 -0.30367971570E+01  0.14089120727E+02  0.00000000000E+00 0.  1.
</event>
<event>
 6    1  0.8061721E-006  0.7505272E+02  0.7561462E-02  0.1343708E+00
         -2   -1    0    0    0  501 -0.00000000000E+00  0.00000000000E+00  0.24421176589E+02  0.24421176589E+02  0.00000000000E+00 0.  1.
          2   -1    0    0  501    0  0.00000000000E+00 -0.00000000000E+00 -0.47166550261E+03  0.47166550261E+03  0.00000000000E+00 0. -1.
          5    1    1    2  502    0 -0.89603670992E+01  0.64013794883E+02 -0.38166797622E+03  0.38712526473E+03  0.41800000000E+01 0. -1.
         -5    1    1    2    0  502  0.19127890094E+02 -0.21499869593E+02 -0.13679007882E+02  0.32135778015E+02  0.41800000000E+01 0.  1.
        -11    1    1    2    0    0  0.18188276679E+01 -0.44122236844E+02 -0.44259913882E+02  0.62522155233E+02  0.00000000000E+00 0. -1.
         11    1    1    2    0    0 -0.11986350662E+02  0.16083115535E+01 -0.76374280362E+01  0.14303481229E+02  0.00000000000E+00 0.  1.
</event>
<event>
 8    1  0.8061721E-006  0.8946224E+02  0.7561462E-02  0.1304159E+00
         -2   -1    0    0    0  501 -0.00000000000E+00  0.00000000000E+00  0.22854401633E+02  0.22854401633E+02  0.00000000000E+00 0.  1.
          2   -1    0    0  501    0  0.00000000000E+00 -0.00000000000E+00 -0.55245327955E+03  0.55245327955E+03  0.00000000000E+00 0. -1.
         23    2    1    2    0    0  0.75164846616E+01  0.10427681580E+02 -0.15228104034E+03  0.17757079626E+03  0.90424766244E+02 0.  0.
         23    2    1    2    0    0 -0.75164846616E+01 -0.10427681580E+02 -0.37731783757E+03  0.39773688493E+03  0.12514249875E+03 0.  0.
          5    1    4    4  502    0 -0.47964155499E+02 -0.27628071320E+02 -0.81290756367E+02  0.98435410337E+02  0.41800000000E+01 0. -1.
         -5    1    4    4    0  502  0.40447670837E+02  0.17200389739E+02 -0.29602708121E+03  0.29930147459E+03  0.41800000000E+01 0. -1.
        -11    1    3    3    0    0 -0.27039074610E+02 -0.19670963553E+02 -0.23473130587E+02  0.40853962139E+02  0.00000000000E+00 0.  1.
         11    1    3    3    0    0  0.34555559271E+02  0.30098645134E+02 -0.12880790976E+03  0.13671683412E+03  0.00000000000E+00 0. -1.
</event>
<event>
 8    1  0.8061721E-006  0.1272680E+03  0.7561462E-02  0.1231567E+00
         -1   -1    0    0    0  501 -0.00000000000E+00  0.00000000000E+00  0.35584589048E+03  0.35584589048E+03  0.00000000000E+00 0.  1.
          1   -1    0    0  501    0  0.00000000000E+00 -0.00000000000E+00 -0.65366130925E+02  0.65366130925E+02  0.00000000000E+00 0. -1.
         23    2    1    2    0    0 -0.61029345959E+01 -0.85517583742E+02  0.22582086689E+03  0.25635409755E+03  0.85859515881E+02 0.  0.
         23    2    1    2    0    0  0.61029345959E+01  0.85517583742E+02  0.64658892663E+02  0.16485792385E+03  0.12508740831E+03 0.  0.
          5    1    4    4  502    0 -0.44235809011E+02  0.80677625952E+02  0.67259117479E+02  0.11404800486E+03  0.41800000000E+01 0.  1.
         -5    1    4    4    0  502  0.50338743606E+02  0.48399577896E+01 -0.26002248154E+01  0.50809918996E+02  0.41800000000E+01 0.  1.
        -11    1    3    3    0    0 -0.78240423104E+01  0.11907642040E+02  0.78110331616E+02  0.79399190690E+02  0.00000000000E+00 0.  1.
         11    1    3    3    0    0  0.17211077145E+01 -0.97425225782E+02  0.14771053527E+03  0.17695490686E+03  0.00000000000E+00 0. -1.
</event>
<event>
 8    1  0.8061721E-006  0.4527762E+02  0.7561462E-02  0.1472616E+00
          2   -1    0    0  501    0  0.00000000000E+00  0.00000000000E+00  0.50359229340E+03  0.50359229340E+03  0.00000000000E+00 0. -1.
         -2   -1    0    0    0  501 -0.00000000000E+00 -0.00000000000E+00 -0.26408641449E+02  0.26408641449E+02  0.00000000000E+00 0.  1.
         23    2    1    2    0    0 -0.34669632959E+02 -0.28491957457E+01  0.18811801068E+03  0.21314517538E+03  0.93980734621E+02 0.  0.
         23    2    1    2    0    0  0.34669632959E+02  0.28491957457E+01  0.28906564128E+03  0.31685575948E+03  0.12501410312E+03 0.  0.
          5    1    4    4  502    0  0.18268574785E+02  0.88512206728E+00  0.29732793592E+03  0.29791928125E+03  0.41800000000E+01 0.  1.
         -5    1    4    4    0  502  0.16401058175E+02  0.19640736784E+01 -0.82622946410E+01  0.18936478221E+02  0.41800000000E+01 0.  1.
        -11    1    3    3    0    0 -0.41877623991E+02  0.70935410776E+01  0.19465363320E+03  0.19923375877E+03  0.00000000000E+00 0. -1.
         11    1    3    3    0    0  0.72079910311E+01 -0.99427368233E+01 -0.65356225231E+01  0.13911416607E+02  0.00000000000E+00 0.  1.
</event>
<event>
 8    1  0.8061721E-006  0.1299098E+03  0.7561462E-02  0.1227590E+00
          1   -1    0    0  501    0  0.00000000000E+00  0.00000000000E+00  0.17093368118E+03  0.17093368118E+03  0.00000000000E+00 0. -1.
         -1   -1    0    0    0  501 -0.00000000000E+00 -0.00000000000E+00 -0.12265227547E+03  0.12265227547E+03  0.00000000000E+00 0.  1.
         23    2    1    2    0    0  0.51936989996E+00 -0.94207145150E+02  0.13606245976E+02  0.13319534893E+03  0.93169818631E+02 0.  0.
         23    2    1    2    0    0 -0.51936989996E+00  0.94207145150E+02  0.34675159740E+02  0.16039060772E+03  0.12509006515E+03 0.  0.
          5    1    4    4  502    0  0.44922559407E+02  0.64338717817E+02 -0.22134016896E+02  0.81638802405E+02  0.41800000000E+01 0.  1.
         -5    1    4    4    0  502 -0.45441929307E+02  0.29868427333E+02  0.56809176636E+02  0.78751805316E+02  0.41800000000E+01 0.  1.
        -11    1    3    3    0    0 -0.40874148000E+02 -0.61957627868E+02 -0.11352221580E+02  0.75088724590E+02  0.00000000000E+00 0. -1.
         11    1    3    3    0    0  0.41393517900E+02 -0.32249517282E+02  0.24958467556E+02  0.58106624337E+02  0.00000000000E+00 0.  1.
</event>
<event>
 8    1  0.8061721E-006  0.9170906E+02  0.7561462E-02  0.1298765E+00
         -2   -1    0    0    0  501 -0.00000000000E+00  0.00000000000E+00  0.10362749341E+02  0.10362749341E+02  0.00000000000E+00 0.  1.
          2   -1    0    0  501    0  0.00000000000E+00 -0.00000000000E+00 -0.12573591071E+04  0.12573591071E+04  0.00000000000E+00 0. -1.
         23    2    1    2    0    0 -0.12283169860E+02  0.28261037688E+02 -0.43713051970E+03  0.44767327600E+03  0.91535284341E+02 0.  0.
         23    2    1    2    0    0  0.12283169860E+02 -0.28261037688E+02 -0.80986583809E+03  0.82004858047E+03  0.12508971227E+03 0.  0.
          5    1    4    4  502    0  0.40909439641E+02  0.67579059165E+01 -0.94971362210E+02  0.10371250447E+03  0.41800000000E+01 0.  1.
         -5    1    4    4    0  502 -0.28626269781E+02 -0.35018943604E+02 -0.71489447588E+03  0.71633607600E+03  0.41800000000E+01 0.  1.
        -11    1    3    3    0    0 -0.10361575030E+02 -0.33225868988E+02 -0.14244476247E+03  0.14663502639E+03  0.00000000000E+00 0.  1.
         11    1    3    3    0    0 -0.19215948297E+01  0.61486906676E+02 -0.29468575722E+03  0.30103824961E+03  0.00000000000E+00 0. -1.
</event>
<event>
 8    1  0.1148212E-005  0.2903846E+03  0.7561462E-02  0.1090148E+00
         -2   -1    0    0    0  501 -0.00000000000E+00  0.00000000000E+00  0.10806303303E+03  0.10806303303E+03  0.00000000000E+00 0.  1.
          2   -1    0    0  501    0  0.00000000000E+00 -0.00000000000E+00 -0.92926720937E+03  0.92926720937E+03  0.00000000000E+00 0. -1.
         23    2    1    2    0    0  0.64084424776E+02  0.28057275807E+03 -0.26581755488E+03  0.39941994391E+03  0.77778101302E+02 0.  0.
         23    2    1    2    0    0 -0.64084424776E+02 -0.28057275807E+03 -0.55538662147E+03  0.63791029849E+03  0.12508942220E+03 0.  0.
          5    1    4    4  502    0 -0.70702616047E+02 -0.25460662626E+03 -0.39504246672E+03  0.47528877219E+03  0.41800000000E+01 0.  1.
         -5    1    4    4    0  502  0.66181912712E+01 -0.25966131806E+02 -0.16034415474E+03  0.16262152630E+03  0.41800000000E+01 0.  1.
        -11    1    3    3    0    0  0.28023668781E+02  0.18710314442E+03 -0.21725958590E+03  0.28808790382E+03  0.00000000000E+00 0.  1.
         11    1    3    3    0    0  0.36060755994E+02  0.93469613650E+02 -0.48557968979E+02  0.11133204009E+03  0.00000000000E+00 0. -1.
</event>
<event>
 8    1  0.8061721E-006  0.1039582E+03  0.7561462E-02  0.1272186E+00
         -3   -1    0    0    0  501 -0.00000000000E+00  0.00000000000E+00  0.36603735638E+02  0.36603735638E+02  0.00000000000E+00 0.  1.
          3   -1    0    0  501    0  0.00000000000E+00 -0.00000000000E+00 -0.39492033423E+03  0.39492033423E+03  0.00000000000E+00 0. -1.
         23    2    1    2    0    0  0.40015154430E+02  0.31984979714E+02 -0.15285840371E+03  0.18558679873E+03  0.91937569950E+02 0.  0.
         23    2    1    2    0    0 -0.40015154430E+02 -0.31984979714E+02 -0.20545819489E+03  0.24593727114E+03  0.12509124660E+03 0.  0.
          5    1    4    4  502    0 -0.36201496636E+01 -0.70220898089E+02 -0.65068875776E+02  0.95893227116E+02  0.41800000000E+01 0.  1.
         -5    1    4    4    0  502 -0.36395004767E+02  0.38235918375E+02 -0.14038931911E+03  0.15004404402E+03  0.41800000000E+01 0.  1.
        -11    1    3    3    0    0  0.33081856173E+02 -0.15502323226E+02 -0.14787331566E+02  0.39413150193E+02  0.00000000000E+00 0.  1.
         11    1    3    3    0    0  0.69332982573E+01  0.47487302940E+02 -0.13807107214E+03  0.14617364854E+03  0.00000000000E+00 0. -1.
</event>
<event>
 8    1  0.8061721E-006  0.8679505E+02  0.7561462E-02  0.1310804E+00
         -2   -1    0    0    0  501 -0.00000000000E+00  0.00000000000E+00  0.52470655312E+02  0.52470655312E+02  0.00000000000E+00 0.  1.
          2   -1    0    0  501    0  0.00000000000E+00 -0.00000000000E+00 -0.37874839329E+03  0.37874839329E+03  0.00000000000E+00 0. -1.
         23    2    1    2    0    0  0.15159850000E+02 -0.41435386007E+02 -0.40938764201E+02  0.11655635090E+03  0.99813266934E+02 0.  0.
         23    2    1    2    0    0 -0.15159850000E+02  0.41435386007E+02 -0.28533897377E+03  0.31466269769E+03  0.12509025182E+03 0.  0.
          5    1    4    4  502    0 -0.19819242720E+02 -0.15018148659E+02 -0.24175999268E+03  0.24307141673E+03  0.41800000000E+01 0.  1.
         -5    1    4    4    0  502  0.46593927193E+01  0.56453534667E+02 -0.43578981095E+02  0.71591280964E+02  0.41800000000E+01 0.  1.
        -11    1    3    3    0    0  0.48277688800E+02 -0.28200542310E+02 -0.54804470376E+02  0.78291351985E+02  0.00000000000E+00 0. -1.
         11    1    3    3    0    0 -0.33117838800E+02 -0.13234843697E+02  0.13865706176E+02  0.38264998918E+02  0.00000000000E+00 0.  1.
</event>
<event>
 8    1  0.8061721E-006  0.1416605E+03  0.7561462E-02  0.1211112E+00
          2   -1    0    0  501    0  0.00000000000E+00  0.00000000000E+00  0.51310218638E+03  0.51310218638E+03  0.00000000000E+00 0. -1.
         -2   -1    0    0    0  501 -0.00000000000E+00 -0.00000000000E+00 -0.41263511997E+02  0.41263511997E+02  0.00000000000E+00 0.  1.
         23    2    1    2    0    0  0.73500214135E+02 -0.61159955767E+02  0.19289961455E+03  0.23405823496E+03  0.91815981136E+02 0.  0.
         23    2    1    2    0    0 -0.73500214135E+02  0.61159955767E+02  0.27893905983E+03  0.32030746341E+03  0.12508817031E+03 0.  0.
          5    1    4    4  502    0 -0.57806132332E+02 -0.25467199750E+02  0.16157655664E+03  0.17353553888E+03  0.41800000000E+01 0.  1.
         -5    1    4    4    0  502 -0.15694081803E+02  0.86627155517E+02  0.11736250319E+03  0.14677192454E+03  0.41800000000E+01 0.  1.
        -11    1    3    3    0    0  0.94533104692E+02 -0.42059333460E+02  0.14098816268E+03  0.17488040893E+03  0.00000000000E+00 0.  1.
         11    1    3    3    0    0 -0.21032890557E+02 -0.19100622308E+02  0.51911451877E+02  0.59177826031E+02  0.00000000000E+00 0. -1.
</event>
<event>
 7    1  0.8061721E-006  0.2293514E+03  0.7561462E-02  0.1127097E+00
         -2   -1    0    0    0  501 -0.00000000000E+00  0.00000000000E+00  0.94339982630E+02  0.94339982630E+02  0.00000000000E+00 0.  1.
          2   -1    0    0  501    0  0.00000000000E+00 -0.00000000000E+00 -0.81517933878E+03  0.81517933878E+03  0.00000000000E+00 0. -1.
         23    2    1    2    0    0 -0.38034626761E+01 -0.10561245897E+03 -0.81702571270E+02  0.16164158797E+03  0.91017772953E+02 0.  0.
          5    1    1    2  502    0  0.41364032788E+02 -0.10295236471E+03 -0.45099551229E+03  0.46446162071E+03  0.41800000000E+01 0. -1.
         -5    1    1    2    0  502 -0.37560570112E+02  0.20856482367E+03 -0.18814127259E+03  0.28341611273E+03  0.41800000000E+01 0.  1.
        -11    1    3    3    0    0 -0.42279409393E+02 -0.33369382137E+02 -0.51137868266E+02  0.74270759345E+02  0.00000000000E+00 0. -1.
         11    1    3    3    0    0  0.38475946717E+02 -0.72243076828E+02 -0.30564703004E+02  0.87370828628E+02  0.00000000000E+00 0.  1.
</event>
<event>
 8    1  0.8061721E-006  0.9736639E+02  0.7561462E-02  0.1285934E+00
          1   -1    0    0  501    0  0.00000000000E+00  0.00000000000E+00  0.44049277371E+02  0.44049277371E+02  0.00000000000E+00 0. -1.
         -1   -1    0    0    0  501 -0.00000000000E+00 -0.00000000000E+00 -0.40840749873E+03  0.40840749873E+03  0.00000000000E+00 0.  1.
         23    2    1    2    0    0 -0.42969347065E+02 -0.73689071167E+02 -0.20278268975E+03  0.23719281450E+03  0.88674505880E+02 0.  0.
         23    2    1    2    0    0  0.42969347065E+02  0.73689071167E+02 -0.16157553160E+03  0.21526396159E+03  0.11382212769E+03 0.  0.
          5    1    4    4  502    0  0.15910319700E+02  0.16809914440E+02  0.14897041954E+02  0.27840721173E+02  0.41800000000E+01 0.  1.
         -5    1    4    4    0  502  0.27059027364E+02  0.56879156728E+02 -0.17647257356E+03  0.18742324042E+03  0.41800000000E+01 0. -1.
        -11    1    3    3    0    0 -0.57634842525E+02 -0.36779355815E+02 -0.17724494279E+03  0.18997438204E+03  0.00000000000E+00 0.  1.
         11    1    3    3    0    0  0.14665495460E+02 -0.36909715352E+02 -0.25537746961E+02  0.47218432464E+02  0.00000000000E+00 0. -1.
</event>
<event>
 8    1  0.8061721E-006  0.1073960E+03  0.7561462E-02  0.1265469E+00
          1   -1    0    0  501    0  0.00000000000E+00  0.00000000000E+00  0.10927554587E+04  0.10927554587E+04  0.00000000000E+00 0. -1.
         -1   -1    0    0    0  501 -0.00000000000E+00 -0.00000000000E+00 -0.14826536195E+02  0.14826536195E+02  0.00000000000E+00 0.  1.
         23    2    1    2    0    0 -0.56597571603E+02 -0.29749569353E+02  0.36009329572E+03  0.37852800506E+03  0.97611203264E+02 0.  0.
         23    2    1    2    0    0  0.56597571603E+02  0.29749569353E+02  0.71783562680E+03  0.72905398986E+03  0.11019714619E+03 0.  0.
          5    1    4    4  502    0  0.26393674842E+02  0.56425554321E+02  0.62036714388E+03  0.62350086997E+03  0.41800000000E+01 0. -1.
         -5    1    4    4    0  502  0.30203896762E+02 -0.26675984968E+02  0.97468482926E+02  0.10555311989E+03  0.41800000000E+01 0.  1.
        -11    1    3    3    0    0 -0.39791914403E+02  0.29963634230E+02  0.21564084249E+03  0.22131920111E+03  0.00000000000E+00 0. -1.
         11    1    3    3    0    0 -0.16805657201E+02 -0.59713203583E+02  0.14445245323E+03  0.15720880396E+03  0.00000000000E+00 0.  1.
</event>
<event>
 8    1  0.8061721E-006  0.1231646E+03  0.7561462E-02  0.1237966E+00
         -2   -1    0    0    0  501 -0.00000000000E+00  0.00000000000E+00  0.23959469801E+02  0.23959469801E+02  0.00000000000E+00 0.  1.
          2   -1    0    0  501    0  0.00000000000E+00 -0.00000000000E+00 -0.91844998695E+03  0.91844998695E+03  0.00000000000E+00 0. -1.
         23    2    1    2    0    0  0.94419404877E+02  0.33474467361E+02 -0.35249632912E+03  0.37721884252E+03  0.89469710636E+02 0.  0.
         23    2    1    2    0    0 -0.94419404877E+02 -0.33474467361E+02 -0.54199418803E+03  0.56519061423E+03  0.12508863491E+03 0.  0.
          5    1    4    4  502    0 -0.81089149761E+02  0.19408280936E+02 -0.45377677265E+03  0.46139241798E+03  0.41800000000E+01 0.  1.
         -5    1    4    4    0  502 -0.13330255116E+02 -0.52882748298E+02 -0.88217415376E+02  0.10379819625E+03  0.41800000000E+01 0.  1.
        -11    1    3    3    0    0  0.69265545773E+01 -0.86179772722E+01  0.54508250983E+00  0.11069950565E+02  0.00000000000E+00 0.  1.
         11    1    3    3    0    0  0.87492850300E+02  0.42092444634E+02 -0.35304141163E+03  0.36614889195E+03  0.00000000000E+00 0. -1.
</event>
<event>
 8    1  0.8061721E-006  0.2238961E+03  0.7561462E-02  0.1131011E+00
         -2   -1    0    0    0  501 -0.00000000000E+00  0.00000000000E+00  0.76197987385E+02  0.76197987385E+02  0.00000000000E+00 0.  1.
          2   -1    0    0  501    0  0.00000000000E+00 -0.00000000000E+00 -0.71629681988E+03  0.71629681988E+03  0.00000000000E+00 0. -1.
         23    2    1    2    0    0  0.19017823249E+03 -0.78990813054E+02 -0.27795584812E+03  0.35752099743E+03  0.90302278150E+02 0.  0.
         23    2    1    2    0    0 -0.19017823249E+03  0.78990813054E+02 -0.36214298438E+03  0.43497380984E+03  0.12508942982E+03 0.  0.
          5    1    4    4  502    0 -0.14889184045E+03 -0.86530397954E+00 -0.25211006911E+03  0.29282501302E+03  0.41800000000E+01 0.  1.
         -5    1    4    4    0  502 -0.41286392041E+02  0.79856117034E+02 -0.11003291527E+03  0.14214879682E+03  0.41800000000E+01 0.  1.
        -11    1    3    3    0    0  0.48092683014E+02 -0.37016322412E+02 -0.27730516611E+02  0.66724027426E+02  0.00000000000E+00 0.  1.
         11    1    3    3    0    0  0.14208554947E+03 -0.41974490642E+02 -0.25022533151E+03  0.29079697000E+03  0.00000000000E+00 0. -1.
</event>
<event>
 8    1  0.8061721E-006  0.1015918E+03  0.7561462E-02  0.1276984E+00
         -4   -1    0    0    0  501 -0.00000000000E+00  0.00000000000E+00  0.36543357543E+02  0.36543357543E+02  0.00000000000E+00 0.  1.
          4   -1    0    0  501    0  0.00000000000E+00 -0.00000000000E+00 -0.55471831755E+03  0.55471831755E+03  0.00000000000E+00 0. -1.
         23    2    1    2    0    0 -0.13116604349E+02  0.49997627814E+02 -0.81440166809E+02  0.13403150793E+03  0.93059853056E+02 0.  0.
         23    2    1    2    0    0  0.13116604349E+02 -0.49997627814E+02 -0.43673479319E+03  0.45723016716E+03  0.12510131126E+03 0.  0.
          5    1    4    4  502    0 -0.41681146530E+02  0.13469464990E+02 -0.22868458517E+03  0.23287948892E+03  0.41800000000E+01 0.  1.
         -5    1    4    4    0  502  0.54797750879E+02 -0.63467092804E+02 -0.20805020802E+03  0.22435067824E+03  0.41800000000E+01 0.  1.
        -11    1    3    3    0    0 -0.80641363059E+01 -0.11210970284E+02  0.14559198789E+02  0.20067048075E+02  0.00000000000E+00 0.  1.
         11    1    3    3    0    0 -0.50524680429E+01  0.61208598098E+02 -0.95999365598E+02  0.11396445985E+03  0.00000000000E+00 0. -1.
</event>
<event>
 8    1  0.8061721E-006  0.1232635E+03  0.7561462E-02  0.1237808E+00
         -2   -1    0    0    0  501 -0.00000000000E+00  0.00000000000E+00  0.10700954374E+02  0.10700954374E+02  0.00000000000E+00 0.  1.
          2   -1    0    0  501    0  0.00000000000E+00 -0.00000000000E+00 -0.22626774937E+04  0.22626774937E+04  0.00000000000E+00 0. -1.
         23    2    1    2    0    0 -0.78950041879E+02  0.41276101393E+02 -0.56735856458E+03  0.58177662062E+03  0.92905703989E+02 0.  0.
         23    2    1    2    0    0  0.78950041879E+02 -0.41276101393E+02 -0.16846179748E+04  0.16916018275E+04  0.12506876575E+03 0.  0.
          5    1    4    4  502    0  0.92206510853E+02 -0.46139303388E+02 -0.16577854301E+04  0.16609939436E+04  0.41800000000E+01 0. -1.
         -5    1    4    4    0  502 -0.13256468974E+02  0.48632019951E+01 -0.26832544645E+02  0.30607883877E+02  0.41800000000E+01 0. -1.
        -11    1    3    3    0    0 -0.31870436624E+02 -0.29617571911E+02 -0.20335185585E+03  0.20795408766E+03  0.00000000000E+00 0.  1.
         11    1    3    3    0    0 -0.47079605256E+02  0.70893673304E+02 -0.36400670874E+03  0.37382253296E+03  0.00000000000E+00 0. -1.
</event>
<event>
 8    1  0.8061721E-006  0.6677763E+02  0.7561462E-02  0.1371407E+00
         -1   -1    0    0    0  501 -0.00000000000E+00  0.00000000000E+00  0.22913064067E+03  0.22913064067E+03  0.00000000000E+00 0.  1.
          1   -1    0    0  501    0  0.00000000000E+00 -0.00000000000E+00 -0.62264506016E+02  0.62264506016E+02  0.00000000000E+00 0. -1.
         23    2    1    2    0    0  0.18522424390E+02  0.34718374859E+02  0.10341676946E+03  0.14572350951E+03  0.94825456821E+02 0.  0.
         23    2    1    2    0    0 -0.18522424390E+02 -0.34718374859E+02  0.63449365199E+02  0.14567163718E+03  0.12508380461E+03 0.  0.
          5    1    4    4  502    0 -0.73732874296E+01 -0.29761324058E+02 -0.34806295165E+02  0.46573086223E+02  0.41800000000E+01 0.  1.
         -5    1    4    4    0  502 -0.11149136960E+02 -0.49570508006E+01  0.98255660364E+02  0.99098550954E+02  0.41800000000E+01 0.  1.
        -11    1    3    3    0    0  0.31079062084E+02 -0.17731162997E+02  0.88509528442E+01  0.36859755933E+02  0.00000000000E+00 0. -1.
         11    1    3    3    0    0 -0.12556637694E+02  0.52449537855E+02  0.94565816613E+02  0.10886375358E+03  0.00000000000E+00 0.  1.
</event>
<event>
 8    1  0.8061721E-006  0.1072955E+03  0.7561462E-02  0.1265662E+00
         -2   -1    0    0    0  501 -0.00000000000E+00  0.00000000000E+00  0.38959876375E+02  0.38959876375E+02  0.00000000000E+00 0.  1.
          2   -1    0    0  501    0  0.00000000000E+00 -0.00000000000E+00 -0.51394238278E+03  0.51394238278E+03  0.00000000000E+00 0. -1.
         23    2    1    2    0    0  0.48179837035E+02 -0.11233658711E+02 -0.69175188020E+02  0.12538134436E+03  0.92129165264E+02 0.  0.
         23    2    1    2    0    0 -0.48179837035E+02  0.11233658711E+02 -0.40580731839E+03  0.42752091480E+03  0.12508821345E+03 0.  0.
          5    1    4    4  502    0 -0.67745607216E+02  0.37134751666E+02 -0.37387131796E+03  0.38179273418E+03  0.41800000000E+01 0.  1.
         -5    1    4    4    0  502  0.19565770181E+02 -0.25901092955E+02 -0.31936000424E+02  0.45728180612E+02  0.41800000000E+01 0.  1.
        -11    1    3    3    0    0  0.75971870183E+02 -0.59569973936E+01 -0.48268563643E+02  0.90205682266E+02  0.00000000000E+00 0.  1.
         11    1    3    3    0    0 -0.27792033148E+02 -0.52766613170E+01 -0.20906624377E+02  0.35175662098E+02  0.00000000000E+00 0. -1.
</event>
<event>
 8    1  0.8061721E-006  0.1806836E+03  0.7561462E-02  0.1167143E+00
          2   -1    0    0  501    0  0.00000000000E+00  0.00000000000E+00  0.10747295639E+04  0.10747295639E+04  0.00000000000E+00 0. -1.
         -2   -1    0    0    0  501 -0.00000000000E+00 -0.00000000000E+00 -0.35723209107E+02  0.35723209107E+02  0.00000000000E+00 0.  1.
         23    2    1    2    0    0  0.14463321847E+03  0.46359558892E+02  0.32704178902E+03  0.37179639276E+03  0.90599389172E+02 0.  0.
         23    2    1    2    0    0 -0.14463321847E+03 -0.46359558892E+02  0.71196456575E+03  0.73865638022E+03  0.12510686861E+03 0.  0.
          5    1    4    4  502    0  0.11648393725E+02 -0.32258775268E+02  0.20676523350E+03  0.20963217272E+03  0.41800000000E+01 0. -1.
         -5    1    4    4    0  502 -0.15628161220E+03 -0.14100783623E+02  0.50519933225E+03  0.52902420750E+03  0.41800000000E+01 0. -1.
        -11    1    3    3    0    0  0.91359856796E+02  0.66384151968E+02  0.16412351023E+03  0.19922350683E+03  0.00000000000E+00 0. -1.
         11    1    3    3    0    0  0.53273361676E+02 -0.20024593076E+02  0.16291827879E+03  0.17257288592E+03  0.00000000000E+00 0.  1.
</event>
<event>
 8    1  0.8061721E-006  0.1263540E+03  0.7561462E-02  0.1232968E+00
          2   -1    0    0  501    0  0.00000000000E+00  0.00000000000E+00  0.71914701350E+03  0.71914701350E+03  0.00000000000E+00 0. -1.
         -2   -1    0    0    0  501 -0.00000000000E+00 -0.00000000000E+00 -0.23023029198E+02  0.23023029198E+02  0.00000000000E+00 0.  1.
         23    2    1    2    0    0 -0.31198851001E+02  0.60613250773E+02  0.32693272136E+03  0.34644677816E+03  0.92157643893E+02 0.  0.
         23    2    1    2    0    0  0.31198851001E+02 -0.60613250773E+02  0.36919126294E+03  0.39572326454E+03  0.12508948394E+03 0.  0.
          5    1    4    4  502    0  0.77717692851E+02 -0.47361972770E+02  0.20139164541E+03  0.22104131625E+03  0.41800000000E+01 0.  1.
         -5    1    4    4    0  502 -0.46518841850E+02 -0.13251278003E+02  0.16779961753E+03  0.17468194829E+03  0.41800000000E+01 0.  1.
        -11    1    3    3    0    0  0.31596855308E+02  0.12659444367E+02  0.73846052585E+02  0.81313358555E+02  0.00000000000E+00 0.  1.
         11    1    3    3    0    0 -0.62795706309E+02  0.47953806407E+02  0.25308666878E+03  0.26513341960E+03  0.00000000000E+00 0. -1.
</event>
<event>
 8    1  0.8061721E-006  0.1111600E+03  0.7561462E-02  0.1258437E+00
         -2   -1    0    0    0  501 -0.00000000000E+00  0.00000000000E+00  0.24502526068E+02  0.24502526068E+02  0.00000000000E+00 0.  1.
          2   -1    0    0  501    0  0.00000000000E+00 -0.00000000000E+00 -0.56391931884E+03  0.56391931884E+03  0.00000000000E+00 0. -1.
         23    2    1    2    0    0  0.45849766334E+02  0.12765659623E+02 -0.22489892267E+03  0.24661244877E+03  0.89291720401E+02 0.  0.
         23    2    1    2    0    0 -0.45849766334E+02 -0.12765659623E+02 -0.31451787010E+03  0.34180939614E+03  0.12508800716E+03 0.  0.
          5    1    4    4  502    0 -0.17703771646E+02  0.54150183024E+02 -0.18066523701E+03  0.18948104422E+03  0.41800000000E+01 0.  1.
         -5    1    4    4    0  502 -0.28145994689E+02 -0.66915842647E+02 -0.13385263309E+03  0.15232835192E+03  0.41800000000E+01 0.  1.
        -11    1    3    3    0    0  0.14111328185E+02  0.45050324371E+02 -0.64396450759E+02  0.79847130064E+02  0.00000000000E+00 0. -1.
         11    1    3    3    0    0  0.31738438150E+02 -0.32284664748E+02 -0.16050247191E+03  0.16676531870E+03  0.00000000000E+00 0.  1.
</event>
<event>
 8    1  0.8061721E-006  0.1079095E+03  0.7561462E-02  0.1264491E+00
          1   -1    0    0  501    0  0.00000000000E+00  0.00000000000E+00  0.24948363418E+03  0.24948363418E+03  0.00000000000E+00 0. -1.
         -1   -1    0    0    0  501 -0.00000000000E+00 -0.00000000000E+00 -0.65866871253E+02  0.65866871253E+02  0.00000000000E+00 0.  1.
         23    2    1    2    0    0  0.26866351376E+02  0.26164099237E+02  0.18771278569E+02  0.10310531875E+03  0.94191214714E+02 0.  0.
         23    2    1    2    0    0 -0.26866351376E+02 -0.26164099237E+02  0.16484548436E+03  0.21224518669E+03  0.12832624297E+03 0.  0.
          5    1    4    4  502    0  0.40539017689E+02  0.22594747624E+02  0.84592255143E+02  0.96577723133E+02  0.41800000000E+01 0. -1.
         -5    1    4    4    0  502 -0.67405369065E+02 -0.48758846861E+02  0.80253229219E+02  0.11566746356E+03  0.41800000000E+01 0.  1.
        -11    1    3    3    0    0 -0.21790932358E+02 -0.11269912737E+02  0.31983520253E+02  0.40308823276E+02  0.00000000000E+00 0.  1.
         11    1    3    3    0    0  0.48657283734E+02  0.37434011974E+02 -0.13212241684E+02  0.62796495469E+02  0.00000000000E+00 0. -1.
</event>
<event>
 8    1  0.8061721E-006  0.1068530E+03  0.7561462E-02  0.1266511E+00
         -2   -1    0    0    0  501 -0.00000000000E+00  0.00000000000E+00  0.42560979385E+02  0.42560979385E+02  0.00000000000E+00 0.  1.
          2   -1    0    0  501    0  0.00000000000E+00 -0.00000000000E+00 -0.53910755690E+03  0.53910755690E+03  0.00000000000E+00 0. -1.
         23    2    1    2    0    0 -0.11849605711E+02  0.69005423855E+02 -0.83090994018E+02  0.14406622456E+03  0.94598108302E+02 0.  0.
         23    2    1    2    0    0  0.11849605711E+02 -0.69005423855E+02 -0.41345558349E+03  0.43760231173E+03  0.12509237398E+03 0.  0.
          5    1    4    4  502    0 -0.32583495210E+02 -0.11047275123E+02 -0.30390180302E+03  0.30587171285E+03  0.41800000000E+01 0.  1.
         -5    1    4    4    0  502  0.44433100921E+02 -0.57958148732E+02 -0.10955378048E+03  0.13173059887E+03  0.41800000000E+01 0.  1.
        -11    1    3    3    0    0 -0.23611978257E+02 -0.10274078247E+02  0.36025253275E+01  0.26001161316E+02  0.00000000000E+00 0.  1.
         11    1    3    3    0    0  0.11762372546E+02  0.79279502102E+02 -0.86693519346E+02  0.11806506324E+03  0.00000000000E+00 0. -1.
</event>
<event>
 8    1  0.8061721E-006  0.1006546E+03  0.7561462E-02  0.1278925E+00
         -2   -1    0    0    0  501 -0.00000000000E+00  0.00000000000E+00  0.21594449623E+03  0.21594449623E+03  0.00000000000E+00 0.  1.
          2   -1    0    0  501    0  0.00000000000E+00 -0.00000000000E+00 -0.53610932228E+02  0.53610932228E+02  0.00000000000E+00 0. -1.
         23    2    1    2    0    0 -0.32635104801E+02  0.64597166767E+01  0.76079428634E+02  0.11400893868E+03  0.78122856023E+02 0.  0.
         23    2    1    2    0    0  0.32635104801E+02 -0.64597166767E+01  0.86254135366E+02  0.15554648977E+03  0.12509259214E+03 0.  0.
          5    1    4    4  502    0  0.68588087609E+02 -0.28240631829E+02  0.19942084140E+02  0.76922156547E+02  0.41800000000E+01 0. -1.
         -5    1    4    4    0  502 -0.35952982808E+02  0.21780915152E+02  0.66312051226E+02  0.78624333227E+02  0.41800000000E+01 0. -1.
        -11    1    3    3    0    0  0.25245970929E+02 -0.50840024271E+01  0.26145704064E+02  0.36698827908E+02  0.00000000000E+00 0.  1.
         11    1    3    3    0    0 -0.57881075730E+02  0.11543719104E+02  0.49933724570E+02  0.77310110774E+02  0.00000000000E+00 0. -1.
</event>
<event>
 8    1  0.8061721E-006  0.1092407E+03  0.7561462E-02  0.1261982E+00
          2   -1    0    0  501    0  0.00000000000E+00  0.00000000000E+00  0.49678848330E+03  0.49678848330E+03  0.00000000000E+00 0. -1.
         -2   -1    0    0    0  501 -0.00000000000E+00 -0.00000000000E+00 -0.49680612365E+02  0.49680612365E+02  0.00000000000E+00 0.  1.
         23    2    1    2    0    0 -0.16422903999E+02  0.80526762403E+02  0.71276990176E+02  0.14193097444E+03  0.91157670755E+02 0.  0.
         23    2    1    2    0    0  0.16422903999E+02 -0.80526762403E+02  0.37583088076E+03  0.40453812123E+03  0.12509184368E+03 0.  0.
          5    1    4    4  502    0 -0.75613080120E+01 -0.70924615550E+02  0.78849270505E+02  0.10640561230E+03  0.41800000000E+01 0. -1.
         -5    1    4    4    0  502  0.23984212010E+02 -0.96021468534E+01  0.29698161025E+03  0.29813250893E+03  0.41800000000E+01 0. -1.
        -11    1    3    3    0    0 -0.51893810113E+02  0.61974667493E+02  0.58955873390E+02  0.10004809816E+03  0.00000000000E+00 0.  1.
         11    1    3    3    0    0  0.35470906115E+02  0.18552094910E+02  0.12321116786E+02  0.41882876274E+02  0.00000000000E+00 0. -1.
</event>
<event>
 8    1  0.8061721E-006  0.1072057E+03  0.7561462E-02  0.1265834E+00
          3   -1    0    0  501    0  0.00000000000E+00  0.00000000000E+00  0.51641698786E+03  0.51641698786E+03  0.00000000000E+00 0. -1.
         -3   -1    0    0    0  501 -0.00000000000E+00 -0.00000000000E+00 -0.28921221419E+02  0.28921221419E+02  0.00000000000E+00 0.  1.
         23    2    1    2    0    0 -0.30197189699E+02  0.71511128484E+01  0.12405384994E+03  0.15972024274E+03  0.95698430362E+02 0.  0.
         23    2    1    2    0    0  0.30197189699E+02 -0.71511128484E+01  0.36344191649E+03  0.38561796654E+03  0.12509268872E+03 0.  0.
          5    1    4    4  502    0 -0.45924791443E+02  0.45910433662E+00  0.19795781490E+03  0.20325861882E+03  0.41800000000E+01 0.  1.
         -5    1    4    4    0  502  0.76121981142E+02 -0.76102171850E+01  0.16548410160E+03  0.18235934772E+03  0.41800000000E+01 0.  1.
        -11    1    3    3    0    0 -0.55542392282E+02  0.24765889842E+02  0.11024732790E+03  0.12590782322E+03  0.00000000000E+00 0. -1.
         11    1    3    3    0    0  0.25345202582E+02 -0.17614776994E+02  0.13806522045E+02  0.33812419515E+02  0.00000000000E+00 0.  1.
</event>
<event>
 8    1  0.8061721E-006  0.1591402E+03  0.7561462E-02  0.1189671E+00
         -1   -1    0    0    0  501 -0.00000000000E+00  0.00000000000E+00  0.29889486182E+03  0.29889486182E+03  0.00000000000E+00 0.  1.
          1   -1    0    0  501    0  0.00000000000E+00 -0.00000000000E+00 -0.14052211789E+03  0.14052211789E+03  0.00000000000E+00 0. -1.
         23    2    1    2    0    0 -0.12631625576E+03 -0.52172593900E+01  0.20308499291E+03  0.25603084216E+03  0.91242871109E+02 0.  0.
         23    2    1    2    0    0  0.12631625576E+03  0.52172593900E+01 -0.44712248975E+02  0.18338613755E+03  0.12509306125E+03 0.  0.
          5    1    4    4  502    0  0.15123376614E+03  0.92545949480E+01 -0.32430478758E+02  0.15500486412E+03  0.41800000000E+01 0. -1.
         -5    1    4    4    0  502 -0.24917510379E+02 -0.40373355580E+01 -0.12281770217E+02  0.28381273431E+02  0.41800000000E+01 0. -1.
        -11    1    3    3    0    0 -0.98189057622E+02 -0.30997146434E+02  0.18924740480E+03  0.21544487542E+03  0.00000000000E+00 0.  1.
         11    1    3    3    0    0 -0.28127198135E+02  0.25779887044E+02  0.13837588106E+02  0.40585966732E+02  0.00000000000E+00 0. -1.
</event>
<event>
 8    1  0.8061721E-006  0.8749713E+02  0.7561462E-02  0.1309028E+00
         -2   -1    0    0    0  501 -0.00000000000E+00  0.00000000000E+00  0.55149372837E+02  0.55149372837E+02  0.00000000000E+00 0.  1.
          2   -1    0    0  501    0  0.00000000000E+00 -0.00000000000E+00 -0.32197350972E+03  0.32197350972E+03  0.00000000000E+00 0. -1.
         23    2    1    2    0    0 -0.52636584767E+02  0.24458215375E+02 -0.46315281901E+02  0.11704453127E+03  0.90473767515E+02 0.  0.
         23    2    1    2    0    0  0.52636584767E+02 -0.24458215375E+02 -0.22050885498E+03  0.26007835128E+03  0.12509108412E+03 0.  0.
          5    1    4    4  502    0  0.10970927157E+02 -0.60538073072E+02 -0.18343325597E+03  0.19352119090E+03  0.41800000000E+01 0. -1.
         -5    1    4    4    0  502  0.41665657610E+02  0.36079857697E+02 -0.37075599016E+02  0.66557160381E+02  0.41800000000E+01 0. -1.
        -11    1    3    3    0    0 -0.12442980221E+02  0.52220027983E+01  0.27608280411E+02  0.30729696016E+02  0.00000000000E+00 0.  1.
         11    1    3    3    0    0 -0.40193604547E+02  0.19236212577E+02 -0.73923562312E+02  0.86314835258E+02  0.00000000000E+00 0. -1.
</event>
<event>
 8    1  0.8061721E-006  0.1165715E+03  0.7561462E-02  0.1248863E+00
         -1   -1    0    0    0  501 -0.00000000000E+00  0.00000000000E+00  0.41018279271E+03  0.41018279271E+03  0.00000000000E+00 0.  1.
          1   -1    0    0  501    0  0.00000000000E+00 -0.00000000000E+00 -0.44790987339E+02  0.44790987339E+02  0.00000000000E+00 0. -1.
         23    2    1    2    0    0  0.12338400462E+02 -0.79807846558E+02  0.17917532504E+03  0.21655173488E+03  0.90935847046E+02 0.  0.
         23    2    1    2    0    0 -0.12338400462E+02  0.79807846558E+02  0.18621648033E+03  0.23842204517E+03  0.12508783146E+03 0.  0.
          5    1    4    4  502    0  0.24980324429E+02  0.80256540258E+02  0.51718893319E+02  0.98779781276E+02  0.41800000000E+01 0. -1.
         -5    1    4    4    0  502 -0.37318724891E+02 -0.44869370047E+00  0.13449758701E+03  0.13964226389E+03  0.41800000000E+01 0. -1.
        -11    1    3    3    0    0 -0.18397612578E+02  0.67346462698E+01  0.59296972498E+01  0.20469218803E+02  0.00000000000E+00 0. -1.
         11    1    3    3    0    0  0.30736013040E+02 -0.86542492827E+02  0.17324562779E+03  0.19608251608E+03  0.00000000000E+00 0.  1.
</event>
<event>
 7    1  0.8061721E-006  0.3759101E+02  0.7561462E-02  0.1526726E+00
         -2   -1    0    0    0  501 -0.00000000000E+00  0.00000000000E+00  0.13864509305E+03  0.13864509305E+03  0.00000000000E+00 0.  1.
          2   -1    0    0  501    0  0.00000000000E+00 -0.00000000000E+00 -0.42637573006E+02  0.42637573006E+02  0.00000000000E+00 0. -1.
         23    2    1    2    0    0  0.79555904098E+01 -0.26903704206E+02  0.65073942800E+02  0.13859416949E+03  0.11910761968E+03 0.  0.
          5    1    3    3  502    0 -0.13342803165E+02 -0.47542870786E+01 -0.32774981463E+02  0.35948650209E+02  0.41800000000E+01 0. -1.
         -5    1    3    3    0  502  0.21298393574E+02 -0.22149417127E+02  0.97848924264E+02  0.10264551928E+03  0.41800000000E+01 0.  1.
        -11    1    1    2    0    0 -0.84797089537E+01  0.13201723491E+02  0.17199275164E+02  0.23281023028E+02  0.00000000000E+00 0.  1.
         11    1    1    2    0    0  0.52411854383E+00  0.13701980715E+02  0.13734302082E+02  0.19407473546E+02  0.00000000000E+00 0. -1.
</event>
<event>
 8    1  0.8061721E-006  0.1546761E+03  0.7561462E-02  0.1194842E+00
         -2   -1    0    0    0  501 -0.00000000000E+00  0.00000000000E+00  0.58836052710E+02  0.58836052710E+02  0.00000000000E+00 0.  1.
          2   -1    0    0  501    0  0.00000000000E+00 -0.00000000000E+00 -0.46004580370E+03  0.46004580370E+03  0.00000000000E+00 0. -1.
         23    2    1    2    0    0  0.11497947934E+03 -0.34881313814E+02 -0.13370220758E+03  0.20006393716E+03  0.87819769508E+02 0.  0.
         23    2    1    2    0    0 -0.11497947934E+03  0.34881313814E+02 -0.26750754341E+03  0.31881791925E+03  0.12509033987E+03 0.  0.
          5    1    4    4  502    0 -0.95216101242E+02 -0.30519373867E+02 -0.12036536220E+03  0.15653380126E+03  0.41800000000E+01 0.  1.
         -5    1    4    4    0  502 -0.19763378102E+02  0.65400687681E+02 -0.14714218120E+03  0.16228411799E+03  0.41800000000E+01 0.  1.
        -11    1    3    3    0    0  0.30192462858E+02  0.23181493343E+02 -0.10216230987E+02  0.39412406963E+02  0.00000000000E+00 0.  1.
         11    1    3    3    0    0  0.84787016487E+02 -0.58062807157E+02 -0.12348597659E+03  0.16065153020E+03  0.00000000000E+00 0. -1.
</event>
<event>
 8    1  0.8061721E-006  0.9375547E+02  0.7561462E-02  0.1294004E+00
         -2   -1    0    0    0  501 -0.00000000000E+00  0.00000000000E+00  0.13121617968E+03  0.13121617968E+03  0.00000000000E+00 0. -1.
          2   -1    0    0  501    0  0.00000000000E+00 -0.00000000000E+00 -0.10441457024E+03  0.10441457024E+03  0.00000000000E+00 0.  1.
         23    2    1    2    0    0  0.38952017565E+02  0.23615847210E+02  0.15382688602E+02  0.10201583086E+03  0.89975745207E+02 0.  0.
         23    2    1    2    0    0 -0.38952017565E+02 -0.23615847210E+02  0.11418920839E+02  0.13361491907E+03  0.12509031510E+03 0.  0.
          5    1    4    4  502    0 -0.84586714798E+02 -0.15126394221E+02  0.19217522999E+01  0.86051645274E+02  0.41800000000E+01 0.  1.
         -5    1    4    4    0  502  0.45634697233E+02 -0.84894529884E+01  0.94971685390E+01  0.47563273793E+02  0.41800000000E+01 0.  1.
        -11    1    3    3    0    0  0.12859490397E+02 -0.70063014785E+01  0.48024892819E+02  0.50208018124E+02  0.00000000000E+00 0. -1.
         11    1    3    3    0    0  0.26092527169E+02  0.30622148688E+02 -0.32642204217E+02  0.51807812736E+02  0.00000000000E+00 0.  1.
</event>
<event>
 8    1  0.8061721E-006  0.1137213E+03  0.7561462E-02  0.1253830E+00
          2   -1    0    0  501    0  0.00000000000E+00  0.00000000000E+00  0.56526778402E+02  0.56526778402E+02  0.00000000000E+00 0. -1.
         -2   -1    0    0    0  501 -0.00000000000E+00 -0.00000000000E+00 -0.23549503842E+03  0.23549503842E+03  0.00000000000E+00 0.  1.
         23    2    1    2    0    0 -0.31339405573E+02 -0.18728127946E+02 -0.72012187453E+02  0.12343798029E+03  0.93371723336E+02 0.  0.
         23    2    1    2    0    0  0.31339405573E+02  0.18728127946E+02 -0.10695607256E+03  0.16858383653E+03  0.12509199560E+03 0.  0.
          5    1    4    4  502    0  0.37680839967E+02  0.67737133134E+02 -0.82533977593E+02  0.11330266883E+03  0.41800000000E+01 0. -1.
         -5    1    4    4    0  502 -0.63414343947E+01 -0.49009005188E+02 -0.24422094969E+02  0.55281167701E+02  0.41800000000E+01 0. -1.
        -11    1    3    3    0    0 -0.61725046278E+00 -0.53683022410E+02 -0.37018452821E+02  0.65212067460E+02  0.00000000000E+00 0.  1.
         11    1    3    3    0    0 -0.30722155110E+02  0.34954894464E+02 -0.34993734632E+02  0.58225912831E+02  0.00000000000E+00 0. -1.
</event>
<event>
 8    1  0.8061721E-006  0.1598333E+03  0.7561462E-02  0.1188885E+00
          2   -1    0    0  501    0  0.00000000000E+00  0.00000000000E+00  0.34261350329E+03  0.34261350329E+03  0.00000000000E+00 0.  1.
         -2   -1    0    0    0  501 -0.00000000000E+00 -0.00000000000E+00 -0.12791671479E+03  0.12791671479E+03  0.00000000000E+00 0. -1.
         23    2    1    2    0    0  0.10989849129E+03  0.48683141100E+02 -0.46135747146E+02  0.15727323316E+03  0.90325168630E+02 0.  0.
         23    2    1    2    0    0 -0.10989849129E+03 -0.48683141100E+02  0.26083253565E+03  0.31325698493E+03  0.12509436573E+03 0.  0.
          5    1    4    4  502    0  0.98075071765E+01  0.27292755930E+02  0.27445182028E+02  0.40147131153E+02  0.41800000000E+01 0.  1.
         -5    1    4    4    0  502 -0.11970599847E+03 -0.75975897030E+02  0.23338735362E+03  0.27310985377E+03  0.41800000000E+01 0.  1.
        -11    1    3    3    0    0  0.85029036441E+02  0.74228615197E+02 -0.24271727191E+02  0.11545103331E+03  0.00000000000E+00 0.  1.
         11    1    3    3    0    0  0.24869454853E+02 -0.25545474097E+02 -0.21864019955E+02  0.41822199848E+02  0.00000000000E+00 0. -1.
</event>
<event>
 8    1  0.8061721E-006  0.1519920E+03  0.7561462E-02  0.1198046E+00
         -2   -1    0    0    0  501 -0.00000000000E+00  0.00000000000E+00  0.27269571479E+02  0.27269571479E+02  0.00000000000E+00 0. -1.
          2   -1    0    0  501    0  0.00000000000E+00 -0.00000000000E+00 -0.12162198678E+04  0.12162198678E+04  0.00000000000E+00 0.  1.
         23    2    1    2    0    0  0.80485097814E+02  0.87724342123E+02 -0.27607869825E+03  0.31442702271E+03  0.92040718205E+02 0.  0.
         23    2    1    2    0    0 -0.80485097814E+02 -0.87724342123E+02 -0.91287159807E+03  0.92906241657E+03  0.12509599578E+03 0.  0.
          5    1    4    4  502    0 -0.10903739492E+03 -0.78881890873E+02 -0.83033357642E+03  0.84117942600E+03  0.41800000000E+01 0.  1.
         -5    1    4    4    0  502  0.28552297107E+02 -0.88424512506E+01 -0.82538021650E+02  0.87882990573E+02  0.41800000000E+01 0.  1.
        -11    1    3    3    0    0  0.15922656574E+02  0.70587331561E+02 -0.82968995455E+02  0.11009067434E+03  0.00000000000E+00 0. -1.
         11    1    3    3    0    0  0.64562441239E+02  0.17137010562E+02 -0.19310970280E+03  0.20433634837E+03  0.00000000000E+00 0.  1.
</event>
<event>
 8    1  0.8061721E-006  0.2943633E+03  0.7561462E-02  0.1088093E+00
         -1   -1    0    0    0  501 -0.00000000000E+00  0.00000000000E+00  0.18017292693E+03  0.18017292693E+03  0.00000000000E+00 0.  1.
          1   -1    0    0  501    0  0.00000000000E+00 -0.00000000000E+00 -0.54533923534E+03  0.54533923534E+03  0.00000000000E+00 0. -1.
         23    2    1    2    0    0 -0.27411230471E+03  0.85759997588E+02 -0.10920665608E+03  0.32097149234E+03  0.92759217253E+02 0.  0.
         23    2    1    2    0    0  0.27411230471E+03 -0.85759997588E+02 -0.25595965232E+03  0.40454066992E+03  0.12508188208E+03 0.  0.
          5    1    4    4  502    0  0.39008383419E+02 -0.14497152624E+00  0.88293503579E+01  0.40213241867E+02  0.41800000000E+01 0.  1.
         -5    1    4    4    0  502  0.23510392129E+03 -0.85615026062E+02 -0.26478900268E+03  0.36432742806E+03  0.41800000000E+01 0.  1.
        -11    1    3    3    0    0 -0.10201833499E+03  0.75379161437E+02 -0.25772026439E+02  0.12943707352E+03  0.00000000000E+00 0.  1.
         11    1    3    3    0    0 -0.17209396971E+03  0.10380836151E+02 -0.83434629644E+02  0.19153441883E+03  0.00000000000E+00 0. -1.
</event>
<event>
 8    1  0.8061721E-006  0.1295699E+03  0.7561462E-02  0.1228095E+00
          1   -1    0    0  501    0  0.00000000000E+00  0.00000000000E+00  0.83026786840E+02  0.83026786840E+02  0.00000000000E+00 0. -1.
         -1   -1    0    0    0  501 -0.00000000000E+00 -0.00000000000E+00 -0.34505317281E+03  0.34505317281E+03  0.00000000000E+00 0.  1.
         23    2    1    2    0    0  0.63216931057E+02  0.89949725207E+02 -0.20855323221E+03  0.25317167098E+03  0.92271939870E+02 0.  0.
         23    2    1    2    0    0 -0.63216931057E+02 -0.89949725207E+02 -0.53473153760E+02  0.17490828866E+03  0.12508476259E+03 0.  0.
          5    1    4    4  502    0 -0.74677268819E+01  0.92546950485E+01  0.30776248855E+02  0.33257573856E+02  0.41800000000E+01 0. -1.
         -5    1    4    4    0  502 -0.55749204176E+02 -0.99204420256E+02 -0.84249402615E+02  0.14165071481E+03  0.41800000000E+01 0. -1.
        -11    1    3    3    0    0  0.14320486412E+02 -0.12585456048E+02 -0.44372492846E+01  0.19574453153E+02  0.00000000000E+00 0. -1.
         11    1    3    3    0    0  0.48896444645E+02  0.10253518125E+03 -0.20411598292E+03  0.23359721783E+03  0.00000000000E+00 0.  1.
</event>
<event>
 8    1  0.9178593E-006  0.2076522E+03  0.7561462E-02  0.1143439E+00
         -1   -1    0    0    0  501 -0.00000000000E+00  0.00000000000E+00  0.66513509930E+02  0.66513509930E+02  0.00000000000E+00 0.  1.
          1   -1    0    0  501    0  0.00000000000E+00 -0.00000000000E+00 -0.75758499719E+03  0.75758499719E+03  0.00000000000E+00 0. -1.
         23    2    1    2    0    0 -0.18353225016E+03  0.45987110076E+02 -0.23802290169E+03  0.31744338190E+03  0.91194834501E+02 0.  0.
         23    2    1    2    0    0  0.18353225016E+03 -0.45987110076E+02 -0.45304858557E+03  0.50665512522E+03  0.12508994317E+03 0.  0.
          5    1    4    4  502    0  0.13473075307E+03  0.27234204837E+02 -0.25016777307E+03  0.28547410534E+03  0.41800000000E+01 0.  1.
         -5    1    4    4    0  502  0.48801497093E+02 -0.73221314913E+02 -0.20288081250E+03  0.22118101988E+03  0.41800000000E+01 0.  1.
        -11    1    3    3    0    0 -0.15589356431E+03  0.43989917513E+02 -0.13531866326E+03  0.21106647499E+03  0.00000000000E+00 0.  1.
         11    1    3    3    0    0 -0.27638685854E+02  0.19971925634E+01 -0.10270423842E+03  0.10637690691E+03  0.00000000000E+00 0. -1.
</event>
<event>
 8    1  0.8061721E-006  0.1548900E+03  0.7561462E-02  0.1194590E+00
         -1   -1    0    0    0  501 -0.00000000000E+00  0.00000000000E+00  0.15566062922E+03  0.15566062922E+03  0.00000000000E+00 0.  1.
          1   -1    0    0  501    0  0.00000000000E+00 -0.00000000000E+00 -0.18493206036E+03  0.18493206036E+03  0.00000000000E+00 0. -1.
         23    2    1    2    0    0  0.97963453262E+02  0.58651813514E+02  0.49192412714E+02  0.15393546627E+03  0.90770925433E+02 0.  0.
         23    2    1    2    0    0 -0.97963453262E+02 -0.58651813514E+02 -0.78463843856E+02  0.18665722331E+03  0.12508985098E+03 0.  0.
          5    1    4    4  502    0 -0.46684054526E+02  0.37621839961E+02 -0.24754103722E+02  0.65000321846E+02  0.41800000000E+01 0.  1.
         -5    1    4    4    0  502 -0.51279398736E+02 -0.96273653475E+02 -0.53709740134E+02  0.12165690146E+03  0.41800000000E+01 0.  1.
        -11    1    3    3    0    0 -0.71454237776E+01 -0.11933139630E+02  0.19394124633E+02  0.23866063200E+02  0.00000000000E+00 0.  1.
         11    1    3    3    0    0  0.10510887704E+03  0.70584953143E+02  0.29798288082E+02  0.13006940307E+03  0.00000000000E+00 0. -1.
</event>
<event>
 8    1  0.8061721E-006  0.9569970E+02  0.7561462E-02  0.1289608E+00
         -1   -1    0    0    0  501 -0.00000000000E+00  0.00000000000E+00  0.18885085806E+03  0.18885085806E+03  0.00000000000E+00 0.  1.
          1   -1    0    0  501    0  0.00000000000E+00 -0.00000000000E+00 -0.70865372640E+02  0.70865372640E+02  0.00000000000E+00 0. -1.
         23    2    1    2    0    0  0.27340870784E+01  0.43435816426E+02  0.62216685509E+02  0.11601409519E+03  0.87716640079E+02 0.  0.
         23    2    1    2    0    0 -0.27340870784E+01 -0.43435816426E+02  0.55768799910E+02  0.14370213551E+03  0.12508396910E+03 0.  0.
          5    1    4    4  502    0 -0.38383784060E+02 -0.44233458014E+02  0.80839707248E+02  0.99912183214E+02  0.41800000000E+01 0. -1.
         -5    1    4    4    0  502  0.35649696982E+02  0.79764158728E+00 -0.25070907338E+02  0.43789952292E+02  0.41800000000E+01 0. -1.
        -11    1    3    3    0    0  0.23412719605E+01 -0.26621246453E+02  0.25408798643E+02  0.36875186313E+02  0.00000000000E+00 0. -1.
         11    1    3    3    0    0  0.39281511786E+00  0.70057062880E+02  0.36807886866E+02  0.79138908879E+02  0.00000000000E+00 0.  1.
</event>
<event>
 8    1  0.8061721E-006  0.1354064E+03  0.7561462E-02  0.1219647E+00
         -2   -1    0    0    0  501 -0.00000000000E+00  0.00000000000E+00  0.20344278198E+02  0.20344278198E+02  0.00000000000E+00 0.  1.
          2   -1    0    0  501    0  0.00000000000E+00 -0.00000000000E+00 -0.13274834068E+04  0.13274834068E+04  0.00000000000E+00 0. -1.
         23    2    1    2    0    0  0.35773550640E+02  0.10076533144E+03 -0.38302272388E+03  0.40917292707E+03  0.96346656897E+02 0.  0.
         23    2    1    2    0    0 -0.35773550640E+02 -0.10076533144E+03 -0.92411640477E+03  0.93865475798E+03  0.12509287012E+03 0.  0.
          5    1    4    4  502    0 -0.27287735497E+02  0.17317438296E+02 -0.81853674805E+02  0.88102273846E+02  0.41800000000E+01 0.  1.
         -5    1    4    4    0  502 -0.84858151426E+01 -0.11808276974E+03 -0.84226272997E+03  0.85055248413E+03  0.41800000000E+01 0.  1.
        -11    1    3    3    0    0  0.10239054619E+02  0.92294436259E+02 -0.36539296775E+03  0.37700811938E+03  0.00000000000E+00 0.  1.
         11    1    3    3    0    0  0.25534496020E+02  0.84708951808E+01 -0.17629756131E+02  0.32164807685E+02  0.00000000000E+00 0. -1.
</event>
<event>
 8    1  0.8061721E-006  0.1088292E+03  0.7561462E-02  0.1262753E+00
          1   -1    0    0  501    0  0.00000000000E+00  0.00000000000E+00  0.35085614295E+03  0.35085614295E+03  0.00000000000E+00 0. -1.
         -1   -1    0    0    0  501 -0.00000000000E+00 -0.00000000000E+00 -0.39688095353E+02  0.39688095353E+02  0.00000000000E+00 0.  1.
         23    2    1    2    0    0 -0.53570943581E+01 -0.35085912856E+02  0.66401837824E+02  0.11338362569E+03  0.84775720386E+02 0.  0.
         23    2    1    2    0    0  0.53570943581E+01  0.35085912856E+02  0.24476620977E+03  0.27716061262E+03  0.12509111878E+03 0.  0.
          5    1    4    4  502    0 -0.18492005927E+01  0.81679329259E+02  0.17021077662E+03  0.18884944599E+03  0.41800000000E+01 0. -1.
         -5    1    4    4    0  502  0.72062949508E+01 -0.46593416402E+02  0.74555433150E+02  0.88311166627E+02  0.41800000000E+01 0. -1.
        -11    1    3    3    0    0 -0.85366261648E+01 -0.61411554295E+02  0.59613041834E+02  0.86011439611E+02  0.00000000000E+00 0. -1.
         11    1    3    3    0    0  0.31795318066E+01  0.26325641439E+02  0.67887959903E+01  0.27372186078E+02  0.00000000000E+00 0.  1.
</event>
<event>
 8    1  0.8061721E-006  0.1441584E+03  0.7561462E-02  0.1207841E+00
         -2   -1    0    0    0  501 -0.00000000000E+00  0.00000000000E+00  0.17127725176E+02  0.17127725176E+02  0.00000000000E+00 0.  1.
          2   -1    0    0  501    0  0.00000000000E+00 -0.00000000000E+00 -0.16016213348E+04  0.16016213348E+04  0.00000000000E+00 0. -1.
         23    2    1    2    0    0  0.87620847960E+02 -0.47144578138E+02 -0.37150878336E+03  0.39527953176E+03  0.91252988314E+02 0.  0.
         23    2    1    2    0    0 -0.87620847960E+02  0.47144578138E+02 -0.12129848263E+04  0.12234695283E+04  0.12508186703E+03 0.  0.
          5    1    4    4  502    0 -0.15624623111E+02 -0.39612254381E+02 -0.47338736014E+03  0.47531707805E+03  0.41800000000E+01 0. -1.
         -5    1    4    4    0  502 -0.71996224848E+02  0.86756832520E+02 -0.73959746617E+03  0.74815245020E+03  0.41800000000E+01 0. -1.
        -11    1    3    3    0    0  0.37064894690E+02 -0.68457821400E+02 -0.18107997679E+03  0.19710463649E+03  0.00000000000E+00 0.  1.
         11    1    3    3    0    0  0.50555953270E+02  0.21313243261E+02 -0.19042880656E+03  0.19817489528E+03  0.00000000000E+00 0. -1.
</event>
<event>
 8    1  0.8061721E-006  0.1386621E+03  0.7561462E-02  0.1215141E+00
         -4   -1    0    0    0  501 -0.00000000000E+00  0.00000000000E+00  0.94137491601E+02  0.94137491601E+02  0.00000000000E+00 0.  1.
          4   -1    0    0  501    0  0.00000000000E+00 -0.00000000000E+00 -0.42546111571E+03  0.42546111571E+03  0.00000000000E+00 0. -1.
         23    2    1    2    0    0 -0.10621731652E+03 -0.29552253629E+02  0.60488428021E+01  0.14326938346E+03  0.91291148055E+02 0.  0.
         23    2    1    2    0    0  0.10621731652E+03  0.29552253629E+02 -0.33737246691E+03  0.37632922385E+03  0.12509216312E+03 0.  0.
          5    1    4    4  502    0  0.71440236991E-01 -0.39194938415E+02 -0.96609697067E+02  0.10434152706E+03  0.41800000000E+01 0. -1.
         -5    1    4    4    0  502  0.10614587628E+03  0.68747192044E+02 -0.24076276984E+03  0.27198769680E+03  0.41800000000E+01 0. -1.
        -11    1    3    3    0    0 -0.53522372285E+02 -0.23067147402E+02 -0.41860109372E+02  0.71756577266E+02  0.00000000000E+00 0.  1.
         11    1    3    3    0    0 -0.52694944236E+02 -0.64851062269E+01  0.47908952174E+02  0.71512806191E+02  0.00000000000E+00 0. -1.
</event>
<event>
 8    1  0.8061721E-006  0.9324670E+02  0.7561462E-02  0.1295175E+00
          2   -1    0    0  501    0  0.00000000000E+00  0.00000000000E+00  0.34189612316E+02  0.34189612316E+02  0.00000000000E+00 0.  1.
         -2   -1    0    0    0  501 -0.00000000000E+00 -0.00000000000E+00 -0.36793945088E+03  0.36793945088E+03  0.00000000000E+00 0. -1.
         23    2    1    2    0    0 -0.21275731203E+02  0.10957465162E+02 -0.17529861179E+03  0.19892918742E+03  0.90942264815E+02 0.  0.
         23    2    1    2    0    0  0.21275731203E+02 -0.10957465162E+02 -0.15845122677E+03  0.20319987577E+03  0.12494268874E+03 0.  0.
          5    1    4    4  502    0  0.45175842900E+02  0.25427513843E+02 -0.14986403187E+03  0.15863201345E+03  0.41800000000E+01 0. -1.
         -5    1    4    4    0  502 -0.23900111697E+02 -0.36384979005E+02 -0.85871948998E+01  0.44567862329E+02  0.41800000000E+01 0. -1.
        -11    1    3    3    0    0  0.20977298775E+02 -0.26836639051E+02 -0.41997353884E+02  0.54074300668E+02  0.00000000000E+00 0.  1.
         11    1    3    3    0    0 -0.42253029978E+02  0.37794104213E+02 -0.13330125791E+03  0.14485488675E+03  0.00000000000E+00 0. -1.
</event>
<event>
 8    1  0.8061721E-006  0.1331124E+03  0.7561462E-02  0.1222909E+00
         -2   -1    0    0    0  501 -0.00000000000E+00  0.00000000000E+00  0.38116994332E+02  0.38116994332E+02  0.00000000000E+00 0.  1.
          2   -1    0    0  501    0  0.00000000000E+00 -0.00000000000E+00 -0.59706851863E+03  0.59706851863E+03  0.00000000000E+00 0. -1.
         23    2    1    2    0    0  0.81523200080E+02 -0.64632570461E+02 -0.25106227421E+03  0.28694963203E+03  0.92110935691E+02 0.  0.
         23    2    1    2    0    0 -0.81523200080E+02  0.64632570461E+02 -0.30788925009E+03  0.34823588093E+03  0.12509611159E+03 0.  0.
          5    1    4    4  502    0 -0.71412801705E+02 -0.21758567354E+02 -0.12461927786E+03  0.14532948880E+03  0.41800000000E+01 0.  1.
         -5    1    4    4    0  502 -0.10110398376E+02  0.86391137815E+02 -0.18326997222E+03  0.20290639213E+03  0.41800000000E+01 0.  1.
        -11    1    3    3    0    0  0.63494423344E+02 -0.45709735372E+02 -0.24868973764E+03  0.26070578688E+03  0.00000000000E+00 0. -1.
         11    1    3    3    0    0  0.18028776736E+02 -0.18922835088E+02 -0.23725365663E+01  0.26243845148E+02  0.00000000000E+00 0.  1.
</event>
<event>
 8    1  0.8061721E-006  0.1515769E+03  0.7561462E-02  0.1198549E+00
          1   -1    0    0  501    0  0.00000000000E+00  0.00000000000E+00  0.56801755594E+03  0.56801755594E+03  0.00000000000E+00 0. -1.
         -1   -1    0    0    0  501 -0.00000000000E+00 -0.00000000000E+00 -0.55696124477E+02  0.55696124477E+02  0.00000000000E+00 0.  1.
         23    2    1    2    0    0  0.60666630590E+02  0.11383736110E+03  0.34196946935E+03  0.37611183016E+03  0.88755878513E+02 0.  0.
         23    2    1    2    0    0 -0.60666630590E+02 -0.11383736110E+03  0.17035196211E+03  0.24760185025E+03  0.12508996924E+03 0.  0.
          5    1    4    4  502    0 -0.25270450173E+01 -0.10753616421E+03  0.15182533484E+03  0.18611506459E+03  0.41800000000E+01 0.  1.
         -5    1    4    4    0  502 -0.58139585573E+02 -0.63011968881E+01  0.18526627272E+02  0.61486785661E+02  0.41800000000E+01 0.  1.
        -11    1    3    3    0    0 -0.37247333972E+01  0.34488197107E+02  0.24148581423E+02  0.42266575013E+02  0.00000000000E+00 0.  1.
         11    1    3    3    0    0  0.64391363987E+02  0.79349163992E+02  0.31782088793E+03  0.33384525515E+03  0.00000000000E+00 0. -1.
</event>
<event>
 8    1  0.8061721E-006  0.1152114E+03  0.7561462E-02  0.1251212E+00
          2   -1    0    0  501    0  0.00000000000E+00  0.00000000000E+00  0.12624918163E+04  0.12624918163E+04  0.00000000000E+00 0. -1.
         -2   -1    0    0    0  501 -0.00000000000E+00 -0.00000000000E+00 -0.17510717495E+02  0.17510717495E+02  0.00000000000E+00 0.  1.
         23    2    1    2    0    0  0.26824472737E+02 -0.36995028456E+02  0.18790395280E+03  0.21456996804E+03  0.92974142852E+02 0.  0.
         23    2    1    2    0    0 -0.26824472737E+02  0.36995028456E+02  0.10570771460E+04  0.10654325658E+04  0.12508507144E+03 0.  0.
          5    1    4    4  502    0 -0.17114750431E+02  0.80359653727E+02  0.82579895136E+03  0.82988672064E+03  0.41800000000E+01 0.  1.
         -5    1    4    4    0  502 -0.97097223066E+01 -0.43364625271E+02  0.23127819464E+03  0.23554584511E+03  0.41800000000E+01 0.  1.
        -11    1    3    3    0    0 -0.29171528337E+02  0.95609244720E+01  0.59558583989E+02  0.67004583941E+02  0.00000000000E+00 0.  1.
         11    1    3    3    0    0  0.55996001075E+02 -0.46555952928E+02  0.12834536881E+03  0.14756538410E+03  0.00000000000E+00 0. -1.
</event>
<event>
 8    1  0.8061721E-006  0.1080813E+03  0.7561462E-02  0.1264165E+00
          3   -1    0    0  501    0  0.00000000000E+00  0.00000000000E+00  0.36013593491E+02  0.36013593491E+02  0.00000000000E+00 0. -1.
         -3   -1    0    0    0  501 -0.00000000000E+00 -0.00000000000E+00 -0.37204070827E+03  0.37204070827E+03  0.00000000000E+00 0.  1.
         23    2    1    2    0    0  0.66098919448E+01 -0.24794992067E+02 -0.20019771295E+03  0.22162527533E+03  0.91543192489E+02 0.  0.
         23    2    1    2    0    0 -0.66098919448E+01  0.24794992067E+02 -0.13582940183E+03  0.18642902643E+03  0.12509065989E+03 0.  0.
          5    1    4    4  502    0 -0.47906045190E+02 -0.31407162412E+02 -0.68585022725E+02  0.89458240306E+02  0.41800000000E+01 0.  1.
         -5    1    4    4    0  502  0.41296153246E+02  0.56202154479E+02 -0.67244379107E+02  0.96970786129E+02  0.41800000000E+01 0.  1.
        -11    1    3    3    0    0  0.40245679363E+02 -0.35391396888E+02 -0.15679709324E+03  0.16570333168E+03  0.00000000000E+00 0.  1.
         11    1    3    3    0    0 -0.33635787418E+02  0.10596404821E+02 -0.43400619711E+02  0.55921943651E+02  0.00000000000E+00 0. -1.
</event>
<event>
 8    1  0.8061721E-006  0.3459157E+03  0.7561462E-02  0.1064304E+00
         -2   -1    0    0    0  501 -0.00000000000E+00  0.00000000000E+00  0.59552247062E+03  0.59552247062E+03  0.00000000000E+00 0.  1.
          2   -1    0    0  501    0  0.00000000000E+00 -0.00000000000E+00 -0.36150517723E+03  0.36150517723E+03  0.00000000000E+00 0. -1.
         23    2    1    2    0    0  0.15882543860E+03 -0.29996484460E+03  0.42239713264E+03  0.54918092442E+03  0.89308018404E+02 0.  0.
         23    2    1    2    0    0 -0.15882543860E+03  0.29996484460E+03 -0.18837983925E+03  0.40784672343E+03  0.12509019961E+03 0.  0.
          5    1    4    4  502    0 -0.16762852992E+03  0.25208841208E+03 -0.19255988571E+03  0.35881008004E+03  0.41800000000E+01 0. -1.
         -5    1    4    4    0  502  0.88030913231E+01  0.47876432513E+02  0.41800464613E+01  0.49036643395E+02  0.41800000000E+01 0. -1.
        -11    1    3    3    0    0  0.11533764507E+03 -0.23840808372E+03  0.37851430847E+03  0.46196782190E+03  0.00000000000E+00 0. -1.
         11    1    3    3    0    0  0.43487793522E+02 -0.61556760878E+02  0.43882824170E+02  0.87213102526E+02  0.00000000000E+00 0.  1.
</event>
<event>
 8    1  0.8061721E-006  0.1316086E+03  0.7561462E-02  0.1225088E+00
         -1   -1    0    0    0  501 -0.00000000000E+00  0.00000000000E+00  0.55625171678E+02  0.55625171678E+02  0.00000000000E+00 0.  1.
          1   -1    0    0  501    0  0.00000000000E+00 -0.00000000000E+00 -0.39359313347E+03  0.39359313347E+03  0.00000000000E+00 0. -1.
         23    2    1    2    0    0  0.55755440072E+02  0.76665230346E+02 -0.63142778773E+02  0.13273322433E+03  0.68153295499E+02 0.  0.
         23    2    1    2    0    0 -0.55755440072E+02 -0.76665230346E+02 -0.27482518302E+03  0.31648508082E+03  0.12509076113E+03 0.  0.
          5    1    4    4  502    0 -0.50114700560E+02  0.16856426406E+02 -0.50033512358E+02  0.72913970419E+02  0.41800000000E+01 0.  1.
         -5    1    4    4    0  502 -0.56407395121E+01 -0.93521656752E+02 -0.22479167066E+03  0.24357111040E+03  0.41800000000E+01 0.  1.
        -11    1    3    3    0    0  0.18014291987E+02  0.76561700320E+02 -0.47468061710E+02  0.91866346145E+02  0.00000000000E+00 0.  1.
         11    1    3    3    0    0  0.37741148085E+02  0.10353002597E+00 -0.15674717064E+02  0.40866878181E+02  0.00000000000E+00 0. -1.
</event>
<event>
 8    1  0.8061721E-006  0.1058406E+03  0.7561462E-02  0.1268472E+00
         -2   -1    0    0    0  501 -0.00000000000E+00  0.00000000000E+00  0.12415834451E+03  0.12415834451E+03  0.00000000000E+00 0.  1.
          2   -1    0    0  501    0  0.00000000000E+00 -0.00000000000E+00 -0.12367124311E+03  0.12367124311E+03  0.00000000000E+00 0. -1.
         23    2    1    2    0    0 -0.12827543021E+02 -0.36205388495E+02  0.44377867954E+02  0.10981283580E+03  0.92812109806E+02 0.  0.
         23    2    1    2    0    0  0.12827543021E+02  0.36205388495E+02 -0.43890766552E+02  0.13801675182E+03  0.12508736299E+03 0.  0.
          5    1    4    4  502    0 -0.37707474072E+02 -0.14173682213E+02 -0.52186053277E+02  0.66057576591E+02  0.41800000000E+01 0. -1.
         -5    1    4    4    0  502  0.50535017093E+02  0.50379070708E+02  0.82952867250E+01  0.71959175231E+02  0.41800000000E+01 0. -1.
        -11    1    3    3    0    0 -0.31902329866E+02 -0.60749927564E+02  0.36606161637E+02  0.77770967717E+02  0.00000000000E+00 0.  1.
         11    1    3    3    0    0  0.19074786845E+02  0.24544539069E+02  0.77717063172E+01  0.32041868085E+02  0.00000000000E+00 0. -1.
</event>
<event>
 8    1  0.8061721E-006  0.1558910E+03  0.7561462E-02  0.1193415E+00
         -2   -1    0    0    0  501 -0.00000000000E+00  0.00000000000E+00  0.61027447790E+02  0.61027447790E+02  0.00000000000E+00 0.  1.
          2   -1    0    0  501    0  0.00000000000E+00 -0.00000000000E+00 -0.52854680309E+03  0.52854680309E+03  0.00000000000E+00 0. -1.
         23    2    1    2    0    0  0.12859780124E+03 -0.26149410392E+02 -0.10659430574E+03  0.18567007883E+03  0.76745332154E+02 0.  0.
         23    2    1    2    0    0 -0.12859780124E+03  0.26149410392E+02 -0.36092504956E+03  0.40390417205E+03  0.12510196902E+03 0.  0.
          5    1    4    4  502    0 -0.13061787757E+03  0.60983620558E+02 -0.26426319726E+03  0.30105239037E+03  0.41800000000E+01 0.  1.
         -5    1    4    4    0  502  0.20200763290E+01 -0.34834210166E+02 -0.96661852297E+02  0.10285178168E+03  0.41800000000E+01 0.  1.
        -11    1    3    3    0    0  0.91608162785E+02 -0.26743451540E+02 -0.29053805095E+02  0.99756660327E+02  0.00000000000E+00 0.  1.
         11    1    3    3    0    0  0.36989638459E+02  0.59404114824E+00 -0.77540500648E+02  0.85913418504E+02  0.00000000000E+00 0. -1.
</event>
<event>
 8    1  0.8061721E-006  0.4845405E+02  0.7561462E-02  0.1453863E+00
          2   -1    0    0  501    0  0.00000000000E+00  0.00000000000E+00  0.39192186026E+03  0.39192186026E+03  0.00000000000E+00 0. -1.
         -2   -1    0    0    0  501 -0.00000000000E+00 -0.00000000000E+00 -0.38923533680E+02  0.38923533680E+02  0.00000000000E+00 0.  1.
         23    2    1    2    0    0 -0.31591809365E+02 -0.13628395227E+02  0.71782579508E+02  0.12114346840E+03  0.91319360705E+02 0.  0.
         23    2    1    2    0    0  0.31591809365E+02  0.13628395227E+02  0.28121574707E+03  0.30970192554E+03  0.12509680534E+03 0.  0.
          5    1    4    4  502    0 -0.24260165308E+00 -0.62154988989E+01  0.27030883527E+03  0.27041270330E+03  0.41800000000E+01 0. -1.
         -5    1    4    4    0  502  0.31834411018E+02  0.19843894126E+02  0.10906911803E+02  0.39289222238E+02  0.41800000000E+01 0. -1.
        -11    1    3    3    0    0 -0.34879835378E+02  0.27269998755E+01  0.89928387131E+02  0.96494322404E+02  0.00000000000E+00 0. -1.
         11    1    3    3    0    0  0.32880260125E+01 -0.16355395103E+02 -0.18145807623E+02  0.24649145996E+02  0.00000000000E+00 0.  1.
</event>
<event>
 8    1  0.8061721E-006  0.1007560E+03  0.7561462E-02  0.1278714E+00
         -1   -1    0    0    0  501 -0.00000000000E+00  0.00000000000E+00  0.12598839065E+03  0.12598839065E+03  0.00000000000E+00 0.  1.
          1   -1    0    0  501    0  0.00000000000E+00 -0.00000000000E+00 -0.10738870846E+03  0.10738870846E+03  0.00000000000E+00 0. -1.
         23    2    1    2    0    0 -0.25819206839E+02 -0.34574530764E+02  0.18100441210E+02  0.10105337454E+03  0.89566338060E+02 0.  0.
         23    2    1    2    0    0  0.25819206839E+02  0.34574530764E+02  0.49924097467E+00  0.13232372457E+03  0.12508912512E+03 0.  0.
          5    1    4    4  502    0 -0.38604630688E+02  0.48712704280E+02  0.16257244347E+02  0.64381794496E+02  0.41800000000E+01 0.  1.
         -5    1    4    4    0  502  0.64423837527E+02 -0.14138173516E+02 -0.15758003372E+02  0.67941930076E+02  0.41800000000E+01 0.  1.
        -11    1    3    3    0    0 -0.40905866348E+02 -0.67264304719E+01 -0.24359142438E+02  0.48082248168E+02  0.00000000000E+00 0. -1.
         11    1    3    3    0    0  0.15086659509E+02 -0.27848100292E+02  0.42459583648E+02  0.52971126367E+02  0.00000000000E+00 0.  1.
</event>
<event>
 8    1  0.8061721E-006  0.2259436E+03  0.7561462E-02  0.1129528E+00
         -2   -1    0    0    0  501 -0.00000000000E+00  0.00000000000E+00  0.51526358821E+02  0.51526358821E+02  0.00000000000E+00 0.  1.
          2   -1    0    0  501    0  0.00000000000E+00 -0.00000000000E+00 -0.10771346823E+04  0.10771346823E+04  0.00000000000E+00 0. -1.
         23    2    1    2    0    0  0.17153192472E+03 -0.11167252011E+03 -0.38560096369E+03  0.44517832450E+03  0.87187639369E+02 0.  0.
         23    2    1    2    0    0 -0.17153192472E+03  0.11167252011E+03 -0.64000735982E+03  0.68348271666E+03  0.12508097534E+03 0.  0.
          5    1    4    4  502    0 -0.10576784307E+03  0.13252700636E+03 -0.48370688560E+03  0.51258176677E+03  0.41800000000E+01 0. -1.
         -5    1    4    4    0  502 -0.65764081650E+02 -0.20854486244E+02 -0.15630047422E+03  0.17090094989E+03  0.41800000000E+01 0. -1.
        -11    1    3    3    0    0  0.83281617784E+02 -0.89318351901E+02 -0.28172723360E+03  0.30705672115E+03  0.00000000000E+00 0. -1.
         11    1    3    3    0    0  0.88250306936E+02 -0.22354168213E+02 -0.10387373008E+03  0.13812160335E+03  0.00000000000E+00 0.  1.
</event>
<event>
 8    1  0.8061721E-006  0.1612159E+03  0.7561462E-02  0.1187331E+00
         -4   -1    0    0    0  501 -0.00000000000E+00  0.00000000000E+00  0.11452467659E+03  0.11452467659E+03  0.00000000000E+00 0.  1.
          4   -1    0    0  501    0  0.00000000000E+00 -0.00000000000E+00 -0.31073723907E+03  0.31073723907E+03  0.00000000000E+00 0. -1.
         23    2    1    2    0    0  0.13209112783E+03 -0.37143684386E+02 -0.12392464560E+02  0.16398661609E+03  0.88939967042E+02 0.  0.
         23    2    1    2    0    0 -0.13209112783E+03  0.37143684386E+02 -0.18382009792E+03  0.26127529958E+03  0.12508890610E+03 0.  0.
          5    1    4    4  502    0 -0.29735702690E+02  0.64411522342E+02 -0.36820564415E+02  0.80039256547E+02  0.41800000000E+01 0. -1.
         -5    1    4    4    0  502 -0.10235542514E+03 -0.27267837955E+02 -0.14699953351E+03  0.18123604303E+03  0.41800000000E+01 0. -1.
        -11    1    3    3    0    0  0.27497614319E+02  0.11745979821E+02  0.28690440170E+02  0.41439452124E+02  0.00000000000E+00 0.  1.
         11    1    3    3    0    0  0.10459351351E+03 -0.48889664207E+02 -0.41082904730E+02  0.12254716396E+03  0.00000000000E+00 0. -1.
</event>
<event>
 7    1  0.8061721E-006  0.1152125E+03  0.7561462E-02  0.1251211E+00
          1   -1    0    0  501    0  0.00000000000E+00  0.00000000000E+00  0.99315424402E+03  0.99315424402E+03  0.00000000000E+00 0. -1.
         -1   -1    0    0    0  501 -0.00000000000E+00 -0.00000000000E+00 -0.72340108409E+02  0.72340108409E+02  0.00000000000E+00 0.  1.
         23    2    1    2    0    0  0.10410513429E-01  0.17529290632E+02 -0.33549759524E+02  0.98734336537E+02  0.91189948508E+02 0.  0.
          5    1    1    2  502    0  0.68889675012E+02 -0.35574650986E+02  0.62179514451E+03  0.62662430312E+03  0.41800000000E+01 0. -1.
         -5    1    1    2    0  502 -0.68900085525E+02  0.18045360354E+02  0.33256875062E+03  0.34013571277E+03  0.41800000000E+01 0.  1.
        -11    1    3    3    0    0  0.39186857296E+02  0.18348746413E+01 -0.40016767116E+02  0.56038542095E+02  0.00000000000E+00 0. -1.
         11    1    3    3    0    0 -0.39176446783E+02  0.15694415991E+02  0.64670075923E+01  0.42695794442E+02  0.00000000000E+00 0.  1.
</event>
<event>
 8    1  0.8061721E-006  0.1671931E+03  0.7561462E-02  0.1180807E+00
         -1   -1    0    0    0  501 -0.00000000000E+00  0.00000000000E+00  0.85424714105E+02  0.85424714105E+02  0.00000000000E+00 0.  1.
          1   -1    0    0  501    0  0.00000000000E+00 -0.00000000000E+00 -0.52740629102E+03  0.52740629102E+03  0.00000000000E+00 0. -1.
         23    2    1    2    0    0 -0.42759959720E+02 -0.13900119528E+03 -0.49484872026E+02  0.17798705894E+03  0.89893793693E+02 0.  0.
         23    2    1    2    0    0  0.42759959720E+02  0.13900119528E+03 -0.39249670489E+03  0.43484394619E+03  0.11783822700E+03 0.  0.
          5    1    4    4  502    0 -0.18492296309E+02  0.69554771308E+02 -0.27972641015E+03  0.28886704238E+03  0.41800000000E+01 0. -1.
         -5    1    4    4    0  502  0.61252256029E+02  0.69446423974E+02 -0.11277029473E+03  0.14597690381E+03  0.41800000000E+01 0.  1.
        -11    1    3    3    0    0 -0.45376548250E+02 -0.15081844064E+03 -0.51529382880E+02  0.16571213132E+03  0.00000000000E+00 0.  1.
         11    1    3    3    0    0  0.26165885299E+01  0.11817245355E+02  0.20445108538E+01  0.12274927615E+02  0.00000000000E+00 0. -1.
</event>
<event>
 8    1  0.8061721E-006  0.8663372E+02  0.7561462E-02  0.1311215E+00
         -2   -1    0    0    0  501 -0.00000000000E+00  0.00000000000E+00  0.11974271032E+03  0.11974271032E+03  0.00000000000E+00 0.  1.
          2   -1    0    0  501    0  0.00000000000E+00 -0.00000000000E+00 -0.13768071566E+03  0.13768071566E+03  0.00000000000E+00 0. -1.
         23    2    1    2    0    0  0.36257104767E+02 -0.24209020933E+02  0.45326413740E+02  0.11061462264E+03  0.90997014343E+02 0.  0.
         23    2    1    2    0    0 -0.36257104767E+02  0.24209020933E+02 -0.63264419082E+02  0.14680880334E+03  0.12509909542E+03 0.  0.
          5    1    4    4  502    0 -0.63918702051E+02 -0.49309555513E+01  0.81516697501E+01  0.64759840289E+02  0.41800000000E+01 0.  1.
         -5    1    4    4    0  502  0.27661597284E+02  0.29139976484E+02 -0.71416088832E+02  0.82048963052E+02  0.41800000000E+01 0.  1.
        -11    1    3    3    0    0  0.97891068607E+00 -0.32396797870E+02  0.62597852209E+02  0.70491147526E+02  0.00000000000E+00 0.  1.
         11    1    3    3    0    0  0.35278194081E+02  0.81877769367E+01 -0.17271438468E+02  0.40123475118E+02  0.00000000000E+00 0. -1.
</event>
<event>
 8    1  0.8061721E-006  0.1475940E+03  0.7561462E-02  0.1203461E+00
          2   -1    0    0  501    0  0.00000000000E+00  0.00000000000E+00  0.54452285728E+03  0.54452285728E+03  0.00000000000E+00 0. -1.
         -2   -1    0    0    0  501 -0.00000000000E+00 -0.00000000000E+00 -0.57368017125E+02  0.57368017125E+02  0.00000000000E+00 0.  1.
         23    2    1    2    0    0  0.32199214967E+02  0.13385798897E+03  0.26635676638E+03  0.31316280749E+03  0.90389525611E+02 0.  0.
         23    2    1    2    0    0 -0.32199214967E+02 -0.13385798897E+03  0.22079807377E+03  0.28872806692E+03  0.12512935941E+03 0.  0.
          5    1    4    4  502    0 -0.31499958631E+02 -0.22341311418E+02 -0.26790456773E+01  0.38936246293E+02  0.41800000000E+01 0.  1.
         -5    1    4    4    0  502 -0.69925633634E+00 -0.11151667756E+03  0.22347711945E+03  0.24979182062E+03  0.41800000000E+01 0.  1.
        -11    1    3    3    0    0  0.23804013863E+02  0.21501283274E+02  0.14104726916E+03  0.14464877599E+03  0.00000000000E+00 0. -1.
         11    1    3    3    0    0  0.83952011036E+01  0.11235670570E+03  0.12530949722E+03  0.16851403150E+03  0.00000000000E+00 0.  1.
</event>
<event>
 8    1  0.8061721E-006  0.1088278E+03  0.7561462E-02  0.1262756E+00
          2   -1    0    0  501    0  0.00000000000E+00  0.00000000000E+00  0.12240467112E+04  0.12240467112E+04  0.00000000000E+00 0.  1.
         -2   -1    0    0    0  501 -0.00000000000E+00 -0.00000000000E+00 -0.19008253253E+02  0.19008253253E+02  0.00000000000E+00 0. -1.
         23    2    1    2    0    0 -0.52417241998E+02 -0.73296018189E+02  0.31485479575E+03  0.33962000676E+03  0.89935160228E+02 0.  0.
         23    2    1    2    0    0  0.52417241998E+02  0.73296018189E+02  0.89018366221E+03  0.90343495770E+03  0.12509155364E+03 0.  0.
          5    1    4    4  502    0  0.56425910445E+02  0.85848324782E+02  0.88067498700E+03  0.88665648555E+03  0.41800000000E+01 0.  1.
         -5    1    4    4    0  502 -0.40086684474E+01 -0.12552306593E+02  0.95086752054E+01  0.16778472150E+02  0.41800000000E+01 0.  1.
        -11    1    3    3    0    0 -0.43170375869E+02 -0.21182197934E+02  0.49399651224E+02  0.68939773738E+02  0.00000000000E+00 0. -1.
         11    1    3    3    0    0 -0.92468661291E+01 -0.52113820255E+02  0.26545514452E+03  0.27068023302E+03  0.00000000000E+00 0.  1.
</event>
<event>
 8    1  0.8061721E-006  0.1121531E+03  0.7561462E-02  0.1256634E+00
          1   -1    0    0  501    0  0.00000000000E+00  0.00000000000E+00  0.20255547338E+02  0.20255547338E+02  0.00000000000E+00 0. -1.
         -1   -1    0    0    0  501 -0.00000000000E+00 -0.00000000000E+00 -0.68514436138E+03  0.68514436138E+03  0.00000000000E+00 0.  1.
         23    2    1    2    0    0 -0.40983631067E+02  0.21001833326E+02 -0.27725042970E+03  0.29548255798E+03  0.91221742388E+02 0.  0.
         23    2    1    2    0    0  0.40983631067E+02 -0.21001833326E+02 -0.38763838434E+03  0.40991735073E+03  0.12509189583E+03 0.  0.
          5    1    4    4  502    0  0.67783189801E+02  0.28373250120E+02 -0.17292162921E+03  0.18793340414E+03  0.41800000000E+01 0. -1.
         -5    1    4    4    0  502 -0.26799558734E+02 -0.49375083446E+02 -0.21471675513E+03  0.22198394659E+03  0.41800000000E+01 0. -1.
        -11    1    3    3    0    0  0.23542620642E+02  0.18246634004E+02 -0.41746427136E+02  0.51283124104E+02  0.00000000000E+00 0. -1.
         11    1    3    3    0    0 -0.64526251709E+02  0.27551993217E+01 -0.23550400257E+03  0.24419943388E+03  0.00000000000E+00 0.  1.
</event>
<event>
 7    1  0.8061721E-006  0.1138289E+03  0.7561462E-02  0.1253639E+00
          1   -1    0    0  501    0  0.00000000000E+00  0.00000000000E+00  0.91329870626E+02  0.91329870626E+02  0.00000000000E+00 0. -1.
         -1   -1    0    0    0  501 -0.00000000000E+00 -0.00000000000E+00 -0.17931134226E+03  0.17931134226E+03  0.00000000000E+00 0.  1.
         23    2    1    2    0    0 -0.33381290276E+02  0.13821336494E+02 -0.86622272780E+02  0.13026310734E+03  0.90331163555E+02 0.  0.
          5    1    1    2  502    0  0.50968815598E+02  0.51491951096E+02 -0.21658975243E+01  0.72604439969E+02  0.41800000000E+01 0. -1.
         -5    1    1    2    0  502 -0.17587525321E+02 -0.65313287589E+02  0.80669867419E+00  0.67773665574E+02  0.41800000000E+01 0.  1.
        -11    1    3    3    0    0 -0.56184459157E+02 -0.67720258342E+01 -0.81335417567E+02  0.99085841247E+02  0.00000000000E+00 0.  1.
         11    1    3    3    0    0  0.22803168881E+02  0.20593362328E+02 -0.52868552124E+01  0.31177266093E+02  0.00000000000E+00 0. -1.
</event>
<event>
 7    1  0.8061721E-006  0.1209222E+03  0.7561462E-02  0.1241583E+00
         -3   -1    0    0    0  501 -0.00000000000E+00  0.00000000000E+00  0.53280410756E+02  0.53280410756E+02  0.00000000000E+00 0.  1.
          3   -1    0    0  501    0  0.00000000000E+00 -0.00000000000E+00 -0.33638254858E+03  0.33638254858E+03  0.00000000000E+00 0. -1.
         23    2    1    2    0    0 -0.18686011747E+02 -0.19903827225E+02 -0.96692749440E+02  0.13522903077E+03  0.90510074546E+02 0.  0.
          5    1    1    2  502    0  0.46151182252E+00  0.87662238676E+02 -0.15350577462E+03  0.17682300847E+03  0.41800000000E+01 0. -1.
         -5    1    1    2    0  502  0.18224499925E+02 -0.67758411451E+02 -0.32903613764E+02  0.77610920099E+02  0.41800000000E+01 0.  1.
        -11    1    3    3    0    0  0.14048106875E+02  0.24728897293E+02 -0.66165287411E+02  0.72018837301E+02  0.00000000000E+00 0.  1.
         11    1    3    3    0    0 -0.32734118622E+02 -0.44632724518E+02 -0.30527462029E+02  0.63210193464E+02  0.00000000000E+00 0. -1.
</event>
<event>
 8    1  0.8061721E-006  0.7933161E+02  0.7561462E-02  0.1330959E+00
          2   -1    0    0  501    0  0.00000000000E+00  0.00000000000E+00  0.81966426537E+03  0.81966426537E+03  0.00000000000E+00 0.  1.
         -2   -1    0    0    0  501 -0.00000000000E+00 -0.00000000000E+00 -0.15914214796E+02  0.15914214796E+02  0.00000000000E+00 0. -1.
         23    2    1    2    0    0  0.38195871501E+02 -0.13503382472E+02  0.23435138110E+03  0.25119433166E+03  0.80850210246E+02 0.  0.
         23    2    1    2    0    0 -0.38195871501E+02  0.13503382472E+02  0.56939866948E+03  0.58438414851E+03  0.12509485316E+03 0.  0.
          5    1    4    4  502    0  0.11727985695E+02  0.33216759112E+02  0.45343787374E+02  0.57571088124E+02  0.41800000000E+01 0. -1.
         -5    1    4    4    0  502 -0.49923857196E+02 -0.19713376640E+02  0.52405488211E+03  0.52681306039E+03  0.41800000000E+01 0. -1.
        -11    1    3    3    0    0  0.53056998658E+02 -0.89302457218E+01  0.22822641500E+03  0.23448260255E+03  0.00000000000E+00 0.  1.
         11    1    3    3    0    0 -0.14861127156E+02 -0.45731367498E+01  0.61249660991E+01  0.16711729109E+02  0.00000000000E+00 0. -1.
</event>
<event>
 8    1  0.8061721E-006  0.1823237E+03  0.7561462E-02  0.1165573E+00
          2   -1    0    0  501    0  0.00000000000E+00  0.00000000000E+00  0.20175063453E+04  0.20175063453E+04  0.00000000000E+00 0. -1.
         -2   -1    0    0    0  501 -0.00000000000E+00 -0.00000000000E+00 -0.24150367214E+02  0.24150367214E+02  0.00000000000E+00 0.  1.
         23    2    1    2    0    0 -0.29682459464E+01  0.15396870250E+03  0.43694353833E+03  0.47280902843E+03  0.94411598067E+02 0.  0.
         23    2    1    2    0    0  0.29682459464E+01 -0.15396870250E+03  0.15564124397E+04  0.15688476840E+04  0.12307802959E+03 0.  0.
          5    1    4    4  502    0  0.31592895141E+02 -0.16235327031E+03  0.12363951750E+04  0.12474162082E+04  0.41800000000E+01 0. -1.
         -5    1    4    4    0  502 -0.28624649195E+02  0.83845678097E+01  0.32001726471E+03  0.32143147579E+03  0.41800000000E+01 0.  1.
        -11    1    3    3    0    0  0.32562902277E+02  0.92678073126E+02  0.33171687742E+03  0.34595614550E+03  0.00000000000E+00 0. -1.
         11    1    3    3    0    0 -0.35531148224E+02  0.61290629378E+02  0.10522666090E+03  0.12685288293E+03  0.00000000000E+00 0.  1.
</event>
<event>
 8    1  0.8061721E-006  0.1447905E+03  0.7561462E-02  0.1207025E+00
          2   -1    0    0  501    0  0.00000000000E+00  0.00000000000E+00  0.82276776425E+03  0.82276776425E+03  0.00000000000E+00 0. -1.
         -2   -1    0    0    0  501 -0.00000000000E+00 -0.00000000000E+00 -0.30866962971E+02  0.30866962971E+02  0.00000000000E+00 0.  1.
         23    2    1    2    0    0 -0.94218462900E+02  0.68860571257E+02  0.36379713956E+03  0.39261516028E+03  0.90440081310E+02 0.  0.
         23    2    1    2    0    0  0.94218462900E+02 -0.68860571257E+02  0.42810366173E+03  0.46101956695E+03  0.12508956350E+03 0.  0.
          5    1    4    4  502    0  0.69916401878E+02  0.22419925378E+02  0.23072898080E+03  0.24216583427E+03  0.41800000000E+01 0. -1.
         -5    1    4    4    0  502  0.24302061021E+02 -0.91280496634E+02  0.19737468093E+03  0.21885373268E+03  0.41800000000E+01 0. -1.
        -11    1    3    3    0    0 -0.29983083488E+02  0.42592506770E+02  0.27513562800E+03  0.28002271466E+03  0.00000000000E+00 0. -1.
         11    1    3    3    0    0 -0.64235379412E+02  0.26268064487E+02  0.88661511555E+02  0.11259244562E+03  0.00000000000E+00 0.  1.
</event>
<event>
 8    1  0.8061721E-006  0.1046406E+03  0.7561462E-02  0.1270829E+00
          1   -1    0    0  501    0  0.00000000000E+00  0.00000000000E+00  0.18881252041E+03  0.18881252041E+03  0.00000000000E+00 0. -1.
         -1   -1    0    0    0  501 -0.00000000000E+00 -0.00000000000E+00 -0.89457356843E+02  0.89457356843E+02  0.00000000000E+00 0.  1.
         23    2    1    2    0    0  0.67366970865E+01  0.48109864089E+02 -0.12663924006E+02  0.10346919709E+03  0.90474071784E+02 0.  0.
         23    2    1    2    0    0 -0.67366970865E+01 -0.48109864089E+02  0.11201908758E+03  0.17480068017E+03  0.12508820766E+03 0.  0.
          5    1    4    4  502    0  0.43060894148E+02 -0.35848769111E+02  0.54373021159E+01  0.56448308264E+02  0.41800000000E+01 0. -1.
         -5    1    4    4    0  502 -0.49797591234E+02 -0.12261094978E+02  0.10658178546E+03  0.11835237190E+03  0.41800000000E+01 0. -1.
        -11    1    3    3    0    0 -0.41306119642E+02  0.18998539594E+02 -0.13020574516E+02  0.47293502591E+02  0.00000000000E+00 0.  1.
         11    1    3    3    0    0  0.48042816728E+02  0.29111324495E+02  0.35665051050E+00  0.56175694501E+02  0.00000000000E+00 0. -1.
</event>
<event>
 8    1  0.8061721E-006  0.9134157E+02  0.7561462E-02  0.1299635E+00
          1   -1    0    0  501    0  0.00000000000E+00  0.00000000000E+00  0.59718968933E+02  0.59718968933E+02  0.00000000000E+00 0. -1.
         -1   -1    0    0    0  501 -0.00000000000E+00 -0.00000000000E+00 -0.34213650303E+03  0.34213650303E+03  0.00000000000E+00 0.  1.
         23    2    1    2    0    0  0.30691756003E+02 -0.54628428651E+02 -0.21994211598E+03  0.24863166244E+03  0.97554703019E+02 0.  0.
         23    2    1    2    0    0 -0.30691756003E+02  0.54628428651E+02 -0.62475418109E+02  0.15322380952E+03  0.12509240118E+03 0.  0.
          5    1    4    4  502    0 -0.37484834448E+01  0.79005171894E+02  0.18520784557E+01  0.79226074677E+02  0.41800000000E+01 0.  1.
         -5    1    4    4    0  502 -0.26943272558E+02 -0.24376743243E+02 -0.64327496564E+02  0.73997734840E+02  0.41800000000E+01 0.  1.
        -11    1    3    3    0    0  0.30821070966E+02 -0.32552255718E+02 -0.22197998029E+03  0.22646125368E+03  0.00000000000E+00 0.  1.
         11    1    3    3    0    0 -0.12931496358E+00 -0.22076172932E+02  0.20378643077E+01  0.22170408761E+02  0.00000000000E+00 0. -1.
</event>
<event>
 8    1  0.8061721E-006  0.1011339E+03  0.7561462E-02  0.1277930E+00
         -1   -1    0    0    0  501 -0.00000000000E+00  0.00000000000E+00  0.12236078939E+02  0.12236078939E+02  0.00000000000E+00 0.  1.
          1   -1    0    0  501    0  0.00000000000E+00 -0.00000000000E+00 -0.17204799197E+04  0.17204799197E+04  0.00000000000E+00 0. -1.
         23    2    1    2    0    0 -0.48401078510E+02 -0.23951974068E+01 -0.26063629965E+03  0.27890598645E+03  0.86653720100E+02 0.  0.
         23    2    1    2    0    0  0.48401078510E+02  0.23951974068E+01 -0.14476075411E+04  0.14538100122E+04  0.12509019589E+03 0.  0.
          5    1    4    4  502    0  0.67612404141E+02  0.27233307861E+02 -0.46542403401E+03  0.47111579690E+03  0.41800000000E+01 0. -1.
         -5    1    4    4    0  502 -0.19211325630E+02 -0.24838110455E+02 -0.98218350709E+03  0.98269421529E+03  0.41800000000E+01 0. -1.
        -11    1    3    3    0    0 -0.61763111535E+02 -0.28676905930E+02 -0.20383390727E+03  0.21490767467E+03  0.00000000000E+00 0. -1.
         11    1    3    3    0    0  0.13362033024E+02  0.26281708524E+02 -0.56802392380E+02  0.63998311771E+02  0.00000000000E+00 0.  1.
</event>
<event>
 8    1  0.8061721E-006  0.8208807E+02  0.7561462E-02  0.1323228E+00
         -2   -1    0    0    0  501 -0.00000000000E+00  0.00000000000E+00  0.56477975709E+02  0.56477975709E+02  0.00000000000E+00 0.  1.
          2   -1    0    0  501    0  0.00000000000E+00 -0.00000000000E+00 -0.26831642049E+03  0.26831642049E+03  0.00000000000E+00 0. -1.
         23    2    1    2    0    0  0.40246669509E+02 -0.32337854422E+02 -0.54972969175E+02  0.11762258170E+03  0.90263575993E+02 0.  0.
         23    2    1    2    0    0 -0.40246669509E+02  0.32337854422E+02 -0.15686547560E+03  0.20717181450E+03  0.12509137480E+03 0.  0.
          5    1    4    4  502    0 -0.26878394417E+02 -0.29851518644E+02 -0.28516579357E+01  0.40486610191E+02  0.41800000000E+01 0. -1.
         -5    1    4    4    0  502 -0.13368275092E+02  0.62189373067E+02 -0.15401381767E+03  0.16668520431E+03  0.41800000000E+01 0. -1.
        -11    1    3    3    0    0  0.22351028806E+02  0.81779007854E+00  0.22343583221E+02  0.31614442593E+02  0.00000000000E+00 0.  1.
         11    1    3    3    0    0  0.17895640702E+02 -0.33155644501E+02 -0.77316552396E+02  0.86008139108E+02  0.00000000000E+00 0. -1.
</event>
<event>
 8    1  0.8061721E-006  0.7414169E+02  0.7561462E-02  0.1346550E+00
         -3   -1    0    0    0  501 -0.00000000000E+00  0.00000000000E+00  0.47878385176E+02  0.47878385176E+02  0.00000000000E+00 0.  1.
          3   -1    0    0  501    0  0.00000000000E+00 -0.00000000000E+00 -0.59627020632E+03  0.59627020632E+03  0.00000000000E+00 0. -1.
         23    2    1    2    0    0 -0.10285414863E+02 -0.13436638974E+02 -0.48581039098E+01  0.87900088480E+02  0.86119053382E+02 0.  0.
         23    2    1    2    0    0  0.10285414863E+02  0.13436638974E+02 -0.54353371724E+03  0.55624850302E+03  0.11703487648E+03 0.  0.
          5    1    4    4  502    0 -0.33469287755E+01  0.60813907568E+02 -0.39503363979E+03  0.39972313200E+03  0.41800000000E+01 0. -1.
         -5    1    4    4    0  502  0.13632343639E+02 -0.47377268594E+02 -0.14850007744E+03  0.15652537102E+03  0.41800000000E+01 0.  1.
        -11    1    3    3    0    0 -0.26483207892E+00 -0.23532013109E+02  0.36911251243E+02  0.43775178416E+02  0.00000000000E+00 0. -1.
         11    1    3    3    0    0 -0.10020582784E+02  0.10095374135E+02 -0.41769355153E+02  0.44124910064E+02  0.00000000000E+00 0.  1.
</event>
<event>
 8    1  0.8061721E-006  0.1446673E+03  0.7561462E-02  0.1207183E+00
          2   -1    0    0  501    0  0.00000000000E+00  0.00000000000E+00  0.10848911770E+03  0.10848911770E+03  0.00000000000E+00 0. -1.
         -2   -1    0    0    0  501 -0.00000000000E+00 -0.00000000000E+00 -0.23695327395E+03  0.23695327395E+03  0.00000000000E+00 0.  1.
         23    2    1    2    0    0  0.86754567539E+02 -0.62310324264E+02 -0.11329594312E+03  0.18026040542E+03  0.90823518622E+02 0.  0.
         23    2    1    2    0    0 -0.86754567539E+02  0.62310324264E+02 -0.15168213127E+02  0.16518198623E+03  0.12508430112E+03 0.  0.
          5    1    4    4  502    0 -0.11922487039E+02 -0.37060241027E+02  0.35543815346E+01  0.39315559138E+02  0.41800000000E+01 0.  1.
         -5    1    4    4    0  502 -0.74832080500E+02  0.99370565291E+02 -0.18722594661E+02  0.12586642709E+03  0.41800000000E+01 0.  1.
        -11    1    3    3    0    0  0.71334138648E+02 -0.11050794479E+02 -0.23854198371E+02  0.76024352514E+02  0.00000000000E+00 0. -1.
         11    1    3    3    0    0  0.15420428892E+02 -0.51259529785E+02 -0.89441744753E+02  0.10423605291E+03  0.00000000000E+00 0.  1.
</event>
<event>
 8    1  0.8061721E-006  0.8530530E+02  0.7561462E-02  0.1314636E+00
         -1   -1    0    0    0  501 -0.00000000000E+00  0.00000000000E+00  0.15281984861E+03  0.15281984861E+03  0.00000000000E+00 0.  1.
          1   -1    0    0  501    0  0.00000000000E+00 -0.00000000000E+00 -0.95305036879E+02  0.95305036879E+02  0.00000000000E+00 0. -1.
         23    2    1    2    0    0 -0.11369775131E+02  0.11300868166E+02  0.78959849542E+02  0.12019894539E+03  0.89197237767E+02 0.  0.
         23    2    1    2    0    0  0.11369775131E+02 -0.11300868166E+02 -0.21445037811E+02  0.12792594010E+03  0.12509266604E+03 0.  0.
          5    1    4    4  502    0 -0.36531435826E+02  0.39386522446E+02  0.28470603388E+01  0.53957595447E+02  0.41800000000E+01 0. -1.
         -5    1    4    4    0  502  0.47901210957E+02 -0.50687390612E+02 -0.24292098149E+02  0.73968344653E+02  0.41800000000E+01 0. -1.
        -11    1    3    3    0    0 -0.21953269821E+02  0.22512563004E+02 -0.75398641072E+01  0.32335910373E+02  0.00000000000E+00 0. -1.
         11    1    3    3    0    0  0.10583494690E+02 -0.11211694838E+02  0.86499713649E+02  0.87863035017E+02  0.00000000000E+00 0.  1.
</event>
<event>
 8    1  0.8061721E-006  0.7984402E+02  0.7561462E-02  0.1329495E+00
         -1   -1    0    0    0  501 -0.00000000000E+00  0.00000000000E+00  0.13228094032E+03  0.13228094032E+03  0.00000000000E+00 0. -1.
          1   -1    0    0  501    0  0.00000000000E+00 -0.00000000000E+00 -0.11955390031E+03  0.11955390031E+03  0.00000000000E+00 0.  1.
         23    2    1    2    0    0 -0.42607224538E+02 -0.13237387764E+02  0.43550801277E+02  0.11549557185E+03  0.97221143833E+02 0.  0.
         23    2    1    2    0    0  0.42607224538E+02  0.13237387764E+02 -0.30823761261E+02  0.13633926878E+03  0.12509071882E+03 0.  0.
          5    1    4    4  502    0 -0.33550196039E+02  0.13113966043E-01  0.24017154871E+02  0.41471821208E+02  0.41800000000E+01 0.  1.
         -5    1    4    4    0  502  0.76157420577E+02  0.13224273798E+02 -0.54840916132E+02  0.94867447571E+02  0.41800000000E+01 0.  1.
        -11    1    3    3    0    0 -0.74392110695E+01 -0.10934440263E+02 -0.30632835573E+02  0.33365767793E+02  0.00000000000E+00 0.  1.
         11    1    3    3    0    0 -0.35168013469E+02 -0.23029475016E+01  0.74183636850E+02  0.82129804060E+02  0.00000000000E+00 0. -1.
</event>
<event>
 8    1  0.8061721E-006  0.1187783E+03  0.7561462E-02  0.1245126E+00
          1   -1    0    0  501    0  0.00000000000E+00  0.00000000000E+00  0.29046375257E+02  0.29046375257E+02  0.00000000000E+00 0. -1.
         -1   -1    0    0    0  501 -0.00000000000E+00 -0.00000000000E+00 -0.81507049980E+03  0.81507049980E+03  0.00000000000E+00 0.  1.
         23    2    1    2    0    0  0.43430513065E+02 -0.94743462627E+02 -0.43413246246E+03  0.45638419704E+03  0.94620331730E+02 0.  0.
         23    2    1    2    0    0 -0.43430513065E+02  0.94743462627E+02 -0.35189166209E+03  0.38773267801E+03  0.12508538915E+03 0.  0.
          5    1    4    4  502    0 -0.33978964388E+02  0.83051896070E+02 -0.35937103633E+03  0.37042840282E+03  0.41800000000E+01 0.  1.
         -5    1    4    4    0  502 -0.94515486775E+01  0.11691566557E+02  0.74793742441E+01  0.17304275196E+02  0.41800000000E+01 0.  1.
        -11    1    3    3    0    0  0.61094054732E+01 -0.94602530200E+02 -0.37213470238E+03  0.38401979150E+03  0.00000000000E+00 0.  1.
         11    1    3    3    0    0  0.37321107592E+02 -0.14093242668E+00 -0.61997760082E+02  0.72364405539E+02  0.00000000000E+00 0. -1.
</event>
<event>
 8    1  0.8061721E-006  0.2371972E+03  0.7561462E-02  0.1121674E+00
          2   -1    0    0  501    0  0.00000000000E+00  0.00000000000E+00  0.16464853512E+03  0.16464853512E+03  0.00000000000E+00 0. -1.
         -2   -1    0    0    0  501 -0.00000000000E+00 -0.00000000000E+00 -0.39451953850E+03  0.39451953850E+03  0.00000000000E+00 0.  1.
         23    2    1    2    0    0 -0.82541061560E+02 -0.21433991728E+03 -0.13023356555E+03  0.27929425904E+03  0.91048748216E+02 0.  0.
         23    2    1    2    0    0  0.82541061560E+02  0.21433991728E+03 -0.99637437840E+02  0.27987381458E+03  0.12508839309E+03 0.  0.
          5    1    4    4  502    0  0.33790307587E+02  0.12270221660E+03 -0.11890159740E+03  0.17422020867E+03  0.41800000000E+01 0.  1.
         -5    1    4    4    0  502  0.48750753973E+02  0.91637700678E+02  0.19264159558E+02  0.10565360591E+03  0.41800000000E+01 0.  1.
        -11    1    3    3    0    0 -0.41494771747E+02 -0.22923944261E+02 -0.46391275341E+02  0.66328528783E+02  0.00000000000E+00 0.  1.
         11    1    3    3    0    0 -0.41046289812E+02 -0.19141597302E+03 -0.83842290206E+02  0.21296573025E+03  0.00000000000E+00 0. -1.
</event>
<event>
 8    1  0.8061721E-006  0.1413182E+03  0.7561462E-02  0.1211566E+00
          1   -1    0    0  501    0  0.00000000000E+00  0.00000000000E+00  0.17196831794E+04  0.17196831794E+04  0.00000000000E+00 0. -1.
         -1   -1    0    0    0  501 -0.00000000000E+00 -0.00000000000E+00 -0.15701626976E+02  0.15701626976E+02  0.00000000000E+00 0.  1.
         23    2    1    2    0    0 -0.15243365676E+02  0.91398484760E+02  0.37235284508E+03  0.39468797051E+03  0.92444089107E+02 0.  0.
         23    2    1    2    0    0  0.15243365676E+02 -0.91398484760E+02  0.13316287074E+04  0.13406968359E+04  0.12508776227E+03 0.  0.
          5    1    4    4  502    0  0.31007425072E+01 -0.12018598133E+03  0.11578239097E+04  0.11640566837E+04  0.41800000000E+01 0.  1.
         -5    1    4    4    0  502  0.12142623169E+02  0.28787496567E+02  0.17380479770E+03  0.17664015217E+03  0.41800000000E+01 0.  1.
        -11    1    3    3    0    0 -0.45166757967E+02  0.13151958385E+02  0.14030160561E+03  0.14797820979E+03  0.00000000000E+00 0. -1.
         11    1    3    3    0    0  0.29923392291E+02  0.78246526375E+02  0.23205123947E+03  0.24670976072E+03  0.00000000000E+00 0.  1.
</event>
<event>
 8    1  0.8061721E-006  0.1227077E+03  0.7561462E-02  0.1238696E+00
          1   -1    0    0  501    0  0.00000000000E+00  0.00000000000E+00  0.43865077134E+03  0.43865077134E+03  0.00000000000E+00 0. -1.
         -1   -1    0    0    0  501 -0.00000000000E+00 -0.00000000000E+00 -0.44109244712E+02  0.44109244712E+02  0.00000000000E+00 0.  1.
         23    2    1    2    0    0 -0.33517807355E+02 -0.72142013969E+02  0.11764004791E+03  0.16867426661E+03  0.91016008229E+02 0.  0.
         23    2    1    2    0    0  0.33517807355E+02  0.72142013969E+02  0.27690147872E+03  0.31408574945E+03  0.12509002957E+03 0.  0.
          5    1    4    4  502    0 -0.14634289552E+02 -0.17198802051E+02  0.45549949369E+01  0.23413278317E+02  0.41800000000E+01 0. -1.
         -5    1    4    4    0  502  0.48152096907E+02  0.89340816020E+02  0.27234648378E+03  0.29067247113E+03  0.41800000000E+01 0. -1.
        -11    1    3    3    0    0  0.50383131391E+01 -0.81127085972E+02  0.79946447556E+02  0.11401062737E+03  0.00000000000E+00 0. -1.
         11    1    3    3    0    0 -0.38556120494E+02  0.89850720034E+01  0.37693600357E+02  0.54663639234E+02  0.00000000000E+00 0.  1.
</event>
<event>
 8    1  0.8061721E-006  0.1448610E+03  0.7561462E-02  0.1206934E+00
          1   -1    0    0  501    0  0.00000000000E+00  0.00000000000E+00  0.97562708506E+03  0.97562708506E+03  0.00000000000E+00 0. -1.
         -1   -1    0    0    0  501 -0.00000000000E+00 -0.00000000000E+00 -0.28861955968E+02  0.28861955968E+02  0.00000000000E+00 0.  1.
         23    2    1    2    0    0  0.12142306145E+03  0.54200036289E+01  0.33820981918E+03  0.37143272671E+03  0.93826714720E+02 0.  0.
         23    2    1    2    0    0 -0.12142306145E+03 -0.54200036289E+01  0.60855530992E+03  0.63305631432E+03  0.12509114907E+03 0.  0.
          5    1    4    4  502    0  0.34960910086E+01  0.96831989109E+01  0.29444661988E+03  0.29465619178E+03  0.41800000000E+01 0. -1.
         -5    1    4    4    0  502 -0.12491915246E+03 -0.15103202540E+02  0.31410869004E+03  0.33840012254E+03  0.41800000000E+01 0. -1.
        -11    1    3    3    0    0  0.74683724255E+02 -0.42370562644E+02  0.20911238793E+03  0.22605511282E+03  0.00000000000E+00 0.  1.
         11    1    3    3    0    0  0.46739337195E+02  0.47790566273E+02  0.12909743125E+03  0.14537761389E+03  0.00000000000E+00 0. -1.
</event>
<event>
 8    1  0.8061721E-006  0.1471731E+03  0.7561462E-02  0.1203990E+00
         -2   -1    0    0    0  501 -0.00000000000E+00  0.00000000000E+00  0.24734913785E+02  0.24734913785E+02  0.00000000000E+00 0.  1.
          2   -1    0    0  501    0  0.00000000000E+00 -0.00000000000E+00 -0.99082699161E+03  0.99082699161E+03  0.00000000000E+00 0. -1.
         23    2    1    2    0    0 -0.79900809747E+02 -0.63402665813E+02 -0.28361985379E+03  0.31427058028E+03  0.89004150107E+02 0.  0.
         23    2    1    2    0    0  0.79900809747E+02  0.63402665813E+02 -0.68247222404E+03  0.70129132512E+03  0.12504858523E+03 0.  0.
          5    1    4    4  502    0  0.10729310045E+03  0.22623164470E+02 -0.52231155740E+03  0.53371383004E+03  0.41800000000E+01 0.  1.
         -5    1    4    4    0  502 -0.27392290707E+02  0.40779501344E+02 -0.16016066664E+03  0.16757749508E+03  0.41800000000E+01 0.  1.
        -11    1    3    3    0    0 -0.54791155036E+02 -0.85708358854E+02 -0.20906898330E+03  0.23250340476E+03  0.00000000000E+00 0. -1.
         11    1    3    3    0    0 -0.25109654712E+02  0.22305693041E+02 -0.74550870486E+02  0.81767175517E+02  0.00000000000E+00 0.  1.
</event>
<event>
 8    1  0.8061721E-006  0.1990583E+03  0.7561462E-02  0.1150536E+00
         -1   -1    0    0    0  501 -0.00000000000E+00  0.00000000000E+00  0.77947124114E+02  0.77947124114E+02  0.00000000000E+00 0.  1.
          1   -1    0    0  501    0  0.00000000000E+00 -0.00000000000E+00 -0.55962945899E+03  0.55962945899E+03  0.00000000000E+00 0. -1.
         23    2    1    2    0    0 -0.13143632330E+03  0.11727929817E+03 -0.19005988573E+03  0.27464018650E+03  0.90964449170E+02 0.  0.
         23    2    1    2    0    0  0.13143632330E+03 -0.11727929817E+03 -0.29162244914E+03  0.36293639661E+03  0.12509689955E+03 0.  0.
          5    1    4    4  502    0 -0.22672601051E+02 -0.31853291194E+02 -0.44244572957E+02  0.59192344390E+02  0.41800000000E+01 0.  1.
         -5    1    4    4    0  502  0.15410892435E+03 -0.85426006972E+02 -0.24737787618E+03  0.30374405222E+03  0.41800000000E+01 0.  1.
        -11    1    3    3    0    0 -0.65036716296E+01  0.28618410391E+02  0.14639647185E+01  0.29384593764E+02  0.00000000000E+00 0.  1.
         11    1    3    3    0    0 -0.12493265167E+03  0.88660887774E+02 -0.19152385045E+03  0.24525559273E+03  0.00000000000E+00 0. -1.
</event>
<event>
 7    1  0.1439620E-005  0.9038517E+02  0.7561462E-02  0.1301922E+00
          3   -1    0    0  501    0  0.00000000000E+00  0.00000000000E+00  0.17449974364E+03  0.17449974364E+03  0.00000000000E+00 0. -1.
         -3   -1    0    0    0  501 -0.00000000000E+00 -0.00000000000E+00 -0.67902111022E+02  0.67902111022E+02  0.00000000000E+00 0.  1.
         23    2    1    2    0    0 -0.23081887271E+02  0.31734109468E+02  0.12461550110E+03  0.18087583131E+03  0.12508883250E+03 0.  0.
          5    1    3    3  502    0  0.47176858601E+02  0.33904841882E+02  0.73910539801E+02  0.94103318667E+02  0.41800000000E+01 0.  1.
         -5    1    3    3    0  502 -0.70258745872E+02 -0.21707324134E+01  0.50704961297E+02  0.86772512645E+02  0.41800000000E+01 0.  1.
        -11    1    1    2    0    0  0.19366083476E+02  0.77976511183E+00 -0.21105997327E+02  0.28655127743E+02  0.00000000000E+00 0.  1.
         11    1    1    2    0    0  0.37158037952E+01 -0.32513874580E+02  0.30881288438E+01  0.32870895604E+02  0.00000000000E+00 0. -1.
</event>
<event>
 8    1  0.8061721E-006  0.1809303E+03  0.7561462E-02  0.1166906E+00
         -1   -1    0    0    0  501 -0.00000000000E+00  0.00000000000E+00  0.19952273979E+02  0.19952273979E+02  0.00000000000E+00 0.  1.
          1   -1    0    0  501    0  0.00000000000E+00 -0.00000000000E+00 -0.17657971518E+04  0.17657971518E+04  0.00000000000E+00 0. -1.
         23    2    1    2    0    0 -0.86015412632E+02 -0.12644514442E+03 -0.82352636823E+03  0.84250807138E+03  0.90758720833E+02 0.  0.
         23    2    1    2    0    0  0.86015412632E+02  0.12644514442E+03 -0.92231850956E+03  0.94324135437E+03  0.12508314738E+03 0.  0.
          5    1    4    4  502    0 -0.31228913554E+02  0.27105102733E+02 -0.26114563450E+03  0.26443230978E+03  0.41800000000E+01 0. -1.
         -5    1    4    4    0  502  0.11724432619E+03  0.99340041691E+02 -0.66117287506E+03  0.67880904459E+03  0.41800000000E+01 0. -1.
        -11    1    3    3    0    0 -0.26524036738E+02  0.33563622725E+00 -0.52005526530E+02  0.58379893510E+02  0.00000000000E+00 0.  1.
         11    1    3    3    0    0 -0.59491375894E+02 -0.12678078065E+03 -0.77152084170E+03  0.78412817787E+03  0.00000000000E+00 0. -1.
</event>
<event>
 8    1  0.8061721E-006  0.1772661E+03  0.7561462E-02  0.1170475E+00
         -2   -1    0    0    0  501 -0.00000000000E+00  0.00000000000E+00  0.26338805666E+02  0.26338805666E+02  0.00000000000E+00 0.  1.
          2   -1    0    0  501    0  0.00000000000E+00 -0.00000000000E+00 -0.16083008743E+04  0.16083008743E+04  0.00000000000E+00 0. -1.
         23    2    1    2    0    0 -0.33663776188E+02  0.17021995288E+03 -0.81485323944E+03  0.83826568291E+03  0.92711763770E+02 0.  0.
         23    2    1    2    0    0  0.33663776188E+02 -0.17021995288E+03 -0.76710882917E+03  0.79637399702E+03  0.12508998826E+03 0.  0.
          5    1    4    4  502    0  0.25502757068E+02 -0.15057439050E+03 -0.75733801772E+03  0.77259393162E+03  0.41800000000E+01 0.  1.
         -5    1    4    4    0  502  0.81610191205E+01 -0.19645562380E+02 -0.97708114498E+01  0.23780065406E+02  0.41800000000E+01 0.  1.
        -11    1    3    3    0    0 -0.45847730966E+02  0.12169431892E+03 -0.71329190956E+03  0.72504956377E+03  0.00000000000E+00 0. -1.
         11    1    3    3    0    0  0.12183954778E+02  0.48525633962E+02 -0.10156132988E+03  0.11321611914E+03  0.00000000000E+00 0.  1.
</event>
<event>
 7    1  0.8061721E-006  0.6945701E+02  0.7561462E-02  0.1361949E+00
          2   -1    0    0  501    0  0.00000000000E+00  0.00000000000E+00  0.91791812579E+02  0.91791812579E+02  0.00000000000E+00 0. -1.
         -2   -1    0    0    0  501 -0.00000000000E+00 -0.00000000000E+00 -0.12262297549E+03  0.12262297549E+03  0.00000000000E+00 0.  1.
         23    2    1    2    0    0  0.57538154483E+02  0.17256833363E+02 -0.85694239617E+01  0.13903034394E+03  0.12509022340E+03 0.  0.
          5    1    3    3  502    0  0.40864548826E+02  0.27322499197E+02  0.54132139618E+02  0.73240639352E+02  0.41800000000E+01 0.  1.
         -5    1    3    3    0  502  0.16673605657E+02 -0.10065665834E+02 -0.62701563579E+02  0.65789704587E+02  0.41800000000E+01 0.  1.
        -11    1    1    2    0    0 -0.34522114809E+02 -0.27818844670E+02 -0.23208488615E+02  0.50042966273E+02  0.00000000000E+00 0.  1.
         11    1    1    2    0    0 -0.23016039674E+02  0.10562011307E+02  0.94674966487E+00  0.25341477859E+02  0.00000000000E+00 0. -1.
</event>
<event>
 8    1  0.1001824E-005  0.1575508E+03  0.7561462E-02  0.1191490E+00
         -1   -1    0    0    0  501 -0.00000000000E+00  0.00000000000E+00  0.40239287592E+02  0.40239287592E+02  0.00000000000E+00 0.  1.
          1   -1    0    0  501    0  0.00000000000E+00 -0.00000000000E+00 -0.79894258846E+03  0.79894258846E+03  0.00000000000E+00 0. -1.
         23    2    1    2    0    0  0.10516861042E+03 -0.91915739754E+02 -0.29286516474E+03  0.33702500519E+03  0.91142249109E+02 0.  0.
         23    2    1    2    0    0 -0.10516861042E+03  0.91915739754E+02 -0.46583813613E+03  0.50215687086E+03  0.12508962407E+03 0.  0.
          5    1    4    4  502    0 -0.26706980466E+02  0.56604527321E+02 -0.36127281553E+03  0.36667813537E+03  0.41800000000E+01 0. -1.
         -5    1    4    4    0  502 -0.78461629954E+02  0.35311212433E+02 -0.10456532060E+03  0.13547873549E+03  0.41800000000E+01 0. -1.
        -11    1    3    3    0    0  0.44868979444E+01 -0.60636284869E+02 -0.12055620057E+03  0.13502106795E+03  0.00000000000E+00 0.  1.
         11    1    3    3    0    0  0.10068171248E+03 -0.31279454885E+02 -0.17230896417E+03  0.20200393723E+03  0.00000000000E+00 0. -1.
</event>
<event>
 8    1  0.8061721E-006  0.1215899E+03  0.7561462E-02  0.1240497E+00
          2   -1    0    0  501    0  0.00000000000E+00  0.00000000000E+00  0.19288407787E+03  0.19288407787E+03  0.00000000000E+00 0. -1.
         -2   -1    0    0    0  501 -0.00000000000E+00 -0.00000000000E+00 -0.90538995024E+02  0.90538995024E+02  0.00000000000E+00 0.  1.
         23    2    1    2    0    0  0.10976782841E+02  0.69240457771E+02  0.40486819404E+02  0.12725577025E+03  0.98184101373E+02 0.  0.
         23    2    1    2    0    0 -0.10976782841E+02 -0.69240457771E+02  0.61858263447E+02  0.15616730265E+03  0.12508817253E+03 0.  0.
          5    1    4    4  502    0  0.24987093148E+02  0.24712700739E+02 -0.43560294270E+01  0.35658376213E+02  0.41800000000E+01 0. -1.
         -5    1    4    4    0  502 -0.35963875989E+02 -0.93953158510E+02  0.66214292874E+02  0.12050892644E+03  0.41800000000E+01 0. -1.
        -11    1    3    3    0    0  0.45408560439E+02  0.50447180334E+02  0.52963230361E+02  0.86092735670E+02  0.00000000000E+00 0.  1.
         11    1    3    3    0    0 -0.34431777598E+02  0.18793277437E+02 -0.12476410958E+02  0.41163034580E+02  0.00000000000E+00 0. -1.
</event>
<event>
 8    1  0.8061721E-006  0.9601580E+02  0.7561462E-02  0.1288904E+00
          1   -1    0    0  501    0  0.00000000000E+00  0.00000000000E+00  0.14138697694E+03  0.14138697694E+03  0.00000000000E+00 0. -1.
         -1   -1    0    0    0  501 -0.00000000000E+00 -0.00000000000E+00 -0.10511860733E+03  0.10511860733E+03  0.00000000000E+00 0.  1.
         23    2    1    2    0    0 -0.44194185976E+02  0.10107187100E+02 -0.16629305330E+02  0.10332405868E+03  0.91345749770E+02 0.  0.
         23    2    1    2    0    0  0.44194185976E+02 -0.10107187100E+02  0.52897674936E+02  0.14318152559E+03  0.12508998342E+03 0.  0.
          5    1    4    4  502    0  0.53818573294E+02  0.37490276834E+02 -0.68462201260E+01  0.66078005558E+02  0.41800000000E+01 0. -1.
         -5    1    4    4    0  502 -0.96243873180E+01 -0.47597463933E+02  0.59743895062E+02  0.77103520032E+02  0.41800000000E+01 0. -1.
        -11    1    3    3    0    0 -0.43062763072E+02  0.33245582081E+02 -0.42176876931E+02  0.68837193718E+02  0.00000000000E+00 0.  1.
         11    1    3    3    0    0 -0.11314229041E+01 -0.23138394982E+02  0.25547571601E+02  0.34486864961E+02  0.00000000000E+00 0. -1.
</event>
<event>
 8    1  0.8061721E-006  0.1333620E+03  0.7561462E-02  0.1222551E+00
          2   -1    0    0  501    0  0.00000000000E+00  0.00000000000E+00  0.18724993900E+03  0.18724993900E+03  0.00000000000E+00 0. -1.
         -2   -1    0    0    0  501 -0.00000000000E+00 -0.00000000000E+00 -0.12011884502E+03  0.12011884502E+03  0.00000000000E+00 0.  1.
         23    2    1    2    0    0  0.46096679497E+02 -0.92459712793E+02  0.23124750988E+02  0.13926701958E+03  0.90481192980E+02 0.  0.
         23    2    1    2    0    0 -0.46096679497E+02  0.92459712793E+02  0.44006342987E+02  0.16810176444E+03  0.12509173687E+03 0.  0.
          5    1    4    4  502    0 -0.78502845562E+01 -0.13995230318E+02  0.52044769044E+02  0.54622557832E+02  0.41800000000E+01 0. -1.
         -5    1    4    4    0  502 -0.38246394940E+02  0.10645494311E+03 -0.80384260565E+01  0.11347920661E+03  0.41800000000E+01 0. -1.
        -11    1    3    3    0    0  0.70924555966E+02 -0.46798139884E+02  0.19397011236E+02  0.87158491156E+02  0.00000000000E+00 0.  1.
         11    1    3    3    0    0 -0.24827876470E+02 -0.45661572909E+02  0.37277397519E+01  0.52108528421E+02  0.00000000000E+00 0. -1.
</event>
<event>
 8    1  0.8061721E-006  0.1862496E+03  0.7561462E-02  0.1161888E+00
         -2   -1    0    0    0  501 -0.00000000000E+00  0.00000000000E+00  0.27332694008E+03  0.27332694008E+03  0.00000000000E+00 0.  1.
          2   -1    0    0  501    0  0.00000000000E+00 -0.00000000000E+00 -0.14387186537E+03  0.14387186537E+03  0.00000000000E+00 0. -1.
         23    2    1    2    0    0 -0.93972487777E+02  0.12912692284E+03  0.16159829092E+02  0.18484590919E+03  0.91663948233E+02 0.  0.
         23    2    1    2    0    0  0.93972487777E+02 -0.12912692284E+03  0.11329524561E+03  0.23235289627E+03  0.12508982798E+03 0.  0.
          5    1    4    4  502    0  0.39767091596E+01 -0.10792760551E+03  0.78044105982E+02  0.13331367944E+03  0.41800000000E+01 0. -1.
         -5    1    4    4    0  502  0.89995778618E+02 -0.21199317327E+02  0.35251139629E+02  0.99039216825E+02  0.41800000000E+01 0. -1.
        -11    1    3    3    0    0 -0.20652076061E+02  0.82333826260E+02  0.41170356651E+02  0.94341748230E+02  0.00000000000E+00 0.  1.
         11    1    3    3    0    0 -0.73320411716E+02  0.46793096580E+02 -0.25010527559E+02  0.90504160957E+02  0.00000000000E+00 0. -1.
</event>
<event>
 8    1  0.8061721E-006  0.1045151E+03  0.7561462E-02  0.1271078E+00
         -4   -1    0    0    0  501 -0.00000000000E+00  0.00000000000E+00  0.13852243305E+03  0.13852243305E+03  0.00000000000E+00 0.  1.
          4   -1    0    0  501    0  0.00000000000E+00 -0.00000000000E+00 -0.85578487890E+02  0.85578487890E+02  0.00000000000E+00 0. -1.
         23    2    1    2    0    0 -0.39053028453E+01 -0.45294096461E+01  0.28112364000E+02  0.96427754522E+02  0.92044771120E+02 0.  0.
         23    2    1    2    0    0  0.39053028453E+01  0.45294096461E+01  0.24831581160E+02  0.12767316642E+03  0.12509221822E+03 0.  0.
          5    1    4    4  502    0 -0.45333376447E+02  0.37919360618E+02 -0.76853792968E+01  0.59745546986E+02  0.41800000000E+01 0.  1.
         -5    1    4    4    0  502  0.49238679292E+02 -0.33389950972E+02  0.32516960457E+02  0.67927619432E+02  0.41800000000E+01 0.  1.
        -11    1    3    3    0    0 -0.25439856981E+02 -0.40729061569E+02  0.25136008964E+02  0.54202045405E+02  0.00000000000E+00 0.  1.
         11    1    3    3    0    0  0.21534554136E+02  0.36199651922E+02  0.29763550361E+01  0.42225709117E+02  0.00000000000E+00 0. -1.
</event>
<event>
 8    1  0.8061721E-006  0.9706004E+02  0.7561462E-02  0.1286603E+00
          1   -1    0    0  501    0  0.00000000000E+00  0.00000000000E+00  0.10121535672E+04  0.10121535672E+04  0.00000000000E+00 0. -1.
         -1   -1    0    0    0  501 -0.00000000000E+00 -0.00000000000E+00 -0.14469480518E+02  0.14469480518E+02  0.00000000000E+00 0.  1.
         23    2    1    2    0    0  0.93811941325E+01  0.24957390743E+02  0.23589309036E+03  0.25416984685E+03  0.90806843439E+02 0.  0.
         23    2    1    2    0    0 -0.93811941325E+01 -0.24957390743E+02  0.76179099633E+03  0.77245320087E+03  0.12509015664E+03 0.  0.
          5    1    4    4  502    0 -0.47937528770E+02 -0.48822234276E+02  0.27028854374E+03  0.27884581134E+03  0.41800000000E+01 0. -1.
         -5    1    4    4    0  502  0.38556334638E+02  0.23864843533E+02  0.49150245259E+03  0.49360738953E+03  0.41800000000E+01 0. -1.
        -11    1    3    3    0    0  0.39304634819E+02 -0.25507013309E+01  0.18444180894E+03  0.18860048060E+03  0.00000000000E+00 0. -1.
         11    1    3    3    0    0 -0.29923440687E+02  0.27508092074E+02  0.51451281415E+02  0.65569366257E+02  0.00000000000E+00 0.  1.
</event>
<event>
 8    1  0.8061721E-006  0.1240563E+03  0.7561462E-02  0.1236551E+00
         -2   -1    0    0    0  501 -0.00000000000E+00  0.00000000000E+00  0.86517296062E+02  0.86517296062E+02  0.00000000000E+00 0.  1.
          2   -1    0    0  501    0  0.00000000000E+00 -0.00000000000E+00 -0.29303641875E+03  0.29303641875E+03  0.00000000000E+00 0. -1.
         23    2    1    2    0    0  0.87282834107E+02  0.43574207060E+02 -0.15752699772E+02  0.13144760257E+03  0.86679409445E+02 0.  0.
         23    2    1    2    0    0 -0.87282834107E+02 -0.43574207060E+02 -0.19076642292E+03  0.24810611224E+03  0.12509120739E+03 0.  0.
          5    1    4    4  502    0 -0.82081950716E+02 -0.60406262727E+02 -0.64794078852E+02  0.12083918348E+03  0.41800000000E+01 0.  1.
         -5    1    4    4    0  502 -0.52008833908E+01  0.16832055667E+02 -0.12597234406E+03  0.12726692876E+03  0.41800000000E+01 0.  1.
        -11    1    3    3    0    0  0.55973733283E+02  0.68160610935E+02 -0.22615213194E+02  0.91051499540E+02  0.00000000000E+00 0.  1.
         11    1    3    3    0    0  0.31309100824E+02 -0.24586403875E+02  0.68625134224E+01  0.40396103035E+02  0.00000000000E+00 0. -1.
</event>
<event>
 8    1  0.8061721E-006  0.1170590E+03  0.7561462E-02  0.1248029E+00
          2   -1    0    0  501    0  0.00000000000E+00  0.00000000000E+00  0.48698930324E+03  0.48698930324E+03  0.00000000000E+00 0.  1.
         -2   -1    0    0    0  501 -0.00000000000E+00 -0.00000000000E+00 -0.37619176545E+02  0.37619176545E+02  0.00000000000E+00 0. -1.
         23    2    1    2    0    0 -0.52475735119E+02 -0.51547912613E+02  0.14063907367E+03  0.18347311899E+03  0.92044262610E+02 0.  0.
         23    2    1    2    0    0  0.52475735119E+02  0.51547912613E+02  0.30873105303E+03  0.34113536079E+03  0.12509029222E+03 0.  0.
          5    1    4    4  502    0  0.35380314521E+02 -0.35635431231E+02  0.69028731405E+02  0.85463961844E+02  0.41800000000E+01 0. -1.
         -5    1    4    4    0  502  0.17095420599E+02  0.87183343843E+02  0.23970232162E+03  0.25567139895E+03  0.41800000000E+01 0. -1.
        -11    1    3    3    0    0 -0.30638973005E+02 -0.63053931943E+02  0.41845971772E+02  0.81643311752E+02  0.00000000000E+00 0.  1.
         11    1    3    3    0    0 -0.21836762114E+02  0.11506019330E+02  0.98793101893E+02  0.10182980724E+03  0.00000000000E+00 0. -1.
</event>
<event>
 8    1  0.8061721E-006  0.9851526E+02  0.7561462E-02  0.1283449E+00
          1   -1    0    0  501    0  0.00000000000E+00  0.00000000000E+00  0.47513344434E+03  0.47513344434E+03  0.00000000000E+00 0. -1.
         -1   -1    0    0    0  501 -0.00000000000E+00 -0.00000000000E+00 -0.28153769500E+02  0.28153769500E+02  0.00000000000E+00 0.  1.
         23    2    1    2    0    0  0.23559834590E+02 -0.20281890386E+02  0.14727536656E+03  0.17704108562E+03  0.93204568129E+02 0.  0.
         23    2    1    2    0    0 -0.23559834590E+02  0.20281890386E+02  0.29970430828E+03  0.32624612822E+03  0.12508973935E+03 0.  0.
          5    1    4    4  502    0 -0.60294974368E+02  0.70731263132E+01  0.68054908358E+02  0.91293241817E+02  0.41800000000E+01 0.  1.
         -5    1    4    4    0  502  0.36735139779E+02  0.13208764073E+02  0.23164939992E+03  0.23495288640E+03  0.41800000000E+01 0.  1.
        -11    1    3    3    0    0  0.48613740580E+02  0.17428183841E+02  0.63835381858E+02  0.82109642200E+02  0.00000000000E+00 0.  1.
         11    1    3    3    0    0 -0.25053905991E+02 -0.37710074227E+02  0.83439984700E+02  0.94931443422E+02  0.00000000000E+00 0. -1.
</event>
<event>
 8    1  0.8061721E-006  0.1101349E+03  0.7561462E-02  0.1260320E+00
          2   -1    0    0  501    0  0.00000000000E+00  0.00000000000E+00  0.19122989387E+04  0.19122989387E+04  0.00000000000E+00 0. -1.
         -2   -1    0    0    0  501 -0.00000000000E+00 -0.00000000000E+00 -0.10791504749E+02  0.10791504749E+02  0.00000000000E+00 0.  1.
         23    2    1    2    0    0  0.77477986447E+01 -0.64645347375E+02  0.39111727270E+03  0.40613131050E+03  0.87925372000E+02 0.  0.
         23    2    1    2    0    0 -0.77477986447E+01  0.64645347375E+02  0.15103901612E+04  0.15169591329E+04  0.12509005763E+03 0.  0.
          5    1    4    4  502    0  0.88424717227E+01 -0.35509387440E+02  0.28632148870E+03  0.28868074615E+03  0.41800000000E+01 0.  1.
         -5    1    4    4    0  502 -0.16590270367E+02  0.10015473482E+03  0.12240686725E+04  0.12282783868E+04  0.41800000000E+01 0.  1.
        -11    1    3    3    0    0 -0.10168256869E+01 -0.70999575044E+02  0.38857718457E+03  0.39501164788E+03  0.00000000000E+00 0. -1.
         11    1    3    3    0    0  0.87646243315E+01  0.63542276695E+01  0.25400881227E+01  0.11119662613E+02  0.00000000000E+00 0.  1.
</event>
<event>
 8    1  0.8061721E-006  0.1358931E+03  0.7561462E-02  0.1218964E+00
          2   -1    0    0  501    0  0.00000000000E+00  0.00000000000E+00  0.64429388278E+03  0.64429388278E+03  0.00000000000E+00 0. -1.
         -2   -1    0    0    0  501 -0.00000000000E+00 -0.00000000000E+00 -0.49394871354E+02  0.49394871354E+02  0.00000000000E+00 0.  1.
         23    2    1    2    0    0 -0.11252911525E+03 -0.32425377931E+02  0.12671284826E+03  0.19513255586E+03  0.91139242529E+02 0.  0.
         23    2    1    2    0    0  0.11252911525E+03  0.32425377931E+02  0.46818616316E+03  0.49855619827E+03  0.12508314252E+03 0.  0.
          5    1    4    4  502    0  0.11406347985E+03  0.56797719349E+02  0.26729242690E+03  0.29614046032E+03  0.41800000000E+01 0.  1.
         -5    1    4    4    0  502 -0.15343646009E+01 -0.24372341418E+02  0.20089373626E+03  0.20241573795E+03  0.41800000000E+01 0.  1.
        -11    1    3    3    0    0 -0.88289257294E+02 -0.14733827995E+02  0.13679253841E+03  0.16347561655E+03  0.00000000000E+00 0. -1.
         11    1    3    3    0    0 -0.24239857960E+02 -0.17691549936E+02 -0.10079690151E+02  0.31656939312E+02  0.00000000000E+00 0.  1.
</event>
<event>
 8    1  0.8061721E-006  0.9238358E+02  0.7561462E-02  0.1297180E+00
         -2   -1    0    0    0  501 -0.00000000000E+00  0.00000000000E+00  0.14517032868E+03  0.14517032868E+03  0.00000000000E+00 0.  1.
          2   -1    0    0  501    0  0.00000000000E+00 -0.00000000000E+00 -0.15319694649E+03  0.15319694649E+03  0.00000000000E+00 0. -1.
         23    2    1    2    0    0  0.42568922592E+02 -0.17804621819E+02  0.85455888594E+02  0.13333523832E+03  0.91358957709E+02 0.  0.
         23    2    1    2    0    0 -0.42568922592E+02  0.17804621819E+02 -0.93482506407E+02  0.16503203685E+03  0.12793543862E+03 0.  0.
          5    1    4    4  502    0  0.18763220285E+02 -0.11935672892E+02 -0.94055690075E+02  0.96739154215E+02  0.41800000000E+01 0. -1.
         -5    1    4    4    0  502 -0.61332142877E+02  0.29740294710E+02  0.57318366806E+00  0.68292882637E+02  0.41800000000E+01 0.  1.
        -11    1    3    3    0    0  0.66838106776E+02 -0.67402093475E+01  0.33803239603E+02  0.75202539499E+02  0.00000000000E+00 0.  1.
         11    1    3    3    0    0 -0.24269184185E+02 -0.11064412471E+02  0.51652648991E+02  0.58132698820E+02  0.00000000000E+00 0. -1.
</event>
<event>
 8    1  0.8061721E-006  0.9588799E+02  0.7561462E-02  0.1289189E+00
         -2   -1    0    0    0  501 -0.00000000000E+00  0.00000000000E+00  0.58302141637E+02  0.58302141637E+02  0.00000000000E+00 0.  1.
          2   -1    0    0  501    0  0.00000000000E+00 -0.00000000000E+00 -0.37481397421E+03  0.37481397421E+03  0.00000000000E+00 0. -1.
         23    2    1    2    0    0 -0.93682330412E+01 -0.52276605522E+02 -0.19593993187E+02  0.10657649698E+03  0.90299600575E+02 0.  0.
         23    2    1    2    0    0  0.93682330412E+01  0.52276605522E+02 -0.29691783938E+03  0.32653961886E+03  0.12508921644E+03 0.  0.
          5    1    4    4  502    0 -0.38537819786E+02 -0.22279720762E+02 -0.13055462792E+03  0.13799830717E+03  0.41800000000E+01 0.  1.
         -5    1    4    4    0  502  0.47906052827E+02  0.74556326285E+02 -0.16636321146E+03  0.18854131169E+03  0.41800000000E+01 0.  1.
        -11    1    3    3    0    0  0.82706107979E+01 -0.16286277873E+02  0.34627288694E+02  0.39149648431E+02  0.00000000000E+00 0.  1.
         11    1    3    3    0    0 -0.17638843839E+02 -0.35990327649E+02 -0.54221281882E+02  0.67426848548E+02  0.00000000000E+00 0. -1.
</event>
<event>
 8    1  0.8061721E-006  0.1152192E+03  0.7561462E-02  0.1251199E+00
          3   -1    0    0  501    0  0.00000000000E+00  0.00000000000E+00  0.46138275587E+03  0.46138275587E+03  0.00000000000E+00 0. -1.
         -3   -1    0    0    0  501 -0.00000000000E+00 -0.00000000000E+00 -0.50017071481E+02  0.50017071481E+02  0.00000000000E+00 0.  1.
         23    2    1    2    0    0 -0.82233408581E+02 -0.30231456743E+02  0.99514750990E+02  0.16416056653E+03  0.96794790535E+02 0.  0.
         23    2    1    2    0    0  0.82233408581E+02  0.30231456743E+02  0.31185093340E+03  0.34723926083E+03  0.12509126721E+03 0.  0.
          5    1    4    4  502    0  0.71115644437E+02 -0.20564866896E+01  0.30361037344E+03  0.31186278278E+03  0.41800000000E+01 0. -1.
         -5    1    4    4    0  502  0.11117764144E+02  0.32287943433E+02  0.82405599622E+01  0.35376478050E+02  0.41800000000E+01 0. -1.
        -11    1    3    3    0    0 -0.37636476799E+02 -0.60228076039E+02  0.80011462219E+02  0.10698485694E+03  0.00000000000E+00 0. -1.
         11    1    3    3    0    0 -0.44596931782E+02  0.29996619295E+02  0.19503288772E+02  0.57175709584E+02  0.00000000000E+00 0.  1.
</event>
<event>
 8    1  0.8061721E-006  0.1051533E+03  0.7561462E-02  0.1269818E+00
          1   -1    0    0  501    0  0.00000000000E+00  0.00000000000E+00  0.92506837453E+03  0.92506837453E+03  0.00000000000E+00 0. -1.
         -1   -1    0    0    0  501 -0.00000000000E+00 -0.00000000000E+00 -0.13726778234E+02  0.13726778234E+02  0.00000000000E+00 0.  1.
         23    2    1    2    0    0  0.13941045506E+02 -0.11559716444E+02  0.26123378700E+03  0.27651395508E+03  0.88819457832E+02 0.  0.
         23    2    1    2    0    0 -0.13941045506E+02  0.11559716444E+02  0.65010780929E+03  0.66228119768E+03  0.12509293067E+03 0.  0.
          5    1    4    4  502    0 -0.34525720340E+02 -0.48243568456E+02  0.39305859830E+03  0.39753239032E+03  0.41800000000E+01 0.  1.
         -5    1    4    4    0  502  0.20584674835E+02  0.59803284899E+02  0.25704921099E+03  0.26474880735E+03  0.41800000000E+01 0.  1.
        -11    1    3    3    0    0 -0.18142782810E+02 -0.40413876043E+02  0.16860810919E+03  0.17433053786E+03  0.00000000000E+00 0. -1.
         11    1    3    3    0    0  0.32083828316E+02  0.28854159599E+02  0.92625677811E+02  0.10218341722E+03  0.00000000000E+00 0.  1.
</event>
<event>
 8    1  0.8061721E-006  0.1669386E+03  0.7561462E-02  0.1181079E+00
         -2   -1    0    0    0  501 -0.00000000000E+00  0.00000000000E+00  0.12025957416E+03  0.12025957416E+03  0.00000000000E+00 0.  1.
          2   -1    0    0  501    0  0.00000000000E+00 -0.00000000000E+00 -0.29011707106E+03  0.29011707106E+03  0.00000000000E+00 0. -1.
         23    2    1    2    0    0 -0.92843283006E+02  0.11316654032E+03 -0.82176471752E+02  0.19879850639E+03  0.10649569280E+03 0.  0.
         23    2    1    2    0    0  0.92843283006E+02 -0.11316654032E+03 -0.87681025148E+02  0.21157813884E+03  0.12510317988E+03 0.  0.
          5    1    4    4  502    0  0.70125849771E+02 -0.46101729165E+02  0.16412995577E+02  0.85614619440E+02  0.41800000000E+01 0. -1.
         -5    1    4    4    0  502  0.22717433236E+02 -0.67064811153E+02 -0.10409402073E+03  0.12596351940E+03  0.41800000000E+01 0. -1.
        -11    1    3    3    0    0 -0.99749956032E+02  0.12816446598E+03 -0.64883932683E+02  0.17488884696E+03  0.00000000000E+00 0.  1.
         11    1    3    3    0    0  0.69066730258E+01 -0.14997925667E+02 -0.17292539069E+02  0.23909659429E+02  0.00000000000E+00 0. -1.
</event>
<event>
 8    1  0.8061721E-006  0.9960515E+02  0.7561462E-02  0.1281128E+00
          1   -1    0    0  501    0  0.00000000000E+00  0.00000000000E+00  0.17441890245E+03  0.17441890245E+03  0.00000000000E+00 0. -1.
         -1   -1    0    0    0  501 -0.00000000000E+00 -0.00000000000E+00 -0.10439791689E+03  0.10439791689E+03  0.00000000000E+00 0.  1.
         23    2    1    2    0    0 -0.34022979432E+02  0.62903638193E+02  0.69172202181E+02  0.13471849235E+03  0.90828672778E+02 0.  0.
         23    2    1    2    0    0  0.34022979432E+02 -0.62903638193E+02  0.84878337227E+00  0.14409832699E+03  0.12509666894E+03 0.  0.
          5    1    4    4  502    0  0.74123139463E+01 -0.88613983068E+02  0.32960268980E+02  0.94927509840E+02  0.41800000000E+01 0.  1.
         -5    1    4    4    0  502  0.26610665486E+02  0.25710344875E+02 -0.32111485608E+02  0.49170817149E+02  0.41800000000E+01 0.  1.
        -11    1    3    3    0    0 -0.12872931313E+02  0.11104575378E+02  0.76431079790E+02  0.78299003268E+02  0.00000000000E+00 0. -1.
         11    1    3    3    0    0 -0.21150048119E+02  0.51799062815E+02 -0.72588776091E+01  0.56419489080E+02  0.00000000000E+00 0.  1.
</event>
<event>
 8    1  0.8061721E-006  0.1058825E+03  0.7561462E-02  0.1268391E+00
          2   -1    0    0  501    0  0.00000000000E+00  0.00000000000E+00  0.10708046198E+04  0.10708046198E+04  0.00000000000E+00 0. -1.
         -2   -1    0    0    0  501 -0.00000000000E+00 -0.00000000000E+00 -0.21605738165E+02  0.21605738165E+02  0.00000000000E+00 0.  1.
         23    2    1    2    0    0  0.45556132814E+02 -0.86065555322E+02  0.35045507091E+03  0.37591269042E+03  0.94915504752E+02 0.  0.
         23    2    1    2    0    0 -0.45556132814E+02  0.86065555322E+02  0.69874381072E+03  0.71649766754E+03  0.12507339253E+03 0.  0.
          5    1    4    4  502    0 -0.13896661133E+02  0.48832405294E+02  0.62995225917E+03  0.63200873588E+03  0.41800000000E+01 0.  1.
         -5    1    4    4    0  502 -0.31659471681E+02  0.37233150029E+02  0.68791551555E+02  0.84488931663E+02  0.41800000000E+01 0.  1.
        -11    1    3    3    0    0  0.75876804625E+01  0.75767590107E+01 -0.46616434310E+00  0.10733008949E+02  0.00000000000E+00 0.  1.
         11    1    3    3    0    0  0.37968452352E+02 -0.93642314333E+02  0.35092123526E+03  0.36517968147E+03  0.00000000000E+00 0. -1.
</event>
<event>
 8    1  0.8061721E-006  0.2322955E+03  0.7561462E-02  0.1125034E+00
         -2   -1    0    0    0  501 -0.00000000000E+00  0.00000000000E+00  0.16812855087E+03  0.16812855087E+03  0.00000000000E+00 0.  1.
          2   -1    0    0  501    0  0.00000000000E+00 -0.00000000000E+00 -0.34835712798E+03  0.34835712798E+03  0.00000000000E+00 0. -1.
         23    2    1    2    0    0 -0.19241368472E+03 -0.76743413414E+02 -0.24672242317E+02  0.22881014020E+03  0.93982887535E+02 0.  0.
         23    2    1    2    0    0  0.19241368472E+03  0.76743413414E+02 -0.15555633479E+03  0.28767553865E+03  0.12508742813E+03 0.  0.
          5    1    4    4  502    0  0.16343238572E+03  0.44587315087E+01 -0.11346150430E+03  0.19905027090E+03  0.41800000000E+01 0.  1.
         -5    1    4    4    0  502  0.28981298999E+02  0.72284681905E+02 -0.42094830486E+02  0.88625267748E+02  0.41800000000E+01 0.  1.
        -11    1    3    3    0    0 -0.42410544740E+02 -0.58048160056E+02  0.12920045394E+02  0.73042253279E+02  0.00000000000E+00 0.  1.
         11    1    3    3    0    0 -0.15000313998E+03 -0.18695253358E+02 -0.37592287712E+02  0.15576788692E+03  0.00000000000E+00 0. -1.
</event>
<event>
 8    1  0.8061721E-006  0.1282334E+03  0.7561462E-02  0.1230101E+00
          2   -1    0    0  501    0  0.00000000000E+00  0.00000000000E+00  0.22116386093E+03  0.22116386093E+03  0.00000000000E+00 0.  1.
         -2   -1    0    0    0  501 -0.00000000000E+00 -0.00000000000E+00 -0.10562455615E+03  0.10562455615E+03  0.00000000000E+00 0. -1.
         23    2    1    2    0    0  0.43965409216E+02 -0.79195829326E+02  0.29645199316E+02  0.15006666773E+03  0.11591475458E+03 0.  0.
         23    2    1    2    0    0 -0.43965409216E+02  0.79195829326E+02  0.85894105458E+02  0.17672174935E+03  0.12509133763E+03 0.  0.
          5    1    4    4  502    0 -0.73345808441E+02  0.83722469521E+02  0.33459046880E+02  0.11630150359E+03  0.41800000000E+01 0. -1.
         -5    1    4    4    0  502  0.29380399225E+02 -0.45266401950E+01  0.52435058578E+02  0.60420245764E+02  0.41800000000E+01 0. -1.
        -11    1    3    3    0    0 -0.78589462651E+01 -0.58874297959E+02 -0.31620186191E+02  0.67288796774E+02  0.00000000000E+00 0. -1.
         11    1    3    3    0    0  0.51824355481E+02 -0.20321531367E+02  0.61265385507E+02  0.82777870953E+02  0.00000000000E+00 0.  1.
</event>
<event>
 8    1  0.8061721E-006  0.9162238E+02  0.7561462E-02  0.1298970E+00
          3   -1    0    0  501    0  0.00000000000E+00  0.00000000000E+00  0.55910944785E+03  0.55910944785E+03  0.00000000000E+00 0. -1.
         -3   -1    0    0    0  501 -0.00000000000E+00 -0.00000000000E+00 -0.28652802275E+02  0.28652802275E+02  0.00000000000E+00 0.  1.
         23    2    1    2    0    0  0.10375074548E+01  0.25141207623E+02  0.84186473207E+02  0.12361202959E+03  0.86944895455E+02 0.  0.
         23    2    1    2    0    0 -0.10375074548E+01 -0.25141207623E+02  0.44627017237E+03  0.46415022054E+03  0.12508078883E+03 0.  0.
          5    1    4    4  502    0  0.90276440331E+01  0.36834981220E+02  0.32772434562E+03  0.32993792342E+03  0.41800000000E+01 0. -1.
         -5    1    4    4    0  502 -0.10065151488E+02 -0.61976188843E+02  0.11854582675E+03  0.13421229712E+03  0.41800000000E+01 0. -1.
        -11    1    3    3    0    0 -0.25679628113E+02 -0.18041259427E+02  0.85790472836E+01  0.32535064070E+02  0.00000000000E+00 0.  1.
         11    1    3    3    0    0  0.26717135568E+02  0.43182467050E+02  0.75607425923E+02  0.91076965519E+02  0.00000000000E+00 0. -1.
</event>
<event>
 8    1  0.8061721E-006  0.1259457E+03  0.7561462E-02  0.1233599E+00
         -2   -1    0    0    0  501 -0.00000000000E+00  0.00000000000E+00  0.47894050831E+02  0.47894050831E+02  0.00000000000E+00 0.  1.
          2   -1    0    0  501    0  0.00000000000E+00 -0.00000000000E+00 -0.49116005088E+03  0.49116005088E+03  0.00000000000E+00 0. -1.
         23    2    1    2    0    0  0.48595064493E+01 -0.10933259648E+03 -0.15792443848E+03  0.21230845262E+03  0.90318986548E+02 0.  0.
         23    2    1    2    0    0 -0.48595064493E+01  0.10933259648E+03 -0.28534156157E+03  0.32674564909E+03  0.11561003842E+03 0.  0.
          5    1    4    4  502    0  0.10109276414E+01  0.21043546655E+02 -0.20813201377E+03  0.20923733029E+03  0.41800000000E+01 0. -1.
         -5    1    4    4    0  502 -0.58704340907E+01  0.88289049822E+02 -0.77209547794E+02  0.11750831879E+03  0.41800000000E+01 0.  1.
        -11    1    3    3    0    0  0.25246870173E+02 -0.11726656287E+03 -0.13116235870E+03  0.17774255416E+03  0.00000000000E+00 0.  1.
         11    1    3    3    0    0 -0.20387363724E+02  0.79339663916E+01 -0.26762079776E+02  0.34565898458E+02  0.00000000000E+00 0. -1.
</event>
<event>
 8    1  0.8061721E-006  0.1193913E+03  0.7561462E-02  0.1244105E+00
         -3   -1    0    0    0  501 -0.00000000000E+00  0.00000000000E+00  0.24070397134E+03  0.24070397134E+03  0.00000000000E+00 0.  1.
          3   -1    0    0  501    0  0.00000000000E+00 -0.00000000000E+00 -0.76891154460E+02  0.76891154460E+02  0.00000000000E+00 0. -1.
         23    2    1    2    0    0  0.80892668989E+02  0.42594530836E+01  0.76722833736E+02  0.14498533973E+03  0.92588275094E+02 0.  0.
         23    2    1    2    0    0 -0.80892668989E+02 -0.42594530836E+01  0.87089983140E+02  0.17260978606E+03  0.12509079200E+03 0.  0.
          5    1    4    4  502    0  0.29670772163E+02 -0.18545419635E+02  0.34350297975E+02  0.49210798420E+02  0.41800000000E+01 0. -1.
         -5    1    4    4    0  502 -0.11056344115E+03  0.14285966551E+02  0.52739685165E+02  0.12339898764E+03  0.41800000000E+01 0. -1.
        -11    1    3    3    0    0  0.42506633875E+02  0.24004756857E+02 -0.84085144461E+01  0.49535294391E+02  0.00000000000E+00 0. -1.
         11    1    3    3    0    0  0.38386035113E+02 -0.19745303774E+02  0.85131348182E+02  0.95450045344E+02  0.00000000000E+00 0.  1.
</event>
<event>
 8    1  0.8061721E-006  0.1194441E+03  0.7561462E-02  0.1244017E+00
         -2   -1    0    0    0  501 -0.00000000000E+00  0.00000000000E+00  0.21353083723E+02  0.21353083723E+02  0.00000000000E+00 0.  1.
          2   -1    0    0  501    0  0.00000000000E+00 -0.00000000000E+00 -0.11602884093E+04  0.11602884093E+04  0.00000000000E+00 0. -1.
         23    2    1    2    0    0  0.39335747479E+02  0.10623358331E+03 -0.55404419008E+03  0.57289132366E+03  0.91687670448E+02 0.  0.
         23    2    1    2    0    0 -0.39335747479E+02 -0.10623358331E+03 -0.58489113551E+03  0.60875016938E+03  0.12508498336E+03 0.  0.
          5    1    4    4  502    0 -0.15748517398E+02 -0.49850474112E+02 -0.50675661513E+03  0.50946327144E+03  0.41800000000E+01 0.  1.
         -5    1    4    4    0  502 -0.23587230081E+02 -0.56383109202E+02 -0.78134520383E+02  0.99286897936E+02  0.41800000000E+01 0.  1.
        -11    1    3    3    0    0  0.10506977059E+02  0.92771514240E+02 -0.51046651224E+03  0.51893449542E+03  0.00000000000E+00 0. -1.
         11    1    3    3    0    0  0.28828770421E+02  0.13462069075E+02 -0.43577677841E+02  0.53956828241E+02  0.00000000000E+00 0.  1.
</event>
<event>
 8    1  0.8061721E-006  0.1028453E+03  0.7561462E-02  0.1274424E+00
          1   -1    0    0  501    0  0.00000000000E+00  0.00000000000E+00  0.47353565674E+02  0.47353565674E+02  0.00000000000E+00 0. -1.
         -1   -1    0    0    0  501 -0.00000000000E+00 -0.00000000000E+00 -0.28829953274E+03  0.28829953274E+03  0.00000000000E+00 0.  1.
         23    2    1    2    0    0 -0.15929169509E+02 -0.27499171009E+02 -0.14809565444E+03  0.17666190761E+03  0.90923945621E+02 0.  0.
         23    2    1    2    0    0  0.15929169509E+02  0.27499171009E+02 -0.92850312618E+02  0.15899119080E+03  0.12508827024E+03 0.  0.
          5    1    4    4  502    0 -0.26138177784E+02  0.53539655406E+02 -0.74261811533E+01  0.60185709312E+02  0.41800000000E+01 0.  1.
         -5    1    4    4    0  502  0.42067347292E+02 -0.26040484397E+02 -0.85424131465E+02  0.98805481490E+02  0.41800000000E+01 0.  1.
        -11    1    3    3    0    0  0.12009321687E+01 -0.59767858326E+02 -0.92714445427E+02  0.11031594408E+03  0.00000000000E+00 0. -1.
         11    1    3    3    0    0 -0.17130101677E+02  0.32268687317E+02 -0.55381209017E+02  0.66345963531E+02  0.00000000000E+00 0.  1.
</event>
<event>
 8    1  0.8061721E-006  0.2422511E+03  0.7561462E-02  0.1118302E+00
         -2   -1    0    0    0  501 -0.00000000000E+00  0.00000000000E+00  0.76829169996E+02  0.76829169996E+02  0.00000000000E+00 0.  1.
          2   -1    0    0  501    0  0.00000000000E+00 -0.00000000000E+00 -0.11007445913E+04  0.11007445913E+04  0.00000000000E+00 0. -1.
         23    2    1    2    0    0  0.16333185346E+03 -0.14904229075E+03 -0.18867146585E+03  0.30454804324E+03  0.90893838246E+02 0.  0.
         23    2    1    2    0    0 -0.16333185346E+03  0.14904229075E+03 -0.83524395548E+03  0.87302571807E+03  0.12510212018E+03 0.  0.
          5    1    4    4  502    0 -0.10206600736E+03  0.15420802066E+03 -0.70618872373E+03  0.73001203375E+03  0.41800000000E+01 0.  1.
         -5    1    4    4    0  502 -0.61265846094E+02 -0.51657299126E+01 -0.12905523175E+03  0.14301368433E+03  0.41800000000E+01 0.  1.
        -11    1    3    3    0    0  0.68769526204E+02 -0.12116087710E+03 -0.95552927374E+02  0.16893657923E+03  0.00000000000E+00 0.  1.
         11    1    3    3    0    0  0.94562327252E+02 -0.27881413652E+02 -0.93118538472E+02  0.13561146401E+03  0.00000000000E+00 0. -1.
</event>
<event>
 8    1  0.8061721E-006  0.1465611E+03  0.7561462E-02  0.1204764E+00
         -2   -1    0    0    0  501 -0.00000000000E+00  0.00000000000E+00  0.22181827669E+02  0.22181827669E+02  0.00000000000E+00 0.  1.
          2   -1    0    0  501    0  0.00000000000E+00 -0.00000000000E+00 -0.10750192186E+04  0.10750192186E+04  0.00000000000E+00 0. -1.
         23    2    1    2    0    0 -0.79906694985E+02 -0.60826302485E+02 -0.32973021141E+03  0.35651351490E+03  0.91076643635E+02 0.  0.
         23    2    1    2    0    0  0.79906694985E+02  0.60826302485E+02 -0.72310717953E+03  0.74068753137E+03  0.12509639110E+03 0.  0.
          5    1    4    4  502    0  0.81680604118E+02 -0.13807011066E+02 -0.44726576239E+03  0.45489173355E+03  0.41800000000E+01 0. -1.
         -5    1    4    4    0  502 -0.17739091328E+01  0.74633313551E+02 -0.27584141713E+03  0.28579579782E+03  0.41800000000E+01 0. -1.
        -11    1    3    3    0    0 -0.16017567712E+02  0.24218891977E+02 -0.78186637579E+02  0.83404241499E+02  0.00000000000E+00 0. -1.
         11    1    3    3    0    0 -0.63889127273E+02 -0.85045194462E+02 -0.25154357383E+03  0.27310927340E+03  0.00000000000E+00 0.  1.
</event>
<event>
 8    1  0.8061721E-006  0.9384742E+02  0.7561462E-02  0.1293793E+00
          2   -1    0    0  501    0  0.00000000000E+00  0.00000000000E+00  0.46569954776E+03  0.46569954776E+03  0.00000000000E+00 0. -1.
         -2   -1    0    0    0  501 -0.00000000000E+00 -0.00000000000E+00 -0.36862635411E+02  0.36862635411E+02  0.00000000000E+00 0.  1.
         23    2    1    2    0    0 -0.24757302074E+02  0.41178522472E+02  0.83608676928E+02  0.13223835038E+03  0.90487434125E+02 0.  0.
         23    2    1    2    0    0  0.24757302074E+02 -0.41178522472E+02  0.34522823542E+03  0.37032383279E+03  0.12509441187E+03 0.  0.
          5    1    4    4  502    0 -0.10816239747E+02  0.14860364454E+02  0.10379133294E+00  0.18849526429E+02  0.41800000000E+01 0. -1.
         -5    1    4    4    0  502  0.35573541822E+02 -0.56038886925E+02  0.34512444409E+03  0.35147430636E+03  0.41800000000E+01 0. -1.
        -11    1    3    3    0    0 -0.13349463113E+02 -0.28637317382E+02  0.28745032541E+02  0.42715114515E+02  0.00000000000E+00 0. -1.
         11    1    3    3    0    0 -0.11407838961E+02  0.69815839853E+02  0.54863644387E+02  0.89523235864E+02  0.00000000000E+00 0.  1.
</event>
<event>
 8    1  0.8061721E-006  0.1022181E+03  0.7561462E-02  0.1275700E+00
         -2   -1    0    0    0  501 -0.00000000000E+00  0.00000000000E+00  0.27591362267E+02  0.27591362267E+02  0.00000000000E+00 0.  1.
          2   -1    0    0  501    0  0.00000000000E+00 -0.00000000000E+00 -0.62877204285E+03  0.62877204285E+03  0.00000000000E+00 0. -1.
         23    2    1    2    0    0  0.57287560803E+02  0.36391158896E+02 -0.18277560778E+03  0.21837799485E+03  0.98365871953E+02 0.  0.
         23    2    1    2    0    0 -0.57287560803E+02 -0.36391158896E+02 -0.41840507280E+03  0.43798541027E+03  0.11028251718E+03 0.  0.
          5    1    4    4  502    0  0.14196979239E+01 -0.24928332192E+02 -0.33113391788E+03  0.33210025785E+03  0.41800000000E+01 0. -1.
         -5    1    4    4    0  502 -0.58707258727E+02 -0.11462826704E+02 -0.87271154918E+02  0.10588515242E+03  0.41800000000E+01 0.  1.
        -11    1    3    3    0    0  0.41612732942E+01 -0.32161433345E+02 -0.42555594297E+02  0.53503762449E+02  0.00000000000E+00 0. -1.
         11    1    3    3    0    0  0.53126287509E+02  0.68552592241E+02 -0.14022001348E+03  0.16487423240E+03  0.00000000000E+00 0.  1.
</event>
<event>
 8    1  0.8061721E-006  0.1862077E+03  0.7561462E-02  0.1161927E+00
          2   -1    0    0  501    0  0.00000000000E+00  0.00000000000E+00  0.39566459496E+03  0.39566459496E+03  0.00000000000E+00 0. -1.
         -2   -1    0    0    0  501 -0.00000000000E+00 -0.00000000000E+00 -0.10841487981E+03  0.10841487981E+03  0.00000000000E+00 0.  1.
         23    2    1    2    0    0  0.10625262562E+03  0.13244885725E+03  0.87736834712E+02  0.21376044087E+03  0.95725930005E+02 0.  0.
         23    2    1    2    0    0 -0.10625262562E+03 -0.13244885725E+03  0.19951288044E+03  0.29031903391E+03  0.12508969482E+03 0.  0.
          5    1    4    4  502    0 -0.12247201942E+03 -0.11036815543E+03  0.20391380515E+03  0.26225719744E+03  0.41800000000E+01 0. -1.
         -5    1    4    4    0  502  0.16219393803E+02 -0.22080701817E+02 -0.44009247083E+01  0.28061836475E+02  0.41800000000E+01 0. -1.
        -11    1    3    3    0    0 -0.73132286960E+01  0.13319835577E+02  0.39390012017E+02  0.42219360257E+02  0.00000000000E+00 0. -1.
         11    1    3    3    0    0  0.11356585432E+03  0.11912902167E+03  0.48346822695E+02  0.17154108061E+03  0.00000000000E+00 0.  1.
</event>
<event>
 7    1  0.8061721E-006  0.1244354E+03  0.7561462E-02  0.1235954E+00
         -2   -1    0    0    0  501 -0.00000000000E+00  0.00000000000E+00  0.20206715671E+02  0.20206715671E+02  0.00000000000E+00 0.  1.
          2   -1    0    0  501    0  0.00000000000E+00 -0.00000000000E+00 -0.12736912158E+04  0.12736912158E+04  0.00000000000E+00 0. -1.
         23    2    1    2    0    0  0.41125278229E+02 -0.25175335502E+02 -0.18580091948E+03  0.21232855433E+03  0.90754323733E+02 0.  0.
          5    1    1    2  502    0 -0.12078277589E+02 -0.57396504415E+02 -0.74122656789E+03  0.74355533813E+03  0.41800000000E+01 0. -1.
         -5    1    1    2    0  502 -0.29047000639E+02  0.82571839917E+02 -0.32645701276E+03  0.33801403902E+03  0.41800000000E+01 0.  1.
        -11    1    3    3    0    0 -0.66281047618E+01 -0.48737978004E+02 -0.80718550353E+02  0.94524106152E+02  0.00000000000E+00 0. -1.
         11    1    3    3    0    0  0.47753382991E+02  0.23562642502E+02 -0.10508236913E+03  0.11780444818E+03  0.00000000000E+00 0.  1.
</event>
<event>
 8    1  0.8061721E-006  0.1758920E+03  0.7561462E-02  0.1171839E+00
          1   -1    0    0  501    0  0.00000000000E+00  0.00000000000E+00  0.14446085781E+04  0.14446085781E+04  0.00000000000E+00 0. -1.
         -1   -1    0    0    0  501 -0.00000000000E+00 -0.00000000000E+00 -0.36598786661E+02  0.36598786661E+02  0.00000000000E+00 0.  1.
         23    2    1    2    0    0  0.15308306760E+03  0.95658817469E+00  0.25667534904E+03  0.31302396551E+03  0.93093649259E+02 0.  0.
         23    2    1    2    0    0 -0.15308306760E+03 -0.95658817469E+00  0.11513344424E+04  0.11681833993E+04  0.12508443304E+03 0.  0.
          5    1    4    4  502    0 -0.62707477481E+01  0.32990255771E+02  0.89167639065E+02  0.95373054421E+02  0.41800000000E+01 0.  1.
         -5    1    4    4    0  502 -0.14681231985E+03 -0.33946843945E+02  0.10621668034E+04  0.10728103449E+04  0.41800000000E+01 0.  1.
        -11    1    3    3    0    0  0.86605951217E+02 -0.32842469587E+02  0.19636169420E+03  0.21711087846E+03  0.00000000000E+00 0. -1.
         11    1    3    3    0    0  0.66477116380E+02  0.33799057761E+02  0.60313654836E+02  0.95913087049E+02  0.00000000000E+00 0.  1.
</event>
<event>
 8    1  0.8061721E-006  0.2641789E+03  0.7561462E-02  0.1104658E+00
         -2   -1    0    0    0  501 -0.00000000000E+00  0.00000000000E+00  0.31856561011E+02  0.31856561011E+02  0.00000000000E+00 0.  1.
          2   -1    0    0  501    0  0.00000000000E+00 -0.00000000000E+00 -0.26411634316E+04  0.26411634316E+04  0.00000000000E+00 0. -1.
         23    2    1    2    0    0 -0.13473338909E+03 -0.20877535908E+03 -0.81182087714E+03  0.85414363430E+03  0.93637464480E+02 0.  0.
         23    2    1    2    0    0  0.13473338909E+03  0.20877535908E+03 -0.17974859934E+04  0.18188763583E+04  0.12496028768E+03 0.  0.
          5    1    4    4  502    0  0.38237885349E+02  0.14235344641E+03 -0.71400958289E+03  0.72907735971E+03  0.41800000000E+01 0. -1.
         -5    1    4    4    0  502  0.96495503742E+02  0.66421912663E+02 -0.10834764105E+04  0.10897989986E+04  0.41800000000E+01 0. -1.
        -11    1    3    3    0    0 -0.22502084049E+02 -0.11571757463E+03 -0.31342454224E+03  0.33486093314E+03  0.00000000000E+00 0. -1.
         11    1    3    3    0    0 -0.11223130504E+03 -0.93057784442E+02 -0.49839633490E+03  0.51928270116E+03  0.00000000000E+00 0.  1.
</event>
<event>
 8    1  0.8061721E-006  0.1809466E+03  0.7561462E-02  0.1166890E+00
         -2   -1    0    0    0  501 -0.00000000000E+00  0.00000000000E+00  0.32507479210E+02  0.32507479210E+02  0.00000000000E+00 0.  1.
          2   -1    0    0  501    0  0.00000000000E+00 -0.00000000000E+00 -0.10757779827E+04  0.10757779827E+04  0.00000000000E+00 0. -1.
         23    2    1    2    0    0  0.94733300971E+02 -0.11469236670E+03 -0.45519749037E+03  0.48892390384E+03  0.98555016195E+02 0.  0.
         23    2    1    2    0    0 -0.94733300971E+02  0.11469236670E+03 -0.58807301317E+03  0.61936155812E+03  0.12510049385E+03 0.  0.
          5    1    4    4  502    0 -0.64833367160E+02  0.14034462432E+03 -0.47590103997E+03  0.50039909205E+03  0.41800000000E+01 0.  1.
         -5    1    4    4    0  502 -0.29899933812E+02 -0.25652257619E+02 -0.11217197320E+03  0.11896246607E+03  0.41800000000E+01 0.  1.
        -11    1    3    3    0    0  0.90784095086E+01 -0.70795737251E+02 -0.28080838012E+03  0.28973746785E+03  0.00000000000E+00 0. -1.
         11    1    3    3    0    0  0.85654891463E+02 -0.43896629451E+02 -0.17438911025E+03  0.19918643599E+03  0.00000000000E+00 0.  1.
</event>
<event>
 8    1  0.8061721E-006  0.1131191E+03  0.7561462E-02  0.1254900E+00
          2   -1    0    0  501    0  0.00000000000E+00  0.00000000000E+00  0.10123174667E+04  0.10123174667E+04  0.00000000000E+00 0. -1.
         -2   -1    0    0    0  501 -0.00000000000E+00 -0.00000000000E+00 -0.29181504284E+02  0.29181504284E+02  0.00000000000E+00 0.  1.
         23    2    1    2    0    0  0.70285756007E+02 -0.70486029625E+02  0.18918882519E+03  0.23260769775E+03  0.91681849923E+02 0.  0.
         23    2    1    2    0    0 -0.70285756007E+02  0.70486029625E+02  0.79394713720E+03  0.80889127321E+03  0.11851019929E+03 0.  0.
          5    1    4    4  502    0 -0.28495485051E+02  0.51226814880E+02  0.71504742241E+03  0.71745833880E+03  0.41800000000E+01 0. -1.
         -5    1    4    4    0  502 -0.41790270956E+02  0.19259214745E+02  0.78899714799E+02  0.91432934408E+02  0.41800000000E+01 0.  1.
        -11    1    3    3    0    0  0.83606962156E+02 -0.51922505842E+02  0.99101835471E+02  0.13966833760E+03  0.00000000000E+00 0.  1.
         11    1    3    3    0    0 -0.13321206149E+02 -0.18563523783E+02  0.90086989717E+02  0.92939360148E+02  0.00000000000E+00 0. -1.
</event>
<event>
 8    1  0.8061721E-006  0.2529365E+03  0.7561462E-02  0.1111463E+00
         -1   -1    0    0    0  501 -0.00000000000E+00  0.00000000000E+00  0.41200789441E+03  0.41200789441E+03  0.00000000000E+00 0.  1.
          1   -1    0    0  501    0  0.00000000000E+00 -0.00000000000E+00 -0.18647270617E+03  0.18647270617E+03  0.00000000000E+00 0. -1.
         23    2    1    2    0    0  0.18148305997E+03 -0.17491774381E+03  0.14033178235E+03  0.30433635226E+03  0.96929293915E+02 0.  0.
         23    2    1    2    0    0 -0.18148305997E+03  0.17491774381E+03  0.85203405887E+02  0.29414424832E+03  0.12541491255E+03 0.  0.
          5    1    4    4  502    0 -0.11495271849E+03  0.12199946739E+03 -0.80748355685E+01  0.16787100078E+03  0.41800000000E+01 0. -1.
         -5    1    4    4    0  502 -0.66530341474E+02  0.52918276414E+02  0.93278241456E+02  0.12627324754E+03  0.41800000000E+01 0. -1.
        -11    1    3    3    0    0  0.44451812395E+02 -0.29940467867E+02  0.79313656617E+02  0.95723828628E+02  0.00000000000E+00 0.  1.
         11    1    3    3    0    0  0.13703124757E+03 -0.14497727594E+03  0.61018125733E+02  0.20861252364E+03  0.00000000000E+00 0. -1.
</event>
<event>
 8    1  0.8061721E-006  0.1148167E+03  0.7561462E-02  0.1251901E+00
          2   -1    0    0  501    0  0.00000000000E+00  0.00000000000E+00  0.12853871103E+03  0.12853871103E+03  0.00000000000E+00 0. -1.
         -2   -1    0    0    0  501 -0.00000000000E+00 -0.00000000000E+00 -0.15987322910E+03  0.15987322910E+03  0.00000000000E+00 0.  1.
         23    2    1    2    0    0 -0.57513484900E+01 -0.82084054709E+02 -0.58671965069E+02  0.13620774347E+03  0.91319657522E+02 0.  0.
         23    2    1    2    0    0  0.57513484900E+01  0.82084054709E+02  0.27337447002E+02  0.15220419665E+03  0.12509161212E+03 0.  0.
          5    1    4    4  502    0 -0.24352328008E+02  0.10565481153E+03  0.32804781600E+02  0.11335608133E+03  0.41800000000E+01 0. -1.
         -5    1    4    4    0  502  0.30103676498E+02 -0.23570756825E+02 -0.54673345977E+01  0.38848115316E+02  0.41800000000E+01 0. -1.
        -11    1    3    3    0    0  0.70648144751E-01 -0.53270106816E+02  0.16275877357E+02  0.55701108203E+02  0.00000000000E+00 0. -1.
         11    1    3    3    0    0 -0.58219966347E+01 -0.28813947893E+02 -0.74947842426E+02  0.80506635269E+02  0.00000000000E+00 0.  1.
</event>
<event>
 8    1  0.8061721E-006  0.1259686E+03  0.7561462E-02  0.1233563E+00
         -1   -1    0    0    0  501 -0.00000000000E+00  0.00000000000E+00  0.97249273333E+02  0.97249273333E+02  0.00000000000E+00 0.  1.
          1   -1    0    0  501    0  0.00000000000E+00 -0.00000000000E+00 -0.17312683059E+03  0.17312683059E+03  0.00000000000E+00 0. -1.
         23    2    1    2    0    0  0.45842276261E+02 -0.53405372753E+02 -0.38308914487E+02  0.12201185969E+03  0.92009091094E+02 0.  0.
         23    2    1    2    0    0 -0.45842276261E+02  0.53405372753E+02 -0.37568642773E+02  0.14836424424E+03  0.12508756100E+03 0.  0.
          5    1    4    4  502    0  0.32258796912E+02  0.50580667088E+02 -0.35990698706E+02  0.70084496535E+02  0.41800000000E+01 0.  1.
         -5    1    4    4    0  502 -0.78101073174E+02  0.28247056657E+01 -0.15779440675E+01  0.78279747703E+02  0.41800000000E+01 0.  1.
        -11    1    3    3    0    0  0.48547431108E+02  0.10420160518E+02 -0.48286725243E+01  0.49887362034E+02  0.00000000000E+00 0.  1.
         11    1    3    3    0    0 -0.27051548466E+01 -0.63825533271E+02 -0.33480241963E+02  0.72124497655E+02  0.00000000000E+00 0. -1.
</event>
<event>
 8    1  0.8061721E-006  0.1222469E+03  0.7561462E-02  0.1239436E+00
         -2   -1    0    0    0  501 -0.00000000000E+00  0.00000000000E+00  0.53580860784E+02  0.53580860784E+02  0.00000000000E+00 0.  1.
          2   -1    0    0  501    0  0.00000000000E+00 -0.00000000000E+00 -0.37500194147E+03  0.37500194147E+03  0.00000000000E+00 0. -1.
         23    2    1    2    0    0  0.70659186849E+02  0.57431224521E+02 -0.14470638575E+03  0.19370763761E+03  0.91058467795E+02 0.  0.
         23    2    1    2    0    0 -0.70659186849E+02 -0.57431224521E+02 -0.17671469494E+03  0.23487516464E+03  0.12508874179E+03 0.  0.
          5    1    4    4  502    0  0.20236564560E+02 -0.51407366382E+02 -0.10552948054E+03  0.11918967878E+03  0.41800000000E+01 0. -1.
         -5    1    4    4    0  502 -0.90895751409E+02 -0.60238581381E+01 -0.71185214397E+02  0.11568548587E+03  0.41800000000E+01 0. -1.
        -11    1    3    3    0    0  0.41542692602E+02  0.54652521928E+02 -0.29278955312E+02  0.74632102248E+02  0.00000000000E+00 0.  1.
         11    1    3    3    0    0  0.29116494247E+02  0.27787025925E+01 -0.11542743044E+03  0.11907553537E+03  0.00000000000E+00 0. -1.
</event>
<event>
 8    1  0.8061721E-006  0.8004008E+02  0.7561462E-02  0.1328938E+00
         -2   -1    0    0    0  501 -0.00000000000E+00  0.00000000000E+00  0.62718216650E+02  0.62718216650E+02  0.00000000000E+00 0.  1.
          2   -1    0    0  501    0  0.00000000000E+00 -0.00000000000E+00 -0.22883256294E+03  0.22883256294E+03  0.00000000000E+00 0. -1.
         23    2    1    2    0    0 -0.12154766212E+02 -0.50546454841E+02 -0.66605831822E+02  0.12347182202E+03  0.90034835267E+02 0.  0.
         23    2    1    2    0    0  0.12154766212E+02  0.50546454841E+02 -0.99508514469E+02  0.16807895757E+03  0.12508360839E+03 0.  0.
          5    1    4    4  502    0 -0.16867781194E+02  0.43029272672E+02 -0.12189520846E+03  0.13042988383E+03  0.41800000000E+01 0.  1.
         -5    1    4    4    0  502  0.29022547406E+02  0.75171821691E+01  0.22386693994E+02  0.37649073743E+02  0.41800000000E+01 0.  1.
        -11    1    3    3    0    0 -0.39224927858E+02 -0.31443355100E+02 -0.13538925957E+01  0.50290283063E+02  0.00000000000E+00 0.  1.
         11    1    3    3    0    0  0.27070161646E+02 -0.19103099740E+02 -0.65251939226E+02  0.73181538956E+02  0.00000000000E+00 0. -1.
</event>
<event>
 8    1  0.8061721E-006  0.8824569E+02  0.7561462E-02  0.1307156E+00
          2   -1    0    0  501    0  0.00000000000E+00  0.00000000000E+00  0.40619576237E+02  0.40619576237E+02  0.00000000000E+00 0. -1.
         -2   -1    0    0    0  501 -0.00000000000E+00 -0.00000000000E+00 -0.32657602638E+03  0.32657602638E+03  0.00000000000E+00 0.  1.
         23    2    1    2    0    0  0.14335485267E+02  0.34286026054E+02 -0.12343544565E+03  0.15877213006E+03  0.92688954689E+02 0.  0.
         23    2    1    2    0    0 -0.14335485267E+02 -0.34286026054E+02 -0.16252100450E+03  0.20842347256E+03  0.12508488834E+03 0.  0.
          5    1    4    4  502    0 -0.46868712036E+02 -0.61325601834E+02 -0.61352139116E+02  0.98686691010E+02  0.41800000000E+01 0.  1.
         -5    1    4    4    0  502  0.32533226769E+02  0.27039575780E+02 -0.10116886538E+03  0.10973678155E+03  0.41800000000E+01 0.  1.
        -11    1    3    3    0    0  0.27389817883E+02  0.10086014875E+02 -0.12765894093E+03  0.13095317872E+03  0.00000000000E+00 0.  1.
         11    1    3    3    0    0 -0.13054332615E+02  0.24200011179E+02  0.42234952779E+01  0.27818951337E+02  0.00000000000E+00 0. -1.
</event>
<event>
 8    1  0.8061721E-006  0.1032467E+03  0.7561462E-02  0.1273613E+00
         -1   -1    0    0    0  501 -0.00000000000E+00  0.00000000000E+00  0.19366426299E+02  0.19366426299E+02  0.00000000000E+00 0.  1.
          1   -1    0    0  501    0  0.00000000000E+00 -0.00000000000E+00 -0.62966062170E+03  0.62966062170E+03  0.00000000000E+00 0. -1.
         23    2    1    2    0    0 -0.15469474140E+02 -0.12222293764E+02 -0.28543538672E+03  0.30036508461E+03  0.91417366846E+02 0.  0.
         23    2    1    2    0    0  0.15469474140E+02  0.12222293764E+02 -0.32485880867E+03  0.34866196339E+03  0.12507289893E+03 0.  0.
          5    1    4    4  502    0 -0.37963347136E+02  0.41875434629E+02 -0.93539580201E+02  0.10937044032E+03  0.41800000000E+01 0.  1.
         -5    1    4    4    0  502  0.53432821276E+02 -0.29653140865E+02 -0.23131922847E+03  0.23929152307E+03  0.41800000000E+01 0.  1.
        -11    1    3    3    0    0 -0.51400632620E+02 -0.11264833299E+02 -0.11935746868E+03  0.13044204396E+03  0.00000000000E+00 0. -1.
         11    1    3    3    0    0  0.35931158480E+02 -0.95746046491E+00 -0.16607791805E+03  0.16992304065E+03  0.00000000000E+00 0.  1.
</event>
<event>
 8    1  0.8061721E-006  0.1275948E+03  0.7561462E-02  0.1231069E+00
         -1   -1    0    0    0  501 -0.00000000000E+00  0.00000000000E+00  0.11915101511E+02  0.11915101511E+02  0.00000000000E+00 0.  1.
          1   -1    0    0  501    0  0.00000000000E+00 -0.00000000000E+00 -0.14961265764E+04  0.14961265764E+04  0.00000000000E+00 0. -1.
         23    2    1    2    0    0  0.59005353033E+02  0.31749867874E+02 -0.46243171628E+03  0.47645490422E+03  0.93147719984E+02 0.  0.
         23    2    1    2    0    0 -0.59005353033E+02 -0.31749867874E+02 -0.10217797586E+04  0.10315867736E+04  0.12509081002E+03 0.  0.
          5    1    4    4  502    0 -0.70815909758E+02 -0.70338599942E+02 -0.65584689067E+03  0.66341165811E+03  0.41800000000E+01 0.  1.
         -5    1    4    4    0  502  0.11810556725E+02  0.38588732068E+02 -0.36593286790E+03  0.36817511554E+03  0.41800000000E+01 0.  1.
        -11    1    3    3    0    0  0.19878119288E+02  0.62097641608E+02 -0.26777823358E+03  0.27560195772E+03  0.00000000000E+00 0.  1.
         11    1    3    3    0    0  0.39127233744E+02 -0.30347773734E+02 -0.19465348270E+03  0.20085294650E+03  0.00000000000E+00 0. -1.
</event>
<event>
 8    1  0.8061721E-006  0.1285159E+03  0.7561462E-02  0.1229675E+00
          1   -1    0    0  501    0  0.00000000000E+00  0.00000000000E+00  0.41216291960E+03  0.41216291960E+03  0.00000000000E+00 0. -1.
         -1   -1    0    0    0  501 -0.00000000000E+00 -0.00000000000E+00 -0.23335646845E+03  0.23335646845E+03  0.00000000000E+00 0.  1.
         23    2    1    2    0    0  0.64735325138E+02 -0.72952136083E+02 -0.19683888038E+03  0.23726858917E+03  0.89655797902E+02 0.  0.
         23    2    1    2    0    0 -0.64735325138E+02  0.72952136083E+02  0.37564533153E+03  0.40825079888E+03  0.12667526675E+03 0.  0.
          5    1    4    4  502    0 -0.57218938272E+02  0.10145809150E+03  0.21208737728E+03  0.24200470910E+03  0.41800000000E+01 0. -1.
         -5    1    4    4    0  502 -0.75163868668E+01 -0.28505955421E+02  0.16355795426E+03  0.16624608978E+03  0.41800000000E+01 0.  1.
        -11    1    3    3    0    0  0.57239558718E+01 -0.45074029396E+02 -0.15054469742E+03  0.15725182898E+03  0.00000000000E+00 0.  1.
         11    1    3    3    0    0  0.59011369267E+02 -0.27878106687E+02 -0.46294182963E+02  0.80016760191E+02  0.00000000000E+00 0. -1.
</event>
<event>
 8    1  0.8061721E-006  0.1032696E+03  0.7561462E-02  0.1273567E+00
         -4   -1    0    0    0  501 -0.00000000000E+00  0.00000000000E+00  0.54129466351E+02  0.54129466351E+02  0.00000000000E+00 0.  1.
          4   -1    0    0  501    0  0.00000000000E+00 -0.00000000000E+00 -0.28875167733E+03  0.28875167733E+03  0.00000000000E+00 0. -1.
         23    2    1    2    0    0  0.11034944944E+02  0.28065630430E+00 -0.12611297315E+02  0.90787454955E+02  0.89227060802E+02 0.  0.
         23    2    1    2    0    0 -0.11034944944E+02 -0.28065630430E+00 -0.22201091367E+03  0.25209368873E+03  0.11891397450E+03 0.  0.
          5    1    4    4  502    0  0.21804619538E+02  0.51540784201E+02 -0.12794501974E+03  0.13971146819E+03  0.41800000000E+01 0. -1.
         -5    1    4    4    0  502 -0.32839564482E+02 -0.51821440506E+02 -0.94065893931E+02  0.11238222054E+03  0.41800000000E+01 0.  1.
        -11    1    3    3    0    0  0.16862813385E+01  0.44094642412E+02  0.42540276015E+00  0.44128924774E+02  0.00000000000E+00 0. -1.
         11    1    3    3    0    0  0.93486636058E+01 -0.43813986107E+02 -0.13036700075E+02  0.46658530181E+02  0.00000000000E+00 0.  1.
</event>
<event>
 8    1  0.8061721E-006  0.7883309E+02  0.7561462E-02  0.1332396E+00
         -1   -1    0    0    0  501 -0.00000000000E+00  0.00000000000E+00  0.43229659853E+03  0.43229659853E+03  0.00000000000E+00 0.  1.
          1   -1    0    0  501    0  0.00000000000E+00 -0.00000000000E+00 -0.39346880376E+02  0.39346880376E+02  0.00000000000E+00 0. -1.
         23    2    1    2    0    0 -0.77054452606E+02 -0.15325761099E+01  0.17075189678E+03  0.20526642497E+03  0.83894919453E+02 0.  0.
         23    2    1    2    0    0  0.77054452606E+02  0.15325761099E+01  0.22219782138E+03  0.26637705394E+03  0.12508047643E+03 0.  0.
          5    1    4    4  502    0  0.16946189452E+02  0.90541530642E+01  0.20115413106E+03  0.20211285923E+03  0.41800000000E+01 0.  1.
         -5    1    4    4    0  502  0.60108263154E+02 -0.75215769542E+01  0.21043690318E+02  0.64264194707E+02  0.41800000000E+01 0.  1.
        -11    1    3    3    0    0 -0.61685683349E+02  0.10690024917E+01  0.17777047801E+03  0.18817175439E+03  0.00000000000E+00 0.  1.
         11    1    3    3    0    0 -0.15368769257E+02 -0.26015786017E+01 -0.70185812350E+01  0.17094670580E+02  0.00000000000E+00 0. -1.
</event>
<event>
 8    1  0.8061721E-006  0.9830984E+02  0.7561462E-02  0.1283891E+00
          1   -1    0    0  501    0  0.00000000000E+00  0.00000000000E+00  0.12021928788E+04  0.12021928788E+04  0.00000000000E+00 0. -1.
         -1   -1    0    0    0  501 -0.00000000000E+00 -0.00000000000E+00 -0.21190695735E+02  0.21190695735E+02  0.00000000000E+00 0.  1.
         23    2    1    2    0    0  0.32516740799E+02 -0.47729177448E+01  0.11767674882E+03  0.15222136483E+03  0.90793212965E+02 0.  0.
         23    2    1    2    0    0 -0.32516740799E+02  0.47729177448E+01  0.10633254342E+04  0.10711622097E+04  0.12508949285E+03 0.  0.
          5    1    4    4  502    0 -0.30016373901E+02  0.51492244458E+02  0.87607313945E+03  0.87810822340E+03  0.41800000000E+01 0. -1.
         -5    1    4    4    0  502 -0.25003668990E+01 -0.46719326713E+02  0.18725229479E+03  0.19305398630E+03  0.41800000000E+01 0. -1.
        -11    1    3    3    0    0  0.40508316909E+02 -0.38109674013E+02  0.43852669814E+02  0.70826037881E+02  0.00000000000E+00 0.  1.
         11    1    3    3    0    0 -0.79915761092E+01  0.33336756268E+02  0.73824079010E+02  0.81395326947E+02  0.00000000000E+00 0. -1.
</event>
<event>
 8    1  0.9131482E-006  0.1109851E+03  0.7561462E-02  0.1258756E+00
         -2   -1    0    0    0  501 -0.00000000000E+00  0.00000000000E+00  0.50456624688E+03  0.50456624688E+03  0.00000000000E+00 0.  1.
          2   -1    0    0  501    0  0.00000000000E+00 -0.00000000000E+00 -0.35801929927E+02  0.35801929927E+02  0.00000000000E+00 0. -1.
         23    2    1    2    0    0  0.41953898111E+02 -0.65204900973E+02  0.26844261466E+03  0.29179573887E+03  0.84092253958E+02 0.  0.
         23    2    1    2    0    0 -0.41953898111E+02  0.65204900973E+02  0.20032170229E+03  0.24857243794E+03  0.12509062242E+03 0.  0.
          5    1    4    4  502    0 -0.57453275968E+02 -0.24862595785E+01  0.15542269606E+03  0.16577318015E+03  0.41800000000E+01 0.  1.
         -5    1    4    4    0  502  0.15499377857E+02  0.67691160552E+02  0.44899006234E+02  0.82799257796E+02  0.41800000000E+01 0.  1.
        -11    1    3    3    0    0 -0.60909151309E+01 -0.40051085543E+02  0.20204086151E+03  0.20606236536E+03  0.00000000000E+00 0.  1.
         11    1    3    3    0    0  0.48044813242E+02 -0.25153815430E+02  0.66401753156E+02  0.85733373504E+02  0.00000000000E+00 0. -1.
</event>
<event>
 7    1  0.8061721E-006  0.1426840E+03  0.7561462E-02  0.1209762E+00
          2   -1    0    0  501    0  0.00000000000E+00  0.00000000000E+00  0.52710740718E+03  0.52710740718E+03  0.00000000000E+00 0. -1.
         -2   -1    0    0    0  501 -0.00000000000E+00 -0.00000000000E+00 -0.46332051144E+02  0.46332051144E+02  0.00000000000E+00 0.  1.
         23    2    1    2    0    0 -0.81329929678E+02  0.44286834844E+02  0.12793244567E+03  0.18152557126E+03  0.89492687757E+02 0.  0.
          5    1    1    2  502    0  0.11794406389E+03 -0.41218224314E+02  0.31548197301E+03  0.33934656609E+03  0.41800000000E+01 0. -1.
         -5    1    1    2    0  502 -0.36614134214E+02 -0.30686105293E+01  0.37360937351E+02  0.52567320976E+02  0.41800000000E+01 0.  1.
        -11    1    3    3    0    0 -0.81541505057E+02  0.64004370595E+02  0.12363898110E+03  0.16134489192E+03  0.00000000000E+00 0.  1.
         11    1    3    3    0    0  0.21157537906E+00 -0.19717535751E+02  0.42934645710E+01  0.20180679331E+02  0.00000000000E+00 0. -1.
</event>
<event>
 8    1  0.8061721E-006  0.1040073E+03  0.7561462E-02  0.1272088E+00
         -1   -1    0    0    0  501 -0.00000000000E+00  0.00000000000E+00  0.83395322739E+02  0.83395322739E+02  0.00000000000E+00 0.  1.
          1   -1    0    0  501    0  0.00000000000E+00 -0.00000000000E+00 -0.56217052205E+03  0.56217052205E+03  0.00000000000E+00 0. -1.
         23    2    1    2    0    0  0.10732516494E+02  0.14871819201E+02  0.46819286687E+02  0.10497985132E+03  0.92154032250E+02 0.  0.
         23    2    1    2    0    0 -0.10732516494E+02 -0.14871819201E+02 -0.52559448600E+03  0.54058599348E+03  0.12508914706E+03 0.  0.
          5    1    4    4  502    0  0.30352969366E+02 -0.53793949873E+02 -0.36608034736E+03  0.37127804260E+03  0.41800000000E+01 0.  1.
         -5    1    4    4    0  502 -0.41085485859E+02  0.38922130672E+02 -0.15951413864E+03  0.16930795088E+03  0.41800000000E+01 0.  1.
        -11    1    3    3    0    0 -0.29685883585E+02  0.33579657902E+02  0.72487521781E+01  0.45402527652E+02  0.00000000000E+00 0. -1.
         11    1    3    3    0    0  0.40418400078E+02 -0.18707838702E+02  0.39570534508E+02  0.59577323665E+02  0.00000000000E+00 0.  1.
</event>
<event>
 7    1  0.8061721E-006  0.1352703E+03  0.7561462E-02  0.1219839E+00
          2   -1    0    0  501    0  0.00000000000E+00  0.00000000000E+00  0.49638779542E+03  0.49638779542E+03  0.00000000000E+00 0. -1.
         -2   -1    0    0    0  501 -0.00000000000E+00 -0.00000000000E+00 -0.44443107784E+02  0.44443107784E+02  0.00000000000E+00 0.  1.
         23    2    1    2    0    0  0.19748554227E+02  0.57226403826E+02  0.10905470349E+03  0.15336580209E+03  0.89237179514E+02 0.  0.
          5    1    1    2  502    0  0.10726401764E+02 -0.10761730867E+03  0.28466537871E+03  0.30454620513E+03  0.41800000000E+01 0. -1.
         -5    1    1    2    0  502 -0.30474955991E+02  0.50390904845E+02  0.58224605428E+02  0.82918895983E+02  0.41800000000E+01 0.  1.
        -11    1    3    3    0    0 -0.42155292689E+01  0.73936733464E+02  0.56172766973E+02  0.92950476016E+02  0.00000000000E+00 0.  1.
         11    1    3    3    0    0  0.23964083496E+02 -0.16710329637E+02  0.52881936520E+02  0.60415326072E+02  0.00000000000E+00 0. -1.
</event>
<event>
 8    1  0.8061721E-006  0.1437350E+03  0.7561462E-02  0.1208390E+00
         -2   -1    0    0    0  501 -0.00000000000E+00  0.00000000000E+00  0.20716684226E+03  0.20716684226E+03  0.00000000000E+00 0.  1.
          2   -1    0    0  501    0  0.00000000000E+00 -0.00000000000E+00 -0.67667643855E+03  0.67667643855E+03  0.00000000000E+00 0. -1.
         23    2    1    2    0    0 -0.11039453825E+03 -0.42217331330E+02  0.16720625972E+03  0.22427889574E+03  0.91508647920E+02 0.  0.
         23    2    1    2    0    0  0.11039453825E+03  0.42217331330E+02 -0.63671585601E+03  0.65956438507E+03  0.12509532211E+03 0.  0.
          5    1    4    4  502    0  0.15952527431E+02 -0.39242748851E+02 -0.10290790063E+03  0.11136419927E+03  0.41800000000E+01 0.  1.
         -5    1    4    4    0  502  0.94442010814E+02  0.81460080181E+02 -0.53380795538E+03  0.54820018579E+03  0.41800000000E+01 0.  1.
        -11    1    3    3    0    0 -0.23360246818E+02 -0.18794336083E+02 -0.45353985849E+01  0.30323226090E+02  0.00000000000E+00 0. -1.
         11    1    3    3    0    0 -0.87034291428E+02 -0.23422995247E+02  0.17174165831E+03  0.19395566965E+03  0.00000000000E+00 0.  1.
</event>
<event>
 7    1  0.8061721E-006  0.1403856E+03  0.7561462E-02  0.1212811E+00
         -2   -1    0    0    0  501 -0.00000000000E+00  0.00000000000E+00  0.34950823806E+03  0.34950823806E+03  0.00000000000E+00 0.  1.
          2   -1    0    0  501    0  0.00000000000E+00 -0.00000000000E+00 -0.27269357904E+03  0.27269357904E+03  0.00000000000E+00 0. -1.
         23    2    1    2    0    0  0.12329454542E+03 -0.52133391923E+02  0.28986291693E+03  0.33258768785E+03  0.93137661639E+02 0.  0.
          5    1    1    2  502    0 -0.96467994216E+02  0.39701421377E+02 -0.23188802909E+03  0.25430652214E+03  0.41800000000E+01 0. -1.
         -5    1    1    2    0  502 -0.26826551208E+02  0.12431970546E+02  0.18839771182E+02  0.35307607106E+02  0.41800000000E+01 0.  1.
        -11    1    3    3    0    0  0.99166440444E+01 -0.29194939370E+02  0.14820062594E+02  0.34209919164E+02  0.00000000000E+00 0. -1.
         11    1    3    3    0    0  0.11337790138E+03 -0.22938452554E+02  0.27504285433E+03  0.29837776869E+03  0.00000000000E+00 0.  1.
</event>
<event>
 8    1  0.8061721E-006  0.1730372E+03  0.7561462E-02  0.1174717E+00
          2   -1    0    0  501    0  0.00000000000E+00  0.00000000000E+00  0.24468198772E+04  0.24468198772E+04  0.00000000000E+00 0. -1.
         -2   -1    0    0    0  501 -0.00000000000E+00 -0.00000000000E+00 -0.16945034639E+02  0.16945034639E+02  0.00000000000E+00 0.  1.
         23    2    1    2    0    0 -0.12170331783E+03 -0.68569398370E+02  0.54755035162E+03  0.57212631571E+03  0.89463252806E+02 0.  0.
         23    2    1    2    0    0  0.12170331783E+03  0.68569398370E+02  0.18823244910E+04  0.18916385962E+04  0.12505050667E+03 0.  0.
          5    1    4    4  502    0  0.13484641777E+03  0.88229740457E+02  0.17215054118E+04  0.17290362630E+04  0.41800000000E+01 0. -1.
         -5    1    4    4    0  502 -0.13143099940E+02 -0.19660342087E+02  0.16081907919E+03  0.16260233319E+03  0.41800000000E+01 0. -1.
        -11    1    3    3    0    0 -0.76782036749E+02 -0.83580894476E+02  0.44369325520E+03  0.45797920455E+03  0.00000000000E+00 0.  1.
         11    1    3    3    0    0 -0.44921281079E+02  0.15011496106E+02  0.10385709642E+03  0.11414711116E+03  0.00000000000E+00 0. -1.
</event>
<event>
 8    1  0.8061721E-006  0.9085407E+02  0.7561462E-02  0.1300797E+00
          2   -1    0    0  501    0  0.00000000000E+00  0.00000000000E+00  0.55173565976E+03  0.55173565976E+03  0.00000000000E+00 0. -1.
         -2   -1    0    0    0  501 -0.00000000000E+00 -0.00000000000E+00 -0.30267349732E+02  0.30267349732E+02  0.00000000000E+00 0.  1.
         23    2    1    2    0    0  0.22695650784E+02 -0.38688605968E+02  0.11707628826E+03  0.15633359418E+03  0.93388621368E+02 0.  0.
         23    2    1    2    0    0 -0.22695650784E+02  0.38688605968E+02  0.40439202177E+03  0.42566941531E+03  0.12509853342E+03 0.  0.
          5    1    4    4  502    0 -0.59477136729E+02 -0.55420300876E+00  0.99159774091E+02  0.11570639625E+03  0.41800000000E+01 0.  1.
         -5    1    4    4    0  502  0.36781485944E+02  0.39242808977E+02  0.30523224767E+03  0.30996301906E+03  0.41800000000E+01 0.  1.
        -11    1    3    3    0    0  0.97733230974E+01 -0.50008663138E+02  0.15421319764E+02  0.53237217588E+02  0.00000000000E+00 0.  1.
         11    1    3    3    0    0  0.12922327687E+02  0.11320057170E+02  0.10165496849E+03  0.10309637659E+03  0.00000000000E+00 0. -1.
</event>
<event>
 8    1  0.8061721E-006  0.8742270E+02  0.7561462E-02  0.1309216E+00
         -2   -1    0    0    0  501 -0.00000000000E+00  0.00000000000E+00  0.22663466130E+03  0.22663466130E+03  0.00000000000E+00 0.  1.
          2   -1    0    0  501    0  0.00000000000E+00 -0.00000000000E+00 -0.51748125378E+02  0.51748125378E+02  0.00000000000E+00 0. -1.
         23    2    1    2    0    0  0.58494206062E+01 -0.11783810926E+02  0.12139245344E+03  0.15263139196E+03  0.91581330731E+02 0.  0.
         23    2    1    2    0    0 -0.58494206062E+01  0.11783810926E+02  0.53494082480E+02  0.12575139472E+03  0.11304301169E+03 0.  0.
          5    1    4    4  502    0 -0.52469715960E+02  0.11190784584E+02 -0.11161200852E+01  0.53823999077E+02  0.41800000000E+01 0. -1.
         -5    1    4    4    0  502  0.46620295354E+02  0.59302634191E+00  0.54610202566E+02  0.71927395639E+02  0.41800000000E+01 0.  1.
        -11    1    3    3    0    0 -0.12023215734E+02  0.28074066957E+02  0.86789516940E+01  0.31749569361E+02  0.00000000000E+00 0. -1.
         11    1    3    3    0    0  0.17872636340E+02 -0.39857877883E+02  0.11271350175E+03  0.12088182260E+03  0.00000000000E+00 0.  1.
</event>
<event>
 8    1  0.8061721E-006  0.2418483E+03  0.7561462E-02  0.1118568E+00
         -1   -1    0    0    0  501 -0.00000000000E+00  0.00000000000E+00  0.36154217900E+03  0.36154217900E+03  0.00000000000E+00 0.  1.
          1   -1    0    0  501    0  0.00000000000E+00 -0.00000000000E+00 -0.18639305352E+03  0.18639305352E+03  0.00000000000E+00 0. -1.
         23    2    1    2    0    0  0.85005928977E+02  0.20749514611E+03  0.15281459599E+03  0.29020282407E+03  0.10288408394E+03 0.  0.
         23    2    1    2    0    0 -0.85005928977E+02 -0.20749514611E+03  0.22334529490E+02  0.25773240846E+03  0.12508764743E+03 0.  0.
          5    1    4    4  502    0 -0.66660605227E+02 -0.22030064404E+02  0.48796923212E+01  0.70499956199E+02  0.41800000000E+01 0.  1.
         -5    1    4    4    0  502 -0.18345323750E+02 -0.18546508171E+03  0.17454837168E+02  0.18723245226E+03  0.41800000000E+01 0.  1.
        -11    1    3    3    0    0  0.20665535775E+02  0.96193692514E+02  0.12428504330E+03  0.15851518172E+03  0.00000000000E+00 0.  1.
         11    1    3    3    0    0  0.64340393202E+02  0.11130145360E+03  0.28529552690E+02  0.13168764235E+03  0.00000000000E+00 0. -1.
</event>
<event>
 8    1  0.8061721E-006  0.1649045E+03  0.7561462E-02  0.1183268E+00
          2   -1    0    0  501    0  0.00000000000E+00  0.00000000000E+00  0.14143716594E+04  0.14143716594E+04  0.00000000000E+00 0. -1.
         -2   -1    0    0    0  501 -0.00000000000E+00 -0.00000000000E+00 -0.26579040474E+02  0.26579040474E+02  0.00000000000E+00 0.  1.
         23    2    1    2    0    0 -0.14465058360E+03 -0.53134692001E+02  0.48760831042E+03  0.51914444289E+03  0.89453906346E+02 0.  0.
         23    2    1    2    0    0  0.14465058360E+03  0.53134692001E+02  0.90018430849E+03  0.92180625697E+03  0.12509156370E+03 0.  0.
          5    1    4    4  502    0  0.80950724425E+02  0.14233420674E+02  0.18200948920E+03  0.19975118675E+03  0.41800000000E+01 0. -1.
         -5    1    4    4    0  502  0.63699859172E+02  0.38901271327E+02  0.71817481929E+03  0.72205507022E+03  0.41800000000E+01 0. -1.
        -11    1    3    3    0    0 -0.55646934594E+02 -0.62000115956E+02  0.17212132581E+03  0.19122328965E+03  0.00000000000E+00 0.  1.
         11    1    3    3    0    0 -0.89003649004E+02  0.88654239546E+01  0.31548698462E+03  0.32792115324E+03  0.00000000000E+00 0. -1.
</event>
<event>
 7    1  0.8061721E-006  0.1118739E+03  0.7561462E-02  0.1257139E+00
         -3   -1    0    0    0  501 -0.00000000000E+00  0.00000000000E+00  0.43909355663E+03  0.43909355663E+03  0.00000000000E+00 0.  1.
          3   -1    0    0  501    0  0.00000000000E+00 -0.00000000000E+00 -0.39343081691E+02  0.39343081691E+02  0.00000000000E+00 0. -1.
         23    2    1    2    0    0  0.19366217309E+02 -0.19050684368E+02  0.28615609573E+03  0.30171340083E+03  0.91693435783E+02 0.  0.
          5    1    1    2  502    0  0.36049247467E+02 -0.35127111914E+02  0.74005490483E+02  0.89597696711E+02  0.41800000000E+01 0. -1.
         -5    1    1    2    0  502 -0.55415464777E+02  0.54177796281E+02  0.39588888724E+02  0.87125540783E+02  0.41800000000E+01 0.  1.
        -11    1    3    3    0    0  0.25524008535E+02  0.33837124707E+02  0.12813421468E+03  0.13496222802E+03  0.00000000000E+00 0.  1.
         11    1    3    3    0    0 -0.61577912254E+01 -0.52887809074E+02  0.15802188105E+03  0.16675117281E+03  0.00000000000E+00 0. -1.
</event>
<event>
 8    1  0.8061721E-006  0.1510377E+03  0.7561462E-02  0.1199204E+00
         -2   -1    0    0    0  501 -0.00000000000E+00  0.00000000000E+00  0.21370461309E+02  0.21370461309E+02  0.00000000000E+00 0.  1.
          2   -1    0    0  501    0  0.00000000000E+00 -0.00000000000E+00 -0.13805217704E+04  0.13805217704E+04  0.00000000000E+00 0. -1.
         23    2    1    2    0    0  0.45983248107E+02  0.11623291912E+03 -0.45540571991E+03  0.48100815597E+03  0.91377928376E+02 0.  0.
         23    2    1    2    0    0 -0.45983248107E+02 -0.11623291912E+03 -0.90374558915E+03  0.92088407570E+03  0.12508733101E+03 0.  0.
          5    1    4    4  502    0 -0.46886144447E+02 -0.12712834128E+03 -0.53351699032E+03  0.55047050517E+03  0.41800000000E+01 0. -1.
         -5    1    4    4    0  502  0.90289634029E+00  0.10895422155E+02 -0.37022859883E+03  0.37041357054E+03  0.41800000000E+01 0. -1.
        -11    1    3    3    0    0  0.70687565088E+02  0.57603687158E+02 -0.26362711397E+03  0.27895191674E+03  0.00000000000E+00 0.  1.
         11    1    3    3    0    0 -0.24704316980E+02  0.58629231967E+02 -0.19177860594E+03  0.20205623923E+03  0.00000000000E+00 0. -1.
</event>
<event>
 8    1  0.8061721E-006  0.9895895E+02  0.7561462E-02  0.1282500E+00
         -2   -1    0    0    0  501 -0.00000000000E+00  0.00000000000E+00  0.16035624492E+02  0.16035624492E+02  0.00000000000E+00 0.  1.
          2   -1    0    0  501    0  0.00000000000E+00 -0.00000000000E+00 -0.11300333864E+04  0.11300333864E+04  0.00000000000E+00 0. -1.
         23    2    1    2    0    0 -0.70640516912E+01  0.39118469280E+02 -0.19332109707E+03  0.21608359745E+03  0.87971126228E+02 0.  0.
         23    2    1    2    0    0  0.70640516912E+01 -0.39118469280E+02 -0.92067666486E+03  0.92998541346E+03  0.12508873878E+03 0.  0.
          5    1    4    4  502    0 -0.72810941725E+01  0.34751975565E+02 -0.10676828968E+03  0.11259508968E+03  0.41800000000E+01 0. -1.
         -5    1    4    4    0  502  0.14345145864E+02 -0.73870444845E+02 -0.81390837518E+03  0.81739032379E+03  0.41800000000E+01 0. -1.
        -11    1    3    3    0    0 -0.24479983898E+02  0.56880079912E+02 -0.17367884148E+03  0.18438805026E+03  0.00000000000E+00 0. -1.
         11    1    3    3    0    0  0.17415932207E+02 -0.17761610632E+02 -0.19642255594E+02  0.31695547190E+02  0.00000000000E+00 0.  1.
</event>
<event>
 8    1  0.8061721E-006  0.7785232E+02  0.7561462E-02  0.1335259E+00
         -1   -1    0    0    0  501 -0.00000000000E+00  0.00000000000E+00  0.21238136306E+02  0.21238136306E+02  0.00000000000E+00 0.  1.
          1   -1    0    0  501    0  0.00000000000E+00 -0.00000000000E+00 -0.81380355332E+03  0.81380355332E+03  0.00000000000E+00 0. -1.
         23    2    1    2    0    0 -0.12648543262E+02  0.11728859052E+02 -0.57295505406E+02  0.89007930420E+02  0.65894498683E+02 0.  0.
         23    2    1    2    0    0  0.12648543262E+02 -0.11728859052E+02 -0.73526991161E+03  0.74603375921E+03  0.12508786982E+03 0.  0.
          5    1    4    4  502    0  0.60253597693E+02 -0.64517062032E+01 -0.21114926286E+03  0.21971254892E+03  0.41800000000E+01 0. -1.
         -5    1    4    4    0  502 -0.47605054431E+02 -0.52771528485E+01 -0.52412064875E+03  0.52632121029E+03  0.41800000000E+01 0. -1.
        -11    1    3    3    0    0  0.10309537598E+02 -0.10650467993E+02  0.75755817231E+01  0.16646575396E+02  0.00000000000E+00 0.  1.
         11    1    3    3    0    0 -0.22958080860E+02  0.22379327045E+02 -0.64871087129E+02  0.72361355025E+02  0.00000000000E+00 0. -1.
</event>
<event>
 8    1  0.8061721E-006  0.1174562E+03  0.7561462E-02  0.1247353E+00
          3   -1    0    0  501    0  0.00000000000E+00  0.00000000000E+00  0.25052339501E+03  0.25052339501E+03  0.00000000000E+00 0. -1.
         -3   -1    0    0    0  501 -0.00000000000E+00 -0.00000000000E+00 -0.10468588081E+03  0.10468588081E+03  0.00000000000E+00 0.  1.
         23    2    1    2    0    0  0.82135123141E+02 -0.16005181923E+01 -0.27697864581E+02  0.12606011074E+03  0.91516335735E+02 0.  0.
         23    2    1    2    0    0 -0.82135123141E+02  0.16005181923E+01  0.17353537878E+03  0.22914916507E+03  0.12508425982E+03 0.  0.
          5    1    4    4  502    0 -0.11181248357E+03  0.21045722895E+02  0.12904584775E+03  0.17209083983E+03  0.41800000000E+01 0.  1.
         -5    1    4    4    0  502  0.29677360427E+02 -0.19445204703E+02  0.44489531028E+02  0.57058325238E+02  0.41800000000E+01 0.  1.
        -11    1    3    3    0    0  0.53924716628E+02 -0.12042535610E+02  0.28610100953E+02  0.62220861484E+02  0.00000000000E+00 0. -1.
         11    1    3    3    0    0  0.28210406513E+02  0.10442017417E+02 -0.56307965534E+02  0.63839249259E+02  0.00000000000E+00 0.  1.
</event>
<event>
 7    1  0.8061721E-006  0.1190732E+03  0.7561462E-02  0.1244634E+00
          2   -1    0    0  501    0  0.00000000000E+00  0.00000000000E+00  0.21199607985E+03  0.21199607985E+03  0.00000000000E+00 0. -1.
         -2   -1    0    0    0  501 -0.00000000000E+00 -0.00000000000E+00 -0.17566058718E+03  0.17566058718E+03  0.00000000000E+00 0.  1.
         23    2    1    2    0    0  0.13033818705E+02 -0.97430547502E+02 -0.30712763584E+02  0.13819836066E+03  0.92157045449E+02 0.  0.
          5    1    1    2  502    0 -0.20510742973E+02  0.29229890814E+02  0.14274920682E+03  0.14720694801E+03  0.41800000000E+01 0. -1.
         -5    1    1    2    0  502  0.74769242673E+01  0.68200656688E+02 -0.75700950563E+02  0.10225135835E+03  0.41800000000E+01 0.  1.
        -11    1    3    3    0    0  0.49152312050E+01  0.17532507672E+02 -0.11005992916E+02  0.21276282643E+02  0.00000000000E+00 0. -1.
         11    1    3    3    0    0  0.81185875005E+01 -0.11496305517E+03 -0.19706770668E+02  0.11692207802E+03  0.00000000000E+00 0.  1.
</event>
<event>
 8    1  0.8061721E-006  0.7691353E+02  0.7561462E-02  0.1338046E+00
         -2   -1    0    0    0  501 -0.00000000000E+00  0.00000000000E+00  0.18054050945E+02  0.18054050945E+02  0.00000000000E+00 0.  1.
          2   -1    0    0  501    0  0.00000000000E+00 -0.00000000000E+00 -0.13185078533E+04  0.13185078533E+04  0.00000000000E+00 0. -1.
         23    2    1    2    0    0 -0.46496248062E+01 -0.14898717860E+02 -0.75646672963E+02  0.10528434942E+03  0.71545679794E+02 0.  0.
         23    2    1    2    0    0  0.46496248062E+01  0.14898717860E+02 -0.12248071294E+04  0.12312775548E+04  0.12509325324E+03 0.  0.
          5    1    4    4  502    0 -0.14818806837E+02  0.63919288716E+02 -0.87791509895E+03  0.88037359449E+03  0.41800000000E+01 0. -1.
         -5    1    4    4    0  502  0.19468431643E+02 -0.49020570856E+02 -0.34689203040E+03  0.35090396030E+03  0.41800000000E+01 0. -1.
        -11    1    3    3    0    0 -0.80949062643E+01  0.83715326132E+01  0.10685435067E+02  0.15804701462E+02  0.00000000000E+00 0.  1.
         11    1    3    3    0    0  0.34452814580E+01 -0.23270250473E+02 -0.86332108030E+02  0.89479647956E+02  0.00000000000E+00 0. -1.
</event>
<event>
 8    1  0.8061721E-006  0.1034529E+03  0.7561462E-02  0.1273198E+00
         -3   -1    0    0    0  501 -0.00000000000E+00  0.00000000000E+00  0.21230379207E+03  0.21230379207E+03  0.00000000000E+00 0.  1.
          3   -1    0    0  501    0  0.00000000000E+00 -0.00000000000E+00 -0.72057962884E+02  0.72057962884E+02  0.00000000000E+00 0. -1.
         23    2    1    2    0    0 -0.55873758382E+02  0.16437917511E+02  0.57821362026E+02  0.12363814869E+03  0.92471616717E+02 0.  0.
         23    2    1    2    0    0  0.55873758382E+02 -0.16437917511E+02  0.82424467160E+02  0.16072360626E+03  0.12508478251E+03 0.  0.
          5    1    4    4  502    0  0.51941080156E+02 -0.58453680530E+02  0.88176763758E+02  0.11792931206E+03  0.41800000000E+01 0. -1.
         -5    1    4    4    0  502  0.39326782260E+01  0.42015763020E+02 -0.57522965980E+01  0.42794294203E+02  0.41800000000E+01 0. -1.
        -11    1    3    3    0    0 -0.68744917216E+02  0.21986666480E+02  0.88683882508E+01  0.72718123299E+02  0.00000000000E+00 0. -1.
         11    1    3    3    0    0  0.12871158834E+02 -0.55487489692E+01  0.48952973775E+02  0.50920025395E+02  0.00000000000E+00 0.  1.
</event>
<event>
 8    1  0.8061721E-006  0.1141839E+03  0.7561462E-02  0.1253012E+00
         -2   -1    0    0    0  501 -0.00000000000E+00  0.00000000000E+00  0.16158006091E+02  0.16158006091E+02  0.00000000000E+00 0.  1.
          2   -1    0    0  501    0  0.00000000000E+00 -0.00000000000E+00 -0.14570282175E+04  0.14570282175E+04  0.00000000000E+00 0. -1.
         23    2    1    2    0    0  0.37893037649E+02 -0.66178456124E+02 -0.28307753578E+03  0.30616198157E+03  0.88242831631E+02 0.  0.
         23    2    1    2    0    0 -0.37893037649E+02  0.66178456124E+02 -0.11577926756E+04  0.11670242420E+04  0.12508489670E+03 0.  0.
          5    1    4    4  502    0 -0.41828102569E+02 -0.13680398899E+02 -0.15909963820E+03  0.16512695345E+03  0.41800000000E+01 0. -1.
         -5    1    4    4    0  502  0.39350649198E+01  0.79858855024E+02 -0.99869303739E+03  0.10018972885E+04  0.41800000000E+01 0. -1.
        -11    1    3    3    0    0  0.40967884284E+02 -0.32541424937E+01 -0.18561966970E+03  0.19011475157E+03  0.00000000000E+00 0.  1.
         11    1    3    3    0    0 -0.30748466351E+01 -0.62924313631E+02 -0.97457866085E+02  0.11604723000E+03  0.00000000000E+00 0. -1.
</event>
<event>
 8    1  0.8061721E-006  0.1130134E+03  0.7561462E-02  0.1255089E+00
         -1   -1    0    0    0  501 -0.00000000000E+00  0.00000000000E+00  0.94225845116E+02  0.94225845116E+02  0.00000000000E+00 0.  1.
          1   -1    0    0  501    0  0.00000000000E+00 -0.00000000000E+00 -0.14872065399E+03  0.14872065399E+03  0.00000000000E+00 0. -1.
         23    2    1    2    0    0  0.30105468837E+02  0.27672746058E+02  0.82808856409E+00  0.10017818594E+03  0.91448690961E+02 0.  0.
         23    2    1    2    0    0 -0.30105468837E+02 -0.27672746058E+02 -0.55322897434E+02  0.14276831317E+03  0.12510015242E+03 0.  0.
          5    1    4    4  502    0  0.35150656500E+02 -0.49092456448E+02 -0.39157564110E+02  0.72086234189E+02  0.41800000000E+01 0.  1.
         -5    1    4    4    0  502 -0.65256125337E+02  0.21419710390E+02 -0.16165333324E+02  0.70682078978E+02  0.41800000000E+01 0.  1.
        -11    1    3    3    0    0  0.67084027728E+01  0.58002368010E+02  0.13316666151E+02  0.59888320730E+02  0.00000000000E+00 0. -1.
         11    1    3    3    0    0  0.23397066064E+02 -0.30329621952E+02 -0.12488577587E+02  0.40289865206E+02  0.00000000000E+00 0.  1.
</event>
<event>
 8    1  0.8061721E-006  0.8969556E+02  0.7561462E-02  0.1303591E+00
         -1   -1    0    0    0  501 -0.00000000000E+00  0.00000000000E+00  0.75942031076E+02  0.75942031076E+02  0.00000000000E+00 0.  1.
          1   -1    0    0  501    0  0.00000000000E+00 -0.00000000000E+00 -0.23206437687E+03  0.23206437687E+03  0.00000000000E+00 0. -1.
         23    2    1    2    0    0 -0.13485306573E+02 -0.63340666019E+02 -0.23201786146E+02  0.11433231210E+03  0.91321745743E+02 0.  0.
         23    2    1    2    0    0  0.13485306573E+02  0.63340666019E+02 -0.13292055965E+03  0.19367409584E+03  0.12509151353E+03 0.  0.
          5    1    4    4  502    0  0.43909365648E+02  0.62177443154E+02 -0.23132452326E+02  0.79665862071E+02  0.41800000000E+01 0.  1.
         -5    1    4    4    0  502 -0.30424059076E+02  0.11632228647E+01 -0.10978810732E+03  0.11400823377E+03  0.41800000000E+01 0.  1.
        -11    1    3    3    0    0 -0.21071995362E+02 -0.22265537904E+02  0.32520920956E+02  0.44692208118E+02  0.00000000000E+00 0.  1.
         11    1    3    3    0    0  0.75866887890E+01 -0.41075128115E+02 -0.55722707101E+02  0.69640103986E+02  0.00000000000E+00 0. -1.
</event>
<event>
 7    1  0.8061721E-006  0.1061643E+03  0.7561462E-02  0.1267842E+00
          2   -1    0    0  501    0  0.00000000000E+00  0.00000000000E+00  0.42058140662E+02  0.42058140662E+02  0.00000000000E+00 0. -1.
         -2   -1    0    0    0  501 -0.00000000000E+00 -0.00000000000E+00 -0.44789849863E+03  0.44789849863E+03  0.00000000000E+00 0.  1.
         23    2    1    2    0    0 -0.21293880398E+02  0.33635165100E+02 -0.29926233054E+03  0.31528812189E+03  0.90906015490E+02 0.  0.
          5    1    1    2  502    0  0.30084864538E+02 -0.69565739194E+02 -0.17176911907E+02  0.77826793886E+02  0.41800000000E+01 0. -1.
         -5    1    1    2    0  502 -0.87909841396E+01  0.35930574094E+02 -0.89401115521E+02  0.96841723514E+02  0.41800000000E+01 0.  1.
        -11    1    3    3    0    0 -0.70986721484E+01  0.64675085459E+02 -0.19173232056E+03  0.20247108577E+03  0.00000000000E+00 0.  1.
         11    1    3    3    0    0 -0.14195208250E+02 -0.31039920359E+02 -0.10753000998E+03  0.11281703612E+03  0.00000000000E+00 0. -1.
</event>
<event>
 8    1  0.8061721E-006  0.1285422E+03  0.7561462E-02  0.1229635E+00
          2   -1    0    0  501    0  0.00000000000E+00  0.00000000000E+00  0.10120850135E+04  0.10120850135E+04  0.00000000000E+00 0. -1.
         -2   -1    0    0    0  501 -0.00000000000E+00 -0.00000000000E+00 -0.21102452502E+02  0.21102452502E+02  0.00000000000E+00 0.  1.
         23    2    1    2    0    0 -0.91943398787E+02 -0.60806290506E+00  0.33835963922E+03  0.36235404645E+03  0.91428940740E+02 0.  0.
         23    2    1    2    0    0  0.91943398787E+02  0.60806290506E+00  0.65262292175E+03  0.67083341952E+03  0.12508733123E+03 0.  0.
          5    1    4    4  502    0 -0.92719117731E+01  0.21724483479E+02  0.24661789454E+02  0.34403456068E+02  0.41800000000E+01 0.  1.
         -5    1    4    4    0  502  0.10121531056E+03 -0.21116420574E+02  0.62796113229E+03  0.63642996345E+03  0.41800000000E+01 0.  1.
        -11    1    3    3    0    0 -0.18571443730E+02  0.41184673770E+02  0.11328888875E+03  0.12196494657E+03  0.00000000000E+00 0.  1.
         11    1    3    3    0    0 -0.73371955057E+02 -0.41792736675E+02  0.22507075046E+03  0.24038909988E+03  0.00000000000E+00 0. -1.
</event>
<event>
 8    1  0.8061721E-006  0.6108503E+02  0.7561462E-02  0.1393334E+00
         -1   -1    0    0    0  501 -0.00000000000E+00  0.00000000000E+00  0.77984637978E+02  0.77984637978E+02  0.00000000000E+00 0. -1.
          1   -1    0    0  501    0  0.00000000000E+00 -0.00000000000E+00 -0.15384087515E+03  0.15384087515E+03  0.00000000000E+00 0.  1.
         23    2    1    2    0    0 -0.14014829545E+02 -0.16677333283E+01 -0.28942131330E+02  0.97485748078E+02  0.92014277864E+02 0.  0.
         23    2    1    2    0    0  0.14014829545E+02  0.16677333283E+01 -0.46914105843E+02  0.13433976505E+03  0.12508813839E+03 0.  0.
          5    1    4    4  502    0  0.26665014065E+02  0.81801795445E+01 -0.87074971937E+02  0.91528473440E+02  0.41800000000E+01 0. -1.
         -5    1    4    4    0  502 -0.12650184520E+02 -0.65124462162E+01  0.40160866093E+02  0.42811291612E+02  0.41800000000E+01 0. -1.
        -11    1    3    3    0    0 -0.25617397342E+02 -0.35268318148E+02  0.10037889250E+02  0.44731024269E+02  0.00000000000E+00 0.  1.
         11    1    3    3    0    0  0.11602567798E+02  0.33600584820E+02 -0.38980020580E+02  0.52754723809E+02  0.00000000000E+00 0. -1.
</event>
<event>
 8    1  0.8061721E-006  0.1024018E+03  0.7561462E-02  0.1275325E+00
         -2   -1    0    0    0  501 -0.00000000000E+00  0.00000000000E+00  0.26671778787E+02  0.26671778787E+02  0.00000000000E+00 0.  1.
          2   -1    0    0  501    0  0.00000000000E+00 -0.00000000000E+00 -0.14321335639E+04  0.14321335639E+04  0.00000000000E+00 0. -1.
         23    2    1    2    0    0  0.31287581832E+02 -0.21939809461E+02 -0.79899658018E+02  0.12680574313E+03  0.90749507562E+02 0.  0.
         23    2    1    2    0    0 -0.31287581832E+02  0.21939809461E+02 -0.13255621270E+04  0.13319995995E+04  0.12509081669E+03 0.  0.
          5    1    4    4  502    0 -0.46459663642E+02 -0.34585455082E+02 -0.96035400996E+03  0.96210807651E+03  0.41800000000E+01 0. -1.
         -5    1    4    4    0  502  0.15172081810E+02  0.56525264543E+02 -0.36520811709E+03  0.36989152300E+03  0.41800000000E+01 0. -1.
        -11    1    3    3    0    0  0.57619907435E+02 -0.77283279788E+01 -0.77368476199E+02  0.96776349877E+02  0.00000000000E+00 0. -1.
         11    1    3    3    0    0 -0.26332325603E+02 -0.14211481483E+02 -0.25311818188E+01  0.30029393250E+02  0.00000000000E+00 0.  1.
</event>
<event>
 8    1  0.8061721E-006  0.9937831E+02  0.7561462E-02  0.1281609E+00
          1   -1    0    0  501    0  0.00000000000E+00  0.00000000000E+00  0.33995779615E+02  0.33995779615E+02  0.00000000000E+00 0. -1.
         -1   -1    0    0    0  501 -0.00000000000E+00 -0.00000000000E+00 -0.40462801800E+03  0.40462801800E+03  0.00000000000E+00 0.  1.
         23    2    1    2    0    0  0.20570590534E+02  0.36582765606E+02 -0.19068015408E+03  0.21547663730E+03  0.91158170927E+02 0.  0.
         23    2    1    2    0    0 -0.20570590534E+02 -0.36582765606E+02 -0.17995208430E+03  0.22314716032E+03  0.12510177688E+03 0.  0.
          5    1    4    4  502    0 -0.43969862328E+02 -0.54893935995E+02 -0.42119884057E+02  0.82086844470E+02  0.41800000000E+01 0. -1.
         -5    1    4    4    0  502  0.23399271794E+02  0.18311170389E+02 -0.13783220025E+03  0.14106031585E+03  0.41800000000E+01 0. -1.
        -11    1    3    3    0    0  0.55609272319E+02  0.16972334310E+02 -0.90708633760E+02  0.10774278416E+03  0.00000000000E+00 0. -1.
         11    1    3    3    0    0 -0.35038681785E+02  0.19610431296E+02 -0.99971520318E+02  0.10773385314E+03  0.00000000000E+00 0.  1.
</event>
<event>
 8    1  0.8061721E-006  0.8391870E+02  0.7561462E-02  0.1318285E+00
          1   -1    0    0  501    0  0.00000000000E+00  0.00000000000E+00  0.61483783588E+03  0.61483783588E+03  0.00000000000E+00 0. -1.
         -1   -1    0    0    0  501 -0.00000000000E+00 -0.00000000000E+00 -0.16104382260E+03  0.16104382260E+03  0.00000000000E+00 0.  1.
         23    2    1    2    0    0  0.39579311785E+02 -0.28492271369E+02 -0.13626985119E+03  0.17065573585E+03  0.90418893979E+02 0.  0.
         23    2    1    2    0    0 -0.39579311785E+02  0.28492271369E+02  0.59006386447E+03  0.60522592263E+03  0.12547797347E+03 0.  0.
          5    1    4    4  502    0 -0.20486670042E+02 -0.22383065197E+02  0.49266085755E+03  0.49361209286E+03  0.41800000000E+01 0. -1.
         -5    1    4    4    0  502 -0.19092641743E+02  0.50875336566E+02  0.97403006919E+02  0.11161382977E+03  0.41800000000E+01 0.  1.
        -11    1    3    3    0    0  0.52967760412E+02 -0.19783021352E+01 -0.12987195039E+03  0.14027195308E+03  0.00000000000E+00 0.  1.
         11    1    3    3    0    0 -0.13388448627E+02 -0.26513969234E+02 -0.63979007976E+01  0.30383782776E+02  0.00000000000E+00 0. -1.
</event>
<event>
 8    1  0.9681623E-006  0.1047019E+03  0.7561462E-02  0.1270708E+00
          1   -1    0    0  501    0  0.00000000000E+00  0.00000000000E+00  0.68171010984E+03  0.68171010984E+03  0.00000000000E+00 0. -1.
         -1   -1    0    0    0  501 -0.00000000000E+00 -0.00000000000E+00 -0.24670996014E+02  0.24670996014E+02  0.00000000000E+00 0.  1.
         23    2    1    2    0    0  0.41213900916E+02 -0.46446481983E+02  0.19138945458E+03  0.22024019065E+03  0.89554212278E+02 0.  0.
         23    2    1    2    0    0 -0.41213900916E+02  0.46446481983E+02  0.46564965925E+03  0.48614091521E+03  0.12509005939E+03 0.  0.
          5    1    4    4  502    0 -0.56009987799E+02 -0.11681347787E+02  0.97592659483E+02  0.11320500079E+03  0.41800000000E+01 0.  1.
         -5    1    4    4    0  502  0.14796086883E+02  0.58127829771E+02  0.36805699977E+03  0.37293591441E+03  0.41800000000E+01 0.  1.
        -11    1    3    3    0    0  0.43271449336E+02  0.20970350456E+01  0.15089440266E+03  0.15699024377E+03  0.00000000000E+00 0. -1.
         11    1    3    3    0    0 -0.20575484195E+01 -0.48543517029E+02  0.40495051917E+02  0.63249946884E+02  0.00000000000E+00 0.  1.
</event>
<event>
 8    1  0.8061721E-006  0.1170707E+03  0.7561462E-02  0.1248009E+00
          1   -1    0    0  501    0  0.00000000000E+00  0.00000000000E+00  0.15995874863E+04  0.15995874863E+04  0.00000000000E+00 0. -1.
         -1   -1    0    0    0  501 -0.00000000000E+00 -0.00000000000E+00 -0.12847733567E+02  0.12847733567E+02  0.00000000000E+00 0.  1.
         23    2    1    2    0    0 -0.45073208931E+02 -0.82088874508E+02  0.67212536830E+03  0.68456825281E+03  0.90061115723E+02 0.  0.
         23    2    1    2    0    0  0.45073208931E+02  0.82088874508E+02  0.91461438442E+03  0.92786696704E+03  0.12508980316E+03 0.  0.
          5    1    4    4  502    0  0.11178788227E+02 -0.31936746977E+01  0.59968355120E+03  0.59981080254E+03  0.41800000000E+01 0.  1.
         -5    1    4    4    0  502  0.33894420704E+02  0.85282549206E+02  0.31493083322E+03  0.32805616450E+03  0.41800000000E+01 0.  1.
        -11    1    3    3    0    0 -0.33418715507E+02  0.11701899512E+02  0.18641570511E+03  0.18974867617E+03  0.00000000000E+00 0. -1.
         11    1    3    3    0    0 -0.11654493424E+02 -0.93790774019E+02  0.48570966319E+03  0.49481957663E+03  0.00000000000E+00 0.  1.
</event>
<event>
 8    1  0.8061721E-006  0.8409062E+02  0.7561462E-02  0.1317828E+00
         -4   -1    0    0    0  501 -0.00000000000E+00  0.00000000000E+00  0.34441545992E+02  0.34441545992E+02  0.00000000000E+00 0.  1.
          4   -1    0    0  501    0  0.00000000000E+00 -0.00000000000E+00 -0.36871293277E+03  0.36871293277E+03  0.00000000000E+00 0. -1.
         23    2    1    2    0    0  0.18382007967E+02 -0.77371121487E+01 -0.95446170129E+02  0.13281056104E+03  0.90171573179E+02 0.  0.
         23    2    1    2    0    0 -0.18382007967E+02  0.77371121487E+01 -0.23882521664E+03  0.27034391772E+03  0.12510231261E+03 0.  0.
          5    1    4    4  502    0 -0.13583289422E+00  0.59289868997E+02 -0.18160152832E+03  0.19108085855E+03  0.41800000000E+01 0. -1.
         -5    1    4    4    0  502 -0.18246175072E+02 -0.51552756848E+02 -0.57223688324E+02  0.79263059169E+02  0.41800000000E+01 0. -1.
        -11    1    3    3    0    0 -0.85035233926E+00  0.20070010622E+02  0.97395324283E+01  0.22324581012E+02  0.00000000000E+00 0.  1.
         11    1    3    3    0    0  0.19232360306E+02 -0.27807122770E+02 -0.10518570256E+03  0.11048598003E+03  0.00000000000E+00 0. -1.
</event>
<event>
 8    1  0.8061721E-006  0.2809414E+03  0.7561462E-02  0.1095176E+00
          2   -1    0    0  501    0  0.00000000000E+00  0.00000000000E+00  0.26757161445E+04  0.26757161445E+04  0.00000000000E+00 0. -1.
         -2   -1    0    0    0  501 -0.00000000000E+00 -0.00000000000E+00 -0.30394578285E+02  0.30394578285E+02  0.00000000000E+00 0.  1.
         23    2    1    2    0    0 -0.23330048916E+03  0.11543225530E+03  0.11098754885E+04  0.11437424617E+04  0.92571566165E+02 0.  0.
         23    2    1    2    0    0  0.23330048916E+03 -0.11543225530E+03  0.15354460777E+04  0.15623682611E+04  0.12508477902E+03 0.  0.
          5    1    4    4  502    0  0.24674252284E+03 -0.11839943581E+03  0.14792620993E+04  0.15043716728E+04  0.41800000000E+01 0.  1.
         -5    1    4    4    0  502 -0.13442033679E+02  0.29671805020E+01  0.56183978399E+02  0.57996588333E+02  0.41800000000E+01 0.  1.
        -11    1    3    3    0    0 -0.97384001209E+02  0.95534368270E+02  0.47658561020E+03  0.49572603630E+03  0.00000000000E+00 0. -1.
         11    1    3    3    0    0 -0.13591648795E+03  0.19897887034E+02  0.63328987834E+03  0.64801642542E+03  0.00000000000E+00 0.  1.
</event>
<event>
 8    1  0.8061721E-006  0.8912497E+02  0.7561462E-02  0.1304985E+00
          1   -1    0    0  501    0  0.00000000000E+00  0.00000000000E+00  0.13786061152E+03  0.13786061152E+03  0.00000000000E+00 0.  1.
         -1   -1    0    0    0  501 -0.00000000000E+00 -0.00000000000E+00 -0.21535768742E+03  0.21535768742E+03  0.00000000000E+00 0. -1.
         23    2    1    2    0    0  0.27355108894E+02  0.37342543146E+01 -0.17004112749E+03  0.19518904139E+03  0.91774343929E+02 0.  0.
         23    2    1    2    0    0 -0.27355108894E+02 -0.37342543146E+01  0.92544051590E+02  0.15802925754E+03  0.12508636263E+03 0.  0.
          5    1    4    4  502    0 -0.41225345021E+02 -0.52343817924E+02  0.20339339445E+02  0.69789436708E+02  0.41800000000E+01 0.  1.
         -5    1    4    4    0  502  0.13870236128E+02  0.48609563610E+02  0.72204712145E+02  0.88239820832E+02  0.41800000000E+01 0.  1.
        -11    1    3    3    0    0 -0.87171874238E+01 -0.17040631441E+02  0.98861693201E+00  0.19166372633E+02  0.00000000000E+00 0.  1.
         11    1    3    3    0    0  0.36072296317E+02  0.20774885756E+02 -0.17102974442E+03  0.17602266876E+03  0.00000000000E+00 0. -1.
</event>
<event>
 8    1  0.8061721E-006  0.9432908E+02  0.7561462E-02  0.1292694E+00
         -1   -1    0    0    0  501 -0.00000000000E+00  0.00000000000E+00  0.29239280590E+02  0.29239280590E+02  0.00000000000E+00 0.  1.
          1   -1    0    0  501    0  0.00000000000E+00 -0.00000000000E+00 -0.55713011242E+03  0.55713011242E+03  0.00000000000E+00 0. -1.
         23    2    1    2    0    0 -0.58519944127E+02 -0.43026250037E+02 -0.23315022340E+03  0.25803023221E+03  0.83335058711E+02 0.  0.
         23    2    1    2    0    0  0.58519944127E+02  0.43026250037E+02 -0.29474060843E+03  0.32833916080E+03  0.12513487205E+03 0.  0.
          5    1    4    4  502    0  0.24562872367E+02  0.46336513369E+02 -0.28868116150E+03  0.29343601104E+03  0.41800000000E+01 0. -1.
         -5    1    4    4    0  502  0.33957071759E+02 -0.33102633316E+01 -0.60594469261E+01  0.34903149755E+02  0.41800000000E+01 0. -1.
        -11    1    3    3    0    0 -0.19471081569E+02  0.19756405436E+02 -0.11777662719E+03  0.12099905985E+03  0.00000000000E+00 0. -1.
         11    1    3    3    0    0 -0.39048862558E+02 -0.62782655473E+02 -0.11537359622E+03  0.13703117236E+03  0.00000000000E+00 0.  1.
</event>
<event>
 8    1  0.8061721E-006  0.7602597E+02  0.7561462E-02  0.1340723E+00
          4   -1    0    0  501    0  0.00000000000E+00  0.00000000000E+00  0.27692240225E+03  0.27692240225E+03  0.00000000000E+00 0. -1.
         -4   -1    0    0    0  501 -0.00000000000E+00 -0.00000000000E+00 -0.65590792557E+02  0.65590792557E+02  0.00000000000E+00 0.  1.
         23    2    1    2    0    0 -0.11149530064E+02 -0.10857292174E+02 -0.47005805851E+01  0.92394739527E+02  0.90953282626E+02 0.  0.
         23    2    1    2    0    0  0.11149530064E+02  0.10857292174E+02  0.21603219028E+03  0.25011845528E+03  0.12508853513E+03 0.  0.
          5    1    4    4  502    0  0.11019245578E+02 -0.24841264922E+02 -0.34517548446E+01  0.27710994705E+02  0.41800000000E+01 0. -1.
         -5    1    4    4    0  502  0.13028448574E+00  0.35698557095E+02  0.21948394513E+03  0.22240746058E+03  0.41800000000E+01 0. -1.
        -11    1    3    3    0    0 -0.82407601212E+01 -0.49339064046E+02  0.10154541832E+02  0.51042806428E+02  0.00000000000E+00 0.  1.
         11    1    3    3    0    0 -0.29087699429E+01  0.38481771872E+02 -0.14855122417E+02  0.41351933099E+02  0.00000000000E+00 0. -1.
</event>
<event>
 8    1  0.8061721E-006  0.9100661E+02  0.7561462E-02  0.1300432E+00
          2   -1    0    0  501    0  0.00000000000E+00  0.00000000000E+00  0.12604332579E+03  0.12604332579E+03  0.00000000000E+00 0.  1.
         -2   -1    0    0    0  501 -0.00000000000E+00 -0.00000000000E+00 -0.10304452043E+03  0.10304452043E+03  0.00000000000E+00 0. -1.
         23    2    1    2    0    0 -0.30035201754E+02 -0.11530757016E+02 -0.10978952972E+02  0.95531036811E+02  0.89278048165E+02 0.  0.
         23    2    1    2    0    0  0.30035201754E+02  0.11530757016E+02  0.33977758330E+02  0.13355680941E+03  0.12509141288E+03 0.  0.
          5    1    4    4  502    0  0.39284526989E+02  0.49728885690E+02 -0.20063102819E+02  0.66605079592E+02  0.41800000000E+01 0. -1.
         -5    1    4    4    0  502 -0.92493252353E+01 -0.38198128674E+02  0.54040861148E+02  0.66951729815E+02  0.41800000000E+01 0. -1.
        -11    1    3    3    0    0 -0.52770304177E+02  0.14652610094E+01  0.18649796500E+02  0.55988096076E+02  0.00000000000E+00 0.  1.
         11    1    3    3    0    0  0.22735102423E+02 -0.12996018026E+02 -0.29628749472E+02  0.39542940735E+02  0.00000000000E+00 0. -1.
</event>
<event>
 8    1  0.8061721E-006  0.1133654E+03  0.7561462E-02  0.1254462E+00
          2   -1    0    0  501    0  0.00000000000E+00  0.00000000000E+00  0.89299451570E+03  0.89299451570E+03  0.00000000000E+00 0. -1.
         -2   -1    0    0    0  501 -0.00000000000E+00 -0.00000000000E+00 -0.15556834691E+02  0.15556834691E+02  0.00000000000E+00 0.  1.
         23    2    1    2    0    0 -0.41280308837E+02  0.10287806426E+02  0.29898070268E+03  0.31519120163E+03  0.90255914755E+02 0.  0.
         23    2    1    2    0    0  0.41280308837E+02 -0.10287806426E+02  0.57845697832E+03  0.59336014876E+03  0.12511549667E+03 0.  0.
          5    1    4    4  502    0 -0.36652465671E+00  0.54694101078E+02  0.23938632314E+03  0.24559084498E+03  0.41800000000E+01 0.  1.
         -5    1    4    4    0  502  0.41646833494E+02 -0.64981907503E+02  0.33907065518E+03  0.34776930378E+03  0.41800000000E+01 0.  1.
        -11    1    3    3    0    0 -0.61019215535E+02  0.28840167484E+02  0.25277607213E+03  0.26163111927E+03  0.00000000000E+00 0. -1.
         11    1    3    3    0    0  0.19738906698E+02 -0.18552361058E+02  0.46204630550E+02  0.53560082363E+02  0.00000000000E+00 0.  1.
</event>
<event>
 8    1  0.8061721E-006  0.1211915E+03  0.7561462E-02  0.1241144E+00
         -2   -1    0    0    0  501 -0.00000000000E+00  0.00000000000E+00  0.70005444699E+02  0.70005444699E+02  0.00000000000E+00 0.  1.
          2   -1    0    0  501    0  0.00000000000E+00 -0.00000000000E+00 -0.35938046490E+03  0.35938046490E+03  0.00000000000E+00 0. -1.
         23    2    1    2    0    0  0.98578044044E+02  0.21382055636E+02 -0.69741287299E+02  0.15724390177E+03  0.98422428437E+02 0.  0.
         23    2    1    2    0    0 -0.98578044044E+02 -0.21382055636E+02 -0.21963373290E+03  0.27214200783E+03  0.12508985860E+03 0.  0.
          5    1    4    4  502    0 -0.87052771467E+02 -0.20703411334E+02 -0.51034218512E+02  0.10309597529E+03  0.41800000000E+01 0. -1.
         -5    1    4    4    0  502 -0.11525272577E+02 -0.67864430191E+00 -0.16859951439E+03  0.16904603254E+03  0.41800000000E+01 0. -1.
        -11    1    3    3    0    0  0.40278669190E+02 -0.39371587545E+02 -0.33838259661E+02  0.65707845151E+02  0.00000000000E+00 0. -1.
         11    1    3    3    0    0  0.58299374854E+02  0.60753643180E+02 -0.35903027639E+02  0.91536056621E+02  0.00000000000E+00 0.  1.
</event>
<event>
 8    1  0.8061721E-006  0.1298023E+03  0.7561462E-02  0.1227749E+00
          1   -1    0    0  501    0  0.00000000000E+00  0.00000000000E+00  0.13352915215E+03  0.13352915215E+03  0.00000000000E+00 0. -1.
         -1   -1    0    0    0  501 -0.00000000000E+00 -0.00000000000E+00 -0.24302685963E+03  0.24302685963E+03  0.00000000000E+00 0.  1.
         23    2    1    2    0    0 -0.35745211174E+02  0.11046053783E+03 -0.13965769283E+03  0.20324599298E+03  0.91243695438E+02 0.  0.
         23    2    1    2    0    0  0.35745211174E+02 -0.11046053783E+03  0.30159985348E+02  0.17331001880E+03  0.12508991711E+03 0.  0.
          5    1    4    4  502    0  0.31318767137E+02 -0.79047988482E+00 -0.33743698412E+02  0.46234182333E+02  0.41800000000E+01 0. -1.
         -5    1    4    4    0  502  0.44264440370E+01 -0.10967005794E+03  0.63903683760E+02  0.12707583647E+03  0.41800000000E+01 0. -1.
        -11    1    3    3    0    0 -0.31410931786E+02  0.61975685938E+02 -0.17360630277E+02  0.71617203009E+02  0.00000000000E+00 0. -1.
         11    1    3    3    0    0 -0.43342793878E+01  0.48484851890E+02 -0.12229706255E+03  0.13162878997E+03  0.00000000000E+00 0.  1.
</event>
<event>
 8    1  0.8061721E-006  0.1820233E+03  0.7561462E-02  0.1165859E+00
          3   -1    0    0  501    0  0.00000000000E+00  0.00000000000E+00  0.92822134706E+03  0.92822134706E+03  0.00000000000E+00 0. -1.
         -3   -1    0    0    0  501 -0.00000000000E+00 -0.00000000000E+00 -0.53766541430E+02  0.53766541430E+02  0.00000000000E+00 0.  1.
         23    2    1    2    0    0  0.17952732889E+03  0.83405128689E+00  0.25537259910E+03  0.32537622887E+03  0.91781090024E+02 0.  0.
         23    2    1    2    0    0 -0.17952732889E+03 -0.83405128689E+00  0.61908220653E+03  0.65661165962E+03  0.12508131609E+03 0.  0.
          5    1    4    4  502    0 -0.81955399772E+02  0.11947078157E+02  0.10821076511E+03  0.13633217637E+03  0.41800000000E+01 0. -1.
         -5    1    4    4    0  502 -0.97571929121E+02 -0.12781129444E+02  0.51087144143E+03  0.52027948325E+03  0.41800000000E+01 0. -1.
        -11    1    3    3    0    0  0.46038555435E+02 -0.14477547333E+02  0.15951628278E+02  0.50829149197E+02  0.00000000000E+00 0.  1.
         11    1    3    3    0    0  0.13348877346E+03  0.15311598620E+02  0.23942097082E+03  0.27454707968E+03  0.00000000000E+00 0. -1.
</event>
<event>
 8    1  0.8061721E-006  0.8770410E+02  0.7561462E-02  0.1308509E+00
         -2   -1    0    0    0  501 -0.00000000000E+00  0.00000000000E+00  0.92766211895E+02  0.92766211895E+02  0.00000000000E+00 0.  1.
          2   -1    0    0  501    0  0.00000000000E+00 -0.00000000000E+00 -0.15084152521E+03  0.15084152521E+03  0.00000000000E+00 0. -1.
         23    2    1    2    0    0  0.36874966014E+02  0.28646965471E+02 -0.93306101830E+01  0.10146621207E+03  0.89598661574E+02 0.  0.
         23    2    1    2    0    0 -0.36874966014E+02 -0.28646965471E+02 -0.48744703128E+02  0.14214152503E+03  0.12509098811E+03 0.  0.
          5    1    4    4  502    0 -0.19750007302E+02  0.16875565188E+02  0.35851561755E+02  0.44470826045E+02  0.41800000000E+01 0. -1.
         -5    1    4    4    0  502 -0.17124958712E+02 -0.45522530659E+02 -0.84596264883E+02  0.97670698987E+02  0.41800000000E+01 0. -1.
        -11    1    3    3    0    0  0.39001230399E+02 -0.25171923783E+02 -0.10503816696E+02  0.47592561233E+02  0.00000000000E+00 0. -1.
         11    1    3    3    0    0 -0.21262643845E+01  0.53818889254E+02  0.11732065132E+01  0.53873650835E+02  0.00000000000E+00 0.  1.
</event>
<event>
 6    1  0.8061721E-006  0.1582427E+03  0.7561462E-02  0.1190695E+00
          2   -1    0    0  501    0  0.00000000000E+00  0.00000000000E+00  0.12587763455E+04  0.12587763455E+04  0.00000000000E+00 0. -1.
         -2   -1    0    0    0  501 -0.00000000000E+00 -0.00000000000E+00 -0.33537394149E+02  0.33537394149E+02  0.00000000000E+00 0.  1.
          5    1    1    2  502    0  0.65572786619E+02 -0.45999193492E+02  0.67047612470E+03  0.67525656038E+03  0.41800000000E+01 0. -1.
         -5    1    1    2    0  502 -0.37667173942E+02  0.13458910576E+03  0.45932405190E+03  0.48013446079E+03  0.41800000000E+01 0.  1.
        -11    1    1    2    0    0  0.49853500943E+01 -0.16058016981E+02  0.79018594053E+01  0.18578293974E+02  0.00000000000E+00 0. -1.
         11    1    1    2    0    0 -0.32890962772E+02 -0.72531895283E+02  0.87536915379E+02  0.11834442454E+03  0.00000000000E+00 0.  1.
</event>
<event>
 8    1  0.8061721E-006  0.1186026E+03  0.7561462E-02  0.1245420E+00
         -3   -1    0    0    0  501 -0.00000000000E+00  0.00000000000E+00  0.47960805819E+03  0.47960805819E+03  0.00000000000E+00 0.  1.
          3   -1    0    0  501    0  0.00000000000E+00 -0.00000000000E+00 -0.39064034917E+02  0.39064034917E+02  0.00000000000E+00 0. -1.
         23    2    1    2    0    0 -0.68633956490E+02 -0.26670529787E+02  0.20544963475E+03  0.24237692197E+03  0.10542809275E+03 0.  0.
         23    2    1    2    0    0  0.68633956490E+02  0.26670529787E+02  0.23509438852E+03  0.27629517113E+03  0.12509081876E+03 0.  0.
          5    1    4    4  502    0  0.83862032836E+02 -0.19336894863E+01  0.22783795857E+03  0.24282542592E+03  0.41800000000E+01 0.  1.
         -5    1    4    4    0  502 -0.15228076346E+02  0.28604219273E+02  0.72564299456E+01  0.33469745218E+02  0.41800000000E+01 0.  1.
        -11    1    3    3    0    0 -0.17695210196E+02 -0.58068727318E+02  0.61162652956E+02  0.86174054522E+02  0.00000000000E+00 0. -1.
         11    1    3    3    0    0 -0.50938746295E+02  0.31398197531E+02  0.14428698180E+03  0.15620286745E+03  0.00000000000E+00 0.  1.
</event>
<event>
 8    1  0.8061721E-006  0.9937919E+02  0.7561462E-02  0.1281607E+00
          3   -1    0    0  501    0  0.00000000000E+00  0.00000000000E+00  0.26069566726E+03  0.26069566726E+03  0.00000000000E+00 0. -1.
         -3   -1    0    0    0  501 -0.00000000000E+00 -0.00000000000E+00 -0.83832444797E+02  0.83832444797E+02  0.00000000000E+00 0.  1.
         23    2    1    2    0    0  0.74900477031E+02 -0.54688961003E+02  0.37253575404E+02  0.13538837512E+03  0.91330276038E+02 0.  0.
         23    2    1    2    0    0 -0.74900477031E+02  0.54688961003E+02  0.13960964706E+03  0.20913973694E+03  0.12509041570E+03 0.  0.
          5    1    4    4  502    0 -0.16412855438E+02  0.12757709672E+02 -0.22990949210E+02  0.31276143069E+02  0.41800000000E+01 0.  1.
         -5    1    4    4    0  502 -0.58487621593E+02  0.41931251331E+02  0.16260059627E+03  0.17786359387E+03  0.41800000000E+01 0.  1.
        -11    1    3    3    0    0  0.15588679619E+02 -0.42019159456E+02  0.56168279085E+02  0.71857444075E+02  0.00000000000E+00 0.  1.
         11    1    3    3    0    0  0.59311797412E+02 -0.12669801547E+02 -0.18914703682E+02  0.63530931041E+02  0.00000000000E+00 0. -1.
</event>
<event>
 8    1  0.8061721E-006  0.1104901E+03  0.7561462E-02  0.1259665E+00
         -1   -1    0    0    0  501 -0.00000000000E+00  0.00000000000E+00  0.15927625697E+02  0.15927625697E+02  0.00000000000E+00 0.  1.
          1   -1    0    0  501    0  0.00000000000E+00 -0.00000000000E+00 -0.10053949124E+04  0.10053949124E+04  0.00000000000E+00 0. -1.
         23    2    1    2    0    0 -0.39281582044E+02 -0.23407399719E+02 -0.24085538077E+03  0.26095566111E+03  0.89418083006E+02 0.  0.
         23    2    1    2    0    0  0.39281582044E+02  0.23407399719E+02 -0.74861190589E+03  0.76036687695E+03  0.12508818037E+03 0.  0.
          5    1    4    4  502    0  0.56853110302E+02 -0.36546140993E+02 -0.46655293641E+03  0.47144141889E+03  0.41800000000E+01 0. -1.
         -5    1    4    4    0  502 -0.17571528257E+02  0.59953540712E+02 -0.28205896948E+03  0.28892545806E+03  0.41800000000E+01 0. -1.
        -11    1    3    3    0    0  0.12020184695E+02 -0.35891412430E+02 -0.48706440758E+02  0.61684647179E+02  0.00000000000E+00 0.  1.
         11    1    3    3    0    0 -0.51301766740E+02  0.12484012711E+02 -0.19214894001E+03  0.19927101393E+03  0.00000000000E+00 0. -1.
</event>
<event>
 8    1  0.8061721E-006  0.1085971E+03  0.7561462E-02  0.1263190E+00
          2   -1    0    0  501    0  0.00000000000E+00  0.00000000000E+00  0.12600562226E+03  0.12600562226E+03  0.00000000000E+00 0. -1.
         -2   -1    0    0    0  501 -0.00000000000E+00 -0.00000000000E+00 -0.13342891224E+03  0.13342891224E+03  0.00000000000E+00 0.  1.
         23    2    1    2    0    0 -0.68740109399E+02  0.25683671522E+01 -0.20179630998E+02  0.11611032814E+03  0.91337788699E+02 0.  0.
         23    2    1    2    0    0  0.68740109399E+02 -0.25683671522E+01  0.12756341021E+02  0.14332420635E+03  0.12508918714E+03 0.  0.
          5    1    4    4  502    0  0.78614320194E+02  0.24862807446E+02 -0.32999319024E+02  0.88908930877E+02  0.41800000000E+01 0. -1.
         -5    1    4    4    0  502 -0.98742107944E+01 -0.27431174598E+02  0.45755660045E+02  0.54415275473E+02  0.41800000000E+01 0. -1.
        -11    1    3    3    0    0 -0.86842194436E+02 -0.38075167621E+00 -0.33879614379E+02  0.93217702057E+02  0.00000000000E+00 0.  1.
         11    1    3    3    0    0  0.18102085037E+02  0.29491188285E+01  0.13699983381E+02  0.22892626087E+02  0.00000000000E+00 0. -1.
</event>
<event>
 8    1  0.8061721E-006  0.7459082E+02  0.7561462E-02  0.1345143E+00
          2   -1    0    0  501    0  0.00000000000E+00  0.00000000000E+00  0.41366810892E+03  0.41366810892E+03  0.00000000000E+00 0. -1.
         -2   -1    0    0    0  501 -0.00000000000E+00 -0.00000000000E+00 -0.32928411919E+02  0.32928411919E+02  0.00000000000E+00 0.  1.
         23    2    1    2    0    0 -0.18083075079E+02 -0.36818829801E+02  0.14901711777E+03  0.18009093574E+03  0.92433867784E+02 0.  0.
         23    2    1    2    0    0  0.18083075079E+02  0.36818829801E+02  0.23172257923E+03  0.26650558510E+03  0.12508896568E+03 0.  0.
          5    1    4    4  502    0  0.45733953156E+02  0.25937480486E+02  0.23051702235E+03  0.23647392533E+03  0.41800000000E+01 0.  1.
         -5    1    4    4    0  502 -0.27650878077E+02  0.10881349315E+02  0.12055568736E+01  0.30031659773E+02  0.41800000000E+01 0.  1.
        -11    1    3    3    0    0 -0.25031709123E+02  0.37152025162E+01 -0.20371985775E+00  0.25306732170E+02  0.00000000000E+00 0.  1.
         11    1    3    3    0    0  0.69486340437E+01 -0.40534032317E+02  0.14922083763E+03  0.15478420357E+03  0.00000000000E+00 0. -1.
</event>
<event>
 8    1  0.8061721E-006  0.1897958E+03  0.7561462E-02  0.1158646E+00
         -1   -1    0    0    0  501 -0.00000000000E+00  0.00000000000E+00  0.12567619923E+03  0.12567619923E+03  0.00000000000E+00 0.  1.
          1   -1    0    0  501    0  0.00000000000E+00 -0.00000000000E+00 -0.30826849791E+03  0.30826849791E+03  0.00000000000E+00 0. -1.
         23    2    1    2    0    0  0.84837563249E+02  0.13825970837E+03 -0.63782936519E+02  0.19713949907E+03  0.92100814344E+02 0.  0.
         23    2    1    2    0    0 -0.84837563249E+02 -0.13825970837E+03 -0.11880936217E+03  0.23680519808E+03  0.12509147932E+03 0.  0.
          5    1    4    4  502    0 -0.83407443186E+02 -0.27207222432E+02 -0.24877034494E+02  0.91287314433E+02  0.41800000000E+01 0. -1.
         -5    1    4    4    0  502 -0.14301200636E+01 -0.11105248594E+03 -0.93932327675E+02  0.14551788364E+03  0.41800000000E+01 0. -1.
        -11    1    3    3    0    0  0.95545153595E+02  0.90252110873E+02 -0.67613034899E+02  0.14780339097E+03  0.00000000000E+00 0. -1.
         11    1    3    3    0    0 -0.10707590346E+02  0.48007597501E+02  0.38300983799E+01  0.49336108100E+02  0.00000000000E+00 0.  1.
</event>
<event>
 8    1  0.8061721E-006  0.1814862E+03  0.7561462E-02  0.1166372E+00
         -2   -1    0    0    0  501 -0.00000000000E+00  0.00000000000E+00  0.75777311666E+02  0.75777311666E+02  0.00000000000E+00 0.  1.
          2   -1    0    0  501    0  0.00000000000E+00 -0.00000000000E+00 -0.49856118245E+03  0.49856118245E+03  0.00000000000E+00 0. -1.
         23    2    1    2    0    0  0.15185046917E+03 -0.48897283308E+02 -0.14950202517E+03  0.23409704507E+03  0.83672347153E+02 0.  0.
         23    2    1    2    0    0 -0.15185046917E+03  0.48897283308E+02 -0.27328184562E+03  0.34024144905E+03  0.12502706589E+03 0.  0.
          5    1    4    4  502    0  0.16697357930E+02 -0.43502252984E+01 -0.63264156093E+02  0.65708082214E+02  0.41800000000E+01 0.  1.
         -5    1    4    4    0  502 -0.16854782710E+03  0.53247508606E+02 -0.21001768952E+03  0.27453336683E+03  0.41800000000E+01 0.  1.
        -11    1    3    3    0    0  0.79001103836E+02 -0.53506061598E+02 -0.42224763729E+02  0.10434080557E+03  0.00000000000E+00 0. -1.
         11    1    3    3    0    0  0.72849365334E+02  0.46087782897E+01 -0.10727726144E+03  0.12975623950E+03  0.00000000000E+00 0.  1.
</event>
<event>
 8    1  0.8061721E-006  0.2463746E+03  0.7561462E-02  0.1115618E+00
          2   -1    0    0  501    0  0.00000000000E+00  0.00000000000E+00  0.11640402823E+04  0.11640402823E+04  0.00000000000E+00 0. -1.
         -2   -1    0    0    0  501 -0.00000000000E+00 -0.00000000000E+00 -0.57151731235E+02  0.57151731235E+02  0.00000000000E+00 0.  1.
         23    2    1    2    0    0  0.99306258412E+01 -0.23335711505E+03  0.51176315109E+03  0.56974989152E+03  0.90328597883E+02 0.  0.
         23    2    1    2    0    0 -0.99306258412E+01  0.23335711505E+03  0.59512539995E+03  0.65144212199E+03  0.12509370954E+03 0.  0.
          5    1    4    4  502    0  0.29510840828E+02  0.14492565917E+03  0.22848396418E+03  0.27220714667E+03  0.41800000000E+01 0. -1.
         -5    1    4    4    0  502 -0.39441466669E+02  0.88431455884E+02  0.36664143577E+03  0.37923497533E+03  0.41800000000E+01 0. -1.
        -11    1    3    3    0    0 -0.33760733167E+02 -0.15006535342E+03  0.35573606737E+03  0.38756618406E+03  0.00000000000E+00 0. -1.
         11    1    3    3    0    0  0.43691359008E+02 -0.83291761634E+02  0.15602708372E+03  0.18218370746E+03  0.00000000000E+00 0.  1.
</event>
<event>
 8    1  0.8061721E-006  0.1417285E+03  0.7561462E-02  0.1211022E+00
         -1   -1    0    0    0  501 -0.00000000000E+00  0.00000000000E+00  0.79028317429E+03  0.79028317429E+03  0.00000000000E+00 0.  1.
          1   -1    0    0  501    0  0.00000000000E+00 -0.00000000000E+00 -0.29519505099E+02  0.29519505099E+02  0.00000000000E+00 0. -1.
         23    2    1    2    0    0  0.91893420810E+02 -0.53682056478E+02  0.32687693623E+03  0.35587274535E+03  0.92036489861E+02 0.  0.
         23    2    1    2    0    0 -0.91893420810E+02  0.53682056478E+02  0.43388673296E+03  0.46392993404E+03  0.12508845944E+03 0.  0.
          5    1    4    4  502    0  0.12271621557E+02  0.58161818276E+02  0.14442025272E+03  0.15623082794E+03  0.41800000000E+01 0.  1.
         -5    1    4    4    0  502 -0.10416504237E+03 -0.44797617974E+01  0.28946648024E+03  0.30769910611E+03  0.41800000000E+01 0.  1.
        -11    1    3    3    0    0  0.95042369893E+02 -0.36110286586E+02  0.32155351287E+03  0.33724422384E+03  0.00000000000E+00 0.  1.
         11    1    3    3    0    0 -0.31489490824E+01 -0.17571769893E+02  0.53234233634E+01  0.18628521514E+02  0.00000000000E+00 0. -1.
</event>
<event>
 7    1  0.8061721E-006  0.8460027E+02  0.7561462E-02  0.1316481E+00
         -1   -1    0    0    0  501 -0.00000000000E+00  0.00000000000E+00  0.21002559082E+02  0.21002559082E+02  0.00000000000E+00 0.  1.
          1   -1    0    0  501    0  0.00000000000E+00 -0.00000000000E+00 -0.83395936093E+03  0.83395936093E+03  0.00000000000E+00 0. -1.
         23    2    1    2    0    0  0.22980728450E+02 -0.59903016458E+01 -0.16794038602E+03  0.18874335889E+03  0.82801477490E+02 0.  0.
          5    1    1    2  502    0  0.32637207340E+02  0.14780569987E+02 -0.57564081297E+03  0.57676985923E+03  0.41800000000E+01 0. -1.
         -5    1    1    2    0  502 -0.55617935790E+02 -0.87902683412E+01 -0.69375602855E+02  0.89448701894E+02  0.41800000000E+01 0.  1.
        -11    1    3    3    0    0  0.45418305048E+02  0.13031306831E+02 -0.57350433987E+02  0.74308207283E+02  0.00000000000E+00 0.  1.
         11    1    3    3    0    0 -0.22437576598E+02 -0.19021608476E+02 -0.11058995203E+03  0.11443515160E+03  0.00000000000E+00 0. -1.
</event>
<event>
 8    1  0.8061721E-006  0.1797651E+03  0.7561462E-02  0.1168031E+00
          1   -1    0    0  501    0  0.00000000000E+00  0.00000000000E+00  0.12692934437E+04  0.12692934437E+04  0.00000000000E+00 0. -1.
         -1   -1    0    0    0  501 -0.00000000000E+00 -0.00000000000E+00 -0.25864567625E+02  0.25864567625E+02  0.00000000000E+00 0.  1.
         23    2    1    2    0    0  0.12255095821E+03 -0.67589892644E+02  0.63737600130E+03  0.66070183957E+03  0.10340030381E+03 0.  0.
         23    2    1    2    0    0 -0.12255095821E+03  0.67589892644E+02  0.60605287482E+03  0.63445617180E+03  0.12508963154E+03 0.  0.
          5    1    4    4  502    0  0.22217151332E+02 -0.56939454528E+01  0.11278280987E+03  0.11516708484E+03  0.41800000000E+01 0.  1.
         -5    1    4    4    0  502 -0.14476810954E+03  0.73283838096E+02  0.49327006495E+03  0.51928908696E+03  0.41800000000E+01 0.  1.
        -11    1    3    3    0    0  0.17058376347E+02 -0.66240910701E+02  0.23959340966E+03  0.24916630673E+03  0.00000000000E+00 0.  1.
         11    1    3    3    0    0  0.10549258186E+03 -0.13489819425E+01  0.39778259164E+03  0.41153553284E+03  0.00000000000E+00 0. -1.
</event>
<event>
 8    1  0.8061721E-006  0.7945630E+02  0.7561462E-02  0.1330601E+00
         -2   -1    0    0    0  501 -0.00000000000E+00  0.00000000000E+00  0.91629306214E+03  0.91629306214E+03  0.00000000000E+00 0.  1.
          2   -1    0    0  501    0  0.00000000000E+00 -0.00000000000E+00 -0.15840174456E+02  0.15840174456E+02  0.00000000000E+00 0. -1.
         23    2    1    2    0    0 -0.51797803922E+02  0.82752245228E+01  0.42570551035E+03  0.43838875715E+03  0.90598173411E+02 0.  0.
         23    2    1    2    0    0  0.51797803922E+02 -0.82752245228E+01  0.47474737733E+03  0.49374447944E+03  0.12508815636E+03 0.  0.
          5    1    4    4  502    0  0.32755842984E+01 -0.11762990368E+02  0.42073888609E+03  0.42093678868E+03  0.41800000000E+01 0.  1.
         -5    1    4    4    0  502  0.48522219624E+02  0.34877658447E+01  0.54008491243E+02  0.72807690763E+02  0.41800000000E+01 0.  1.
        -11    1    3    3    0    0 -0.42301209402E+02 -0.33737297591E+02  0.31473905004E+03  0.31935601949E+03  0.00000000000E+00 0.  1.
         11    1    3    3    0    0 -0.94965945200E+01  0.42012522114E+02  0.11096646031E+03  0.11903273767E+03  0.00000000000E+00 0. -1.
</event>
<event>
 8    1  0.8061721E-006  0.1147260E+03  0.7561462E-02  0.1252060E+00
         -2   -1    0    0    0  501 -0.00000000000E+00  0.00000000000E+00  0.82021664613E+01  0.82021664613E+01  0.00000000000E+00 0.  1.
          2   -1    0    0  501    0  0.00000000000E+00 -0.00000000000E+00 -0.23240403594E+04  0.23240403594E+04  0.00000000000E+00 0. -1.
         23    2    1    2    0    0 -0.34504650881E+02 -0.14277781489E+02 -0.41555796185E+03  0.42748348763E+03  0.93055287648E+02 0.  0.
         23    2    1    2    0    0  0.34504650881E+02  0.14277781489E+02 -0.19002802311E+04  0.19047590383E+04  0.12509041169E+03 0.  0.
          5    1    4    4  502    0 -0.41593013350E+02 -0.19279796537E+02 -0.55628607162E+03  0.55818756274E+03  0.41800000000E+01 0. -1.
         -5    1    4    4    0  502  0.76097664230E+02  0.33557578026E+02 -0.13439941595E+04  0.13465714755E+04  0.41800000000E+01 0. -1.
        -11    1    3    3    0    0 -0.71161100048E+01  0.39317538347E+02 -0.15550139155E+03  0.16055276584E+03  0.00000000000E+00 0.  1.
         11    1    3    3    0    0 -0.27388540876E+02 -0.53595319836E+02 -0.26005657030E+03  0.26693072179E+03  0.00000000000E+00 0. -1.
</event>
<event>
 8    1  0.8061721E-006  0.6744358E+02  0.7561462E-02  0.1369009E+00
         -2   -1    0    0    0  501 -0.00000000000E+00  0.00000000000E+00  0.19037505505E+02  0.19037505505E+02  0.00000000000E+00 0.  1.
          2   -1    0    0  501    0  0.00000000000E+00 -0.00000000000E+00 -0.91174320366E+03  0.91174320366E+03  0.00000000000E+00 0. -1.
         23    2    1    2    0    0 -0.34644297354E+02 -0.55801131409E+01 -0.16777587756E+03  0.19430107532E+03  0.91502993271E+02 0.  0.
         23    2    1    2    0    0  0.34644297354E+02  0.55801131409E+01 -0.72492982060E+03  0.73647963385E+03  0.12509053234E+03 0.  0.
          5    1    4    4  502    0  0.48643013198E+01  0.19853094834E+00 -0.69018273398E+03  0.69021256112E+03  0.41800000000E+01 0. -1.
         -5    1    4    4    0  502  0.29779996034E+02  0.53815821926E+01 -0.34747086619E+02  0.46267072732E+02  0.41800000000E+01 0. -1.
        -11    1    3    3    0    0  0.50967230749E+01  0.38347189369E+02 -0.62473137538E+02  0.73480449321E+02  0.00000000000E+00 0. -1.
         11    1    3    3    0    0 -0.39741020428E+02 -0.43927302510E+02 -0.10530274002E+03  0.12082062600E+03  0.00000000000E+00 0.  1.
</event>
<event>
 8    1  0.8061721E-006  0.1033728E+03  0.7561462E-02  0.1273359E+00
         -1   -1    0    0    0  501 -0.00000000000E+00  0.00000000000E+00  0.11998733586E+02  0.11998733586E+02  0.00000000000E+00 0.  1.
          1   -1    0    0  501    0  0.00000000000E+00 -0.00000000000E+00 -0.15693838931E+04  0.15693838931E+04  0.00000000000E+00 0. -1.
         23    2    1    2    0    0  0.20196092507E+02  0.42257089938E+02 -0.30498710650E+03  0.32188211484E+03  0.91637420955E+02 0.  0.
         23    2    1    2    0    0 -0.20196092507E+02 -0.42257089938E+02 -0.12523980530E+04  0.12595005119E+04  0.12508841812E+03 0.  0.
          5    1    4    4  502    0  0.39379395595E+02 -0.53333013074E+02 -0.45914412780E+03  0.46392450849E+03  0.41800000000E+01 0. -1.
         -5    1    4    4    0  502 -0.59575488102E+02  0.11075923136E+02 -0.79325392522E+03  0.79557600337E+03  0.41800000000E+01 0. -1.
        -11    1    3    3    0    0  0.24833343691E+02 -0.10250461882E+02 -0.24098246564E+02  0.36090059783E+02  0.00000000000E+00 0.  1.
         11    1    3    3    0    0 -0.46372511841E+01  0.52507551821E+02 -0.28088885994E+03  0.28579205506E+03  0.00000000000E+00 0. -1.
</event>
<event>
 7    1  0.8061721E-006  0.1370142E+03  0.7561462E-02  0.1217404E+00
         -1   -1    0    0    0  501 -0.00000000000E+00  0.00000000000E+00  0.16007892795E+03  0.16007892795E+03  0.00000000000E+00 0.  1.
          1   -1    0    0  501    0  0.00000000000E+00 -0.00000000000E+00 -0.79772297956E+03  0.79772297956E+03  0.00000000000E+00 0. -1.
         23    2    1    2    0    0  0.96239359991E+02  0.54302746543E+02  0.11595114266E+03  0.18305221257E+03  0.88615136119E+02 0.  0.
          5    1    1    2  502    0 -0.70353127752E+02 -0.90865172216E+02 -0.34445287461E+03  0.36314087808E+03  0.41800000000E+01 0. -1.
         -5    1    1    2    0  502 -0.25886232238E+02  0.36562425673E+02 -0.40914231965E+03  0.41160881686E+03  0.41800000000E+01 0.  1.
        -11    1    3    3    0    0  0.26060733988E+02  0.30082783939E+02 -0.60296039984E+01  0.40255333434E+02  0.00000000000E+00 0. -1.
         11    1    3    3    0    0  0.70178626003E+02  0.24219962604E+02  0.12198074665E+03  0.14279687913E+03  0.00000000000E+00 0.  1.
</event>
<event>
 8    1  0.8061721E-006  0.1829679E+03  0.7561462E-02  0.1164961E+00
          1   -1    0    0  501    0  0.00000000000E+00  0.00000000000E+00  0.80993483976E+02  0.80993483976E+02  0.00000000000E+00 0. -1.
         -1   -1    0    0    0  501 -0.00000000000E+00 -0.00000000000E+00 -0.58267339124E+03  0.58267339124E+03  0.00000000000E+00 0.  1.
         23    2    1    2    0    0  0.12060544299E+03  0.12176664372E+03 -0.35652428494E+03  0.40658779797E+03  0.93974907850E+02 0.  0.
         23    2    1    2    0    0 -0.12060544299E+03 -0.12176664372E+03 -0.14515562232E+03  0.25707907724E+03  0.12508680530E+03 0.  0.
          5    1    4    4  502    0  0.85064704783E+01  0.59028699718E+01  0.12367264795E+02  0.16662099280E+02  0.41800000000E+01 0.  1.
         -5    1    4    4    0  502 -0.12911191347E+03 -0.12766951370E+03 -0.15752288712E+03  0.24041697796E+03  0.41800000000E+01 0.  1.
        -11    1    3    3    0    0  0.35423431271E+02  0.52621445916E+02 -0.23251245621E+03  0.24101012084E+03  0.00000000000E+00 0.  1.
         11    1    3    3    0    0  0.85182011719E+02  0.69145197808E+02 -0.12401182873E+03  0.16557767714E+03  0.00000000000E+00 0. -1.
</event>
<event>
 8    1  0.8061721E-006  0.1052472E+03  0.7561462E-02  0.1269633E+00
         -1   -1    0    0    0  501 -0.00000000000E+00  0.00000000000E+00  0.23296649824E+02  0.23296649824E+02  0.00000000000E+00 0.  1.
          1   -1    0    0  501    0  0.00000000000E+00 -0.00000000000E+00 -0.56001507153E+03  0.56001507153E+03  0.00000000000E+00 0. -1.
         23    2    1    2    0    0 -0.20581682632E+02  0.15095949312E+02 -0.29765118043E+03  0.31229028793E+03  0.90980796734E+02 0.  0.
         23    2    1    2    0    0  0.20581682632E+02 -0.15095949312E+02 -0.23906724127E+03  0.27102143342E+03  0.12509187896E+03 0.  0.
          5    1    4    4  502    0  0.72159891797E+02 -0.20423510160E+01 -0.11341458835E+03  0.13450487884E+03  0.41800000000E+01 0.  1.
         -5    1    4    4    0  502 -0.51578209165E+02 -0.13053598296E+02 -0.12565265292E+03  0.13651655458E+03  0.41800000000E+01 0.  1.
        -11    1    3    3    0    0 -0.20224279404E+02 -0.31926215149E+02 -0.67272334965E+02  0.77161335802E+02  0.00000000000E+00 0.  1.
         11    1    3    3    0    0 -0.35740322765E+00  0.47022164461E+02 -0.23037884547E+03  0.23512895212E+03  0.00000000000E+00 0. -1.
</event>
<event>
 8    1  0.8061721E-006  0.9650711E+02  0.7561462E-02  0.1287817E+00
         -2   -1    0    0    0  501 -0.00000000000E+00  0.00000000000E+00  0.11972832652E+02  0.11972832652E+02  0.00000000000E+00 0.  1.
          2   -1    0    0  501    0  0.00000000000E+00 -0.00000000000E+00 -0.21128194448E+04  0.21128194448E+04  0.00000000000E+00 0. -1.
         23    2    1    2    0    0 -0.50819802755E+02  0.22992143471E+02 -0.18532232406E+03  0.20445866746E+03  0.65937029747E+02 0.  0.
         23    2    1    2    0    0  0.50819802755E+02 -0.22992143471E+02 -0.19155242881E+04  0.19203336100E+04  0.12384096412E+03 0.  0.
          5    1    4    4  502    0 -0.28719989555E+02  0.17835154080E+02 -0.96595496493E+03  0.96655542893E+03  0.41800000000E+01 0. -1.
         -5    1    4    4    0  502  0.79539792310E+02 -0.40827297551E+02 -0.94956932321E+03  0.95377818111E+03  0.41800000000E+01 0.  1.
        -11    1    3    3    0    0 -0.17541448999E+02 -0.11924480188E+02 -0.12707089712E+03  0.12882898957E+03  0.00000000000E+00 0. -1.
         11    1    3    3    0    0 -0.33278353757E+02  0.34916623659E+02 -0.58251426945E+02  0.75629677889E+02  0.00000000000E+00 0.  1.
</event>
<event>
 8    1  0.8061721E-006  0.9534845E+02  0.7561462E-02  0.1290393E+00
         -2   -1    0    0    0  501 -0.00000000000E+00  0.00000000000E+00  0.27146985999E+03  0.27146985999E+03  0.00000000000E+00 0.  1.
          2   -1    0    0  501    0  0.00000000000E+00 -0.00000000000E+00 -0.83061932721E+02  0.83061932721E+02  0.00000000000E+00 0. -1.
         23    2    1    2    0    0 -0.42753334555E+02  0.56249230086E+02  0.17597417289E+03  0.21032734878E+03  0.90988244403E+02 0.  0.
         23    2    1    2    0    0  0.42753334555E+02 -0.56249230086E+02  0.12433754376E+02  0.14420444393E+03  0.12509396428E+03 0.  0.
          5    1    4    4  502    0 -0.21030192944E+02  0.10813380558E+02 -0.33164314133E+02  0.40945602282E+02  0.41800000000E+01 0.  1.
         -5    1    4    4    0  502  0.63783527499E+02 -0.67062610644E+02  0.45598068509E+02  0.10325884165E+03  0.41800000000E+01 0.  1.
        -11    1    3    3    0    0 -0.34744304701E+02  0.27844478070E+02  0.17523780099E+03  0.18080588642E+03  0.00000000000E+00 0.  1.
         11    1    3    3    0    0 -0.80090298536E+01  0.28404752015E+02  0.73637189939E+00  0.29521462359E+02  0.00000000000E+00 0. -1.
</event>
<event>
 8    1  0.8061721E-006  0.1129255E+03  0.7561462E-02  0.1255246E+00
          3   -1    0    0  501    0  0.00000000000E+00  0.00000000000E+00  0.42096964465E+02  0.42096964465E+02  0.00000000000E+00 0. -1.
         -3   -1    0    0    0  501 -0.00000000000E+00 -0.00000000000E+00 -0.30917113537E+03  0.30917113537E+03  0.00000000000E+00 0.  1.
         23    2    1    2    0    0  0.15238962215E+02  0.38587264184E+02 -0.10881198237E+03  0.14531693240E+03  0.86923877091E+02 0.  0.
         23    2    1    2    0    0 -0.15238962215E+02 -0.38587264184E+02 -0.15826218853E+03  0.20595116743E+03  0.12509100735E+03 0.  0.
          5    1    4    4  502    0  0.23219828748E+02  0.38606207563E+02 -0.49073477844E+02  0.66747871405E+02  0.41800000000E+01 0.  1.
         -5    1    4    4    0  502 -0.38458790964E+02 -0.77193471747E+02 -0.10918871068E+03  0.13920329602E+03  0.41800000000E+01 0.  1.
        -11    1    3    3    0    0  0.46603193523E+02  0.28165603135E+01 -0.68844902213E+02  0.83182998379E+02  0.00000000000E+00 0.  1.
         11    1    3    3    0    0 -0.31364231308E+02  0.35770703871E+02 -0.39967080162E+02  0.62133934026E+02  0.00000000000E+00 0. -1.
</event>
<event>
 8    1  0.8061721E-006  0.1548552E+03  0.7561462E-02  0.1194631E+00
          2   -1    0    0  501    0  0.00000000000E+00  0.00000000000E+00  0.86417194160E+03  0.86417194160E+03  0.00000000000E+00 0. -1.
         -2   -1    0    0    0  501 -0.00000000000E+00 -0.00000000000E+00 -0.37476583796E+02  0.37476583796E+02  0.00000000000E+00 0.  1.
         23    2    1    2    0    0 -0.61010123310E+02 -0.11224064384E+03  0.22823689357E+03  0.27705227736E+03  0.91354734575E+02 0.  0.
         23    2    1    2    0    0  0.61010123310E+02  0.11224064384E+03  0.59845846423E+03  0.62459624803E+03  0.12509093641E+03 0.  0.
          5    1    4    4  502    0 -0.23993466275E+02  0.46651974000E+02  0.34951177467E+03  0.35345161782E+03  0.41800000000E+01 0. -1.
         -5    1    4    4    0  502  0.85003589585E+02  0.65588669835E+02  0.24894668955E+03  0.27114463021E+03  0.41800000000E+01 0. -1.
        -11    1    3    3    0    0 -0.38787291368E+02 -0.38350860518E+01  0.10192286341E+03  0.10912118009E+03  0.00000000000E+00 0.  1.
         11    1    3    3    0    0 -0.22222831943E+02 -0.10840555778E+03  0.12631403016E+03  0.16793109728E+03  0.00000000000E+00 0. -1.
</event>
<event>
 8    1  0.8061721E-006  0.1174128E+03  0.7561462E-02  0.1247427E+00
          2   -1    0    0  501    0  0.00000000000E+00  0.00000000000E+00  0.44277246106E+03  0.44277246106E+03  0.00000000000E+00 0. -1.
         -2   -1    0    0    0  501 -0.00000000000E+00 -0.00000000000E+00 -0.47763708182E+02  0.47763708182E+02  0.00000000000E+00 0.  1.
         23    2    1    2    0    0  0.51283463782E+02 -0.72623237062E+02  0.82638916385E+02  0.14250278485E+03  0.74657383888E+02 0.  0.
         23    2    1    2    0    0 -0.51283463782E+02  0.72623237062E+02  0.31236983649E+03  0.34803338440E+03  0.12509274033E+03 0.  0.
          5    1    4    4  502    0  0.47726104058E+01 -0.28542705392E+02  0.12019195726E+03  0.12369738409E+03  0.41800000000E+01 0.  1.
         -5    1    4    4    0  502 -0.56056074188E+02  0.10116594245E+03  0.19217787923E+03  0.22433600030E+03  0.41800000000E+01 0.  1.
        -11    1    3    3    0    0  0.44340744152E+02 -0.53373544773E+02  0.13880312646E+02  0.70763690921E+02  0.00000000000E+00 0.  1.
         11    1    3    3    0    0  0.69427196296E+01 -0.19249692288E+02  0.68758603740E+02  0.71739093926E+02  0.00000000000E+00 0. -1.
</event>
<event>
 8    1  0.8061721E-006  0.1132406E+03  0.7561462E-02  0.1254684E+00
          1   -1    0    0  501    0  0.00000000000E+00  0.00000000000E+00  0.17923642720E+03  0.17923642720E+03  0.00000000000E+00 0.  1.
         -1   -1    0    0    0  501 -0.00000000000E+00 -0.00000000000E+00 -0.12274509345E+03  0.12274509345E+03  0.00000000000E+00 0. -1.
         23    2    1    2    0    0 -0.40867062680E+02 -0.20226989704E+02 -0.65713999041E+02  0.12125649887E+03  0.91134850221E+02 0.  0.
         23    2    1    2    0    0  0.40867062680E+02  0.20226989704E+02  0.12220533279E+03  0.18072502177E+03  0.12509253458E+03 0.  0.
          5    1    4    4  502    0 -0.38564953820E+02  0.24733061973E+02  0.75391916769E+02  0.88319836571E+02  0.41800000000E+01 0. -1.
         -5    1    4    4    0  502  0.79432016500E+02 -0.45060722696E+01  0.46813416019E+02  0.92405185200E+02  0.41800000000E+01 0. -1.
        -11    1    3    3    0    0 -0.55985135903E+02 -0.44970629698E+02 -0.38453385580E+02  0.81457693560E+02  0.00000000000E+00 0.  1.
         11    1    3    3    0    0  0.15118073223E+02  0.24743639995E+02 -0.27260613461E+02  0.39798805314E+02  0.00000000000E+00 0. -1.
</event>
<event>
 8    1  0.8061721E-006  0.1227125E+03  0.7561462E-02  0.1238688E+00
          1   -1    0    0  501    0  0.00000000000E+00  0.00000000000E+00  0.23453719018E+04  0.23453719018E+04  0.00000000000E+00 0. -1.
         -1   -1    0    0    0  501 -0.00000000000E+00 -0.00000000000E+00 -0.85675763659E+01  0.85675763659E+01  0.00000000000E+00 0.  1.
         23    2    1    2    0    0 -0.91719319333E+01 -0.76420386119E+02  0.66741813511E+03  0.67810492594E+03  0.91951746858E+02 0.  0.
         23    2    1    2    0    0  0.91719319333E+01  0.76420386119E+02  0.16693861903E+04  0.16758345522E+04  0.12508794612E+03 0.  0.
          5    1    4    4  502    0 -0.26575810962E+02 -0.13071356401E+02  0.88995800068E+03  0.89046047046E+03  0.41800000000E+01 0. -1.
         -5    1    4    4    0  502  0.35747742895E+02  0.89491742520E+02  0.77942818963E+03  0.78537408175E+03  0.41800000000E+01 0. -1.
        -11    1    3    3    0    0 -0.45819407735E+02 -0.67084944703E+02  0.49139600319E+03  0.49806609991E+03  0.00000000000E+00 0.  1.
         11    1    3    3    0    0  0.36647475801E+02 -0.93354414163E+01  0.17602213193E+03  0.18003882603E+03  0.00000000000E+00 0. -1.
</event>
<event>
 8    1  0.8061721E-006  0.8330405E+02  0.7561462E-02  0.1319928E+00
          1   -1    0    0  501    0  0.00000000000E+00  0.00000000000E+00  0.95339382161E+03  0.95339382161E+03  0.00000000000E+00 0. -1.
         -1   -1    0    0    0  501 -0.00000000000E+00 -0.00000000000E+00 -0.20730852057E+02  0.20730852057E+02  0.00000000000E+00 0.  1.
         23    2    1    2    0    0  0.49685577920E+02  0.65383790628E+01  0.16990335605E+03  0.19955386258E+03  0.91886814176E+02 0.  0.
         23    2    1    2    0    0 -0.49685577920E+02 -0.65383790628E+01  0.76275961350E+03  0.77457081108E+03  0.12508519634E+03 0.  0.
          5    1    4    4  502    0 -0.49972090780E+02 -0.28905727766E+02  0.74042955459E+03  0.74268846003E+03  0.41800000000E+01 0. -1.
         -5    1    4    4    0  502  0.28651286030E+00  0.22367348703E+02  0.22330058908E+02  0.31882351050E+02  0.41800000000E+01 0. -1.
        -11    1    3    3    0    0  0.12968856052E+02 -0.30913047007E+02  0.16364254857E+02  0.37304108883E+02  0.00000000000E+00 0.  1.
         11    1    3    3    0    0  0.36716721867E+02  0.37451426070E+02  0.15353910119E+03  0.16224975370E+03  0.00000000000E+00 0. -1.
</event>
<event>
 8    1  0.8061721E-006  0.1084185E+03  0.7561462E-02  0.1263527E+00
         -3   -1    0    0    0  501 -0.00000000000E+00  0.00000000000E+00  0.13617987931E+02  0.13617987931E+02  0.00000000000E+00 0. -1.
          3   -1    0    0  501    0  0.00000000000E+00 -0.00000000000E+00 -0.90735434046E+03  0.90735434046E+03  0.00000000000E+00 0.  1.
         23    2    1    2    0    0 -0.58440017636E+01  0.15482172651E+02 -0.30333625227E+03  0.31723954337E+03  0.91401290522E+02 0.  0.
         23    2    1    2    0    0  0.58440017636E+01 -0.15482172651E+02 -0.59040010026E+03  0.60373278502E+03  0.12508855782E+03 0.  0.
          5    1    4    4  502    0 -0.30016882129E+02 -0.59679063690E+02 -0.37353356359E+03  0.37948306864E+03  0.41800000000E+01 0. -1.
         -5    1    4    4    0  502  0.35860883892E+02  0.44196891038E+02 -0.21686653667E+03  0.22424971639E+03  0.41800000000E+01 0. -1.
        -11    1    3    3    0    0 -0.24532951035E+02 -0.32858890772E+02 -0.13929816237E+03  0.14520864447E+03  0.00000000000E+00 0. -1.
         11    1    3    3    0    0  0.18688949272E+02  0.48341063423E+02 -0.16403808991E+03  0.17203089890E+03  0.00000000000E+00 0.  1.
</event>
<event>
 8    1  0.8061721E-006  0.1083259E+03  0.7561462E-02  0.1263702E+00
          1   -1    0    0  501    0  0.00000000000E+00  0.00000000000E+00  0.46408994729E+03  0.46408994729E+03  0.00000000000E+00 0. -1.
         -1   -1    0    0    0  501 -0.00000000000E+00 -0.00000000000E+00 -0.41377925388E+02  0.41377925388E+02  0.00000000000E+00 0.  1.
         23    2    1    2    0    0 -0.69433925261E+02 -0.46195162255E+01  0.98533645288E+02  0.15109387049E+03  0.90983891639E+02 0.  0.
         23    2    1    2    0    0  0.69433925261E+02  0.46195162255E+01  0.32417837662E+03  0.35437400219E+03  0.12508758395E+03 0.  0.
          5    1    4    4  502    0  0.46402265307E+02 -0.33595988448E+02  0.48794066388E+02  0.75367061639E+02  0.41800000000E+01 0. -1.
         -5    1    4    4    0  502  0.23031659953E+02  0.38215504673E+02  0.27538431023E+03  0.27900694056E+03  0.41800000000E+01 0. -1.
        -11    1    3    3    0    0 -0.24808898931E+02  0.42681666221E+02  0.38744038357E+02  0.62755928850E+02  0.00000000000E+00 0.  1.
         11    1    3    3    0    0 -0.44625026330E+02 -0.47301182447E+02  0.59789606931E+02  0.88337941638E+02  0.00000000000E+00 0. -1.
</event>
<event>
 8    1  0.8061721E-006  0.9764639E+02  0.7561462E-02  0.1285325E+00
         -2   -1    0    0    0  501 -0.00000000000E+00  0.00000000000E+00  0.73500522015E+03  0.73500522015E+03  0.00000000000E+00 0.  1.
          2   -1    0    0  501    0  0.00000000000E+00 -0.00000000000E+00 -0.21778381392E+02  0.21778381392E+02  0.00000000000E+00 0. -1.
         23    2    1    2    0    0 -0.55593184599E+02  0.32189117615E+02  0.34757506114E+03  0.36501860434E+03  0.91123086659E+02 0.  0.
         23    2    1    2    0    0  0.55593184599E+02 -0.32189117615E+02  0.36565177762E+03  0.39176499720E+03  0.12510735026E+03 0.  0.
          5    1    4    4  502    0  0.90203152462E+01 -0.40964065099E+02  0.27607413324E+02  0.50389109806E+02  0.41800000000E+01 0.  1.
         -5    1    4    4    0  502  0.46572869353E+02  0.87749474848E+01  0.33804436429E+03  0.34137588739E+03  0.41800000000E+01 0.  1.
        -11    1    3    3    0    0  0.52005627929E+01 -0.22923922050E+02  0.13734136144E+03  0.13933844272E+03  0.00000000000E+00 0.  1.
         11    1    3    3    0    0 -0.60793747392E+02  0.55113039664E+02  0.21023369970E+03  0.22568016162E+03  0.00000000000E+00 0. -1.
</event>
<event>
 8    1  0.8061721E-006  0.1117529E+03  0.7561462E-02  0.1257358E+00
         -2   -1    0    0    0  501 -0.00000000000E+00  0.00000000000E+00  0.59360633953E+02  0.59360633953E+02  0.00000000000E+00 0.  1.
          2   -1    0    0  501    0  0.00000000000E+00 -0.00000000000E+00 -0.28683954853E+03  0.28683954853E+03  0.00000000000E+00 0. -1.
         23    2    1    2    0    0 -0.62665141665E+02 -0.15253702993E+02 -0.62040407129E+02  0.12899778014E+03  0.92907587041E+02 0.  0.
         23    2    1    2    0    0  0.62665141665E+02  0.15253702993E+02 -0.16543850745E+03  0.21720240234E+03  0.12508952155E+03 0.  0.
          5    1    4    4  502    0  0.49323265645E+02  0.61758228849E+02 -0.54487257665E+02  0.96089526028E+02  0.41800000000E+01 0. -1.
         -5    1    4    4    0  502  0.13341876021E+02 -0.46504525855E+02 -0.11095124978E+03  0.12111287632E+03  0.41800000000E+01 0. -1.
        -11    1    3    3    0    0 -0.51566280472E+02 -0.42214293286E+02 -0.73819745026E+01  0.67049395127E+02  0.00000000000E+00 0.  1.
         11    1    3    3    0    0 -0.11098861194E+02  0.26960590293E+02 -0.54658432627E+02  0.61948385015E+02  0.00000000000E+00 0. -1.
</event>
<event>
 8    1  0.8061721E-006  0.1238042E+03  0.7561462E-02  0.1236950E+00
          2   -1    0    0  501    0  0.00000000000E+00  0.00000000000E+00  0.76689446705E+03  0.76689446705E+03  0.00000000000E+00 0. -1.
         -2   -1    0    0    0  501 -0.00000000000E+00 -0.00000000000E+00 -0.26610068942E+02  0.26610068942E+02  0.00000000000E+00 0.  1.
         23    2    1    2    0    0  0.56187253937E+02 -0.71570643778E+02  0.28900324898E+03  0.31644935384E+03  0.91312381784E+02 0.  0.
         23    2    1    2    0    0 -0.56187253937E+02  0.71570643778E+02  0.45128114913E+03  0.47705518216E+03  0.12509039415E+03 0.  0.
          5    1    4    4  502    0 -0.69700815702E+02  0.97814182599E+02  0.40077499143E+03  0.41840636250E+03  0.41800000000E+01 0. -1.
         -5    1    4    4    0  502  0.13513561765E+02 -0.26243538820E+02  0.50506157707E+02  0.58648819662E+02  0.41800000000E+01 0. -1.
        -11    1    3    3    0    0  0.26529877844E+02 -0.83978477009E+01  0.11170314710E+02  0.29985566447E+02  0.00000000000E+00 0.  1.
         11    1    3    3    0    0  0.29657376093E+02 -0.63172796077E+02  0.27783293427E+03  0.28646378739E+03  0.00000000000E+00 0. -1.
</event>
<event>
 8    1  0.8061721E-006  0.1253009E+03  0.7561462E-02  0.1234600E+00
         -3   -1    0    0    0  501 -0.00000000000E+00  0.00000000000E+00  0.50880077901E+03  0.50880077901E+03  0.00000000000E+00 0.  1.
          3   -1    0    0  501    0  0.00000000000E+00 -0.00000000000E+00 -0.33126185179E+02  0.33126185179E+02  0.00000000000E+00 0. -1.
         23    2    1    2    0    0  0.65258381125E+02  0.27087126852E+02  0.17112340060E+03  0.20519100084E+03  0.88474628252E+02 0.  0.
         23    2    1    2    0    0 -0.65258381125E+02 -0.27087126852E+02  0.30455119323E+03  0.33673596335E+03  0.12508921203E+03 0.  0.
          5    1    4    4  502    0 -0.29785018829E+00  0.42629949503E+02  0.14143217413E+03  0.14777663411E+03  0.41800000000E+01 0. -1.
         -5    1    4    4    0  502 -0.64960530936E+02 -0.69717076354E+02  0.16311901911E+03  0.18895932925E+03  0.41800000000E+01 0. -1.
        -11    1    3    3    0    0  0.33748982159E+02  0.58724947541E+02  0.11510057064E+03  0.13355056953E+03  0.00000000000E+00 0.  1.
         11    1    3    3    0    0  0.31509398965E+02 -0.31637820690E+02  0.56022829960E+02  0.71640431307E+02  0.00000000000E+00 0. -1.
</event>
<event>
 8    1  0.8061721E-006  0.1191552E+03  0.7561462E-02  0.1244497E+00
         -2   -1    0    0    0  501 -0.00000000000E+00  0.00000000000E+00  0.32220104057E+02  0.32220104057E+02  0.00000000000E+00 0.  1.
          2   -1    0    0  501    0  0.00000000000E+00 -0.00000000000E+00 -0.46295738552E+03  0.46295738552E+03  0.00000000000E+00 0. -1.
         23    2    1    2    0    0  0.40590507714E+01 -0.52447380877E+02 -0.13876304239E+03  0.17320930754E+03  0.89325688529E+02 0.  0.
         23    2    1    2    0    0 -0.40590507714E+01  0.52447380877E+02 -0.29197423907E+03  0.32196818204E+03  0.12508936928E+03 0.  0.
          5    1    4    4  502    0  0.29610627930E+02 -0.31972267020E+02 -0.11329127714E+03  0.12145534579E+03  0.41800000000E+01 0.  1.
         -5    1    4    4    0  502 -0.33669678701E+02  0.84419647897E+02 -0.17868296193E+03  0.20051283625E+03  0.41800000000E+01 0.  1.
        -11    1    3    3    0    0 -0.42316560371E+02 -0.30992879173E+02 -0.66226196325E+02  0.84481707610E+02  0.00000000000E+00 0.  1.
         11    1    3    3    0    0  0.46375611142E+02 -0.21454501704E+02 -0.72536846068E+02  0.88727599932E+02  0.00000000000E+00 0. -1.
</event>
<event>
 8    1  0.8061721E-006  0.1143929E+03  0.7561462E-02  0.1252645E+00
          2   -1    0    0  501    0  0.00000000000E+00  0.00000000000E+00  0.59073258576E+03  0.59073258576E+03  0.00000000000E+00 0. -1.
         -2   -1    0    0    0  501 -0.00000000000E+00 -0.00000000000E+00 -0.24407133332E+02  0.24407133332E+02  0.00000000000E+00 0.  1.
         23    2    1    2    0    0  0.26561398194E+02  0.27844102204E+02  0.17479296175E+03  0.20231367080E+03  0.94326242427E+02 0.  0.
         23    2    1    2    0    0 -0.26561398194E+02 -0.27844102204E+02  0.39153249067E+03  0.41282604829E+03  0.12508738145E+03 0.  0.
          5    1    4    4  502    0  0.22039936386E+02 -0.65261787507E+02  0.19121975235E+03  0.20329123393E+03  0.41800000000E+01 0. -1.
         -5    1    4    4    0  502 -0.48601334581E+02  0.37417685303E+02  0.20031273832E+03  0.20953481436E+03  0.41800000000E+01 0. -1.
        -11    1    3    3    0    0 -0.12446062709E+02  0.51294946408E+02  0.66913786212E+02  0.85226350322E+02  0.00000000000E+00 0.  1.
         11    1    3    3    0    0  0.39007460903E+02 -0.23450844204E+02  0.10787917554E+03  0.11708732047E+03  0.00000000000E+00 0. -1.
</event>
<event>
 8    1  0.8061721E-006  0.2075538E+03  0.7561462E-02  0.1143518E+00
         -1   -1    0    0    0  501 -0.00000000000E+00  0.00000000000E+00  0.11685356401E+04  0.11685356401E+04  0.00000000000E+00 0.  1.
          1   -1    0    0  501    0  0.00000000000E+00 -0.00000000000E+00 -0.42134670305E+02  0.42134670305E+02  0.00000000000E+00 0. -1.
         23    2    1    2    0    0  0.68166025794E+01  0.18326407861E+03  0.36774033740E+03  0.42019745743E+03  0.87753968032E+02 0.  0.
         23    2    1    2    0    0 -0.68166025794E+01 -0.18326407861E+03  0.75866063239E+03  0.79047285296E+03  0.12509671281E+03 0.  0.
          5    1    4    4  502    0  0.42475314363E+02 -0.16183584750E+03  0.54534578745E+03  0.57045113213E+03  0.41800000000E+01 0.  1.
         -5    1    4    4    0  502 -0.49291916942E+02 -0.21428231114E+02  0.21331484494E+03  0.22002172083E+03  0.41800000000E+01 0. -1.
        -11    1    3    3    0    0  0.33187526306E+02  0.13285665593E+03  0.31117097342E+03  0.33997011284E+03  0.00000000000E+00 0.  1.
         11    1    3    3    0    0 -0.26370923727E+02  0.50407422678E+02  0.56569363978E+02  0.80227344591E+02  0.00000000000E+00 0. -1.
</event>
<event>
 8    1  0.8061721E-006  0.1050150E+03  0.7561462E-02  0.1270090E+00
         -3   -1    0    0    0  501 -0.00000000000E+00  0.00000000000E+00  0.86560623641E+03  0.86560623641E+03  0.00000000000E+00 0.  1.
          3   -1    0    0  501    0  0.00000000000E+00 -0.00000000000E+00 -0.16551181552E+02  0.16551181552E+02  0.00000000000E+00 0. -1.
         23    2    1    2    0    0  0.48090380456E+02 -0.12419237064E+02  0.40587951600E+03  0.41899498475E+03  0.91387600887E+02 0.  0.
         23    2    1    2    0    0 -0.48090380456E+02  0.12419237064E+02  0.44317553885E+03  0.46316243321E+03  0.12509180291E+03 0.  0.
          5    1    4    4  502    0 -0.74552113281E+02  0.29587258748E+02  0.40758109095E+03  0.41541935628E+03  0.41800000000E+01 0. -1.
         -5    1    4    4    0  502  0.26461732825E+02 -0.17168021684E+02  0.35594447904E+02  0.47743076925E+02  0.41800000000E+01 0. -1.
        -11    1    3    3    0    0  0.33503107370E+02 -0.48516663129E+02  0.30918570804E+03  0.31475725069E+03  0.00000000000E+00 0.  1.
         11    1    3    3    0    0  0.14587273086E+02  0.36097426065E+02  0.96693807960E+02  0.10423773406E+03  0.00000000000E+00 0. -1.
</event>
<event>
 8    1  0.8061721E-006  0.1541268E+03  0.7561462E-02  0.1195492E+00
         -1   -1    0    0    0  501 -0.00000000000E+00  0.00000000000E+00  0.96898228584E+02  0.96898228584E+02  0.00000000000E+00 0.  1.
          1   -1    0    0  501    0  0.00000000000E+00 -0.00000000000E+00 -0.33613553255E+03  0.33613553255E+03  0.00000000000E+00 0. -1.
         23    2    1    2    0    0  0.11350749921E+03  0.87466204204E+02 -0.95721631788E+02  0.19475008308E+03  0.90723066603E+02 0.  0.
         23    2    1    2    0    0 -0.11350749921E+03 -0.87466204204E+02 -0.14351567218E+03  0.23828367805E+03  0.12509226119E+03 0.  0.
          5    1    4    4  502    0 -0.65302724865E+02 -0.54033237403E+02 -0.18354827596E+01  0.84881552860E+02  0.41800000000E+01 0. -1.
         -5    1    4    4    0  502 -0.48204774348E+02 -0.33432966801E+02 -0.14168018942E+03  0.15340212519E+03  0.41800000000E+01 0. -1.
        -11    1    3    3    0    0  0.36586412870E+02  0.79166169441E+02 -0.74040180058E+02  0.11440190669E+03  0.00000000000E+00 0.  1.
         11    1    3    3    0    0  0.76921086342E+02  0.83000347623E+01 -0.21681451729E+02  0.80348176396E+02  0.00000000000E+00 0. -1.
</event>
<event>
 8    1  0.8061721E-006  0.1264821E+03  0.7561462E-02  0.1232771E+00
         -1   -1    0    0    0  501 -0.00000000000E+00  0.00000000000E+00  0.12495930011E+03  0.12495930011E+03  0.00000000000E+00 0.  1.
          1   -1    0    0  501    0  0.00000000000E+00 -0.00000000000E+00 -0.21096405453E+03  0.21096405453E+03  0.00000000000E+00 0. -1.
         23    2    1    2    0    0  0.30175370958E+02 -0.95925016683E+02  0.29165990923E+02  0.13837957014E+03  0.90477005742E+02 0.  0.
         23    2    1    2    0    0 -0.30175370958E+02  0.95925016683E+02 -0.11517074535E+03  0.19754378450E+03  0.12508830629E+03 0.  0.
          5    1    4    4  502    0  0.12858748327E+02 -0.17929659777E+02 -0.59573853828E+02  0.63665819466E+02  0.41800000000E+01 0. -1.
         -5    1    4    4    0  502 -0.43034119285E+02  0.11385467646E+03 -0.55596891523E+02  0.13387796503E+03  0.41800000000E+01 0. -1.
        -11    1    3    3    0    0 -0.87072947518E+01 -0.37791207475E+02  0.51944975721E+02  0.64824940008E+02  0.00000000000E+00 0.  1.
         11    1    3    3    0    0  0.38882665710E+02 -0.58133809208E+02 -0.22778984798E+02  0.73554630134E+02  0.00000000000E+00 0. -1.
</event>
<event>
 8    1  0.8061721E-006  0.1185759E+03  0.7561462E-02  0.1245465E+00
         -2   -1    0    0    0  501 -0.00000000000E+00  0.00000000000E+00  0.19948423201E+02  0.19948423201E+02  0.00000000000E+00 0.  1.
          2   -1    0    0  501    0  0.00000000000E+00 -0.00000000000E+00 -0.12783177649E+04  0.12783177649E+04  0.00000000000E+00 0. -1.
         23    2    1    2    0    0  0.94411434442E+02  0.47494790583E+01 -0.30060148117E+03  0.32774946119E+03  0.90124260476E+02 0.  0.
         23    2    1    2    0    0 -0.94411434442E+02 -0.47494790583E+01 -0.95776786049E+03  0.97051672687E+03  0.12508943216E+03 0.  0.
          5    1    4    4  502    0 -0.36298887767E+02 -0.31328543725E+02 -0.78142704934E+03  0.78290790821E+03  0.41800000000E+01 0. -1.
         -5    1    4    4    0  502 -0.58112546675E+02  0.26579064666E+02 -0.17634081115E+03  0.18760881866E+03  0.41800000000E+01 0. -1.
        -11    1    3    3    0    0  0.65291211700E+02  0.42050274612E+02 -0.22998690770E+03  0.24274502185E+03  0.00000000000E+00 0. -1.
         11    1    3    3    0    0  0.29120222742E+02 -0.37300795554E+02 -0.70614573468E+02  0.85004439340E+02  0.00000000000E+00 0.  1.
</event>
<event>
 8    1  0.8061721E-006  0.1296742E+03  0.7561462E-02  0.1227940E+00
          2   -1    0    0  501    0  0.00000000000E+00  0.00000000000E+00  0.41093819349E+03  0.41093819349E+03  0.00000000000E+00 0. -1.
         -2   -1    0    0    0  501 -0.00000000000E+00 -0.00000000000E+00 -0.52288589361E+02  0.52288589361E+02  0.00000000000E+00 0.  1.
         23    2    1    2    0    0  0.86790824195E+02  0.23379923534E+02  0.10369308137E+03  0.16535133524E+03  0.92247173138E+02 0.  0.
         23    2    1    2    0    0 -0.86790824195E+02 -0.23379923534E+02  0.25495652276E+03  0.29787544762E+03  0.12509071030E+03 0.  0.
          5    1    4    4  502    0 -0.10909532078E+03 -0.24510236905E+02  0.13293997917E+03  0.17376147786E+03  0.41800000000E+01 0. -1.
         -5    1    4    4    0  502  0.22304496584E+02  0.11303133712E+01  0.12201654360E+03  0.12411396975E+03  0.41800000000E+01 0. -1.
        -11    1    3    3    0    0  0.28740828447E+02 -0.33034952892E+02  0.57085819100E+02  0.71945354782E+02  0.00000000000E+00 0. -1.
         11    1    3    3    0    0  0.58049995748E+02  0.56414876426E+02  0.46607262269E+02  0.93405980454E+02  0.00000000000E+00 0.  1.
</event>
<event>
 8    1  0.8061721E-006  0.1217944E+03  0.7561462E-02  0.1240166E+00
         -2   -1    0    0    0  501 -0.00000000000E+00  0.00000000000E+00  0.18930298242E+02  0.18930298242E+02  0.00000000000E+00 0.  1.
          2   -1    0    0  501    0  0.00000000000E+00 -0.00000000000E+00 -0.10536722176E+04  0.10536722176E+04  0.00000000000E+00 0. -1.
         23    2    1    2    0    0 -0.23969728849E+02  0.49004545599E+02 -0.19990452337E+03  0.22617208950E+03  0.90642165756E+02 0.  0.
         23    2    1    2    0    0  0.23969728849E+02 -0.49004545599E+02 -0.83483739594E+03  0.84643042630E+03  0.12851068248E+03 0.  0.
          5    1    4    4  502    0  0.96300146286E+00 -0.90399009046E+02 -0.48425487351E+03  0.49263897849E+03  0.41800000000E+01 0. -1.
         -5    1    4    4    0  502  0.23006727386E+02  0.41394463447E+02 -0.35058252243E+03  0.35379144781E+03  0.41800000000E+01 0.  1.
        -11    1    3    3    0    0 -0.49583267815E+02  0.59858397060E+02 -0.14019161367E+03  0.16029727598E+03  0.00000000000E+00 0.  1.
         11    1    3    3    0    0  0.25613538966E+02 -0.10853851461E+02 -0.59712909704E+02  0.65874813512E+02  0.00000000000E+00 0. -1.
</event>
<event>
 8    1  0.8061721E-006  0.7273979E+02  0.7561462E-02  0.1351017E+00
          4   -1    0    0  501    0  0.00000000000E+00  0.00000000000E+00  0.10564663801E+04  0.10564663801E+04  0.00000000000E+00 0. -1.
         -4   -1    0    0    0  501 -0.00000000000E+00 -0.00000000000E+00 -0.22295541533E+02  0.22295541533E+02  0.00000000000E+00 0.  1.
         23    2    1    2    0    0 -0.29270591009E+02  0.46660174078E+02  0.15058313936E+03  0.18466639638E+03  0.91610352855E+02 0.  0.
         23    2    1    2    0    0  0.29270591009E+02 -0.46660174078E+02  0.88358769916E+03  0.89409552521E+03  0.12508255971E+03 0.  0.
          5    1    4    4  502    0 -0.44469861208E+01 -0.43927324487E+02  0.82590380177E+03  0.82709367529E+03  0.41800000000E+01 0.  1.
         -5    1    4    4    0  502  0.33717577130E+02 -0.27328495906E+01  0.57683897393E+02  0.67001849921E+02  0.41800000000E+01 0.  1.
        -11    1    3    3    0    0 -0.24152556844E+01  0.39060293554E+02  0.15176681999E+03  0.15673132310E+03  0.00000000000E+00 0. -1.
         11    1    3    3    0    0 -0.26855335325E+02  0.75998805240E+01 -0.11836806250E+01  0.27935073281E+02  0.00000000000E+00 0.  1.
</event>
<event>
 8    1  0.8061721E-006  0.1668198E+03  0.7561462E-02  0.1181205E+00
          2   -1    0    0  501    0  0.00000000000E+00  0.00000000000E+00  0.40808007741E+03  0.40808007741E+03  0.00000000000E+00 0. -1.
         -2   -1    0    0    0  501 -0.00000000000E+00 -0.00000000000E+00 -0.97147416985E+02  0.97147416985E+02  0.00000000000E+00 0.  1.
         23    2    1    2    0    0  0.88458638414E+02 -0.10904224902E+03  0.34169220576E+02  0.17062071595E+03  0.90712459437E+02 0.  0.
         23    2    1    2    0    0 -0.88458638414E+02  0.10904224902E+03  0.27676343985E+03  0.33460677845E+03  0.12509417158E+03 0.  0.
          5    1    4    4  502    0 -0.12063733777E+03  0.87309983136E+02  0.22133964710E+03  0.26680538262E+03  0.41800000000E+01 0.  1.
         -5    1    4    4    0  502  0.32178699353E+02  0.21732265879E+02  0.55423792753E+02  0.67801395822E+02  0.41800000000E+01 0.  1.
        -11    1    3    3    0    0  0.22765444517E+02 -0.58342986893E+02  0.56864003199E+02  0.84591278767E+02  0.00000000000E+00 0. -1.
         11    1    3    3    0    0  0.65693193897E+02 -0.50699262122E+02 -0.22694782623E+02  0.86029437185E+02  0.00000000000E+00 0.  1.
</event>
<event>
 8    1  0.8061721E-006  0.1235877E+03  0.7561462E-02  0.1237293E+00
          2   -1    0    0  501    0  0.00000000000E+00  0.00000000000E+00  0.58238774031E+03  0.58238774031E+03  0.00000000000E+00 0. -1.
         -2   -1    0    0    0  501 -0.00000000000E+00 -0.00000000000E+00 -0.34991916891E+02  0.34991916891E+02  0.00000000000E+00 0.  1.
         23    2    1    2    0    0 -0.91345562377E+02 -0.86368171260E+01  0.18519369010E+03  0.22335253862E+03  0.84682036339E+02 0.  0.
         23    2    1    2    0    0  0.91345562377E+02  0.86368171260E+01  0.36220213332E+03  0.39402711858E+03  0.12509347873E+03 0.  0.
          5    1    4    4  502    0  0.50743150445E+02  0.53128289864E+02  0.29340753199E+03  0.30249452016E+03  0.41800000000E+01 0.  1.
         -5    1    4    4    0  502  0.40602411932E+02 -0.44491472738E+02  0.68794601333E+02  0.91532598421E+02  0.41800000000E+01 0.  1.
        -11    1    3    3    0    0 -0.47578130690E+02 -0.37673415509E+02  0.51088135747E+02  0.79328194043E+02  0.00000000000E+00 0.  1.
         11    1    3    3    0    0 -0.43767431687E+02  0.29036598383E+02  0.13410555435E+03  0.14402434457E+03  0.00000000000E+00 0. -1.
</event>
<event>
 8    1  0.8061721E-006  0.1030103E+03  0.7561462E-02  0.1274090E+00
         -1   -1    0    0    0  501 -0.00000000000E+00  0.00000000000E+00  0.39945883299E+03  0.39945883299E+03  0.00000000000E+00 0.  1.
          1   -1    0    0  501    0  0.00000000000E+00 -0.00000000000E+00 -0.32047905264E+02  0.32047905264E+02  0.00000000000E+00 0. -1.
         23    2    1    2    0    0  0.12642682722E+01  0.28169071325E+02  0.17684691266E+03  0.20181964275E+03  0.93065797833E+02 0.  0.
         23    2    1    2    0    0 -0.12642682722E+01 -0.28169071325E+02  0.19056401506E+03  0.22968709551E+03  0.12508566286E+03 0.  0.
          5    1    4    4  502    0 -0.31163082359E+02 -0.58230949419E+02  0.50380405711E+02  0.83172344274E+02  0.41800000000E+01 0. -1.
         -5    1    4    4    0  502  0.29898814086E+02  0.30061878094E+02  0.14018360935E+03  0.14651475123E+03  0.41800000000E+01 0. -1.
        -11    1    3    3    0    0 -0.44866596536E+02  0.36967484029E+01  0.80870431488E+02  0.92556491520E+02  0.00000000000E+00 0. -1.
         11    1    3    3    0    0  0.46130864808E+02  0.24472322922E+02  0.95976481174E+02  0.10926315123E+03  0.00000000000E+00 0.  1.
</event>
<event>
 8    1  0.8061721E-006  0.1548890E+03  0.7561462E-02  0.1194591E+00
         -2   -1    0    0    0  501 -0.00000000000E+00  0.00000000000E+00  0.13755296215E+02  0.13755296215E+02  0.00000000000E+00 0.  1.
          2   -1    0    0  501    0  0.00000000000E+00 -0.00000000000E+00 -0.28258125410E+04  0.28258125410E+04  0.00000000000E+00 0. -1.
         23    2    1    2    0    0  0.11353225260E+03  0.78850249530E+02 -0.71372283203E+03  0.73296831052E+03  0.93462982162E+02 0.  0.
         23    2    1    2    0    0 -0.11353225260E+03 -0.78850249530E+02 -0.20983344127E+04  0.21065995267E+04  0.12508926367E+03 0.  0.
          5    1    4    4  502    0 -0.63558209012E+02 -0.76099011770E+01 -0.33334309315E+03  0.33945934467E+03  0.41800000000E+01 0. -1.
         -5    1    4    4    0  502 -0.49974043592E+02 -0.71240348353E+02 -0.17649913196E+04  0.17671401820E+04  0.41800000000E+01 0. -1.
        -11    1    3    3    0    0  0.34576497110E+02  0.71239082785E+02 -0.47107854604E+03  0.47768769883E+03  0.00000000000E+00 0. -1.
         11    1    3    3    0    0  0.78955755494E+02  0.76111667455E+01 -0.24264428599E+03  0.25528061169E+03  0.00000000000E+00 0.  1.
</event>
<event>
 8    1  0.8061721E-006  0.9469813E+02  0.7561462E-02  0.1291857E+00
         -1   -1    0    0    0  501 -0.00000000000E+00  0.00000000000E+00  0.19887347255E+03  0.19887347255E+03  0.00000000000E+00 0.  1.
          1   -1    0    0  501    0  0.00000000000E+00 -0.00000000000E+00 -0.69129441556E+02  0.69129441556E+02  0.00000000000E+00 0. -1.
         23    2    1    2    0    0  0.24378516758E+02 -0.32741806368E+02  0.79685215436E+02  0.12721969705E+03  0.90381302240E+02 0.  0.
         23    2    1    2    0    0 -0.24378516758E+02  0.32741806368E+02  0.50058815559E+02  0.14078321706E+03  0.12509073198E+03 0.  0.
          5    1    4    4  502    0  0.27519327182E+02  0.25415137197E+02 -0.27798720020E+02  0.46834643182E+02  0.41800000000E+01 0.  1.
         -5    1    4    4    0  502 -0.51897843940E+02  0.73266691711E+01  0.77857535579E+02  0.93948573875E+02  0.41800000000E+01 0.  1.
        -11    1    3    3    0    0  0.49231068356E+02 -0.48973526014E+02  0.57604630404E+02  0.90224153006E+02  0.00000000000E+00 0.  1.
         11    1    3    3    0    0 -0.24852551599E+02  0.16231719646E+02  0.22080585032E+02  0.36995544043E+02  0.00000000000E+00 0. -1.
</event>
<event>
 8    1  0.8061721E-006  0.1423829E+03  0.7561462E-02  0.1210158E+00
         -2   -1    0    0    0  501 -0.00000000000E+00  0.00000000000E+00  0.33793204823E+02  0.33793204823E+02  0.00000000000E+00 0.  1.
          2   -1    0    0  501    0  0.00000000000E+00 -0.00000000000E+00 -0.84340468633E+03  0.84340468633E+03  0.00000000000E+00 0. -1.
         23    2    1    2    0    0 -0.84993951645E+02 -0.45782900285E+02 -0.15665465535E+03  0.20539445767E+03  0.91247774885E+02 0.  0.
         23    2    1    2    0    0  0.84993951645E+02  0.45782900285E+02 -0.65295682615E+03  0.67180343349E+03  0.12508873110E+03 0.  0.
          5    1    4    4  502    0  0.11026782977E+03  0.58595255164E+01 -0.46604608887E+03  0.47896738686E+03  0.41800000000E+01 0.  1.
         -5    1    4    4    0  502 -0.25273878121E+02  0.39923374769E+02 -0.18691073728E+03  0.19283604663E+03  0.41800000000E+01 0.  1.
        -11    1    3    3    0    0  0.67126082878E+01 -0.33660937194E+02 -0.18116031995E+02  0.38811189341E+02  0.00000000000E+00 0.  1.
         11    1    3    3    0    0 -0.91706559933E+02 -0.12121963091E+02 -0.13853862336E+03  0.16658326833E+03  0.00000000000E+00 0. -1.
</event>
<event>
 8    1  0.3360493E-005  0.2680411E+03  0.7561462E-02  0.1102406E+00
         -1   -1    0    0    0  501 -0.00000000000E+00  0.00000000000E+00  0.50422427047E+03  0.50422427047E+03  0.00000000000E+00 0.  1.
          1   -1    0    0  501    0  0.00000000000E+00 -0.00000000000E+00 -0.15601352293E+03  0.15601352293E+03  0.00000000000E+00 0. -1.
         23    2    1    2    0    0 -0.16876033477E+02  0.24912616796E+03  0.25354678949E+03  0.36535257460E+03  0.82751925892E+02 0.  0.
         23    2    1    2    0    0  0.16876033477E+02 -0.24912616796E+03  0.94663958058E+02  0.29488521880E+03  0.12508948496E+03 0.  0.
          5    1    4    4  502    0 -0.16675716851E+02  0.42044835278E+01 -0.80468186153E+01  0.19441730994E+02  0.41800000000E+01 0.  1.
         -5    1    4    4    0  502  0.33551750328E+02 -0.25333065148E+03  0.10271077667E+03  0.27544348781E+03  0.41800000000E+01 0.  1.
        -11    1    3    3    0    0 -0.48197919587E+02  0.10832051732E+03  0.10655369647E+03  0.15940534544E+03  0.00000000000E+00 0. -1.
         11    1    3    3    0    0  0.31321886110E+02  0.14080565064E+03  0.14699309302E+03  0.20594722915E+03  0.00000000000E+00 0.  1.
</event>
<event>
 8    1  0.8061721E-006  0.8863893E+02  0.7561462E-02  0.1306182E+00
          1   -1    0    0  501    0  0.00000000000E+00  0.00000000000E+00  0.19379393916E+03  0.19379393916E+03  0.00000000000E+00 0. -1.
         -1   -1    0    0    0  501 -0.00000000000E+00 -0.00000000000E+00 -0.53308594109E+02  0.53308594109E+02  0.00000000000E+00 0.  1.
         23    2    1    2    0    0 -0.64658806354E+01  0.13866330968E+02  0.59014241710E+02  0.10870399824E+03  0.89998865333E+02 0.  0.
         23    2    1    2    0    0  0.64658806354E+01 -0.13866330968E+02  0.81471103342E+02  0.13839853503E+03  0.11082658107E+03 0.  0.
          5    1    4    4  502    0  0.19362230092E+02 -0.58258038854E+02  0.28036785150E+02  0.67619736519E+02  0.41800000000E+01 0. -1.
         -5    1    4    4    0  502 -0.12896349457E+02  0.44391707887E+02  0.53434318192E+02  0.70778798514E+02  0.41800000000E+01 0. -1.
        -11    1    3    3    0    0  0.10471462794E+02 -0.24906323844E+02 -0.91076264591E+01  0.28511845962E+02  0.00000000000E+00 0. -1.
         11    1    3    3    0    0 -0.16937343430E+02  0.38772654811E+02  0.68121868169E+02  0.80192152275E+02  0.00000000000E+00 0.  1.
</event>
<event>
 8    1  0.8061721E-006  0.1339232E+03  0.7561462E-02  0.1221748E+00
          2   -1    0    0  501    0  0.00000000000E+00  0.00000000000E+00  0.11293950226E+04  0.11293950226E+04  0.00000000000E+00 0. -1.
         -2   -1    0    0    0  501 -0.00000000000E+00 -0.00000000000E+00 -0.21666698958E+02  0.21666698958E+02  0.00000000000E+00 0.  1.
         23    2    1    2    0    0  0.65580414607E+02  0.64981084360E+02  0.29435872656E+03  0.32296748723E+03  0.95590824888E+02 0.  0.
         23    2    1    2    0    0 -0.65580414607E+02 -0.64981084360E+02  0.81336959704E+03  0.82809423428E+03  0.12508647952E+03 0.  0.
          5    1    4    4  502    0  0.24180321006E+02  0.20053413396E+02  0.17544216439E+03  0.17828138646E+03  0.41800000000E+01 0. -1.
         -5    1    4    4    0  502 -0.89760735613E+02 -0.85034497757E+02  0.63792743264E+03  0.64981284782E+03  0.41800000000E+01 0. -1.
        -11    1    3    3    0    0  0.62196733694E+02  0.17187447172E+02  0.24814901770E+03  0.25640159323E+03  0.00000000000E+00 0. -1.
         11    1    3    3    0    0  0.33836809128E+01  0.47793637188E+02  0.46209708860E+02  0.66565894008E+02  0.00000000000E+00 0.  1.
</event>
<event>
 8    1  0.8061721E-006  0.9291974E+02  0.7561462E-02  0.1295931E+00
         -2   -1    0    0    0  501 -0.00000000000E+00  0.00000000000E+00  0.10533912422E+03  0.10533912422E+03  0.00000000000E+00 0. -1.
          2   -1    0    0  501    0  0.00000000000E+00 -0.00000000000E+00 -0.20187772028E+03  0.20187772028E+03  0.00000000000E+00 0.  1.
         23    2    1    2    0    0 -0.34780113894E+02 -0.39495752740E+02  0.41915251090E+02  0.11334463612E+03  0.91217034901E+02 0.  0.
         23    2    1    2    0    0  0.34780113894E+02  0.39495752740E+02 -0.13845384715E+03  0.19387220838E+03  0.12508954627E+03 0.  0.
          5    1    4    4  502    0 -0.33938831214E+02  0.47626594257E+02 -0.31887873834E+02  0.66741633501E+02  0.41800000000E+01 0.  1.
         -5    1    4    4    0  502  0.68718945108E+02 -0.81308415172E+01 -0.10656597332E+03  0.12713057488E+03  0.41800000000E+01 0.  1.
        -11    1    3    3    0    0 -0.18749960527E+02 -0.37242603459E+02  0.69681641346E+02  0.81204086552E+02  0.00000000000E+00 0.  1.
         11    1    3    3    0    0 -0.16030153367E+02 -0.22531492812E+01 -0.27766390256E+02  0.32140549567E+02  0.00000000000E+00 0. -1.
</event>
<event>
 8    1  0.8061721E-006  0.1550919E+03  0.7561462E-02  0.1194352E+00
          2   -1    0    0  501    0  0.00000000000E+00  0.00000000000E+00  0.38283346573E+03  0.38283346573E+03  0.00000000000E+00 0. -1.
         -2   -1    0    0    0  501 -0.00000000000E+00 -0.00000000000E+00 -0.18764668844E+03  0.18764668844E+03  0.00000000000E+00 0.  1.
         23    2    1    2    0    0  0.97211606085E+02 -0.66729132081E+02 -0.13331655703E+03  0.19971838706E+03  0.90615982723E+02 0.  0.
         23    2    1    2    0    0 -0.97211606085E+02  0.66729132081E+02  0.32850333432E+03  0.37076176711E+03  0.12508786457E+03 0.  0.
          5    1    4    4  502    0  0.24583772180E+02 -0.50005155693E+01  0.23747890105E+02  0.34796575909E+02  0.41800000000E+01 0.  1.
         -5    1    4    4    0  502 -0.12179537826E+03  0.71729647650E+02  0.30475544421E+03  0.33596519120E+03  0.41800000000E+01 0.  1.
        -11    1    3    3    0    0 -0.74021684103E+01 -0.32405845855E+02 -0.10689674587E+02  0.34917045773E+02  0.00000000000E+00 0. -1.
         11    1    3    3    0    0  0.10461377450E+03 -0.34323286226E+02 -0.12262688244E+03  0.16480134129E+03  0.00000000000E+00 0.  1.
</event>
<event>
 8    1  0.8061721E-006  0.9826948E+02  0.7561462E-02  0.1283978E+00
          2   -1    0    0  501    0  0.00000000000E+00  0.00000000000E+00  0.32155413398E+03  0.32155413398E+03  0.00000000000E+00 0. -1.
         -2   -1    0    0    0  501 -0.00000000000E+00 -0.00000000000E+00 -0.68391440233E+02  0.68391440233E+02  0.00000000000E+00 0.  1.
         23    2    1    2    0    0  0.28997581762E+02  0.36383752182E+02 -0.26292675566E+01  0.10142620936E+03  0.90087322785E+02 0.  0.
         23    2    1    2    0    0 -0.28997581762E+02 -0.36383752182E+02  0.25579196131E+03  0.28851936486E+03  0.12509699939E+03 0.  0.
          5    1    4    4  502    0 -0.69381891290E+02  0.62387884871E+01  0.17626212432E+03  0.18957472983E+03  0.41800000000E+01 0. -1.
         -5    1    4    4    0  502  0.40384309528E+02 -0.42622540669E+02  0.79529836989E+02  0.98944635027E+02  0.41800000000E+01 0. -1.
        -11    1    3    3    0    0  0.30803852385E+02 -0.64875245265E+00 -0.38856210064E+02  0.49589346256E+02  0.00000000000E+00 0.  1.
         11    1    3    3    0    0 -0.18062706234E+01  0.37032504634E+02  0.36226942508E+02  0.51836863105E+02  0.00000000000E+00 0. -1.
</event>
<event>
 8    1  0.8061721E-006  0.1140162E+03  0.7561462E-02  0.1253308E+00
         -2   -1    0    0    0  501 -0.00000000000E+00  0.00000000000E+00  0.17303196320E+02  0.17303196320E+02  0.00000000000E+00 0.  1.
          2   -1    0    0  501    0  0.00000000000E+00 -0.00000000000E+00 -0.81255298556E+03  0.81255298556E+03  0.00000000000E+00 0. -1.
         23    2    1    2    0    0  0.47275782119E+02  0.16374086487E+02 -0.28682013122E+03  0.30388035780E+03  0.87030879003E+02 0.  0.
         23    2    1    2    0    0 -0.47275782119E+02 -0.16374086487E+02 -0.50842965803E+03  0.52597582409E+03  0.12508693009E+03 0.  0.
          5    1    4    4  502    0  0.42522834678E+02 -0.13177680530E+02 -0.16180637308E+03  0.16787083577E+03  0.41800000000E+01 0.  1.
         -5    1    4    4    0  502 -0.89798616797E+02 -0.31964059563E+01 -0.34662328495E+03  0.35810498832E+03  0.41800000000E+01 0.  1.
        -11    1    3    3    0    0  0.10504020756E+02 -0.31381961018E+02 -0.16103529535E+03  0.16440051179E+03  0.00000000000E+00 0. -1.
         11    1    3    3    0    0  0.36771761364E+02  0.47756047505E+02 -0.12578483586E+03  0.13947984600E+03  0.00000000000E+00 0.  1.
</event>
<event>
 8    1  0.8061721E-006  0.2022093E+03  0.7561462E-02  0.1147888E+00
         -2   -1    0    0    0  501 -0.00000000000E+00  0.00000000000E+00  0.42455520077E+02  0.42455520077E+02  0.00000000000E+00 0.  1.
          2   -1    0    0  501    0  0.00000000000E+00 -0.00000000000E+00 -0.10663713392E+04  0.10663713392E+04  0.00000000000E+00 0. -1.
         23    2    1    2    0    0  0.17509242865E+03  0.46305630713E+02 -0.43996178234E+03  0.48476576466E+03  0.92897290902E+02 0.  0.
         23    2    1    2    0    0 -0.17509242865E+03 -0.46305630713E+02 -0.58395403682E+03  0.62406109466E+03  0.12509341606E+03 0.  0.
          5    1    4    4  502    0 -0.19199160875E+03 -0.33206162509E+02 -0.48406065695E+03  0.52181952729E+03  0.41800000000E+01 0. -1.
         -5    1    4    4    0  502  0.16899180097E+02 -0.13099468205E+02 -0.99893379879E+02  0.10224156737E+03  0.41800000000E+01 0. -1.
        -11    1    3    3    0    0  0.74002843536E+02 -0.54002024589E+01 -0.88889220712E+02  0.11578806759E+03  0.00000000000E+00 0.  1.
         11    1    3    3    0    0  0.10108958512E+03  0.51705833172E+02 -0.35107256163E+03  0.36897769707E+03  0.00000000000E+00 0. -1.
</event>
<event>
 8    1  0.8061721E-006  0.8572723E+02  0.7561462E-02  0.1313542E+00
         -1   -1    0    0    0  501 -0.00000000000E+00  0.00000000000E+00  0.28521628284E+02  0.28521628284E+02  0.00000000000E+00 0.  1.
          1   -1    0    0  501    0  0.00000000000E+00 -0.00000000000E+00 -0.66165617430E+03  0.66165617430E+03  0.00000000000E+00 0. -1.
         23    2    1    2    0    0  0.43119802012E+02  0.47812365331E+02 -0.12300474482E+03  0.16100411231E+03  0.81528015596E+02 0.  0.
         23    2    1    2    0    0 -0.43119802012E+02 -0.47812365331E+02 -0.51012980120E+03  0.52917369028E+03  0.12508813217E+03 0.  0.
          5    1    4    4  502    0 -0.38251833910E+02  0.88565844965E+01 -0.42424108233E+03  0.42607465335E+03  0.41800000000E+01 0.  1.
         -5    1    4    4    0  502 -0.48679681019E+01 -0.56668949828E+02 -0.85888718866E+02  0.10309903693E+03  0.41800000000E+01 0.  1.
        -11    1    3    3    0    0  0.38852484720E+02  0.14682474142E+02 -0.93923620189E+01  0.42582943536E+02  0.00000000000E+00 0.  1.
         11    1    3    3    0    0  0.42673172919E+01  0.33129891190E+02 -0.11361238280E+03  0.11842116877E+03  0.00000000000E+00 0. -1.
</event>
<event>
 8    1  0.8061721E-006  0.1501512E+03  0.7561462E-02  0.1200287E+00
         -3   -1    0    0    0  501 -0.00000000000E+00  0.00000000000E+00  0.10349916302E+04  0.10349916302E+04  0.00000000000E+00 0.  1.
          3   -1    0    0  501    0  0.00000000000E+00 -0.00000000000E+00 -0.25083018586E+02  0.25083018586E+02  0.00000000000E+00 0. -1.
         23    2    1    2    0    0 -0.10982769158E+03 -0.26444649174E+02  0.59921196736E+03  0.61619999048E+03  0.88803181998E+02 0.  0.
         23    2    1    2    0    0  0.10982769158E+03  0.26444649174E+02  0.41069664424E+03  0.44387465829E+03  0.12486607776E+03 0.  0.
          5    1    4    4  502    0  0.12010516182E+03  0.51238665649E+02  0.38468980185E+03  0.40626883562E+03  0.41800000000E+01 0.  1.
         -5    1    4    4    0  502 -0.10277470237E+02 -0.24794016475E+02  0.26006842392E+02  0.37605822669E+02  0.41800000000E+01 0.  1.
        -11    1    3    3    0    0 -0.36154251877E+02 -0.53020384075E+02  0.30986750769E+03  0.31644298598E+03  0.00000000000E+00 0.  1.
         11    1    3    3    0    0 -0.73673439704E+02  0.26575734900E+02  0.28934445968E+03  0.29975700450E+03  0.00000000000E+00 0. -1.
</event>
<event>
 8    1  0.8061721E-006  0.1625117E+03  0.7561462E-02  0.1185890E+00
          1   -1    0    0  501    0  0.00000000000E+00  0.00000000000E+00  0.24078746766E+03  0.24078746766E+03  0.00000000000E+00 0. -1.
         -1   -1    0    0    0  501 -0.00000000000E+00 -0.00000000000E+00 -0.12187871753E+03  0.12187871753E+03  0.00000000000E+00 0.  1.
         23    2    1    2    0    0  0.78396619383E+02 -0.93886266784E+02  0.32419340715E+01  0.15293482640E+03  0.91749059770E+02 0.  0.
         23    2    1    2    0    0 -0.78396619383E+02  0.93886266784E+02  0.11566681606E+03  0.20973135878E+03  0.12509104484E+03 0.  0.
          5    1    4    4  502    0  0.26694240519E+02 -0.83453446151E+01  0.18429231379E+02  0.33754054910E+02  0.41800000000E+01 0. -1.
         -5    1    4    4    0  502 -0.10509085990E+03  0.10223161140E+03  0.97237584680E+02  0.17597730387E+03  0.41800000000E+01 0. -1.
        -11    1    3    3    0    0  0.63204052844E+01 -0.75397643529E+02  0.16274038449E+02  0.77392483486E+02  0.00000000000E+00 0.  1.
         11    1    3    3    0    0  0.72076214098E+02 -0.18488623255E+02 -0.13032104377E+02  0.75542342915E+02  0.00000000000E+00 0. -1.
</event>
<event>
 8    1  0.8061721E-006  0.1423075E+03  0.7561462E-02  0.1210257E+00
         -2   -1    0    0    0  501 -0.00000000000E+00  0.00000000000E+00  0.33220223429E+02  0.33220223429E+02  0.00000000000E+00 0.  1.
          2   -1    0    0  501    0  0.00000000000E+00 -0.00000000000E+00 -0.96201418853E+03  0.96201418853E+03  0.00000000000E+00 0. -1.
         23    2    1    2    0    0  0.59738931476E+02  0.86802341729E+02 -0.17345064889E+03  0.22238631725E+03  0.90923924446E+02 0.  0.
         23    2    1    2    0    0 -0.59738931476E+02 -0.86802341729E+02 -0.75534331621E+03  0.77284809471E+03  0.12508903104E+03 0.  0.
          5    1    4    4  502    0 -0.13959142305E+02  0.32544003812E+02 -0.16214213130E+03  0.16601660453E+03  0.41800000000E+01 0.  1.
         -5    1    4    4    0  502 -0.45779789171E+02 -0.11934634554E+03 -0.59320118491E+03  0.60683149018E+03  0.41800000000E+01 0.  1.
        -11    1    3    3    0    0  0.36810777684E+02  0.62820734062E+01 -0.98688654359E+01  0.38625021747E+02  0.00000000000E+00 0.  1.
         11    1    3    3    0    0  0.22928153792E+02  0.80520268322E+02 -0.16358178346E+03  0.18376129551E+03  0.00000000000E+00 0. -1.
</event>
<event>
 8    1  0.8061721E-006  0.1195759E+03  0.7561462E-02  0.1243798E+00
         -1   -1    0    0    0  501 -0.00000000000E+00  0.00000000000E+00  0.36252543977E+03  0.36252543977E+03  0.00000000000E+00 0.  1.
          1   -1    0    0  501    0  0.00000000000E+00 -0.00000000000E+00 -0.50340479724E+02  0.50340479724E+02  0.00000000000E+00 0. -1.
         23    2    1    2    0    0  0.18874605900E+01  0.80429006478E+02  0.17220358949E+03  0.20862503134E+03  0.86011277632E+02 0.  0.
         23    2    1    2    0    0 -0.18874605900E+01 -0.80429006478E+02  0.13998137056E+03  0.20424088815E+03  0.12508864336E+03 0.  0.
          5    1    4    4  502    0  0.46281265067E+02 -0.25920350719E+02  0.11585216136E+03  0.12748731611E+03  0.41800000000E+01 0. -1.
         -5    1    4    4    0  502 -0.48168725657E+02 -0.54508655759E+02  0.24129209197E+02  0.76753572038E+02  0.41800000000E+01 0. -1.
        -11    1    3    3    0    0  0.39424886012E+02  0.27006276305E+02  0.44986151579E+02  0.65630895398E+02  0.00000000000E+00 0.  1.
         11    1    3    3    0    0 -0.37537425422E+02  0.53422730173E+02  0.12721743791E+03  0.14299413595E+03  0.00000000000E+00 0. -1.
</event>
<event>
 8    1  0.8061721E-006  0.9369351E+02  0.7561462E-02  0.1294146E+00
          2   -1    0    0  501    0  0.00000000000E+00  0.00000000000E+00  0.10813171039E+03  0.10813171039E+03  0.00000000000E+00 0. -1.
         -2   -1    0    0    0  501 -0.00000000000E+00 -0.00000000000E+00 -0.10560694298E+03  0.10560694298E+03  0.00000000000E+00 0.  1.
         23    2    1    2    0    0 -0.61992513513E+01 -0.30047124065E+02 -0.62460194050E+01  0.84643643550E+02  0.78640150389E+02 0.  0.
         23    2    1    2    0    0  0.61992513513E+01  0.30047124065E+02  0.87707868119E+01  0.12909500982E+03  0.12508930600E+03 0.  0.
          5    1    4    4  502    0 -0.57317590195E+02  0.21690612990E+02  0.18521272889E+02  0.64158388283E+02  0.41800000000E+01 0.  1.
         -5    1    4    4    0  502  0.63516841546E+02  0.83565110751E+01 -0.97504860769E+01  0.64936621533E+02  0.41800000000E+01 0.  1.
        -11    1    3    3    0    0 -0.27532138568E+02 -0.35774143987E+01 -0.31726032855E+02  0.42158720434E+02  0.00000000000E+00 0.  1.
         11    1    3    3    0    0  0.21332887217E+02 -0.26469709667E+02  0.25480013450E+02  0.42484923117E+02  0.00000000000E+00 0. -1.
</event>
<event>
 8    1  0.8061721E-006  0.7780663E+02  0.7561462E-02  0.1335394E+00
         -2   -1    0    0    0  501 -0.00000000000E+00  0.00000000000E+00  0.67948532467E+02  0.67948532467E+02  0.00000000000E+00 0.  1.
          2   -1    0    0  501    0  0.00000000000E+00 -0.00000000000E+00 -0.22593161876E+03  0.22593161876E+03  0.00000000000E+00 0. -1.
         23    2    1    2    0    0 -0.92246769452E+00 -0.49888399043E+02 -0.33917158182E+02  0.11082055074E+03  0.92957611535E+02 0.  0.
         23    2    1    2    0    0  0.92246769452E+00  0.49888399043E+02 -0.12406592811E+03  0.18305960048E+03  0.12501503711E+03 0.  0.
          5    1    4    4  502    0  0.25151854603E+02  0.43705655685E+02  0.56277630318E+01  0.50911140682E+02  0.41800000000E+01 0. -1.
         -5    1    4    4    0  502 -0.24229386909E+02  0.61827433585E+01 -0.12969369114E+03  0.13214845980E+03  0.41800000000E+01 0. -1.
        -11    1    3    3    0    0 -0.26664201659E+02 -0.46628519890E+02 -0.55377587384E+02  0.77148400513E+02  0.00000000000E+00 0. -1.
         11    1    3    3    0    0  0.25741733964E+02 -0.32598791531E+01  0.21460429203E+02  0.33672150230E+02  0.00000000000E+00 0.  1.
</event>
<event>
 7    1  0.8061721E-006  0.3750959E+03  0.7561462E-02  0.1052761E+00
          1   -1    0    0  501    0  0.00000000000E+00  0.00000000000E+00  0.15003621219E+04  0.15003621219E+04  0.00000000000E+00 0. -1.
         -1   -1    0    0    0  501 -0.00000000000E+00 -0.00000000000E+00 -0.10406708097E+03  0.10406708097E+03  0.00000000000E+00 0.  1.
         23    2    1    2    0    0 -0.89744159590E+02  0.32728604372E+03  0.42312339679E+03  0.54886905301E+03  0.83986069333E+02 0.  0.
          5    1    1    2  502    0 -0.40498606872E+02  0.14214007737E+02  0.11299650233E+03  0.12094567835E+03  0.41800000000E+01 0. -1.
         -5    1    1    2    0  502  0.13024276646E+03 -0.34150005146E+03  0.86017514180E+03  0.93461447150E+03  0.41800000000E+01 0.  1.
        -11    1    3    3    0    0 -0.73873364765E+02  0.19868268007E+03  0.31719155195E+03  0.38150040893E+03  0.00000000000E+00 0. -1.
         11    1    3    3    0    0 -0.15870794825E+02  0.12860336365E+03  0.10593184484E+03  0.16736864408E+03  0.00000000000E+00 0.  1.
</event>
<event>
 8    1  0.8061721E-006  0.1072182E+03  0.7561462E-02  0.1265810E+00
         -2   -1    0    0    0  501 -0.00000000000E+00  0.00000000000E+00  0.31039457983E+02  0.31039457983E+02  0.00000000000E+00 0.  1.
          2   -1    0    0  501    0  0.00000000000E+00 -0.00000000000E+00 -0.57770542302E+03  0.57770542302E+03  0.00000000000E+00 0. -1.
         23    2    1    2    0    0 -0.76083598126E+00  0.77823693499E+02 -0.23691293311E+03  0.26574149834E+03  0.91835178037E+02 0.  0.
         23    2    1    2    0    0  0.76083598126E+00 -0.77823693499E+02 -0.30975303192E+03  0.34300338266E+03  0.12508906262E+03 0.  0.
          5    1    4    4  502    0  0.34688662007E+02 -0.80835813271E+02 -0.11291161168E+03  0.14319300412E+03  0.41800000000E+01 0. -1.
         -5    1    4    4    0  502 -0.33927826026E+02  0.30121197725E+01 -0.19684142025E+03  0.19981037853E+03  0.41800000000E+01 0. -1.
        -11    1    3    3    0    0  0.20394563756E+02  0.13792850626E+02 -0.62198337720E+01  0.25394237365E+02  0.00000000000E+00 0.  1.
         11    1    3    3    0    0 -0.21155399737E+02  0.64030842873E+02 -0.23069309934E+03  0.24034726098E+03  0.00000000000E+00 0. -1.
</event>
<event>
 8    1  0.8061721E-006  0.1095698E+03  0.7561462E-02  0.1261369E+00
          2   -1    0    0  501    0  0.00000000000E+00  0.00000000000E+00  0.22791130527E+03  0.22791130527E+03  0.00000000000E+00 0.  1.
         -2   -1    0    0    0  501 -0.00000000000E+00 -0.00000000000E+00 -0.62509520031E+02  0.62509520031E+02  0.00000000000E+00 0. -1.
         23    2    1    2    0    0 -0.10924814478E+02  0.12504074760E+02  0.16268243621E+02  0.95063996464E+02  0.92178111373E+02 0.  0.
         23    2    1    2    0    0  0.10924814478E+02 -0.12504074760E+02  0.14913354162E+03  0.19535682884E+03  0.12509106235E+03 0.  0.
          5    1    4    4  502    0 -0.16542527259E+02 -0.64601819809E+02  0.86172822007E+02  0.10904255125E+03  0.41800000000E+01 0. -1.
         -5    1    4    4    0  502  0.27467341736E+02  0.52097745049E+02  0.62960719614E+02  0.86314277588E+02  0.41800000000E+01 0. -1.
        -11    1    3    3    0    0  0.40698832323E+02  0.78231843746E+01  0.29714336791E+01  0.41550289823E+02  0.00000000000E+00 0. -1.
         11    1    3    3    0    0 -0.51623646801E+02  0.46808903850E+01  0.13296809942E+02  0.53513706641E+02  0.00000000000E+00 0.  1.
</event>
<event>
 8    1  0.8061721E-006  0.9749727E+02  0.7561462E-02  0.1285649E+00
          2   -1    0    0  501    0  0.00000000000E+00  0.00000000000E+00  0.47211199702E+02  0.47211199702E+02  0.00000000000E+00 0.  1.
         -2   -1    0    0    0  501 -0.00000000000E+00 -0.00000000000E+00 -0.33507930654E+03  0.33507930654E+03  0.00000000000E+00 0. -1.
         23    2    1    2    0    0  0.49677242966E+02 -0.34151067190E+02 -0.15350043764E+03  0.18906600152E+03  0.92463207363E+02 0.  0.
         23    2    1    2    0    0 -0.49677242966E+02  0.34151067190E+02 -0.13436766920E+03  0.19322450472E+03  0.12508762865E+03 0.  0.
          5    1    4    4  502    0 -0.62678211359E+02  0.22183298509E+02 -0.15320356266E+03  0.16706124902E+03  0.41800000000E+01 0.  1.
         -5    1    4    4    0  502  0.13000968393E+02  0.11967768682E+02  0.18835893464E+02  0.26163255703E+02  0.41800000000E+01 0.  1.
        -11    1    3    3    0    0  0.77388451102E+01 -0.60299817868E+02 -0.79548780029E+02  0.10011975910E+03  0.00000000000E+00 0.  1.
         11    1    3    3    0    0  0.41938397856E+02  0.26148750677E+02 -0.73951657613E+02  0.88946242419E+02  0.00000000000E+00 0. -1.
</event>
<event>
 8    1  0.8061721E-006  0.1028088E+03  0.7561462E-02  0.1274498E+00
         -1   -1    0    0    0  501 -0.00000000000E+00  0.00000000000E+00  0.30190885869E+02  0.30190885869E+02  0.00000000000E+00 0.  1.
          1   -1    0    0  501    0  0.00000000000E+00 -0.00000000000E+00 -0.57948321603E+03  0.57948321603E+03  0.00000000000E+00 0. -1.
         23    2    1    2    0    0  0.25460557742E+02 -0.69222326296E+02 -0.21373523781E+03  0.24404061189E+03  0.91831900298E+02 0.  0.
         23    2    1    2    0    0 -0.25460557742E+02  0.69222326296E+02 -0.33555709235E+03  0.36563349001E+03  0.12509722751E+03 0.  0.
          5    1    4    4  502    0  0.28099212442E+02  0.37702735090E+02 -0.27408631098E+03  0.27812198805E+03  0.41800000000E+01 0.  1.
         -5    1    4    4    0  502 -0.53559770184E+02  0.31519591205E+02 -0.61470781376E+02  0.87511501957E+02  0.41800000000E+01 0.  1.
        -11    1    3    3    0    0  0.42267346748E+02 -0.25695734576E+02 -0.38449313659E+02  0.62651010346E+02  0.00000000000E+00 0.  1.
         11    1    3    3    0    0 -0.16806789006E+02 -0.43526591720E+02 -0.17528592415E+03  0.18138960155E+03  0.00000000000E+00 0. -1.
</event>
<event>
 8    1  0.8061721E-006  0.1688657E+03  0.7561462E-02  0.1179036E+00
          2   -1    0    0  501    0  0.00000000000E+00  0.00000000000E+00  0.46898309589E+03  0.46898309589E+03  0.00000000000E+00 0. -1.
         -2   -1    0    0    0  501 -0.00000000000E+00 -0.00000000000E+00 -0.64661259540E+02  0.64661259540E+02  0.00000000000E+00 0.  1.
         23    2    1    2    0    0  0.58480356509E+02 -0.12454604218E+03  0.17707356769E+03  0.24001057352E+03  0.85547403843E+02 0.  0.
         23    2    1    2    0    0 -0.58480356509E+02  0.12454604218E+03  0.22724826865E+03  0.29363378191E+03  0.12508938225E+03 0.  0.
          5    1    4    4  502    0 -0.12869298296E+02  0.13383522746E+03  0.19482789869E+03  0.23675487208E+03  0.41800000000E+01 0. -1.
         -5    1    4    4    0  502 -0.45611058214E+02 -0.92891852736E+01  0.32420369965E+02  0.56878909827E+02  0.41800000000E+01 0. -1.
        -11    1    3    3    0    0  0.27281172370E+02 -0.12218186611E+03  0.16344943160E+03  0.20588440315E+03  0.00000000000E+00 0. -1.
         11    1    3    3    0    0  0.31199184139E+02 -0.23641760779E+01  0.13624136088E+02  0.34126170363E+02  0.00000000000E+00 0.  1.
</event>
<event>
 8    1  0.8061721E-006  0.2108055E+03  0.7561462E-02  0.1140930E+00
          1   -1    0    0  501    0  0.00000000000E+00  0.00000000000E+00  0.70911240724E+03  0.70911240724E+03  0.00000000000E+00 0. -1.
         -1   -1    0    0    0  501 -0.00000000000E+00 -0.00000000000E+00 -0.68997937922E+02  0.68997937922E+02  0.00000000000E+00 0.  1.
         23    2    1    2    0    0 -0.15208766813E+03  0.11019574264E+03  0.38166135306E+03  0.43500224788E+03  0.91037392050E+02 0.  0.
         23    2    1    2    0    0  0.15208766813E+03 -0.11019574264E+03  0.25845311627E+03  0.34310809728E+03  0.12510552593E+03 0.  0.
          5    1    4    4  502    0  0.14262042655E+03 -0.48913276618E+02  0.22929687743E+03  0.27445878579E+03  0.41800000000E+01 0. -1.
         -5    1    4    4    0  502  0.94672415827E+01 -0.61282466025E+02  0.29156238838E+02  0.68649311493E+02  0.41800000000E+01 0. -1.
        -11    1    3    3    0    0 -0.36684116746E+02 -0.13840772243E+02  0.76706451370E+02  0.86146219183E+02  0.00000000000E+00 0. -1.
         11    1    3    3    0    0 -0.11540355139E+03  0.12403651489E+03  0.30495490169E+03  0.34885602870E+03  0.00000000000E+00 0.  1.
</event>
<event>
 8    1  0.8061721E-006  0.8779560E+02  0.7561462E-02  0.1308280E+00
          2   -1    0    0  501    0  0.00000000000E+00  0.00000000000E+00  0.79260903854E+03  0.79260903854E+03  0.00000000000E+00 0.  1.
         -2   -1    0    0    0  501 -0.00000000000E+00 -0.00000000000E+00 -0.16465448214E+02  0.16465448214E+02  0.00000000000E+00 0. -1.
         23    2    1    2    0    0 -0.87051720103E+01 -0.34792479582E+02  0.32373616909E+03  0.33832795382E+03  0.91511750639E+02 0.  0.
         23    2    1    2    0    0  0.87051720103E+01  0.34792479582E+02  0.45240742124E+03  0.47074653293E+03  0.12507408534E+03 0.  0.
          5    1    4    4  502    0  0.43980459306E+02 -0.10531105123E+00  0.56509870187E+02  0.71729559596E+02  0.41800000000E+01 0. -1.
         -5    1    4    4    0  502 -0.35275287295E+02  0.34897790634E+02  0.39589755105E+03  0.39901697334E+03  0.41800000000E+01 0. -1.
        -11    1    3    3    0    0  0.14608475782E+02 -0.51111682193E+02  0.28688154782E+03  0.29176503235E+03  0.00000000000E+00 0.  1.
         11    1    3    3    0    0 -0.23313647792E+02  0.16319202610E+02  0.36854621268E+02  0.46562921472E+02  0.00000000000E+00 0. -1.
</event>
<event>
 8    1  0.8061721E-006  0.1671768E+03  0.7561462E-02  0.1180824E+00
          2   -1    0    0  501    0  0.00000000000E+00  0.00000000000E+00  0.10170691957E+04  0.10170691957E+04  0.00000000000E+00 0. -1.
         -2   -1    0    0    0  501 -0.00000000000E+00 -0.00000000000E+00 -0.35572290809E+02  0.35572290809E+02  0.00000000000E+00 0.  1.
         23    2    1    2    0    0  0.99423574840E+02  0.11949011394E+03  0.43259161450E+03  0.46859781651E+03  0.91024579887E+02 0.  0.
         23    2    1    2    0    0 -0.99423574840E+02 -0.11949011394E+03  0.54890529037E+03  0.58404366997E+03  0.12508819320E+03 0.  0.
          5    1    4    4  502    0 -0.41320009559E+02 -0.70214516763E+02  0.45869838526E+03  0.46589602123E+03  0.41800000000E+01 0. -1.
         -5    1    4    4    0  502 -0.58103565282E+02 -0.49275597172E+02  0.90206905108E+02  0.11814764875E+03  0.41800000000E+01 0. -1.
        -11    1    3    3    0    0  0.11189030913E+03  0.87177958287E+02  0.30466303809E+03  0.33606398865E+03  0.00000000000E+00 0.  1.
         11    1    3    3    0    0 -0.12466734288E+02  0.32312155648E+02  0.12792857641E+03  0.13253382786E+03  0.00000000000E+00 0. -1.
</event>
<event>
 8    1  0.8061721E-006  0.1095566E+03  0.7561462E-02  0.1261393E+00
          2   -1    0    0  501    0  0.00000000000E+00  0.00000000000E+00  0.32303596204E+03  0.32303596204E+03  0.00000000000E+00 0. -1.
         -2   -1    0    0    0  501 -0.00000000000E+00 -0.00000000000E+00 -0.50871444663E+02  0.50871444663E+02  0.00000000000E+00 0.  1.
         23    2    1    2    0    0  0.35953308206E+02  0.44215905854E+02  0.67915414725E+02  0.12771205947E+03  0.91924859945E+02 0.  0.
         23    2    1    2    0    0 -0.35953308206E+02 -0.44215905854E+02  0.20424910266E+03  0.24619534724E+03  0.12508703515E+03 0.  0.
          5    1    4    4  502    0 -0.69794604986E+02 -0.66305983940E+02  0.13410580517E+03  0.16513512579E+03  0.41800000000E+01 0.  1.
         -5    1    4    4    0  502  0.33841296780E+02  0.22090078086E+02  0.70143297489E+02  0.81060221442E+02  0.41800000000E+01 0.  1.
        -11    1    3    3    0    0 -0.16609794349E+02  0.11705288744E+02  0.62442464381E+02  0.65665519193E+02  0.00000000000E+00 0. -1.
         11    1    3    3    0    0  0.52563102555E+02  0.32510617110E+02  0.54729503441E+01  0.62046540279E+02  0.00000000000E+00 0.  1.
</event>
<event>
 8    1  0.8061721E-006  0.1151947E+03  0.7561462E-02  0.1251242E+00
         -2   -1    0    0    0  501 -0.00000000000E+00  0.00000000000E+00  0.16263048543E+03  0.16263048543E+03  0.00000000000E+00 0.  1.
          2   -1    0    0  501    0  0.00000000000E+00 -0.00000000000E+00 -0.98429302189E+02  0.98429302189E+02  0.00000000000E+00 0. -1.
         23    2    1    2    0    0 -0.39784138486E+02 -0.34180139835E+02  0.66501455949E+02  0.12539895587E+03  0.92473752257E+02 0.  0.
         23    2    1    2    0    0  0.39784138486E+02  0.34180139835E+02 -0.23002727031E+01  0.13566083175E+03  0.12509000912E+03 0.  0.
          5    1    4    4  502    0  0.15258795716E+02 -0.47437194077E+02 -0.52795953779E+01  0.50283841897E+02  0.41800000000E+01 0. -1.
         -5    1    4    4    0  502  0.24525342770E+02  0.81617333911E+02  0.29793226748E+01  0.85376989853E+02  0.41800000000E+01 0. -1.
        -11    1    3    3    0    0 -0.10096928758E+02  0.26034157596E+02  0.48382072954E+02  0.55861886071E+02  0.00000000000E+00 0.  1.
         11    1    3    3    0    0 -0.29687209728E+02 -0.60214297431E+02  0.18119382995E+02  0.69537069802E+02  0.00000000000E+00 0. -1.
</event>
<event>
 8    1  0.8061721E-006  0.9854258E+02  0.7561462E-02  0.1283391E+00
          2   -1    0    0  501    0  0.00000000000E+00  0.00000000000E+00  0.24716575719E+03  0.24716575719E+03  0.00000000000E+00 0. -1.
         -2   -1    0    0    0  501 -0.00000000000E+00 -0.00000000000E+00 -0.13757693230E+03  0.13757693230E+03  0.00000000000E+00 0.  1.
         23    2    1    2    0    0 -0.48357947906E+01  0.15152493153E+02 -0.99963539122E+02  0.13912521389E+03  0.95447016849E+02 0.  0.
         23    2    1    2    0    0  0.48357947906E+01 -0.15152493153E+02  0.20955236401E+03  0.24561747561E+03  0.12713287577E+03 0.  0.
          5    1    4    4  502    0 -0.19783157694E+02  0.47734055602E+02  0.48759321937E+02  0.71167810620E+02  0.41800000000E+01 0. -1.
         -5    1    4    4    0  502  0.24618952485E+02 -0.62886548755E+02  0.16079304207E+03  0.17444966499E+03  0.41800000000E+01 0.  1.
        -11    1    3    3    0    0 -0.17336662970E+02 -0.27846833056E+02 -0.86274406788E+02  0.92299941825E+02  0.00000000000E+00 0.  1.
         11    1    3    3    0    0  0.12500868179E+02  0.42999326209E+02 -0.13689132334E+02  0.46825272063E+02  0.00000000000E+00 0. -1.
</event>
<event>
 8    1  0.8061721E-006  0.1161231E+03  0.7561462E-02  0.1249633E+00
         -1   -1    0    0    0  501 -0.00000000000E+00  0.00000000000E+00  0.50726518410E+02  0.50726518410E+02  0.00000000000E+00 0.  1.
          1   -1    0    0  501    0  0.00000000000E+00 -0.00000000000E+00 -0.27836008506E+03  0.27836008506E+03  0.00000000000E+00 0. -1.
         23    2    1    2    0    0 -0.35301878561E+02 -0.34229219435E+02 -0.79351962835E+02  0.12895324226E+03  0.88962590961E+02 0.  0.
         23    2    1    2    0    0  0.35301878561E+02  0.34229219435E+02 -0.14828160382E+03  0.20013336121E+03  0.12509223056E+03 0.  0.
          5    1    4    4  502    0 -0.19910209102E+02 -0.36636228335E+02 -0.29961241471E+02  0.51514833238E+02  0.41800000000E+01 0. -1.
         -5    1    4    4    0  502  0.55212087662E+02  0.70865447770E+02 -0.11832036235E+03  0.14861852797E+03  0.41800000000E+01 0. -1.
        -11    1    3    3    0    0 -0.22698810125E+02  0.28494899227E+02 -0.38715467603E+02  0.53160913224E+02  0.00000000000E+00 0.  1.
         11    1    3    3    0    0 -0.12603068435E+02 -0.62724118662E+02 -0.40636495232E+02  0.75792329036E+02  0.00000000000E+00 0. -1.
</event>
<event>
 8    1  0.8061721E-006  0.1350120E+03  0.7561462E-02  0.1220203E+00
         -1   -1    0    0    0  501 -0.00000000000E+00  0.00000000000E+00  0.59911547922E+02  0.59911547922E+02  0.00000000000E+00 0.  1.
          1   -1    0    0  501    0  0.00000000000E+00 -0.00000000000E+00 -0.42242154069E+03  0.42242154069E+03  0.00000000000E+00 0. -1.
         23    2    1    2    0    0  0.68695388805E+02 -0.81404619876E+02 -0.11204025172E+03  0.18278686813E+03  0.97530777587E+02 0.  0.
         23    2    1    2    0    0 -0.68695388805E+02  0.81404619876E+02 -0.25046974106E+03  0.29954622048E+03  0.12508828259E+03 0.  0.
          5    1    4    4  502    0 -0.25878283452E+02 -0.21214710303E+02 -0.13515887372E+03  0.13930234396E+03  0.41800000000E+01 0.  1.
         -5    1    4    4    0  502 -0.42817105353E+02  0.10261933018E+03 -0.11531086733E+03  0.16024387652E+03  0.41800000000E+01 0.  1.
        -11    1    3    3    0    0 -0.89373066004E+01 -0.31491780782E+02 -0.77695310361E+02  0.84309957645E+02  0.00000000000E+00 0. -1.
         11    1    3    3    0    0  0.77632695406E+02 -0.49912839094E+02 -0.34344941356E+02  0.98476910487E+02  0.00000000000E+00 0.  1.
</event>
<event>
 8    1  0.8061721E-006  0.1168502E+03  0.7561462E-02  0.1248386E+00
         -2   -1    0    0    0  501 -0.00000000000E+00  0.00000000000E+00  0.19222006648E+02  0.19222006648E+02  0.00000000000E+00 0. -1.
          2   -1    0    0  501    0  0.00000000000E+00 -0.00000000000E+00 -0.10892004531E+04  0.10892004531E+04  0.00000000000E+00 0.  1.
         23    2    1    2    0    0 -0.43496307937E+02  0.41997828256E+02 -0.21456407921E+03  0.24179922954E+03  0.93666306299E+02 0.  0.
         23    2    1    2    0    0  0.43496307937E+02 -0.41997828256E+02 -0.85541436722E+03  0.86662323018E+03  0.12508531917E+03 0.  0.
          5    1    4    4  502    0  0.71428552495E+02 -0.55856842168E+02 -0.40209047952E+03  0.41220898953E+03  0.41800000000E+01 0. -1.
         -5    1    4    4    0  502 -0.27932244558E+02  0.13859013911E+02 -0.45332388770E+03  0.45441424066E+03  0.41800000000E+01 0. -1.
        -11    1    3    3    0    0  0.20737050274E+02  0.42437924451E+02 -0.93048662069E+02  0.10435064062E+03  0.00000000000E+00 0.  1.
         11    1    3    3    0    0 -0.64233358210E+02 -0.44009619417E+00 -0.12151541714E+03  0.13744858892E+03  0.00000000000E+00 0. -1.
</event>
<event>
 8    1  0.8061721E-006  0.1002160E+03  0.7561462E-02  0.1279842E+00
          1   -1    0    0  501    0  0.00000000000E+00  0.00000000000E+00  0.42383811051E+02  0.42383811051E+02  0.00000000000E+00 0. -1.
         -1   -1    0    0    0  501 -0.00000000000E+00 -0.00000000000E+00 -0.31019196206E+03  0.31019196206E+03  0.00000000000E+00 0.  1.
         23    2    1    2    0    0 -0.26113309320E+02 -0.29289947984E+02 -0.11156127969E+03  0.14907148361E+03  0.90755617592E+02 0.  0.
         23    2    1    2    0    0  0.26113309320E+02  0.29289947984E+02 -0.15624687132E+03  0.20350428950E+03  0.12434269207E+03 0.  0.
          5    1    4    4  502    0 -0.19537384085E+02 -0.39376186408E+02 -0.32849776877E+02  0.55034295432E+02  0.41800000000E+01 0. -1.
         -5    1    4    4    0  502  0.45650693405E+02  0.68666134391E+02 -0.12339709444E+03  0.14846999406E+03  0.41800000000E+01 0.  1.
        -11    1    3    3    0    0  0.11201171907E+02  0.13103562115E+02 -0.84874371345E+02  0.86607323613E+02  0.00000000000E+00 0.  1.
         11    1    3    3    0    0 -0.37314481227E+02 -0.42393510098E+02 -0.26686908345E+02  0.62464160001E+02  0.00000000000E+00 0. -1.
</event>
<event>
 8    1  0.8061721E-006  0.1342173E+03  0.7561462E-02  0.1221329E+00
          1   -1    0    0  501    0  0.00000000000E+00  0.00000000000E+00  0.95334902871E+02  0.95334902871E+02  0.00000000000E+00 0. -1.
         -1   -1    0    0    0  501 -0.00000000000E+00 -0.00000000000E+00 -0.20836333235E+03  0.20836333235E+03  0.00000000000E+00 0.  1.
         23    2    1    2    0    0 -0.84616570654E+02  0.26973919982E+02 -0.59044606414E+02  0.14106725417E+03  0.92337144545E+02 0.  0.
         23    2    1    2    0    0  0.84616570654E+02 -0.26973919982E+02 -0.53983823060E+02  0.16263098105E+03  0.12508807480E+03 0.  0.
          5    1    4    4  502    0 -0.16985047520E+02 -0.34863767939E+02  0.12409099321E+02  0.40932044906E+02  0.41800000000E+01 0. -1.
         -5    1    4    4    0  502  0.10160161817E+03  0.78898479575E+01 -0.66392922381E+02  0.12169893614E+03  0.41800000000E+01 0. -1.
        -11    1    3    3    0    0 -0.18961385598E+02  0.53396482236E+02 -0.19073769398E+02  0.59787349314E+02  0.00000000000E+00 0. -1.
         11    1    3    3    0    0 -0.65655185057E+02 -0.26422562254E+02 -0.39970837016E+02  0.81279904851E+02  0.00000000000E+00 0.  1.
</event>
<event>
 8    1  0.8061721E-006  0.4813759E+02  0.7561462E-02  0.1455654E+00
          1   -1    0    0  501    0  0.00000000000E+00  0.00000000000E+00  0.20018896238E+03  0.20018896238E+03  0.00000000000E+00 0. -1.
         -1   -1    0    0    0  501 -0.00000000000E+00 -0.00000000000E+00 -0.11495389547E+03  0.11495389547E+03  0.00000000000E+00 0.  1.
         23    2    1    2    0    0  0.10077437063E+02 -0.34428442391E+02 -0.72341072959E+02  0.11078184445E+03  0.75845328392E+02 0.  0.
         23    2    1    2    0    0 -0.10077437063E+02  0.34428442391E+02  0.15757613987E+03  0.20436101340E+03  0.12508521719E+03 0.  0.
          5    1    4    4  502    0  0.11529992763E+01  0.24207979175E+02  0.17736937208E+03  0.17906625091E+03  0.41800000000E+01 0. -1.
         -5    1    4    4    0  502 -0.11230436340E+02  0.10220463216E+02 -0.19793232204E+02  0.25294762498E+02  0.41800000000E+01 0. -1.
        -11    1    3    3    0    0 -0.16960741269E+02 -0.11629766584E+02 -0.72555797946E+02  0.75413937908E+02  0.00000000000E+00 0.  1.
         11    1    3    3    0    0  0.27038178333E+02 -0.22798675808E+02  0.21472498674E+00  0.35367906539E+02  0.00000000000E+00 0. -1.
</event>
<event>
 8    1  0.8061721E-006  0.9223228E+02  0.7561462E-02  0.1297534E+00
         -2   -1    0    0    0  501 -0.00000000000E+00  0.00000000000E+00  0.17680284254E+02  0.17680284254E+02  0.00000000000E+00 0.  1.
          2   -1    0    0  501    0  0.00000000000E+00 -0.00000000000E+00 -0.84192179677E+03  0.84192179677E+03  0.00000000000E+00 0. -1.
         23    2    1    2    0    0 -0.27908071881E+02  0.13560591484E+01 -0.19147823906E+03  0.21398807179E+03  0.91357974281E+02 0.  0.
         23    2    1    2    0    0  0.27908071881E+02 -0.13560591484E+01 -0.63276327345E+03  0.64561400923E+03  0.12508952516E+03 0.  0.
          5    1    4    4  502    0  0.60462200453E+02 -0.48349912677E+01 -0.58133563627E+03  0.58450632949E+03  0.41800000000E+01 0. -1.
         -5    1    4    4    0  502 -0.32554128572E+02  0.34789321193E+01 -0.51427637189E+02  0.61107679735E+02  0.41800000000E+01 0. -1.
        -11    1    3    3    0    0 -0.27245525729E+02 -0.40493100162E+02 -0.68697646323E+02  0.84269665025E+02  0.00000000000E+00 0.  1.
         11    1    3    3    0    0 -0.66254615199E+00  0.41849159311E+02 -0.12278059274E+03  0.12971840677E+03  0.00000000000E+00 0. -1.
</event>
<event>
 8    1  0.8061721E-006  0.9181390E+02  0.7561462E-02  0.1298518E+00
         -2   -1    0    0    0  501 -0.00000000000E+00  0.00000000000E+00  0.21463119660E+02  0.21463119660E+02  0.00000000000E+00 0.  1.
          2   -1    0    0  501    0  0.00000000000E+00 -0.00000000000E+00 -0.71530786043E+03  0.71530786043E+03  0.00000000000E+00 0. -1.
         23    2    1    2    0    0 -0.31920853974E+02 -0.17029122921E+02 -0.23551852996E+03  0.26030552256E+03  0.10479052998E+03 0.  0.
         23    2    1    2    0    0  0.31920853974E+02  0.17029122921E+02 -0.45832621081E+03  0.47646545753E+03  0.12508990671E+03 0.  0.
          5    1    4    4  502    0 -0.25409208441E+02 -0.27581697731E+02 -0.29825866713E+03  0.30063613030E+03  0.41800000000E+01 0.  1.
         -5    1    4    4    0  502  0.57330062415E+02  0.44610820652E+02 -0.16006754367E+03  0.17582932723E+03  0.41800000000E+01 0.  1.
        -11    1    3    3    0    0 -0.47534548774E+02  0.31248742425E+01 -0.22912068029E+03  0.23402047838E+03  0.00000000000E+00 0. -1.
         11    1    3    3    0    0  0.15613694800E+02 -0.20153997164E+02 -0.63978496759E+01  0.26285044178E+02  0.00000000000E+00 0.  1.
</event>
<event>
 7    1  0.8061721E-006  0.1591078E+03  0.7561462E-02  0.1189708E+00
          2   -1    0    0  501    0  0.00000000000E+00  0.00000000000E+00  0.83097264438E+02  0.83097264438E+02  0.00000000000E+00 0. -1.
         -2   -1    0    0    0  501 -0.00000000000E+00 -0.00000000000E+00 -0.35742610633E+03  0.35742610633E+03  0.00000000000E+00 0.  1.
         23    2    1    2    0    0  0.29995640082E+02  0.62111288288E+02 -0.13768842376E+03  0.17859154616E+03  0.90439414896E+02 0.  0.
          5    1    1    2  502    0  0.22650948921E+01  0.76491434060E+02 -0.23744407951E+02  0.80233032153E+02  0.41800000000E+01 0. -1.
         -5    1    1    2    0  502 -0.32260734974E+02 -0.13860272235E+03 -0.11289601018E+03  0.18169879245E+03  0.41800000000E+01 0.  1.
        -11    1    3    3    0    0 -0.23527245934E+02  0.14984656105E+02 -0.86288234867E+02  0.90684787568E+02  0.00000000000E+00 0.  1.
         11    1    3    3    0    0  0.53522886016E+02  0.47126632184E+02 -0.51400188893E+02  0.87906758595E+02  0.00000000000E+00 0. -1.
</event>
<event>
 8    1  0.8061721E-006  0.1105350E+03  0.7561462E-02  0.1259582E+00
         -1   -1    0    0    0  501 -0.00000000000E+00  0.00000000000E+00  0.51101076065E+02  0.51101076065E+02  0.00000000000E+00 0.  1.
          1   -1    0    0  501    0  0.00000000000E+00 -0.00000000000E+00 -0.44937802575E+03  0.44937802575E+03  0.00000000000E+00 0. -1.
         23    2    1    2    0    0  0.88826497789E+01  0.86532386440E+02 -0.80986216620E+02  0.14850317076E+03  0.89037458821E+02 0.  0.
         23    2    1    2    0    0 -0.88826497789E+01 -0.86532386440E+02 -0.31729073307E+03  0.35197593106E+03  0.12508753488E+03 0.  0.
          5    1    4    4  502    0 -0.46687395551E+02 -0.79942099714E+02 -0.12363647004E+03  0.15451181616E+03  0.41800000000E+01 0. -1.
         -5    1    4    4    0  502  0.37804745772E+02 -0.65902867255E+01 -0.19365426303E+03  0.19746411489E+03  0.41800000000E+01 0. -1.
        -11    1    3    3    0    0 -0.67035544944E+01  0.12950977993E+02 -0.71173011092E+02  0.72651655051E+02  0.00000000000E+00 0.  1.
         11    1    3    3    0    0  0.15586204273E+02  0.73581408446E+02 -0.98132055285E+01  0.75851515709E+02  0.00000000000E+00 0. -1.
</event>
<event>
 8    1  0.8061721E-006  0.5785234E+02  0.7561462E-02  0.1407072E+00
         -1   -1    0    0    0  501 -0.00000000000E+00  0.00000000000E+00  0.54741817389E+02  0.54741817389E+02  0.00000000000E+00 0.  1.
          1   -1    0    0  501    0  0.00000000000E+00 -0.00000000000E+00 -0.27184269292E+03  0.27184269292E+03  0.00000000000E+00 0. -1.
         23    2    1    2    0    0  0.18055138801E+02  0.32439246456E+02 -0.78539219825E+02  0.13624488736E+03  0.10495697943E+03 0.  0.
         23    2    1    2    0    0 -0.18055138801E+02 -0.32439246456E+02 -0.13856165570E+03  0.19033962295E+03  0.12510614248E+03 0.  0.
          5    1    4    4  502    0 -0.98343321889E+01 -0.44916211978E+02  0.45462378760E+01  0.46393112279E+02  0.41800000000E+01 0. -1.
         -5    1    4    4    0  502 -0.82208066119E+01  0.12476965522E+02 -0.14310789358E+03  0.14394651067E+03  0.41800000000E+01 0. -1.
        -11    1    3    3    0    0 -0.12562950539E+02  0.10061976271E+02  0.22875885429E+02  0.27971006898E+02  0.00000000000E+00 0.  1.
         11    1    3    3    0    0  0.30618089340E+02  0.22377270185E+02 -0.10141510525E+03  0.10827388046E+03  0.00000000000E+00 0. -1.
</event>
<event>
 8    1  0.8061721E-006  0.1141476E+03  0.7561462E-02  0.1253076E+00
          1   -1    0    0  501    0  0.00000000000E+00  0.00000000000E+00  0.13338823876E+04  0.13338823876E+04  0.00000000000E+00 0. -1.
         -1   -1    0    0    0  501 -0.00000000000E+00 -0.00000000000E+00 -0.14523430207E+03  0.14523430207E+03  0.00000000000E+00 0.  1.
         23    2    1    2    0    0  0.33719287011E+02  0.34529537906E+02 -0.12319861244E+03  0.16024848073E+03  0.90401317265E+02 0.  0.
         23    2    1    2    0    0 -0.33719287011E+02 -0.34529537906E+02  0.13118466979E+04  0.13188682089E+04  0.12705240760E+03 0.  0.
          5    1    4    4  502    0  0.10895146806E+02 -0.68904369327E+02  0.95771709181E+03  0.96026351418E+03  0.41800000000E+01 0. -1.
         -5    1    4    4    0  502 -0.44614433817E+02  0.34374831421E+02  0.35412960613E+03  0.35860469473E+03  0.41800000000E+01 0.  1.
        -11    1    3    3    0    0  0.75791941977E+01 -0.30720827608E+02 -0.46127060160E+02  0.55936742063E+02  0.00000000000E+00 0. -1.
         11    1    3    3    0    0  0.26140092813E+02  0.65250365514E+02 -0.77071552279E+02  0.10431173866E+03  0.00000000000E+00 0.  1.
</event>
<event>
 8    1  0.8061721E-006  0.1006031E+03  0.7561462E-02  0.1279033E+00
         -2   -1    0    0    0  501 -0.00000000000E+00  0.00000000000E+00  0.51661998223E+02  0.51661998223E+02  0.00000000000E+00 0.  1.
          2   -1    0    0  501    0  0.00000000000E+00 -0.00000000000E+00 -0.43423582840E+03  0.43423582840E+03  0.00000000000E+00 0. -1.
         23    2    1    2    0    0 -0.27390983091E+02 -0.93493101966E+02 -0.12254628697E+03  0.18134377391E+03  0.91524564003E+02 0.  0.
         23    2    1    2    0    0  0.27390983091E+02  0.93493101966E+02 -0.26002754321E+03  0.30455405271E+03  0.12509045418E+03 0.  0.
          5    1    4    4  502    0  0.87874101678E+01  0.13454995733E+02  0.11914718245E+02  0.20437426416E+02  0.41800000000E+01 0. -1.
         -5    1    4    4    0  502  0.18603572924E+02  0.80038106233E+02 -0.27194226145E+03  0.28411662630E+03  0.41800000000E+01 0. -1.
        -11    1    3    3    0    0 -0.40302263187E+01 -0.66512527922E+02 -0.15373441010E+02  0.68384952901E+02  0.00000000000E+00 0.  1.
         11    1    3    3    0    0 -0.23360756773E+02 -0.26980574043E+02 -0.10717284596E+03  0.11295882101E+03  0.00000000000E+00 0. -1.
</event>
<event>
 8    1  0.8061721E-006  0.1010178E+03  0.7561462E-02  0.1278170E+00
         -1   -1    0    0    0  501 -0.00000000000E+00  0.00000000000E+00  0.42349441166E+02  0.42349441166E+02  0.00000000000E+00 0.  1.
          1   -1    0    0  501    0  0.00000000000E+00 -0.00000000000E+00 -0.33404112931E+03  0.33404112931E+03  0.00000000000E+00 0. -1.
         23    2    1    2    0    0 -0.10371313597E+02  0.25458039922E+02 -0.71038121951E+02  0.12125964082E+03  0.94349402646E+02 0.  0.
         23    2    1    2    0    0  0.10371313597E+02 -0.25458039922E+02 -0.22065356619E+03  0.25513092965E+03  0.12509244202E+03 0.  0.
          5    1    4    4  502    0 -0.49412237292E+02  0.12484247092E+02 -0.13223175630E+03  0.14177494628E+03  0.41800000000E+01 0. -1.
         -5    1    4    4    0  502  0.59783550889E+02 -0.37942287015E+02 -0.88421809893E+02  0.11335598337E+03  0.41800000000E+01 0. -1.
        -11    1    3    3    0    0 -0.30877657817E+02 -0.15212029793E+02  0.27660117075E+01  0.34532396723E+02  0.00000000000E+00 0.  1.
         11    1    3    3    0    0  0.20506344220E+02  0.40670069716E+02 -0.73804133658E+02  0.86727244099E+02  0.00000000000E+00 0. -1.
</event>
<event>
 8    1  0.8061721E-006  0.1472445E+03  0.7561462E-02  0.1203900E+00
         -1   -1    0    0    0  501 -0.00000000000E+00  0.00000000000E+00  0.45945683146E+02  0.45945683146E+02  0.00000000000E+00 0.  1.
          1   -1    0    0  501    0  0.00000000000E+00 -0.00000000000E+00 -0.80787122819E+03  0.80787122819E+03  0.00000000000E+00 0. -1.
         23    2    1    2    0    0 -0.38917003518E+02 -0.12416286730E+03 -0.15943462836E+03  0.22486903805E+03  0.90640679472E+02 0.  0.
         23    2    1    2    0    0  0.38917003518E+02  0.12416286730E+03 -0.60249091669E+03  0.62894787328E+03  0.12509665000E+03 0.  0.
          5    1    4    4  502    0 -0.11442243360E+02  0.10614330598E+03 -0.51770158361E+03  0.52861113156E+03  0.41800000000E+01 0.  1.
         -5    1    4    4    0  502  0.50359246877E+02  0.18019561326E+02 -0.84789333076E+02  0.10033674172E+03  0.41800000000E+01 0.  1.
        -11    1    3    3    0    0 -0.38488602600E+02 -0.70392322457E+02 -0.31674066046E+02  0.86253684274E+02  0.00000000000E+00 0.  1.
         11    1    3    3    0    0 -0.42840091736E+00 -0.53770544847E+02 -0.12776056232E+03  0.13861535378E+03  0.00000000000E+00 0. -1.
</event>
<event>
 8    1  0.8061721E-006  0.7809141E+02  0.7561462E-02  0.1334557E+00
         -1   -1    0    0    0  501 -0.00000000000E+00  0.00000000000E+00  0.45474920048E+03  0.45474920048E+03  0.00000000000E+00 0.  1.
          1   -1    0    0  501    0  0.00000000000E+00 -0.00000000000E+00 -0.42817215774E+02  0.42817215774E+02  0.00000000000E+00 0. -1.
         23    2    1    2    0    0  0.30713885353E+02  0.43029097236E+02  0.31043696584E+03  0.32802705256E+03  0.91846564902E+02 0.  0.
         23    2    1    2    0    0 -0.30713885353E+02 -0.43029097236E+02  0.10149501886E+03  0.16953936370E+03  0.12509001170E+03 0.  0.
          5    1    4    4  502    0 -0.31231234624E+02 -0.20739685023E+02  0.12870208525E+03  0.13411645573E+03  0.41800000000E+01 0. -1.
         -5    1    4    4    0  502  0.51734927145E+00 -0.22289412213E+02 -0.27207066388E+02  0.35422907962E+02  0.41800000000E+01 0. -1.
        -11    1    3    3    0    0 -0.27224908632E+02  0.94972764711E+01  0.39267185362E+02  0.48716586053E+02  0.00000000000E+00 0.  1.
         11    1    3    3    0    0  0.57938793984E+02  0.33531820765E+02  0.27116978048E+03  0.27931046650E+03  0.00000000000E+00 0. -1.
</event>
<event>
 8    1  0.8061721E-006  0.1657135E+03  0.7561462E-02  0.1182393E+00
         -1   -1    0    0    0  501 -0.00000000000E+00  0.00000000000E+00  0.73342930747E+02  0.73342930747E+02  0.00000000000E+00 0.  1.
          1   -1    0    0  501    0  0.00000000000E+00 -0.00000000000E+00 -0.96922053613E+03  0.96922053613E+03  0.00000000000E+00 0. -1.
         23    2    1    2    0    0 -0.12472983733E+03 -0.40294721117E+02 -0.35174063955E+02  0.16299803809E+03  0.90277066720E+02 0.  0.
         23    2    1    2    0    0  0.12472983733E+03  0.40294721117E+02 -0.86070354143E+03  0.87956542879E+03  0.12507421967E+03 0.  0.
          5    1    4    4  502    0 -0.28189501456E+01 -0.27508941339E+02 -0.63736078152E+02  0.69602071748E+02  0.41800000000E+01 0. -1.
         -5    1    4    4    0  502  0.12754878747E+03  0.67803662456E+02 -0.79696746328E+03  0.80996335704E+03  0.41800000000E+01 0. -1.
        -11    1    3    3    0    0 -0.12290802641E+03 -0.43782404225E+01 -0.23694893323E+02  0.12524775413E+03  0.00000000000E+00 0.  1.
         11    1    3    3    0    0 -0.18218109187E+01 -0.35916480694E+02 -0.11479170631E+02  0.37750283957E+02  0.00000000000E+00 0. -1.
</event>
<event>
 8    1  0.8061721E-006  0.9130590E+02  0.7561462E-02  0.1299720E+00
         -1   -1    0    0    0  501 -0.00000000000E+00  0.00000000000E+00  0.37277675919E+03  0.37277675919E+03  0.00000000000E+00 0.  1.
          1   -1    0    0  501    0  0.00000000000E+00 -0.00000000000E+00 -0.33118399334E+02  0.33118399334E+02  0.00000000000E+00 0. -1.
         23    2    1    2    0    0  0.45195083925E+01 -0.89433994304E+01  0.18112891912E+03  0.20370727935E+03  0.92674483933E+02 0.  0.
         23    2    1    2    0    0 -0.45195083925E+01  0.89433994304E+01  0.15852944074E+03  0.20218787917E+03  0.12509174454E+03 0.  0.
          5    1    4    4  502    0  0.17967476215E+02  0.49256686709E+02  0.20273792326E+02  0.56369765322E+02  0.41800000000E+01 0.  1.
         -5    1    4    4    0  502 -0.22486984608E+02 -0.40313287279E+02  0.13825564841E+03  0.14581811385E+03  0.41800000000E+01 0.  1.
        -11    1    3    3    0    0  0.41448056266E+02 -0.18696138166E+02  0.52135715461E+02  0.69178174139E+02  0.00000000000E+00 0. -1.
         11    1    3    3    0    0 -0.36928547873E+02  0.97527387357E+01  0.12899320365E+03  0.13452910521E+03  0.00000000000E+00 0.  1.
</event>
<event>
 8    1  0.8061721E-006  0.1090429E+03  0.7561462E-02  0.1262353E+00
         -2   -1    0    0    0  501 -0.00000000000E+00  0.00000000000E+00  0.31251028377E+02  0.31251028377E+02  0.00000000000E+00 0.  1.
          2   -1    0    0  501    0  0.00000000000E+00 -0.00000000000E+00 -0.43064424266E+03  0.43064424266E+03  0.00000000000E+00 0. -1.
         23    2    1    2    0    0  0.20370458170E+02 -0.30796951663E+02 -0.17430571544E+03  0.20175106855E+03  0.94644616473E+02 0.  0.
         23    2    1    2    0    0 -0.20370458170E+02  0.30796951663E+02 -0.22508749885E+03  0.26014420249E+03  0.12508883306E+03 0.  0.
          5    1    4    4  502    0 -0.67718130844E+02 -0.51202590398E+01 -0.92898104505E+02  0.11514986981E+03  0.41800000000E+01 0. -1.
         -5    1    4    4    0  502  0.47347672674E+02  0.35917210703E+02 -0.13218939434E+03  0.14499433268E+03  0.41800000000E+01 0. -1.
        -11    1    3    3    0    0 -0.31684490296E+02 -0.19496148923E+02 -0.12019575492E+03  0.12582140616E+03  0.00000000000E+00 0. -1.
         11    1    3    3    0    0  0.52054948466E+02 -0.11300802741E+02 -0.54109960519E+02  0.75929662384E+02  0.00000000000E+00 0.  1.
</event>
<event>
 8    1  0.8061721E-006  0.8778276E+02  0.7561462E-02  0.1308312E+00
         -2   -1    0    0    0  501 -0.00000000000E+00  0.00000000000E+00  0.51217819212E+02  0.51217819212E+02  0.00000000000E+00 0.  1.
          2   -1    0    0  501    0  0.00000000000E+00 -0.00000000000E+00 -0.24152711565E+03  0.24152711565E+03  0.00000000000E+00 0. -1.
         23    2    1    2    0    0 -0.11394972461E+01 -0.10605134329E+02 -0.63584629410E+02  0.11436108861E+03  0.94454677822E+02 0.  0.
         23    2    1    2    0    0  0.11394972461E+01  0.10605134329E+02 -0.12672466703E+03  0.17838384626E+03  0.12509151867E+03 0.  0.
          5    1    4    4  502    0 -0.39651655852E+02  0.35330616215E+02 -0.12775601391E+02  0.54783160231E+02  0.41800000000E+01 0. -1.
         -5    1    4    4    0  502  0.40791153099E+02 -0.24725481886E+02 -0.11394906564E+03  0.12360068603E+03  0.41800000000E+01 0. -1.
        -11    1    3    3    0    0  0.18119327326E+02 -0.37314833194E+02 -0.69468247885E+02  0.80910717852E+02  0.00000000000E+00 0. -1.
         11    1    3    3    0    0 -0.19258824572E+02  0.26709698866E+02  0.58836184755E+01  0.33450370757E+02  0.00000000000E+00 0.  1.
</event>
<event>
 8    1  0.8061721E-006  0.1338319E+03  0.7561462E-02  0.1221878E+00
          2   -1    0    0  501    0  0.00000000000E+00  0.00000000000E+00  0.73725631334E+03  0.73725631334E+03  0.00000000000E+00 0. -1.
         -2   -1    0    0    0  501 -0.00000000000E+00 -0.00000000000E+00 -0.26963519972E+02  0.26963519972E+02  0.00000000000E+00 0.  1.
         23    2    1    2    0    0 -0.60149642280E+02 -0.49027892841E+02  0.20420862860E+03  0.23716089775E+03  0.92316919804E+02 0.  0.
         23    2    1    2    0    0  0.60149642280E+02  0.49027892841E+02  0.50608416476E+03  0.52705893556E+03  0.12509286945E+03 0.  0.
          5    1    4    4  502    0 -0.25772118237E+02  0.54952002044E+02  0.22079787212E+03  0.22902641188E+03  0.41800000000E+01 0.  1.
         -5    1    4    4    0  502  0.85921760516E+02 -0.59241092032E+01  0.28528629264E+03  0.29803252368E+03  0.41800000000E+01 0.  1.
        -11    1    3    3    0    0  0.19421817891E+02 -0.34672438778E+02  0.67858078292E+02  0.78639073052E+02  0.00000000000E+00 0.  1.
         11    1    3    3    0    0 -0.79571460171E+02 -0.14355454064E+02  0.13635055031E+03  0.15852182470E+03  0.00000000000E+00 0. -1.
</event>
<event>
 8    1  0.8061721E-006  0.7177334E+02  0.7561462E-02  0.1354164E+00
         -2   -1    0    0    0  501 -0.00000000000E+00  0.00000000000E+00  0.39233659816E+02  0.39233659816E+02  0.00000000000E+00 0.  1.
          2   -1    0    0  501    0  0.00000000000E+00 -0.00000000000E+00 -0.37190387283E+03  0.37190387283E+03  0.00000000000E+00 0. -1.
         23    2    1    2    0    0  0.67977485952E+01  0.41119133865E+02 -0.77169134393E+02  0.12362292930E+03  0.87123824470E+02 0.  0.
         23    2    1    2    0    0 -0.67977485952E+01 -0.41119133865E+02 -0.25550107862E+03  0.28751460334E+03  0.12508738307E+03 0.  0.
          5    1    4    4  502    0 -0.26622445892E+02 -0.13675003755E+02 -0.25133876022E+03  0.25314897815E+03  0.41800000000E+01 0. -1.
         -5    1    4    4    0  502  0.19824697296E+02 -0.27444130109E+02 -0.41623184061E+01  0.34365625192E+02  0.41800000000E+01 0. -1.
        -11    1    3    3    0    0 -0.27995843353E+02  0.39024218711E+01 -0.65524324436E+02  0.71361286664E+02  0.00000000000E+00 0. -1.
         11    1    3    3    0    0  0.34793591948E+02  0.37216711994E+02 -0.11644809957E+02  0.52261642637E+02  0.00000000000E+00 0.  1.
</event>
<event>
 8    1  0.8061721E-006  0.1006061E+03  0.7561462E-02  0.1279027E+00
         -1   -1    0    0    0  501 -0.00000000000E+00  0.00000000000E+00  0.22021962532E+03  0.22021962532E+03  0.00000000000E+00 0.  1.
          1   -1    0    0  501    0  0.00000000000E+00 -0.00000000000E+00 -0.12726133449E+03  0.12726133449E+03  0.00000000000E+00 0. -1.
         23    2    1    2    0    0  0.50359700537E+02  0.42288278032E+02  0.14744154852E+03  0.19600162308E+03  0.11114507691E+03 0.  0.
         23    2    1    2    0    0 -0.50359700537E+02 -0.42288278032E+02 -0.54483257689E+02  0.15147933673E+03  0.12511261404E+03 0.  0.
          5    1    4    4  502    0  0.59362116967E+00  0.57739670969E+01 -0.77348744171E+02  0.77678772563E+02  0.41800000000E+01 0.  1.
         -5    1    4    4    0  502 -0.50953321706E+02 -0.48062245128E+02  0.22865486481E+02  0.73800564169E+02  0.41800000000E+01 0.  1.
        -11    1    3    3    0    0  0.74183581195E+02 -0.13236276570E+01  0.11429877363E+03  0.13626872481E+03  0.00000000000E+00 0.  1.
         11    1    3    3    0    0 -0.23823880658E+02  0.43611905689E+02  0.33142774897E+02  0.59732898266E+02  0.00000000000E+00 0. -1.
</event>
<event>
 8    1  0.8061721E-006  0.1376851E+03  0.7561462E-02  0.1216478E+00
         -1   -1    0    0    0  501 -0.00000000000E+00  0.00000000000E+00  0.75634293883E+03  0.75634293883E+03  0.00000000000E+00 0.  1.
          1   -1    0    0  501    0  0.00000000000E+00 -0.00000000000E+00 -0.31661419754E+02  0.31661419754E+02  0.00000000000E+00 0. -1.
         23    2    1    2    0    0 -0.83155769300E+01  0.86008166504E+02  0.50116646438E+03  0.51768361029E+03  0.96757127995E+02 0.  0.
         23    2    1    2    0    0  0.83155769300E+01 -0.86008166504E+02  0.22351505470E+03  0.27032074830E+03  0.12509106187E+03 0.  0.
          5    1    4    4  502    0  0.48508717453E+01  0.32605198573E+02  0.52280607520E+02  0.61946462799E+02  0.41800000000E+01 0.  1.
         -5    1    4    4    0  502  0.34647051847E+01 -0.11861336508E+03  0.17123444718E+03  0.20837428550E+03  0.41800000000E+01 0.  1.
        -11    1    3    3    0    0  0.37694012441E+02  0.19243721651E+02  0.25552116825E+03  0.25900236836E+03  0.00000000000E+00 0.  1.
         11    1    3    3    0    0 -0.46009589371E+02  0.66764444853E+02  0.24564529613E+03  0.25868124192E+03  0.00000000000E+00 0. -1.
</event>
<event>
 8    1  0.8061721E-006  0.1224333E+03  0.7561462E-02  0.1239136E+00
          2   -1    0    0  501    0  0.00000000000E+00  0.00000000000E+00  0.64865888174E+03  0.64865888174E+03  0.00000000000E+00 0. -1.
         -2   -1    0    0    0  501 -0.00000000000E+00 -0.00000000000E+00 -0.38090715251E+02  0.38090715251E+02  0.00000000000E+00 0.  1.
         23    2    1    2    0    0  0.41122216757E+01 -0.77219134147E+02  0.10028180872E+03  0.15569575373E+03  0.90581573856E+02 0.  0.
         23    2    1    2    0    0 -0.41122216757E+01  0.77219134147E+02  0.51028635777E+03  0.53105384327E+03  0.12508522087E+03 0.  0.
          5    1    4    4  502    0  0.60101307976E+02  0.33329574224E+02  0.25682080054E+03  0.26588987143E+03  0.41800000000E+01 0. -1.
         -5    1    4    4    0  502 -0.64213529652E+02  0.43889559923E+02  0.25346555723E+03  0.26516397184E+03  0.41800000000E+01 0. -1.
        -11    1    3    3    0    0  0.21696190637E+02 -0.77558743391E+02  0.34519584774E+02  0.87622400661E+02  0.00000000000E+00 0.  1.
         11    1    3    3    0    0 -0.17583968962E+02  0.33960924448E+00  0.65762223949E+02  0.68073353066E+02  0.00000000000E+00 0. -1.
</event>
<event>
 8    1  0.8061721E-006  0.1316474E+03  0.7561462E-02  0.1225032E+00
          2   -1    0    0  501    0  0.00000000000E+00  0.00000000000E+00  0.69025205761E+02  0.69025205761E+02  0.00000000000E+00 0. -1.
         -2   -1    0    0    0  501 -0.00000000000E+00 -0.00000000000E+00 -0.34008742711E+03  0.34008742711E+03  0.00000000000E+00 0.  1.
         23    2    1    2    0    0  0.84646930649E+02  0.42213514352E+02 -0.19408811605E+03  0.23441409488E+03  0.91283555067E+02 0.  0.
         23    2    1    2    0    0 -0.84646930649E+02 -0.42213514352E+02 -0.76974105298E+02  0.17469853799E+03  0.12508989818E+03 0.  0.
          5    1    4    4  502    0 -0.59092481462E+02  0.25013569438E+02  0.62701908130E+01  0.64609501733E+02  0.41800000000E+01 0.  1.
         -5    1    4    4    0  502 -0.25554449187E+02 -0.67227083791E+02 -0.83244296111E+02  0.11008903625E+03  0.41800000000E+01 0.  1.
        -11    1    3    3    0    0  0.81846044575E+02  0.64673873119E+02 -0.17911065726E+03  0.20727303833E+03  0.00000000000E+00 0.  1.
         11    1    3    3    0    0  0.28008860745E+01 -0.22460358767E+02 -0.14977458791E+02  0.27141056549E+02  0.00000000000E+00 0. -1.
</event>
<event>
 8    1  0.8061721E-006  0.9445588E+02  0.7561462E-02  0.1292406E+00
         -2   -1    0    0    0  501 -0.00000000000E+00  0.00000000000E+00  0.89013011984E+02  0.89013011984E+02  0.00000000000E+00 0.  1.
          2   -1    0    0  501    0  0.00000000000E+00 -0.00000000000E+00 -0.30265511314E+03  0.30265511314E+03  0.00000000000E+00 0. -1.
         23    2    1    2    0    0  0.68441932383E+02 -0.16973345753E+02  0.13998225129E+02  0.12252037779E+03  0.99211390937E+02 0.  0.
         23    2    1    2    0    0 -0.68441932383E+02  0.16973345753E+02 -0.22764032628E+03  0.26914774734E+03  0.12509196286E+03 0.  0.
          5    1    4    4  502    0 -0.10020506473E+02 -0.34936612361E+02 -0.10094046157E+02  0.37951806295E+02  0.41800000000E+01 0.  1.
         -5    1    4    4    0  502 -0.58421425910E+02  0.51909958115E+02 -0.21754628013E+03  0.23119594104E+03  0.41800000000E+01 0.  1.
        -11    1    3    3    0    0  0.19413288276E+02 -0.15784241363E+02  0.53816400373E+02  0.59348319152E+02  0.00000000000E+00 0.  1.
         11    1    3    3    0    0  0.49028644107E+02 -0.11891043908E+01 -0.39818175244E+02  0.63172058634E+02  0.00000000000E+00 0. -1.
</event>
<event>
 8    1  0.8061721E-006  0.2483888E+03  0.7561462E-02  0.1114327E+00
          1   -1    0    0  501    0  0.00000000000E+00  0.00000000000E+00  0.79192747693E+03  0.79192747693E+03  0.00000000000E+00 0. -1.
         -1   -1    0    0    0  501 -0.00000000000E+00 -0.00000000000E+00 -0.82805055561E+02  0.82805055561E+02  0.00000000000E+00 0.  1.
         23    2    1    2    0    0 -0.23032594816E+03  0.12564079935E+02  0.31040614142E+03  0.39742034566E+03  0.91559052071E+02 0.  0.
         23    2    1    2    0    0  0.23032594816E+03 -0.12564079935E+02  0.39871627995E+03  0.47731218683E+03  0.12507738923E+03 0.  0.
          5    1    4    4  502    0  0.28805209600E+02 -0.49390400906E+02  0.80262665588E+02  0.98634272386E+02  0.41800000000E+01 0.  1.
         -5    1    4    4    0  502  0.20152073856E+03  0.36826320971E+02  0.31845361436E+03  0.37867791444E+03  0.41800000000E+01 0.  1.
        -11    1    3    3    0    0 -0.11140797855E+03  0.27345018313E+02  0.21710491576E+03  0.24554843139E+03  0.00000000000E+00 0. -1.
         11    1    3    3    0    0 -0.11891796961E+03 -0.14780938377E+02  0.93301225657E+02  0.15187191427E+03  0.00000000000E+00 0.  1.
</event>
<event>
 8    1  0.8061721E-006  0.9562886E+02  0.7561462E-02  0.1289766E+00
          2   -1    0    0  501    0  0.00000000000E+00  0.00000000000E+00  0.40176702778E+03  0.40176702778E+03  0.00000000000E+00 0. -1.
         -2   -1    0    0    0  501 -0.00000000000E+00 -0.00000000000E+00 -0.31564565113E+02  0.31564565113E+02  0.00000000000E+00 0.  1.
         23    2    1    2    0    0 -0.26444023519E+02  0.50204124222E+01  0.13504581563E+03  0.16561720581E+03  0.92017365850E+02 0.  0.
         23    2    1    2    0    0  0.26444023519E+02 -0.50204124222E+01  0.23515664703E+03  0.26771438709E+03  0.12509138055E+03 0.  0.
          5    1    4    4  502    0 -0.35160999579E+02 -0.19558982946E+02  0.23557263787E+02  0.46810968612E+02  0.41800000000E+01 0.  1.
         -5    1    4    4    0  502  0.61605023098E+02  0.14538570524E+02  0.21159938325E+03  0.22090341848E+03  0.41800000000E+01 0.  1.
        -11    1    3    3    0    0 -0.53670817209E+02  0.18784216628E+02  0.51659358892E+02  0.76825079078E+02  0.00000000000E+00 0.  1.
         11    1    3    3    0    0  0.27226793690E+02 -0.13763804205E+02  0.83386456742E+02  0.88792126728E+02  0.00000000000E+00 0. -1.
</event>
<event>
 7    1  0.8061721E-006  0.2643480E+03  0.7561462E-02  0.1104559E+00
          1   -1    0    0  501    0  0.00000000000E+00  0.00000000000E+00  0.98443271056E+03  0.98443271056E+03  0.00000000000E+00 0. -1.
         -1   -1    0    0    0  501 -0.00000000000E+00 -0.00000000000E+00 -0.58415884885E+03  0.58415884885E+03  0.00000000000E+00 0.  1.
         23    2    1    2    0    0  0.23346184686E+02  0.46389100834E+02 -0.51820586772E+03  0.52891762733E+03  0.92301365881E+02 0.  0.
          5    1    1    2  502    0  0.13661096917E+03  0.12861808701E+03  0.67171137392E+03  0.69743731723E+03  0.41800000000E+01 0. -1.
         -5    1    1    2    0  502 -0.15995715386E+03 -0.17500718785E+03  0.24676835550E+03  0.34223661485E+03  0.41800000000E+01 0.  1.
        -11    1    3    3    0    0  0.48523064855E+02  0.58453841974E+02 -0.42023125074E+03  0.42704290600E+03  0.00000000000E+00 0.  1.
         11    1    3    3    0    0 -0.25176880169E+02 -0.12064741140E+02 -0.97974616980E+02  0.10187472133E+03  0.00000000000E+00 0. -1.
</event>
<event>
 8    1  0.8061721E-006  0.1217465E+03  0.7561462E-02  0.1240243E+00
          3   -1    0    0  501    0  0.00000000000E+00  0.00000000000E+00  0.39035740531E+03  0.39035740531E+03  0.00000000000E+00 0. -1.
         -3   -1    0    0    0  501 -0.00000000000E+00 -0.00000000000E+00 -0.39546449160E+02  0.39546449160E+02  0.00000000000E+00 0.  1.
         23    2    1    2    0    0  0.57113111099E+02  0.37437178226E+01  0.12296418269E+03  0.16375426914E+03  0.91757002750E+02 0.  0.
         23    2    1    2    0    0 -0.57113111099E+02 -0.37437178226E+01  0.22784677345E+03  0.26614958533E+03  0.12508207991E+03 0.  0.
          5    1    4    4  502    0  0.24879125540E+02  0.37827722716E+02  0.79172925847E+02  0.91300230453E+02  0.41800000000E+01 0.  1.
         -5    1    4    4    0  502 -0.81992236639E+02 -0.41571440539E+02  0.14867384761E+03  0.17484935487E+03  0.41800000000E+01 0.  1.
        -11    1    3    3    0    0 -0.19207520797E+02 -0.18331753608E+02  0.17855394418E+02  0.31996830395E+02  0.00000000000E+00 0.  1.
         11    1    3    3    0    0  0.76320631896E+02  0.22075471431E+02  0.10510878827E+03  0.13175743874E+03  0.00000000000E+00 0. -1.
</event>
<event>
 8    1  0.8061721E-006  0.1884810E+03  0.7561462E-02  0.1159839E+00
         -1   -1    0    0    0  501 -0.00000000000E+00  0.00000000000E+00  0.61596892080E+02  0.61596892080E+02  0.00000000000E+00 0.  1.
          1   -1    0    0  501    0  0.00000000000E+00 -0.00000000000E+00 -0.65164812866E+03  0.65164812866E+03  0.00000000000E+00 0. -1.
         23    2    1    2    0    0  0.13474197186E+03  0.10178888377E+03 -0.28095936744E+03  0.33947635584E+03  0.88259017574E+02 0.  0.
         23    2    1    2    0    0 -0.13474197186E+03 -0.10178888377E+03 -0.30909186913E+03  0.37376866489E+03  0.12509538541E+03 0.  0.
          5    1    4    4  502    0 -0.15302519106E+03 -0.77376824261E+02 -0.21661921787E+03  0.27630642407E+03  0.41800000000E+01 0.  1.
         -5    1    4    4    0  502  0.18283219206E+02 -0.24412059514E+02 -0.92472651267E+02  0.97462240824E+02  0.41800000000E+01 0.  1.
        -11    1    3    3    0    0  0.30201052030E+02  0.48945156062E+02 -0.35733107295E+02  0.67709576891E+02  0.00000000000E+00 0.  1.
         11    1    3    3    0    0  0.10454091982E+03  0.52843727712E+02 -0.24522626015E+03  0.27176677895E+03  0.00000000000E+00 0. -1.
</event>
<event>
 8    1  0.8061721E-006  0.1633268E+03  0.7561462E-02  0.1184991E+00
          2   -1    0    0  501    0  0.00000000000E+00  0.00000000000E+00  0.73312235042E+03  0.73312235042E+03  0.00000000000E+00 0.  1.
         -2   -1    0    0    0  501 -0.00000000000E+00 -0.00000000000E+00 -0.53347501345E+02  0.53347501345E+02  0.00000000000E+00 0. -1.
         23    2    1    2    0    0  0.14014319188E+03 -0.68839905154E+02  0.22351056511E+03  0.28826996229E+03  0.93613843368E+02 0.  0.
         23    2    1    2    0    0 -0.14014319188E+03  0.68839905154E+02  0.45626428397E+03  0.49819988948E+03  0.12508791420E+03 0.  0.
          5    1    4    4  502    0 -0.11981520486E+03  0.32682957659E+02  0.17951205203E+03  0.21832523505E+03  0.41800000000E+01 0.  1.
         -5    1    4    4    0  502 -0.20327987026E+02  0.36156947495E+02  0.27675223193E+03  0.27987465442E+03  0.41800000000E+01 0.  1.
        -11    1    3    3    0    0  0.77759155313E+02 -0.17016100480E+02  0.17866673581E+03  0.19559610526E+03  0.00000000000E+00 0.  1.
         11    1    3    3    0    0  0.62384036569E+02 -0.51823804674E+02  0.44843829304E+02  0.92673857027E+02  0.00000000000E+00 0. -1.
</event>
<event>
 8    1  0.1195582E-005  0.1692807E+03  0.7561462E-02  0.1178600E+00
         -1   -1    0    0    0  501 -0.00000000000E+00  0.00000000000E+00  0.13136560010E+03  0.13136560010E+03  0.00000000000E+00 0.  1.
          1   -1    0    0  501    0  0.00000000000E+00 -0.00000000000E+00 -0.27040292115E+03  0.27040292115E+03  0.00000000000E+00 0. -1.
         23    2    1    2    0    0  0.66720897079E+01  0.15284899720E+03 -0.49094762640E+02  0.18464030063E+03  0.90963795933E+02 0.  0.
         23    2    1    2    0    0 -0.66720897079E+01 -0.15284899720E+03 -0.89942558407E+02  0.21712822062E+03  0.12509063775E+03 0.  0.
          5    1    4    4  502    0  0.39561529700E+02 -0.25153105947E+02 -0.62951158472E+02  0.78600980426E+02  0.41800000000E+01 0. -1.
         -5    1    4    4    0  502 -0.46233619407E+02 -0.12769589125E+03 -0.26991399935E+02  0.13852724020E+03  0.41800000000E+01 0. -1.
        -11    1    3    3    0    0 -0.10629744556E+02  0.37284303855E+02  0.25134304324E+02  0.46204372489E+02  0.00000000000E+00 0.  1.
         11    1    3    3    0    0  0.17301834264E+02  0.11556469334E+03 -0.74229066964E+02  0.13843592814E+03  0.00000000000E+00 0. -1.
</event>
<event>
 8    1  0.8061721E-006  0.2244494E+03  0.7561462E-02  0.1130609E+00
          1   -1    0    0  501    0  0.00000000000E+00  0.00000000000E+00  0.29222020770E+03  0.29222020770E+03  0.00000000000E+00 0. -1.
         -1   -1    0    0    0  501 -0.00000000000E+00 -0.00000000000E+00 -0.28901994395E+03  0.28901994395E+03  0.00000000000E+00 0.  1.
         23    2    1    2    0    0 -0.14112641323E+03  0.15067430081E+03 -0.17170753229E+03  0.28314769571E+03  0.89831684309E+02 0.  0.
         23    2    1    2    0    0  0.14112641323E+03 -0.15067430081E+03  0.17490779604E+03  0.29809245594E+03  0.12508783209E+03 0.  0.
          5    1    4    4  502    0  0.11035221045E+03 -0.28785429996E+02  0.66796003401E+02  0.13223233267E+03  0.41800000000E+01 0.  1.
         -5    1    4    4    0  502  0.30774202782E+02 -0.12188887081E+03  0.10811179264E+03  0.16586012327E+03  0.41800000000E+01 0.  1.
        -11    1    3    3    0    0 -0.60427398242E+02  0.41811248553E+02 -0.11450910383E+03  0.13605875872E+03  0.00000000000E+00 0.  1.
         11    1    3    3    0    0 -0.80699014993E+02  0.10886305226E+03 -0.57198428453E+02  0.14708893699E+03  0.00000000000E+00 0. -1.
</event>
<event>
 8    1  0.8061721E-006  0.6915228E+02  0.7561462E-02  0.1363000E+00
         -3   -1    0    0    0  501 -0.00000000000E+00  0.00000000000E+00  0.12913889055E+03  0.12913889055E+03  0.00000000000E+00 0.  1.
          3   -1    0    0  501    0  0.00000000000E+00 -0.00000000000E+00 -0.10215948537E+03  0.10215948537E+03  0.00000000000E+00 0. -1.
         23    2    1    2    0    0  0.17291949996E+00  0.36631989616E+02  0.10469709965E+02  0.99916029924E+02  0.92367015999E+02 0.  0.
         23    2    1    2    0    0 -0.17291949996E+00 -0.36631989616E+02  0.16509695207E+02  0.13138234599E+03  0.12508724251E+03 0.  0.
          5    1    4    4  502    0  0.16713082858E+02  0.72170199959E+01  0.62662248620E+02  0.65386866558E+02  0.41800000000E+01 0. -1.
         -5    1    4    4    0  502 -0.16886002358E+02 -0.43849009612E+02 -0.46152553413E+02  0.65995479437E+02  0.41800000000E+01 0. -1.
        -11    1    3    3    0    0 -0.66870085558E+01 -0.17060183287E+02  0.35751849784E+02  0.40174129738E+02  0.00000000000E+00 0.  1.
         11    1    3    3    0    0  0.68599280557E+01  0.53692172903E+02 -0.25282139819E+02  0.59741900186E+02  0.00000000000E+00 0. -1.
</event>
<event>
 8    1  0.8061721E-006  0.1161958E+03  0.7561462E-02  0.1249508E+00
         -2   -1    0    0    0  501 -0.00000000000E+00  0.00000000000E+00  0.11941304319E+03  0.11941304319E+03  0.00000000000E+00 0.  1.
          2   -1    0    0  501    0  0.00000000000E+00 -0.00000000000E+00 -0.12630874198E+03  0.12630874198E+03  0.00000000000E+00 0. -1.
         23    2    1    2    0    0 -0.45010923543E+02 -0.37594610398E+02  0.14201703095E+01  0.10731452929E+03  0.89861300590E+02 0.  0.
         23    2    1    2    0    0  0.45010923543E+02  0.37594610398E+02 -0.83158691051E+01  0.13840725588E+03  0.12509227327E+03 0.  0.
          5    1    4    4  502    0 -0.40651035607E+02  0.78745214793E+01 -0.21240672329E+02  0.46724226536E+02  0.41800000000E+01 0. -1.
         -5    1    4    4    0  502  0.85661959150E+02  0.29720088919E+02  0.12924803224E+02  0.91683029341E+02  0.41800000000E+01 0. -1.
        -11    1    3    3    0    0 -0.19126303915E+02  0.25461418282E+02  0.18788472750E+02  0.36974396961E+02  0.00000000000E+00 0.  1.
         11    1    3    3    0    0 -0.25884619628E+02 -0.63056028681E+02 -0.17368302440E+02  0.70340132328E+02  0.00000000000E+00 0. -1.
</event>
<event>
 8    1  0.8061721E-006  0.1342219E+03  0.7561462E-02  0.1221322E+00
         -2   -1    0    0    0  501 -0.00000000000E+00  0.00000000000E+00  0.28852960768E+02  0.28852960768E+02  0.00000000000E+00 0.  1.
          2   -1    0    0  501    0  0.00000000000E+00 -0.00000000000E+00 -0.86067188274E+03  0.86067188274E+03  0.00000000000E+00 0. -1.
         23    2    1    2    0    0  0.93843418034E+02  0.32001085123E+02 -0.22314226749E+03  0.26026712850E+03  0.90088012972E+02 0.  0.
         23    2    1    2    0    0 -0.93843418034E+02 -0.32001085123E+02 -0.60867665448E+03  0.62925771500E+03  0.12508935056E+03 0.  0.
          5    1    4    4  502    0 -0.99049062192E+02 -0.55695077083E+02 -0.58181393597E+03  0.59282171589E+03  0.41800000000E+01 0. -1.
         -5    1    4    4    0  502  0.52056441583E+01  0.23693991960E+02 -0.26862718505E+02  0.36435999116E+02  0.41800000000E+01 0. -1.
        -11    1    3    3    0    0  0.18654345827E+02 -0.28189530765E+02 -0.88393662589E+02  0.94636535486E+02  0.00000000000E+00 0. -1.
         11    1    3    3    0    0  0.75189072207E+02  0.60190615888E+02 -0.13474860490E+03  0.16563059301E+03  0.00000000000E+00 0.  1.
</event>
<event>
 8    1  0.8061721E-006  0.1601261E+03  0.7561462E-02  0.1188554E+00
         -2   -1    0    0    0  501 -0.00000000000E+00  0.00000000000E+00  0.16437850537E+02  0.16437850537E+02  0.00000000000E+00 0.  1.
          2   -1    0    0  501    0  0.00000000000E+00 -0.00000000000E+00 -0.15759496550E+04  0.15759496550E+04  0.00000000000E+00 0. -1.
         23    2    1    2    0    0 -0.53669469672E+02  0.10712741408E+03 -0.72301212923E+03  0.73814123260E+03  0.88029798492E+02 0.  0.
         23    2    1    2    0    0  0.53669469672E+02 -0.10712741408E+03 -0.83649967528E+03  0.85424627298E+03  0.12509313868E+03 0.  0.
          5    1    4    4  502    0  0.81889258737E+02 -0.25209637824E+02 -0.37778268153E+03  0.38739979788E+03  0.41800000000E+01 0. -1.
         -5    1    4    4    0  502 -0.28219789065E+02 -0.81917776257E+02 -0.45871699375E+03  0.46684647510E+03  0.41800000000E+01 0. -1.
        -11    1    3    3    0    0 -0.77569705218E+02  0.77378171128E+02 -0.57064046350E+03  0.58106366185E+03  0.00000000000E+00 0. -1.
         11    1    3    3    0    0  0.23900235545E+02  0.29749242954E+02 -0.15237166573E+03  0.15707757075E+03  0.00000000000E+00 0.  1.
</event>
<event>
 8    1  0.8061721E-006  0.8801492E+02  0.7561462E-02  0.1307731E+00
          2   -1    0    0  501    0  0.00000000000E+00  0.00000000000E+00  0.15010706166E+03  0.15010706166E+03  0.00000000000E+00 0. -1.
         -2   -1    0    0    0  501 -0.00000000000E+00 -0.00000000000E+00 -0.12119210143E+03  0.12119210143E+03  0.00000000000E+00 0.  1.
         23    2    1    2    0    0 -0.52359281314E+02 -0.56042571283E+02 -0.86519519266E+01  0.11983404947E+03  0.91668309709E+02 0.  0.
         23    2    1    2    0    0  0.52359281314E+02  0.56042571283E+02  0.37566912151E+02  0.15146511362E+03  0.12509254022E+03 0.  0.
          5    1    4    4  502    0  0.31100768276E+02  0.48056559472E+02 -0.40375924472E+02  0.70173915187E+02  0.41800000000E+01 0. -1.
         -5    1    4    4    0  502  0.21258513038E+02  0.79860118113E+01  0.77942836623E+02  0.81291198430E+02  0.41800000000E+01 0. -1.
        -11    1    3    3    0    0 -0.16743009459E+02 -0.57510362771E+02 -0.40277476995E+02  0.72180643838E+02  0.00000000000E+00 0.  1.
         11    1    3    3    0    0 -0.35616271855E+02  0.14677914874E+01  0.31625525068E+02  0.47653405634E+02  0.00000000000E+00 0. -1.
</event>
<event>
 7    1  0.8061721E-006  0.2377995E+03  0.7561462E-02  0.1121267E+00
          1   -1    0    0  501    0  0.00000000000E+00  0.00000000000E+00  0.17219324328E+04  0.17219324328E+04  0.00000000000E+00 0. -1.
         -1   -1    0    0    0  501 -0.00000000000E+00 -0.00000000000E+00 -0.42811865269E+02  0.42811865269E+02  0.00000000000E+00 0.  1.
         23    2    1    2    0    0 -0.22510429497E+03  0.72958581587E+02  0.11796725680E+04  0.12096656747E+04  0.12517499228E+03 0.  0.
          5    1    3    3  502    0 -0.11221377232E+03  0.31936011224E+02  0.30160968312E+03  0.32341569668E+03  0.41800000000E+01 0. -1.
         -5    1    3    3    0  502 -0.11289052265E+03  0.41022570363E+02  0.87806288485E+03  0.88624997802E+03  0.41800000000E+01 0. -1.
        -11    1    1    2    0    0  0.13876163982E+03 -0.60711557971E+02  0.26943645983E+03  0.30909010311E+03  0.00000000000E+00 0.  1.
         11    1    1    2    0    0  0.86342655152E+02 -0.12247023616E+02  0.23001153969E+03  0.24598852021E+03  0.00000000000E+00 0. -1.
</event>
<event>
 8    1  0.8061721E-006  0.1536782E+03  0.7561462E-02  0.1196025E+00
         -2   -1    0    0    0  501 -0.00000000000E+00  0.00000000000E+00  0.26154874338E+02  0.26154874338E+02  0.00000000000E+00 0.  1.
          2   -1    0    0  501    0  0.00000000000E+00 -0.00000000000E+00 -0.97199501849E+03  0.97199501849E+03  0.00000000000E+00 0. -1.
         23    2    1    2    0    0 -0.11313240800E+03 -0.94198298123E+00 -0.36063350575E+03  0.38912245821E+03  0.92519905625E+02 0.  0.
         23    2    1    2    0    0  0.11313240800E+03  0.94198298123E+00 -0.58520663840E+03  0.60902743462E+03  0.12509107652E+03 0.  0.
          5    1    4    4  502    0  0.82709022614E+01 -0.50567999241E+02 -0.19727131913E+03  0.20386018769E+03  0.41800000000E+01 0.  1.
         -5    1    4    4    0  502  0.10486150574E+03  0.51509982222E+02 -0.38793531927E+03  0.40516724694E+03  0.41800000000E+01 0.  1.
        -11    1    3    3    0    0 -0.11919053144E+03  0.16731112027E+02 -0.25660658629E+03  0.28343121392E+03  0.00000000000E+00 0.  1.
         11    1    3    3    0    0  0.60581234375E+01 -0.17673095009E+02 -0.10402691946E+03  0.10569124429E+03  0.00000000000E+00 0. -1.
</event>
<event>
 8    1  0.8061721E-006  0.9687601E+02  0.7561462E-02  0.1287006E+00
          2   -1    0    0  501    0  0.00000000000E+00  0.00000000000E+00  0.17915079106E+03  0.17915079106E+03  0.00000000000E+00 0.  1.
         -2   -1    0    0    0  501 -0.00000000000E+00 -0.00000000000E+00 -0.11804338282E+03  0.11804338282E+03  0.00000000000E+00 0. -1.
         23    2    1    2    0    0  0.35638142447E+02  0.11909828317E+02 -0.62858438680E+02  0.11712234264E+03  0.91403165285E+02 0.  0.
         23    2    1    2    0    0 -0.35638142447E+02 -0.11909828317E+02  0.12396584693E+03  0.18007183124E+03  0.12508561866E+03 0.  0.
          5    1    4    4  502    0  0.46647936353E+02 -0.66788548888E+01  0.36128628723E+02  0.59526357876E+02  0.41800000000E+01 0.  1.
         -5    1    4    4    0  502 -0.82286078800E+02 -0.52309734283E+01  0.87837218203E+02  0.12054547337E+03  0.41800000000E+01 0.  1.
        -11    1    3    3    0    0  0.34282140135E+02 -0.14656951432E+02  0.10792588262E+02  0.38814576114E+02  0.00000000000E+00 0.  1.
         11    1    3    3    0    0  0.13560023123E+01  0.26566779749E+02 -0.73651026941E+02  0.78307766524E+02  0.00000000000E+00 0. -1.
</event>
<event>
 8    1  0.8061721E-006  0.1084756E+03  0.7561462E-02  0.1263419E+00
         -2   -1    0    0    0  501 -0.00000000000E+00  0.00000000000E+00  0.30928448606E+03  0.30928448606E+03  0.00000000000E+00 0.  1.
          2   -1    0    0  501    0  0.00000000000E+00 -0.00000000000E+00 -0.54173685450E+02  0.54173685450E+02  0.00000000000E+00 0. -1.
         23    2    1    2    0    0  0.18917743785E+01 -0.56204303255E+02  0.15432654042E+03  0.19326228620E+03  0.10183873366E+03 0.  0.
         23    2    1    2    0    0 -0.18917743785E+01  0.56204303255E+02  0.10078426020E+03  0.17019588532E+03  0.12508664901E+03 0.  0.
          5    1    4    4  502    0 -0.30631847198E+02  0.70010380398E+02  0.14207682367E+02  0.77840182839E+02  0.41800000000E+01 0. -1.
         -5    1    4    4    0  502  0.28740072820E+02 -0.13806077142E+02  0.86576577829E+02  0.92355702479E+02  0.41800000000E+01 0. -1.
        -11    1    3    3    0    0  0.43621149504E+02 -0.49532730735E+02  0.57194877050E+02  0.87335846357E+02  0.00000000000E+00 0. -1.
         11    1    3    3    0    0 -0.41729375126E+02 -0.66715725200E+01  0.97131663368E+02  0.10592643984E+03  0.00000000000E+00 0.  1.
</event>
<event>
 8    1  0.8061721E-006  0.1297919E+03  0.7561462E-02  0.1227765E+00
         -2   -1    0    0    0  501 -0.00000000000E+00  0.00000000000E+00  0.26162310562E+03  0.26162310562E+03  0.00000000000E+00 0.  1.
          2   -1    0    0  501    0  0.00000000000E+00 -0.00000000000E+00 -0.10928209070E+03  0.10928209070E+03  0.00000000000E+00 0. -1.
         23    2    1    2    0    0  0.88672517317E+02 -0.82601116098E+02  0.12032278259E+03  0.19382084296E+03  0.91668901195E+02 0.  0.
         23    2    1    2    0    0 -0.88672517317E+02  0.82601116098E+02  0.32018232330E+02  0.17708435336E+03  0.12509173153E+03 0.  0.
          5    1    4    4  502    0 -0.40734549318E+02  0.70261291602E+02 -0.39179632603E+02  0.90268868479E+02  0.41800000000E+01 0.  1.
         -5    1    4    4    0  502 -0.47937967998E+02  0.12339824497E+02  0.71197864933E+02  0.86815484882E+02  0.41800000000E+01 0.  1.
        -11    1    3    3    0    0  0.69642482941E+02 -0.36322621367E+02  0.18992708116E+02  0.80809227287E+02  0.00000000000E+00 0.  1.
         11    1    3    3    0    0  0.19030034375E+02 -0.46278494731E+02  0.10133007448E+03  0.11301161567E+03  0.00000000000E+00 0. -1.
</event>
<event>
 8    1  0.8061721E-006  0.9754925E+02  0.7561462E-02  0.1285536E+00
         -3   -1    0    0    0  501 -0.00000000000E+00  0.00000000000E+00  0.53135000193E+03  0.53135000193E+03  0.00000000000E+00 0. -1.
          3   -1    0    0  501    0  0.00000000000E+00 -0.00000000000E+00 -0.23625839246E+02  0.23625839246E+02  0.00000000000E+00 0.  1.
         23    2    1    2    0    0 -0.12368304836E+02  0.24306677488E+01  0.28104717123E+03  0.29576618281E+03  0.91275622857E+02 0.  0.
         23    2    1    2    0    0  0.12368304836E+02 -0.24306677488E+01  0.22667699145E+03  0.25920965836E+03  0.12509318696E+03 0.  0.
          5    1    4    4  502    0 -0.50794699101E+02 -0.41025265559E+01  0.49948696478E+02  0.71479205793E+02  0.41800000000E+01 0.  1.
         -5    1    4    4    0  502  0.63163003937E+02  0.16718588072E+01  0.17672829497E+03  0.18773045257E+03  0.41800000000E+01 0.  1.
        -11    1    3    3    0    0 -0.39949174566E+02  0.23127890325E+02  0.85151954161E+02  0.96859130478E+02  0.00000000000E+00 0.  1.
         11    1    3    3    0    0  0.27580869730E+02 -0.20697222576E+02  0.19589521707E+03  0.19890705234E+03  0.00000000000E+00 0. -1.
</event>
<event>
 8    1  0.8061721E-006  0.1306077E+03  0.7561462E-02  0.1226557E+00
         -2   -1    0    0    0  501 -0.00000000000E+00  0.00000000000E+00  0.23602852016E+02  0.23602852016E+02  0.00000000000E+00 0. -1.
          2   -1    0    0  501    0  0.00000000000E+00 -0.00000000000E+00 -0.10495531001E+04  0.10495531001E+04  0.00000000000E+00 0.  1.
         23    2    1    2    0    0 -0.70414291486E+02 -0.93197763574E+02 -0.44510517837E+03  0.46762230994E+03  0.83114435308E+02 0.  0.
         23    2    1    2    0    0  0.70414291486E+02  0.93197763574E+02 -0.58084506972E+03  0.60553364219E+03  0.12508397668E+03 0.  0.
          5    1    4    4  502    0  0.51566983654E+02  0.45487949135E+02 -0.52534399987E+03  0.52984157813E+03  0.41800000000E+01 0.  1.
         -5    1    4    4    0  502  0.18847307832E+02  0.47709814439E+02 -0.55501069850E+02  0.75692064055E+02  0.41800000000E+01 0.  1.
        -11    1    3    3    0    0 -0.58033641325E+02 -0.12691294624E+02 -0.23189433903E+03  0.23938244915E+03  0.00000000000E+00 0.  1.
         11    1    3    3    0    0 -0.12380650161E+02 -0.80506468950E+02 -0.21321083934E+03  0.22823986079E+03  0.00000000000E+00 0. -1.
</event>
<event>
 8    1  0.8061721E-006  0.1205827E+03  0.7561462E-02  0.1242139E+00
          1   -1    0    0  501    0  0.00000000000E+00  0.00000000000E+00  0.11636862217E+03  0.11636862217E+03  0.00000000000E+00 0. -1.
         -1   -1    0    0    0  501 -0.00000000000E+00 -0.00000000000E+00 -0.16790885282E+03  0.16790885282E+03  0.00000000000E+00 0.  1.
         23    2    1    2    0    0  0.81889656275E+02 -0.29892368231E+02 -0.36456607772E+02  0.13107029799E+03  0.90834295730E+02 0.  0.
         23    2    1    2    0    0 -0.81889656275E+02  0.29892368231E+02 -0.15083622882E+02  0.15320717700E+03  0.12508178894E+03 0.  0.
          5    1    4    4  502    0 -0.79505349484E+02  0.67201221645E+02  0.14711811797E+02  0.10521888896E+03  0.41800000000E+01 0.  1.
         -5    1    4    4    0  502 -0.23843067904E+01 -0.37308853414E+02 -0.29795434679E+02  0.47988288047E+02  0.41800000000E+01 0.  1.
        -11    1    3    3    0    0  0.70811709712E+01 -0.23198014089E+02 -0.49233586345E+02  0.54883848849E+02  0.00000000000E+00 0.  1.
         11    1    3    3    0    0  0.74808485303E+02 -0.66943541413E+01  0.12776978573E+02  0.76186449138E+02  0.00000000000E+00 0. -1.
</event>
<event>
 8    1  0.8061721E-006  0.1131605E+03  0.7561462E-02  0.1254827E+00
          2   -1    0    0  501    0  0.00000000000E+00  0.00000000000E+00  0.64025140511E+02  0.64025140511E+02  0.00000000000E+00 0.  1.
         -2   -1    0    0    0  501 -0.00000000000E+00 -0.00000000000E+00 -0.51397016495E+03  0.51397016495E+03  0.00000000000E+00 0. -1.
         23    2    1    2    0    0  0.81998720983E+02 -0.57105203047E+02 -0.37965290625E+03  0.40314301962E+03  0.91668809228E+02 0.  0.
         23    2    1    2    0    0 -0.81998720983E+02  0.57105203047E+02 -0.70292118189E+02  0.17485228584E+03  0.12509014960E+03 0.  0.
          5    1    4    4  502    0 -0.76762143875E+01  0.20256343641E+02  0.34612739797E+02  0.41045802237E+02  0.41800000000E+01 0.  1.
         -5    1    4    4    0  502 -0.74322506595E+02  0.36848859406E+02 -0.10490485799E+03  0.13380648361E+03  0.41800000000E+01 0.  1.
        -11    1    3    3    0    0  0.40290196172E+01 -0.41483886524E+02 -0.55666192321E+02  0.69540425709E+02  0.00000000000E+00 0.  1.
         11    1    3    3    0    0  0.77969701365E+02 -0.15621316523E+02 -0.32398671393E+03  0.33360259391E+03  0.00000000000E+00 0. -1.
</event>
<event>
 8    1  0.8061721E-006  0.1619353E+03  0.7561462E-02  0.1186529E+00
          2   -1    0    0  501    0  0.00000000000E+00  0.00000000000E+00  0.99854260115E+03  0.99854260115E+03  0.00000000000E+00 0. -1.
         -2   -1    0    0    0  501 -0.00000000000E+00 -0.00000000000E+00 -0.30843354238E+02  0.30843354238E+02  0.00000000000E+00 0.  1.
         23    2    1    2    0    0  0.12175887626E+03  0.56212084023E+02  0.55377035149E+03  0.57656052440E+03  0.88178306669E+02 0.  0.
         23    2    1    2    0    0 -0.12175887626E+03 -0.56212084023E+02  0.41392889542E+03  0.45282543099E+03  0.12541418639E+03 0.  0.
          5    1    4    4  502    0  0.20271057193E+02 -0.56218799572E+00  0.11867394750E+03  0.12046663451E+03  0.41800000000E+01 0. -1.
         -5    1    4    4    0  502 -0.14202993345E+03 -0.55649896027E+02  0.29525494792E+03  0.33235879648E+03  0.41800000000E+01 0. -1.
        -11    1    3    3    0    0  0.69267653436E+02 -0.55743572022E+01  0.35773465487E+03  0.36442168509E+03  0.00000000000E+00 0. -1.
         11    1    3    3    0    0  0.52491222823E+02  0.61786441225E+02  0.19603569662E+03  0.21213883931E+03  0.00000000000E+00 0.  1.
</event>
<event>
 8    1  0.8061721E-006  0.1256680E+03  0.7561462E-02  0.1234029E+00
         -1   -1    0    0    0  501 -0.00000000000E+00  0.00000000000E+00  0.57204053876E+02  0.57204053876E+02  0.00000000000E+00 0. -1.
          1   -1    0    0  501    0  0.00000000000E+00 -0.00000000000E+00 -0.58031263365E+03  0.58031263365E+03  0.00000000000E+00 0.  1.
         23    2    1    2    0    0  0.52350382805E+02  0.83579493324E+02 -0.54629823034E+02  0.14269883626E+03  0.87478260281E+02 0.  0.
         23    2    1    2    0    0 -0.52350382805E+02 -0.83579493324E+02 -0.46847875674E+03  0.49481785127E+03  0.12508503559E+03 0.  0.
          5    1    4    4  502    0 -0.80547017462E+02 -0.48218562526E+02 -0.18267431628E+03  0.20542694570E+03  0.41800000000E+01 0. -1.
         -5    1    4    4    0  502  0.28196634657E+02 -0.35360930797E+02 -0.28580444047E+03  0.28939090556E+03  0.41800000000E+01 0. -1.
        -11    1    3    3    0    0  0.37419722729E+02  0.12706546114E+02 -0.58009868808E+02  0.70191429978E+02  0.00000000000E+00 0.  1.
         11    1    3    3    0    0  0.14930660076E+02  0.70872947210E+02  0.33800457739E+01  0.72507406284E+02  0.00000000000E+00 0. -1.
</event>
<event>
 8    1  0.8061721E-006  0.1457508E+03  0.7561462E-02  0.1205794E+00
          2   -1    0    0  501    0  0.00000000000E+00  0.00000000000E+00  0.14941094433E+04  0.14941094433E+04  0.00000000000E+00 0.  1.
         -2   -1    0    0    0  501 -0.00000000000E+00 -0.00000000000E+00 -0.51008440741E+02  0.51008440741E+02  0.00000000000E+00 0. -1.
         23    2    1    2    0    0 -0.13271955282E+03  0.23132382492E+02  0.11784026766E+03  0.20716648380E+03  0.10431700009E+03 0.  0.
         23    2    1    2    0    0  0.13271955282E+03 -0.23132382492E+02  0.13252607349E+04  0.13379514002E+04  0.12509335363E+03 0.  0.
          5    1    4    4  502    0  0.41773370396E+02 -0.43564696819E+02  0.92426696405E+03  0.92624499486E+03  0.41800000000E+01 0. -1.
         -5    1    4    4    0  502  0.90946182422E+02  0.20432314327E+02  0.40099377086E+03  0.41170640538E+03  0.41800000000E+01 0. -1.
        -11    1    3    3    0    0 -0.55740585813E+02  0.24054272597E+02  0.11510466066E+03  0.13013340787E+03  0.00000000000E+00 0.  1.
         11    1    3    3    0    0 -0.76978967005E+02 -0.92189010537E+00  0.27356069999E+01  0.77033075936E+02  0.00000000000E+00 0. -1.
</event>
<event>
 8    1  0.8061721E-006  0.1694358E+03  0.7561462E-02  0.1178438E+00
          1   -1    0    0  501    0  0.00000000000E+00  0.00000000000E+00  0.11296253013E+04  0.11296253013E+04  0.00000000000E+00 0. -1.
         -1   -1    0    0    0  501 -0.00000000000E+00 -0.00000000000E+00 -0.43306010017E+02  0.43306010017E+02  0.00000000000E+00 0.  1.
         23    2    1    2    0    0 -0.35319728437E+02 -0.15062385148E+03  0.21336019561E+03  0.27758734635E+03  0.87161539293E+02 0.  0.
         23    2    1    2    0    0  0.35319728437E+02  0.15062385148E+03  0.87295909566E+03  0.89534396495E+03  0.12509278569E+03 0.  0.
          5    1    4    4  502    0 -0.24591365329E+02  0.51218391038E+02  0.11286182268E+03  0.12642516461E+03  0.41800000000E+01 0.  1.
         -5    1    4    4    0  502  0.59911093765E+02  0.99405460442E+02  0.76009727298E+03  0.76891880034E+03  0.41800000000E+01 0.  1.
        -11    1    3    3    0    0 -0.42256025355E+02 -0.52494269632E+02  0.40295388907E+02  0.78517121637E+02  0.00000000000E+00 0.  1.
         11    1    3    3    0    0  0.69362969178E+01 -0.98129581848E+02  0.17306480670E+03  0.19907022471E+03  0.00000000000E+00 0. -1.
</event>
<event>
 8    1  0.1493066E-005  0.9686719E+02  0.7561462E-02  0.1287025E+00
         -1   -1    0    0    0  501 -0.00000000000E+00  0.00000000000E+00  0.15348278867E+03  0.15348278867E+03  0.00000000000E+00 0.  1.
          1   -1    0    0  501    0  0.00000000000E+00 -0.00000000000E+00 -0.94649874872E+02  0.94649874872E+02  0.00000000000E+00 0. -1.
         23    2    1    2    0    0  0.12629303263E+02 -0.47462727509E+02  0.57602791982E+02  0.11374084009E+03  0.84892209637E+02 0.  0.
         23    2    1    2    0    0 -0.12629303263E+02  0.47462727509E+02  0.12301218160E+01  0.13439182345E+03  0.12508972463E+03 0.  0.
          5    1    4    4  502    0 -0.33542464771E+02  0.82587920391E+02  0.16125427717E+02  0.90682762179E+02  0.41800000000E+01 0. -1.
         -5    1    4    4    0  502  0.20913161508E+02 -0.35125192882E+02 -0.14895305901E+02  0.43709061271E+02  0.41800000000E+01 0. -1.
        -11    1    3    3    0    0  0.18273310992E+02 -0.29198497802E+01 -0.17996941753E+02  0.25813355648E+02  0.00000000000E+00 0. -1.
         11    1    3    3    0    0 -0.56440077287E+01 -0.44542877728E+02  0.75599733736E+02  0.87927484443E+02  0.00000000000E+00 0.  1.
</event>
<event>
 8    1  0.8061721E-006  0.1419175E+03  0.7561462E-02  0.1210772E+00
          1   -1    0    0  501    0  0.00000000000E+00  0.00000000000E+00  0.29432012428E+02  0.29432012428E+02  0.00000000000E+00 0.  1.
         -1   -1    0    0    0  501 -0.00000000000E+00 -0.00000000000E+00 -0.93858380923E+03  0.93858380923E+03  0.00000000000E+00 0. -1.
         23    2    1    2    0    0  0.19271285661E+02 -0.88863685668E+02 -0.67586769044E+03  0.68812761924E+03  0.91947530156E+02 0.  0.
         23    2    1    2    0    0 -0.19271285661E+02  0.88863685668E+02 -0.23328410636E+03  0.27988820242E+03  0.12509114473E+03 0.  0.
          5    1    4    4  502    0  0.51317262940E+02  0.18029390206E+02 -0.83532062224E+02  0.99767721264E+02  0.41800000000E+01 0. -1.
         -5    1    4    4    0  502 -0.70588548600E+02  0.70834295462E+02 -0.14975204414E+03  0.18012048115E+03  0.41800000000E+01 0. -1.
        -11    1    3    3    0    0  0.56118759033E+02 -0.61782948672E+02 -0.42218699684E+03  0.43035834854E+03  0.00000000000E+00 0.  1.
         11    1    3    3    0    0 -0.36847473373E+02 -0.27080736996E+02 -0.25368069360E+03  0.25776927070E+03  0.00000000000E+00 0. -1.
</event>
<event>
 8    1  0.8061721E-006  0.1599439E+03  0.7561462E-02  0.1188760E+00
         -2   -1    0    0    0  501 -0.00000000000E+00  0.00000000000E+00  0.11316417484E+03  0.11316417484E+03  0.00000000000E+00 0. -1.
          2   -1    0    0  501    0  0.00000000000E+00 -0.00000000000E+00 -0.63358441760E+03  0.63358441760E+03  0.00000000000E+00 0.  1.
         23    2    1    2    0    0 -0.48985114803E+02 -0.12631650479E+03  0.28774624455E+02  0.16742298835E+03  0.94058902612E+02 0.  0.
         23    2    1    2    0    0  0.48985114803E+02  0.12631650479E+03 -0.54919486721E+03  0.57932560409E+03  0.12509097698E+03 0.  0.
          5    1    4    4  502    0 -0.16090440605E+02  0.87819857686E+02 -0.16416048133E+03  0.18691539721E+03  0.41800000000E+01 0. -1.
         -5    1    4    4    0  502  0.65075555409E+02  0.38496647107E+02 -0.38503438589E+03  0.39241020688E+03  0.41800000000E+01 0. -1.
        -11    1    3    3    0    0  0.12397903364E+02 -0.71247785709E+02  0.42412990792E+02  0.83838038886E+02  0.00000000000E+00 0. -1.
         11    1    3    3    0    0 -0.61383018167E+02 -0.55068719084E+02 -0.13638366337E+02  0.83584949466E+02  0.00000000000E+00 0.  1.
</event>
<event>
 8    1  0.8061721E-006  0.1070142E+03  0.7561462E-02  0.1266201E+00
         -2   -1    0    0    0  501 -0.00000000000E+00  0.00000000000E+00  0.11257475487E+02  0.11257475487E+02  0.00000000000E+00 0.  1.
          2   -1    0    0  501    0  0.00000000000E+00 -0.00000000000E+00 -0.12576649082E+04  0.12576649082E+04  0.00000000000E+00 0. -1.
         23    2    1    2    0    0  0.38831216748E+00  0.36547828441E+02 -0.37020762960E+03  0.38308381151E+03  0.91452846178E+02 0.  0.
         23    2    1    2    0    0 -0.38831216748E+00 -0.36547828441E+02 -0.87619980316E+03  0.88583857223E+03  0.12509191197E+03 0.  0.
          5    1    4    4  502    0 -0.62592429924E+02 -0.18266791089E+02 -0.44617921797E+03  0.45093775057E+03  0.41800000000E+01 0. -1.
         -5    1    4    4    0  502  0.62204117756E+02 -0.18281037352E+02 -0.43002058519E+03  0.43490082166E+03  0.41800000000E+01 0. -1.
        -11    1    3    3    0    0  0.11588715291E+02 -0.21596082574E+02 -0.35252466981E+02  0.42935131686E+02  0.00000000000E+00 0.  1.
         11    1    3    3    0    0 -0.11200403124E+02  0.58143911015E+02 -0.33495516262E+03  0.34014867982E+03  0.00000000000E+00 0. -1.
</event>
<event>
 7    1  0.8061721E-006  0.4901049E+02  0.7561462E-02  0.1450753E+00
         -1   -1    0    0    0  501 -0.00000000000E+00  0.00000000000E+00  0.14521908521E+03  0.14521908521E+03  0.00000000000E+00 0.  1.
          1   -1    0    0  501    0  0.00000000000E+00 -0.00000000000E+00 -0.10792856450E+03  0.10792856450E+03  0.00000000000E+00 0. -1.
         23    2    1    2    0    0 -0.97875662606E+01  0.18685106919E+02  0.10222986299E+02  0.94783741777E+02  0.91839635139E+02 0.  0.
          5    1    1    2  502    0 -0.81563552081E+01 -0.10303457815E+02 -0.63797936029E+02  0.65271252591E+02  0.41800000000E+01 0. -1.
         -5    1    1    2    0  502  0.17943921469E+02 -0.83816491034E+01  0.90865470443E+02  0.93092655339E+02  0.41800000000E+01 0.  1.
        -11    1    3    3    0    0  0.25294300308E+02  0.27005608048E+01  0.39078763919E+02  0.46628794175E+02  0.00000000000E+00 0. -1.
         11    1    3    3    0    0 -0.35081866569E+02  0.15984546114E+02 -0.28855777621E+02  0.48154947602E+02  0.00000000000E+00 0.  1.
</event>
<event>
 8    1  0.8061721E-006  0.9924192E+02  0.7561462E-02  0.1281898E+00
         -2   -1    0    0    0  501 -0.00000000000E+00  0.00000000000E+00  0.83689801265E+02  0.83689801265E+02  0.00000000000E+00 0.  1.
          2   -1    0    0  501    0  0.00000000000E+00 -0.00000000000E+00 -0.24575810196E+03  0.24575810196E+03  0.00000000000E+00 0. -1.
         23    2    1    2    0    0  0.75925681915E+02  0.51507114670E+02 -0.50787814661E+02  0.13853344696E+03  0.90523045536E+02 0.  0.
         23    2    1    2    0    0 -0.75925681915E+02 -0.51507114670E+02 -0.11128048604E+03  0.19091445627E+03  0.12508913223E+03 0.  0.
          5    1    4    4  502    0 -0.23711453184E+02 -0.15258114471E+02 -0.12290027298E+03  0.12616256405E+03  0.41800000000E+01 0.  1.
         -5    1    4    4    0  502 -0.52214228731E+02 -0.36249000200E+02  0.11619786938E+02  0.64751892219E+02  0.41800000000E+01 0.  1.
        -11    1    3    3    0    0  0.28511561563E+02  0.51498501867E+02 -0.66286535734E+02  0.88650491577E+02  0.00000000000E+00 0. -1.
         11    1    3    3    0    0  0.47414120352E+02  0.86128028993E-02  0.15498721073E+02  0.49882955384E+02  0.00000000000E+00 0.  1.
</event>
<event>
 8    1  0.8061721E-006  0.6248316E+02  0.7561462E-02  0.1387697E+00
          3   -1    0    0  501    0  0.00000000000E+00  0.00000000000E+00  0.80063926381E+02  0.80063926381E+02  0.00000000000E+00 0. -1.
         -3   -1    0    0    0  501 -0.00000000000E+00 -0.00000000000E+00 -0.17079538970E+03  0.17079538970E+03  0.00000000000E+00 0.  1.
         23    2    1    2    0    0  0.21105134836E+02 -0.33859298882E+02 -0.59026635817E+02  0.11578776917E+03  0.91273133592E+02 0.  0.
         23    2    1    2    0    0 -0.21105134836E+02  0.33859298882E+02 -0.31704827504E+02  0.13507154692E+03  0.12508895979E+03 0.  0.
          5    1    4    4  502    0 -0.30729557512E+02 -0.54206039908E+00 -0.73592333839E+02  0.79861777680E+02  0.41800000000E+01 0.  1.
         -5    1    4    4    0  502  0.96244226763E+01  0.34401359281E+02  0.41887506334E+02  0.55209769236E+02  0.41800000000E+01 0.  1.
        -11    1    3    3    0    0  0.33510826346E+02 -0.30036034702E+02  0.95412185765E+01  0.46001888167E+02  0.00000000000E+00 0. -1.
         11    1    3    3    0    0 -0.12405691510E+02 -0.38232641791E+01 -0.68567854394E+02  0.69785881000E+02  0.00000000000E+00 0.  1.
</event>
<event>
 8    1  0.8061721E-006  0.8497340E+02  0.7561462E-02  0.1315502E+00
         -1   -1    0    0    0  501 -0.00000000000E+00  0.00000000000E+00  0.34994735601E+02  0.34994735601E+02  0.00000000000E+00 0.  1.
          1   -1    0    0  501    0  0.00000000000E+00 -0.00000000000E+00 -0.51950869811E+03  0.51950869811E+03  0.00000000000E+00 0. -1.
         23    2    1    2    0    0 -0.33088210557E+01  0.51697530892E+01 -0.60493081353E+02  0.11237311584E+03  0.94502008591E+02 0.  0.
         23    2    1    2    0    0  0.33088210557E+01 -0.51697530892E+01 -0.42402088116E+03  0.44213031788E+03  0.12509130938E+03 0.  0.
          5    1    4    4  502    0  0.72522752817E+01  0.48758168827E+02 -0.81479741070E+02  0.95322479662E+02  0.41800000000E+01 0. -1.
         -5    1    4    4    0  502 -0.39434542260E+01 -0.53927921916E+02 -0.34254114009E+03  0.34680783821E+03  0.41800000000E+01 0. -1.
        -11    1    3    3    0    0  0.12240818162E+02 -0.27477566258E+02 -0.68958789211E+02  0.75234093908E+02  0.00000000000E+00 0. -1.
         11    1    3    3    0    0 -0.15549639218E+02  0.32647319347E+02  0.84657078580E+01  0.37139021930E+02  0.00000000000E+00 0.  1.
</event>
<event>
 8    1  0.8061721E-006  0.1628964E+03  0.7561462E-02  0.1185465E+00
         -2   -1    0    0    0  501 -0.00000000000E+00  0.00000000000E+00  0.59721290144E+02  0.59721290144E+02  0.00000000000E+00 0.  1.
          2   -1    0    0  501    0  0.00000000000E+00 -0.00000000000E+00 -0.51422653880E+03  0.51422653880E+03  0.00000000000E+00 0. -1.
         23    2    1    2    0    0 -0.11978013587E+03 -0.67035401763E+02 -0.20611607094E+03  0.26380872350E+03  0.90940540230E+02 0.  0.
         23    2    1    2    0    0  0.11978013587E+03  0.67035401763E+02 -0.24838917772E+03  0.31013910545E+03  0.12509218633E+03 0.  0.
          5    1    4    4  502    0  0.91764347531E+02  0.87516501912E+02 -0.11166013741E+03  0.16901269855E+03  0.41800000000E+01 0.  1.
         -5    1    4    4    0  502  0.28015788334E+02 -0.20481100150E+02 -0.13672904031E+03  0.14112640690E+03  0.41800000000E+01 0.  1.
        -11    1    3    3    0    0 -0.98366534384E+02 -0.51766442216E+01 -0.11181877863E+03  0.14901748886E+03  0.00000000000E+00 0.  1.
         11    1    3    3    0    0 -0.21413601482E+02 -0.61858757541E+02 -0.94297292305E+02  0.11479123464E+03  0.00000000000E+00 0. -1.
</event>
<event>
 8    1  0.8061721E-006  0.9494655E+02  0.7561462E-02  0.1291297E+00
         -2   -1    0    0    0  501 -0.00000000000E+00  0.00000000000E+00  0.17659838011E+02  0.17659838011E+02  0.00000000000E+00 0.  1.
          2   -1    0    0  501    0  0.00000000000E+00 -0.00000000000E+00 -0.96871931531E+03  0.96871931531E+03  0.00000000000E+00 0. -1.
         23    2    1    2    0    0 -0.41758938955E+02  0.53207870120E+02 -0.31283769758E+03  0.33250636033E+03  0.90100877949E+02 0.  0.
         23    2    1    2    0    0  0.41758938955E+02 -0.53207870120E+02 -0.63822177972E+03  0.65387279299E+03  0.12509077856E+03 0.  0.
          5    1    4    4  502    0  0.22087469370E+02 -0.24088380110E+01 -0.54752326151E+03  0.54798982938E+03  0.41800000000E+01 0. -1.
         -5    1    4    4    0  502  0.19671469585E+02 -0.50799032109E+02 -0.90698518204E+02  0.10588296361E+03  0.41800000000E+01 0. -1.
        -11    1    3    3    0    0 -0.34439161364E+02  0.78818372331E+02 -0.24103837920E+03  0.25592555929E+03  0.00000000000E+00 0.  1.
         11    1    3    3    0    0 -0.73197775905E+01 -0.25610502211E+02 -0.71799318380E+02  0.76580801036E+02  0.00000000000E+00 0. -1.
</event>
<event>
 8    1  0.8061721E-006  0.8825709E+02  0.7561462E-02  0.1307128E+00
          4   -1    0    0  501    0  0.00000000000E+00  0.00000000000E+00  0.14517069707E+03  0.14517069707E+03  0.00000000000E+00 0. -1.
         -4   -1    0    0    0  501 -0.00000000000E+00 -0.00000000000E+00 -0.16085036234E+03  0.16085036234E+03  0.00000000000E+00 0.  1.
         23    2    1    2    0    0 -0.27865303263E+02  0.39675519057E+01 -0.11313466218E+03  0.14497601183E+03  0.86176421514E+02 0.  0.
         23    2    1    2    0    0  0.27865303263E+02 -0.39675519057E+01  0.97454996910E+02  0.16104504758E+03  0.12508322963E+03 0.  0.
          5    1    4    4  502    0 -0.11654479618E+02 -0.57121340455E+02  0.64171977650E+02  0.86799709366E+02  0.41800000000E+01 0.  1.
         -5    1    4    4    0  502  0.39519782881E+02  0.53153788550E+02  0.33283019260E+02  0.74245338219E+02  0.41800000000E+01 0.  1.
        -11    1    3    3    0    0 -0.27144569283E+02 -0.16138791648E+02 -0.11971325445E+03  0.12380852769E+03  0.00000000000E+00 0.  1.
         11    1    3    3    0    0 -0.72073398061E+00  0.20106343554E+02  0.65785922694E+01  0.21167484140E+02  0.00000000000E+00 0. -1.
</event>
<event>
 8    1  0.8061721E-006  0.1217523E+03  0.7561462E-02  0.1240234E+00
          2   -1    0    0  501    0  0.00000000000E+00  0.00000000000E+00  0.55322263094E+03  0.55322263094E+03  0.00000000000E+00 0. -1.
         -2   -1    0    0    0  501 -0.00000000000E+00 -0.00000000000E+00 -0.30962354567E+02  0.30962354567E+02  0.00000000000E+00 0.  1.
         23    2    1    2    0    0  0.19857444730E+02  0.58641255971E+02  0.13974018895E+03  0.17699689858E+03  0.89260667067E+02 0.  0.
         23    2    1    2    0    0 -0.19857444730E+02 -0.58641255971E+02  0.38252008743E+03  0.40718808694E+03  0.12508959126E+03 0.  0.
          5    1    4    4  502    0 -0.50945217606E+02  0.19168667403E+02  0.12663916811E+03  0.13790505540E+03  0.41800000000E+01 0. -1.
         -5    1    4    4    0  502  0.31087772876E+02 -0.77809923374E+02  0.25588091932E+03  0.26928303153E+03  0.41800000000E+01 0. -1.
        -11    1    3    3    0    0 -0.14390991947E+02 -0.16827135321E+02  0.13339750151E+02  0.25849604763E+02  0.00000000000E+00 0. -1.
         11    1    3    3    0    0  0.34248436677E+02  0.75468391291E+02  0.12640043880E+03  0.15114729381E+03  0.00000000000E+00 0.  1.
</event>
<event>
 8    1  0.8061721E-006  0.1198034E+03  0.7561462E-02  0.1243422E+00
         -1   -1    0    0    0  501 -0.00000000000E+00  0.00000000000E+00  0.82517896288E+02  0.82517896288E+02  0.00000000000E+00 0.  1.
          1   -1    0    0  501    0  0.00000000000E+00 -0.00000000000E+00 -0.44763266226E+03  0.44763266226E+03  0.00000000000E+00 0. -1.
         23    2    1    2    0    0  0.62368793360E+02  0.58276473232E+02  0.88429662327E+01  0.12669289288E+03  0.93203419131E+02 0.  0.
         23    2    1    2    0    0 -0.62368793360E+02 -0.58276473232E+02 -0.37395773221E+03  0.40345766567E+03  0.12509072224E+03 0.  0.
          5    1    4    4  502    0 -0.71004593772E+02 -0.19822892697E+02 -0.34876588261E+03  0.35649644134E+03  0.41800000000E+01 0. -1.
         -5    1    4    4    0  502  0.86358004114E+01 -0.38453580535E+02 -0.25191849597E+02  0.46961224332E+02  0.41800000000E+01 0. -1.
        -11    1    3    3    0    0 -0.46270791268E+01  0.58955628853E+02  0.81030543445E+01  0.59689492579E+02  0.00000000000E+00 0. -1.
         11    1    3    3    0    0  0.66995872487E+02 -0.67915562117E+00  0.73991188812E+00  0.67003400304E+02  0.00000000000E+00 0.  1.
</event>
<event>
 8    1  0.8061721E-006  0.1203502E+03  0.7561462E-02  0.1242520E+00
          1   -1    0    0  501    0  0.00000000000E+00  0.00000000000E+00  0.11122855476E+03  0.11122855476E+03  0.00000000000E+00 0. -1.
         -1   -1    0    0    0  501 -0.00000000000E+00 -0.00000000000E+00 -0.20699399959E+03  0.20699399959E+03  0.00000000000E+00 0.  1.
         23    2    1    2    0    0  0.83411234891E+02  0.43076312307E+02 -0.95657016436E+02  0.16180803392E+03  0.90656341531E+02 0.  0.
         23    2    1    2    0    0 -0.83411234891E+02 -0.43076312307E+02 -0.10842839567E+00  0.15641452043E+03  0.12510990231E+03 0.  0.
          5    1    4    4  502    0 -0.91160196460E+02 -0.33427925220E+02 -0.46845256268E+02  0.10788678343E+03  0.41800000000E+01 0.  1.
         -5    1    4    4    0  502  0.77489615682E+01 -0.96483870866E+01  0.46736827872E+02  0.48527737000E+02  0.41800000000E+01 0.  1.
        -11    1    3    3    0    0  0.79488632722E+02  0.68375986248E+02 -0.75043070819E+02  0.12893867033E+03  0.00000000000E+00 0.  1.
         11    1    3    3    0    0  0.39226021692E+01 -0.25299673940E+02 -0.20613945618E+02  0.32869363596E+02  0.00000000000E+00 0. -1.
</event>
<event>
 8    1  0.8061721E-006  0.1016204E+03  0.7561462E-02  0.1276925E+00
         -3   -1    0    0    0  501 -0.00000000000E+00  0.00000000000E+00  0.14785149883E+03  0.14785149883E+03  0.00000000000E+00 0.  1.
          3   -1    0    0  501    0  0.00000000000E+00 -0.00000000000E+00 -0.12595063509E+03  0.12595063509E+03  0.00000000000E+00 0. -1.
         23    2    1    2    0    0  0.44569729966E+02  0.38341129905E+02  0.66414686995E+02  0.12859496264E+03  0.93108811053E+02 0.  0.
         23    2    1    2    0    0 -0.44569729966E+02 -0.38341129905E+02 -0.44513823254E+02  0.14520717129E+03  0.12508852490E+03 0.  0.
          5    1    4    4  502    0 -0.23848723608E+02  0.32558296688E+02 -0.57214802603E+02  0.70141359680E+02  0.41800000000E+01 0. -1.
         -5    1    4    4    0  502 -0.20721006358E+02 -0.70899426592E+02  0.12700979348E+02  0.75065811606E+02  0.41800000000E+01 0. -1.
        -11    1    3    3    0    0 -0.17694588103E+02  0.89924001772E+01 -0.12825849801E+02  0.23631845721E+02  0.00000000000E+00 0. -1.
         11    1    3    3    0    0  0.62264318069E+02  0.29348729727E+02  0.79240536796E+02  0.10496311692E+03  0.00000000000E+00 0.  1.
</event>
<event>
 7    1  0.8061721E-006  0.1701043E+03  0.7561462E-02  0.1177739E+00
          1   -1    0    0  501    0  0.00000000000E+00  0.00000000000E+00  0.15584002799E+04  0.15584002799E+04  0.00000000000E+00 0. -1.
         -1   -1    0    0    0  501 -0.00000000000E+00 -0.00000000000E+00 -0.21977623699E+03  0.21977623699E+03  0.00000000000E+00 0.  1.
         23    2    1    2    0    0 -0.14071665135E+02 -0.58279496866E+02 -0.18135286456E+03  0.21273515635E+03  0.93663620207E+02 0.  0.
          5    1    1    2  502    0  0.93388127408E+02 -0.44511150263E+02  0.13372149480E+04  0.13412173106E+04  0.41800000000E+01 0. -1.
         -5    1    1    2    0  502 -0.79316462274E+02  0.10279064713E+03  0.18276195951E+03  0.22422404994E+03  0.41800000000E+01 0.  1.
        -11    1    3    3    0    0 -0.18875448382E+02 -0.81192617346E+02 -0.11254230028E+03  0.14005103718E+03  0.00000000000E+00 0.  1.
         11    1    3    3    0    0  0.48037832469E+01  0.22913120480E+02 -0.68810564271E+02  0.72684119166E+02  0.00000000000E+00 0. -1.
</event>
<event>
 8    1  0.8061721E-006  0.1366174E+03  0.7561462E-02  0.1217954E+00
          2   -1    0    0  501    0  0.00000000000E+00  0.00000000000E+00  0.60480672086E+03  0.60480672086E+03  0.00000000000E+00 0.  1.
         -2   -1    0    0    0  501 -0.00000000000E+00 -0.00000000000E+00 -0.45843435637E+02  0.45843435637E+02  0.00000000000E+00 0. -1.
         23    2    1    2    0    0 -0.91814217857E+02  0.21660894162E+02  0.97145039304E+02  0.16298103672E+03  0.90700687602E+02 0.  0.
         23    2    1    2    0    0  0.91814217857E+02 -0.21660894162E+02  0.46181824592E+03  0.48766911978E+03  0.12508410445E+03 0.  0.
          5    1    4    4  502    0  0.55847814201E+02  0.45386694510E+02  0.30383343265E+03  0.31226776585E+03  0.41800000000E+01 0. -1.
         -5    1    4    4    0  502  0.35966403657E+02 -0.67047588671E+02  0.15798481326E+03  0.17540135393E+03  0.41800000000E+01 0. -1.
        -11    1    3    3    0    0 -0.81890857459E+02 -0.18185014708E+02  0.86640012730E+02  0.12059560150E+03  0.00000000000E+00 0.  1.
         11    1    3    3    0    0 -0.99233603984E+01  0.39845908870E+02  0.10505026574E+02  0.42385435218E+02  0.00000000000E+00 0. -1.
</event>
<event>
 8    1  0.8061721E-006  0.6652918E+02  0.7561462E-02  0.1372310E+00
          2   -1    0    0  501    0  0.00000000000E+00  0.00000000000E+00  0.43481878639E+04  0.43481878639E+04  0.00000000000E+00 0. -1.
         -2   -1    0    0    0  501 -0.00000000000E+00 -0.00000000000E+00 -0.58617858087E+01  0.58617858087E+01  0.00000000000E+00 0.  1.
         23    2    1    2    0    0  0.19571253954E+02 -0.18597443759E+02  0.44909358525E+03  0.45914743622E+03  0.91664720465E+02 0.  0.
         23    2    1    2    0    0 -0.19571253954E+02  0.18597443759E+02  0.38932324928E+04  0.38949022135E+04  0.11079309743E+03 0.  0.
          5    1    4    4  502    0 -0.19139729724E+02  0.24779122922E+02  0.38758746112E+04  0.38760033293E+04  0.41800000000E+01 0. -1.
         -5    1    4    4    0  502 -0.43152422926E+00 -0.61816791630E+01  0.17357881597E+02  0.18898884199E+02  0.41800000000E+01 0.  1.
        -11    1    3    3    0    0  0.55188232800E+02 -0.34640477704E+01  0.22219616918E+03  0.22897353180E+03  0.00000000000E+00 0. -1.
         11    1    3    3    0    0 -0.35616978846E+02 -0.15133395988E+02  0.22689741607E+03  0.23017390442E+03  0.00000000000E+00 0.  1.
</event>
<event>
 8    1  0.8061721E-006  0.8349075E+02  0.7561462E-02  0.1319427E+00
         -2   -1    0    0    0  501 -0.00000000000E+00  0.00000000000E+00  0.26184409363E+02  0.26184409363E+02  0.00000000000E+00 0.  1.
          2   -1    0    0  501    0  0.00000000000E+00 -0.00000000000E+00 -0.53660191052E+03  0.53660191052E+03  0.00000000000E+00 0. -1.
         23    2    1    2    0    0  0.38450201401E+02 -0.37449687675E+02 -0.21298746096E+03  0.23568471924E+03  0.85456019464E+02 0.  0.
         23    2    1    2    0    0 -0.38450201401E+02  0.37449687675E+02 -0.29743004020E+03  0.32710160064E+03  0.12509968520E+03 0.  0.
          5    1    4    4  502    0  0.54365210130E+01  0.15650488230E+02 -0.27048363966E+03  0.27102281319E+03  0.41800000000E+01 0.  1.
         -5    1    4    4    0  502 -0.43886722414E+02  0.21799199445E+02 -0.26946400533E+02  0.56078787455E+02  0.41800000000E+01 0.  1.
        -11    1    3    3    0    0  0.27430371404E+02 -0.65265109644E+02 -0.15632425509E+03  0.17160778695E+03  0.00000000000E+00 0. -1.
         11    1    3    3    0    0  0.11019829997E+02  0.27815421969E+02 -0.56663205875E+02  0.64076932296E+02  0.00000000000E+00 0.  1.
</event>
<event>
 8    1  0.8061721E-006  0.6082216E+02  0.7561462E-02  0.1394414E+00
         -2   -1    0    0    0  501 -0.00000000000E+00  0.00000000000E+00  0.63157738796E+02  0.63157738796E+02  0.00000000000E+00 0. -1.
          2   -1    0    0  501    0  0.00000000000E+00 -0.00000000000E+00 -0.21160751064E+03  0.21160751064E+03  0.00000000000E+00 0.  1.
         23    2    1    2    0    0 -0.19959603835E+02  0.30551321444E+02 -0.38132753962E+02  0.10402752007E+03  0.89642896986E+02 0.  0.
         23    2    1    2    0    0  0.19959603835E+02 -0.30551321444E+02 -0.11031701788E+03  0.17073772936E+03  0.12509899587E+03 0.  0.
          5    1    4    4  502    0 -0.20336974181E+02 -0.29405067642E+02  0.15025022619E+02  0.39006079354E+02  0.41800000000E+01 0.  1.
         -5    1    4    4    0  502  0.40296578016E+02 -0.11462538019E+01 -0.12534204050E+03  0.13173165001E+03  0.41800000000E+01 0.  1.
        -11    1    3    3    0    0 -0.24257527266E+02  0.13975937890E+02 -0.65789816014E+02  0.71498631876E+02  0.00000000000E+00 0.  1.
         11    1    3    3    0    0  0.42979234310E+01  0.16575383554E+02  0.27657062052E+02  0.32528888194E+02  0.00000000000E+00 0. -1.
</event>
<event>
 8    1  0.8061721E-006  0.8088132E+02  0.7561462E-02  0.1326569E+00
          1   -1    0    0  501    0  0.00000000000E+00  0.00000000000E+00  0.11094378219E+03  0.11094378219E+03  0.00000000000E+00 0. -1.
         -1   -1    0    0    0  501 -0.00000000000E+00 -0.00000000000E+00 -0.25142721272E+03  0.25142721272E+03  0.00000000000E+00 0.  1.
         23    2    1    2    0    0 -0.60785889270E+02  0.76192399267E+01 -0.19413951750E+03  0.22315995513E+03  0.91417920368E+02 0.  0.
         23    2    1    2    0    0  0.60785889270E+02 -0.76192399267E+01  0.53656086969E+02  0.13921103978E+03  0.11290598202E+03 0.  0.
          5    1    4    4  502    0  0.40155753123E+02  0.29790984459E+02  0.75806807141E+02  0.90907269637E+02  0.41800000000E+01 0. -1.
         -5    1    4    4    0  502  0.20630136147E+02 -0.37410224386E+02 -0.22150720171E+02  0.48303770144E+02  0.41800000000E+01 0.  1.
        -11    1    3    3    0    0 -0.41001812533E+02  0.19692712286E+02 -0.19473351773E+03  0.19997523465E+03  0.00000000000E+00 0.  1.
         11    1    3    3    0    0 -0.19784076737E+02 -0.12073472359E+02  0.59400022507E+00  0.23184720473E+02  0.00000000000E+00 0. -1.
</event>
<event>
 8    1  0.8061721E-006  0.9105269E+02  0.7561462E-02  0.1300322E+00
          2   -1    0    0  501    0  0.00000000000E+00  0.00000000000E+00  0.27029979393E+03  0.27029979393E+03  0.00000000000E+00 0. -1.
         -2   -1    0    0    0  501 -0.00000000000E+00 -0.00000000000E+00 -0.56961323171E+02  0.56961323171E+02  0.00000000000E+00 0.  1.
         23    2    1    2    0    0 -0.43903163347E+02 -0.33925360029E+02  0.53724267537E+02  0.11701648125E+03  0.87909852451E+02 0.  0.
         23    2    1    2    0    0  0.43903163347E+02  0.33925360029E+02  0.15961420322E+03  0.21024463585E+03  0.12509074797E+03 0.  0.
          5    1    4    4  502    0  0.76572598957E+02  0.24761974835E+02  0.48646244962E+02  0.94129951969E+02  0.41800000000E+01 0. -1.
         -5    1    4    4    0  502 -0.32669435611E+02  0.91633851937E+01  0.11096795826E+03  0.11611468388E+03  0.41800000000E+01 0. -1.
        -11    1    3    3    0    0 -0.50694597136E+02 -0.26260322921E+02 -0.50885049598E+01  0.57318754535E+02  0.00000000000E+00 0.  1.
         11    1    3    3    0    0  0.67914337890E+01 -0.76650371072E+01  0.58812772496E+02  0.59697726720E+02  0.00000000000E+00 0. -1.
</event>
<event>
 8    1  0.8061721E-006  0.1344967E+03  0.7561462E-02  0.1220932E+00
         -1   -1    0    0    0  501 -0.00000000000E+00  0.00000000000E+00  0.42055048568E+02  0.42055048568E+02  0.00000000000E+00 0.  1.
          1   -1    0    0  501    0  0.00000000000E+00 -0.00000000000E+00 -0.61190332467E+03  0.61190332467E+03  0.00000000000E+00 0. -1.
         23    2    1    2    0    0 -0.22447853420E+02 -0.10366605020E+03 -0.16370955270E+03  0.21595574172E+03  0.92658019890E+02 0.  0.
         23    2    1    2    0    0  0.22447853420E+02  0.10366605020E+03 -0.40613872340E+03  0.43800263152E+03  0.12508831473E+03 0.  0.
          5    1    4    4  502    0  0.72651342114E+02  0.58819101838E+02 -0.19374481060E+03  0.21515675282E+03  0.41800000000E+01 0.  1.
         -5    1    4    4    0  502 -0.50203488694E+02  0.44846948364E+02 -0.21239391281E+03  0.22284587869E+03  0.41800000000E+01 0.  1.
        -11    1    3    3    0    0 -0.56615076521E+01 -0.71222016287E+02 -0.16457670722E+03  0.17941605511E+03  0.00000000000E+00 0. -1.
         11    1    3    3    0    0 -0.16786345768E+02 -0.32444033914E+02  0.86715451468E+00  0.36539686614E+02  0.00000000000E+00 0.  1.
</event>
<event>
 8    1  0.8061721E-006  0.1078664E+03  0.7561462E-02  0.1264573E+00
         -2   -1    0    0    0  501 -0.00000000000E+00  0.00000000000E+00  0.21806439723E+02  0.21806439723E+02  0.00000000000E+00 0.  1.
          2   -1    0    0  501    0  0.00000000000E+00 -0.00000000000E+00 -0.85093747378E+03  0.85093747378E+03  0.00000000000E+00 0. -1.
         23    2    1    2    0    0  0.57311406693E+01  0.58928509939E+02 -0.19112126992E+03  0.21989652049E+03  0.91223487396E+02 0.  0.
         23    2    1    2    0    0 -0.57311406693E+01 -0.58928509939E+02 -0.63800976414E+03  0.65284739301E+03  0.12509134329E+03 0.  0.
          5    1    4    4  502    0  0.18663392802E+02 -0.77278393626E+02 -0.59289375931E+03  0.59821463923E+03  0.41800000000E+01 0. -1.
         -5    1    4    4    0  502 -0.24394533471E+02  0.18349883687E+02 -0.45116004828E+02  0.54632753786E+02  0.41800000000E+01 0. -1.
        -11    1    3    3    0    0 -0.18512864084E+02 -0.17289820327E+02 -0.72778889490E+02  0.77061214492E+02  0.00000000000E+00 0.  1.
         11    1    3    3    0    0  0.24244004753E+02  0.76218330266E+02 -0.11834238043E+03  0.14283530600E+03  0.00000000000E+00 0. -1.
</event>
<event>
 8    1  0.8061721E-006  0.2202942E+03  0.7561462E-02  0.1133664E+00
          3   -1    0    0  501    0  0.00000000000E+00  0.00000000000E+00  0.82040476729E+02  0.82040476729E+02  0.00000000000E+00 0. -1.
         -3   -1    0    0    0  501 -0.00000000000E+00 -0.00000000000E+00 -0.59987021400E+03  0.59987021400E+03  0.00000000000E+00 0.  1.
         23    2    1    2    0    0  0.68647886936E+02  0.17969555639E+03 -0.23643693025E+03  0.31882420793E+03  0.93506300344E+02 0.  0.
         23    2    1    2    0    0 -0.68647886936E+02 -0.17969555639E+03 -0.28139280701E+03  0.36308648280E+03  0.12508739659E+03 0.  0.
          5    1    4    4  502    0 -0.10133532505E+03 -0.16007732518E+03 -0.24884441924E+03  0.31278525465E+03  0.41800000000E+01 0.  1.
         -5    1    4    4    0  502  0.32687438117E+02 -0.19618231212E+02 -0.32548387777E+02  0.50301228150E+02  0.41800000000E+01 0.  1.
        -11    1    3    3    0    0  0.66798114916E+02  0.51039015946E+02 -0.10983636144E+03  0.13831484230E+03  0.00000000000E+00 0. -1.
         11    1    3    3    0    0  0.18497720192E+01  0.12865654045E+03 -0.12660056881E+03  0.18050936563E+03  0.00000000000E+00 0.  1.
</event>
<event>
 8    1  0.8061721E-006  0.9684708E+02  0.7561462E-02  0.1287069E+00
          2   -1    0    0  501    0  0.00000000000E+00  0.00000000000E+00  0.10675214328E+04  0.10675214328E+04  0.00000000000E+00 0. -1.
         -2   -1    0    0    0  501 -0.00000000000E+00 -0.00000000000E+00 -0.43981247598E+02  0.43981247598E+02  0.00000000000E+00 0.  1.
         23    2    1    2    0    0 -0.35717076073E+02  0.48225637431E+02  0.35787737619E+02  0.11405342315E+03  0.90144326169E+02 0.  0.
         23    2    1    2    0    0  0.35717076073E+02 -0.48225637431E+02  0.98775244761E+03  0.99744925727E+03  0.12509476984E+03 0.  0.
          5    1    4    4  502    0  0.55762469845E+02 -0.56421822339E+02  0.95289163120E+03  0.95619705515E+03  0.41800000000E+01 0.  1.
         -5    1    4    4    0  502 -0.20045393772E+02  0.81961849078E+01  0.34860816411E+02  0.41252202116E+02  0.41800000000E+01 0.  1.
        -11    1    3    3    0    0 -0.11468547157E+02  0.62846987585E+02 -0.53545400254E+01  0.64108833410E+02  0.00000000000E+00 0.  1.
         11    1    3    3    0    0 -0.24248528916E+02 -0.14621350153E+02  0.41142277644E+02  0.49944589743E+02  0.00000000000E+00 0. -1.
</event>
<event>
 8    1  0.8061721E-006  0.1023342E+03  0.7561462E-02  0.1275463E+00
          1   -1    0    0  501    0  0.00000000000E+00  0.00000000000E+00  0.10439792297E+04  0.10439792297E+04  0.00000000000E+00 0. -1.
         -1   -1    0    0    0  501 -0.00000000000E+00 -0.00000000000E+00 -0.21757318481E+02  0.21757318481E+02  0.00000000000E+00 0.  1.
         23    2    1    2    0    0 -0.65437489942E+02  0.44555129901E+02  0.24277150773E+03  0.27235278034E+03  0.94714345822E+02 0.  0.
         23    2    1    2    0    0  0.65437489942E+02 -0.44555129901E+02  0.77945040346E+03  0.79338376781E+03  0.12509055472E+03 0.  0.
          5    1    4    4  502    0  0.70914352241E+02 -0.69536549143E+02  0.37021095725E+03  0.38332466955E+03  0.41800000000E+01 0. -1.
         -5    1    4    4    0  502 -0.54768622990E+01  0.24981419242E+02  0.40923944621E+03  0.41005909826E+03  0.41800000000E+01 0. -1.
        -11    1    3    3    0    0 -0.43875677521E+02  0.32875407172E+02  0.24166477676E+03  0.24780583488E+03  0.00000000000E+00 0. -1.
         11    1    3    3    0    0 -0.21561812421E+02  0.11679722729E+02  0.11067309664E+01  0.24546945458E+02  0.00000000000E+00 0.  1.
</event>
<event>
 8    1  0.8061721E-006  0.6497584E+02  0.7561462E-02  0.1378062E+00
          1   -1    0    0  501    0  0.00000000000E+00  0.00000000000E+00  0.69853228899E+02  0.69853228899E+02  0.00000000000E+00 0. -1.
         -1   -1    0    0    0  501 -0.00000000000E+00 -0.00000000000E+00 -0.20316689819E+03  0.20316689819E+03  0.00000000000E+00 0.  1.
         23    2    1    2    0    0  0.39217172112E+02 -0.30397164533E+02 -0.60482448446E+02  0.12000698772E+03  0.91003166595E+02 0.  0.
         23    2    1    2    0    0 -0.39217172112E+02  0.30397164533E+02 -0.72831220846E+02  0.15301313938E+03  0.12508660956E+03 0.  0.
          5    1    4    4  502    0 -0.21911272257E+02  0.93494506463E+01 -0.10666356828E+03  0.10937140978E+03  0.41800000000E+01 0.  1.
         -5    1    4    4    0  502 -0.17305899855E+02  0.21047713887E+02  0.33832347430E+02  0.43641729598E+02  0.41800000000E+01 0.  1.
        -11    1    3    3    0    0  0.39014543136E+02  0.79779572049E+01 -0.69940819747E+02  0.80482921444E+02  0.00000000000E+00 0.  1.
         11    1    3    3    0    0  0.20262897607E+00 -0.38375121738E+02  0.94583713009E+01  0.39524066271E+02  0.00000000000E+00 0. -1.
</event>
<event>
 8    1  0.8061721E-006  0.1028154E+03  0.7561462E-02  0.1274485E+00
          2   -1    0    0  501    0  0.00000000000E+00  0.00000000000E+00  0.55271837600E+03  0.55271837600E+03  0.00000000000E+00 0. -1.
         -2   -1    0    0    0  501 -0.00000000000E+00 -0.00000000000E+00 -0.23220328756E+02  0.23220328756E+02  0.00000000000E+00 0.  1.
         23    2    1    2    0    0 -0.79714122593E+01 -0.26888365301E+02  0.19110027347E+03  0.21406965679E+03  0.92303715192E+02 0.  0.
         23    2    1    2    0    0  0.79714122593E+01  0.26888365301E+02  0.33839777378E+03  0.36186904796E+03  0.12509846911E+03 0.  0.
          5    1    4    4  502    0 -0.38769407534E+02 -0.32218798593E+02  0.10453135477E+03  0.11612663120E+03  0.41800000000E+01 0. -1.
         -5    1    4    4    0  502  0.46740819793E+02  0.59107163894E+02  0.23386641901E+03  0.24574241677E+03  0.41800000000E+01 0. -1.
        -11    1    3    3    0    0  0.16455714220E+02  0.20485737155E+02  0.15387277111E+02  0.30450357209E+02  0.00000000000E+00 0.  1.
         11    1    3    3    0    0 -0.24427126479E+02 -0.47374102456E+02  0.17571299635E+03  0.18361929958E+03  0.00000000000E+00 0. -1.
</event>
<event>
 8    1  0.8061721E-006  0.1040739E+03  0.7561462E-02  0.1271955E+00
         -2   -1    0    0    0  501 -0.00000000000E+00  0.00000000000E+00  0.28004913730E+02  0.28004913730E+02  0.00000000000E+00 0. -1.
          2   -1    0    0  501    0  0.00000000000E+00 -0.00000000000E+00 -0.69635797802E+03  0.69635797802E+03  0.00000000000E+00 0.  1.
         23    2    1    2    0    0  0.78480555723E+02 -0.12911340952E+02 -0.20507999392E+03  0.23776627161E+03  0.90272341587E+02 0.  0.
         23    2    1    2    0    0 -0.78480555723E+02  0.12911340952E+02 -0.46327307037E+03  0.48659662014E+03  0.12581109909E+03 0.  0.
          5    1    4    4  502    0 -0.96112428706E+02 -0.64609578110E+01 -0.44255926673E+03  0.45294096734E+03  0.41800000000E+01 0.  1.
         -5    1    4    4    0  502  0.17631872983E+02  0.19372298763E+02 -0.20713803639E+02  0.33655652801E+02  0.41800000000E+01 0. -1.
        -11    1    3    3    0    0  0.56670080969E+02  0.51225899270E+01 -0.20133236979E+03  0.20921869450E+03  0.00000000000E+00 0.  1.
         11    1    3    3    0    0  0.21810474754E+02 -0.18033930879E+02 -0.37476241325E+01  0.28547577105E+02  0.00000000000E+00 0. -1.
</event>
<event>
 8    1  0.8061721E-006  0.3027022E+03  0.7561462E-02  0.1083898E+00
          2   -1    0    0  501    0  0.00000000000E+00  0.00000000000E+00  0.90393084764E+03  0.90393084764E+03  0.00000000000E+00 0.  1.
         -2   -1    0    0    0  501 -0.00000000000E+00 -0.00000000000E+00 -0.13827807321E+03  0.13827807321E+03  0.00000000000E+00 0. -1.
         23    2    1    2    0    0  0.27630560935E+03 -0.12059711939E+03  0.15793817918E+03  0.35238739397E+03  0.91345235365E+02 0.  0.
         23    2    1    2    0    0 -0.27630560935E+03  0.12059711939E+03  0.60771459525E+03  0.68982152688E+03  0.12509298426E+03 0.  0.
          5    1    4    4  502    0 -0.24588855258E+02  0.16279832485E+02  0.76096678664E+01  0.30741245806E+02  0.41800000000E+01 0.  1.
         -5    1    4    4    0  502 -0.25171675409E+03  0.10431728691E+03  0.60010492738E+03  0.65908028108E+03  0.41800000000E+01 0.  1.
        -11    1    3    3    0    0  0.86090228696E+02 -0.21980555061E+02  0.92724714069E+02  0.12842330348E+03  0.00000000000E+00 0.  1.
         11    1    3    3    0    0  0.19021538065E+03 -0.98616564331E+02  0.65213465109E+02  0.22396409049E+03  0.00000000000E+00 0. -1.
</event>
<event>
 8    1  0.8061721E-006  0.9665234E+02  0.7561462E-02  0.1287497E+00
         -1   -1    0    0    0  501 -0.00000000000E+00  0.00000000000E+00  0.48417273328E+02  0.48417273328E+02  0.00000000000E+00 0.  1.
          1   -1    0    0  501    0  0.00000000000E+00 -0.00000000000E+00 -0.28979718307E+03  0.28979718307E+03  0.00000000000E+00 0. -1.
         23    2    1    2    0    0  0.17909720331E+02  0.41686748026E+02 -0.82798202665E+02  0.13120113901E+03  0.91102433944E+02 0.  0.
         23    2    1    2    0    0 -0.17909720331E+02 -0.41686748026E+02 -0.15858170707E+03  0.20701331738E+03  0.12509121756E+03 0.  0.
          5    1    4    4  502    0  0.53606424195E+02 -0.98776972320E+01 -0.63704407728E+02  0.83946063526E+02  0.41800000000E+01 0.  1.
         -5    1    4    4    0  502 -0.71516144526E+02 -0.31809050794E+02 -0.94877299344E+02  0.12306725385E+03  0.41800000000E+01 0.  1.
        -11    1    3    3    0    0  0.22051952958E+01  0.44280857528E+02  0.25234048801E+01  0.44407485877E+02  0.00000000000E+00 0.  1.
         11    1    3    3    0    0  0.15704525035E+02 -0.25941095020E+01 -0.85321607545E+02  0.86793653137E+02  0.00000000000E+00 0. -1.
</event>
<event>
 8    1  0.8061721E-006  0.1037103E+03  0.7561462E-02  0.1272682E+00
          2   -1    0    0  501    0  0.00000000000E+00  0.00000000000E+00  0.10728069260E+04  0.10728069260E+04  0.00000000000E+00 0. -1.
         -2   -1    0    0    0  501 -0.00000000000E+00 -0.00000000000E+00 -0.18977495424E+02  0.18977495424E+02  0.00000000000E+00 0.  1.
         23    2    1    2    0    0  0.22778766006E+02 -0.90840436556E+01  0.13646322555E+03  0.16560512360E+03  0.90561873905E+02 0.  0.
         23    2    1    2    0    0 -0.22778766006E+02  0.90840436556E+01  0.91736620503E+03  0.92617929783E+03  0.12508375419E+03 0.  0.
          5    1    4    4  502    0  0.45384706755E+02 -0.33440972993E+01  0.57702021616E+03  0.57882705262E+03  0.41800000000E+01 0. -1.
         -5    1    4    4    0  502 -0.68163472761E+02  0.12428140955E+02  0.34034598888E+03  0.34735224521E+03  0.41800000000E+01 0. -1.
        -11    1    3    3    0    0 -0.52076887991E+01  0.37556198442E+02  0.41851103733E+02  0.56472143112E+02  0.00000000000E+00 0.  1.
         11    1    3    3    0    0  0.27986454805E+02 -0.46640242098E+02  0.94612121815E+02  0.10913298049E+03  0.00000000000E+00 0. -1.
</event>
<event>
 8    1  0.8061721E-006  0.1300280E+03  0.7561462E-02  0.1227414E+00
         -1   -1    0    0    0  501 -0.00000000000E+00  0.00000000000E+00  0.11717528098E+03  0.11717528098E+03  0.00000000000E+00 0.  1.
          1   -1    0    0  501    0  0.00000000000E+00 -0.00000000000E+00 -0.29649215685E+03  0.29649215685E+03  0.00000000000E+00 0. -1.
         23    2    1    2    0    0  0.35437026631E+02  0.12344473147E+03 -0.26431904804E+01  0.16196226402E+03  0.98642809805E+02 0.  0.
         23    2    1    2    0    0 -0.35437026631E+02 -0.12344473147E+03 -0.17667368539E+03  0.25170517381E+03  0.12509004288E+03 0.  0.
          5    1    4    4  502    0 -0.29372873374E+02 -0.54260067714E+02 -0.17106944929E+03  0.18190423172E+03  0.41800000000E+01 0.  1.
         -5    1    4    4    0  502 -0.60641532561E+01 -0.69184663756E+02 -0.56042360992E+01  0.69800942085E+02  0.41800000000E+01 0.  1.
        -11    1    3    3    0    0  0.17420822427E+02  0.73731847454E+02 -0.50168363413E+02  0.90866578402E+02  0.00000000000E+00 0. -1.
         11    1    3    3    0    0  0.18016204203E+02  0.49712884016E+02  0.47525172932E+02  0.71095685617E+02  0.00000000000E+00 0.  1.
</event>
<event>
 7    1  0.8061721E-006  0.1702024E+03  0.7561462E-02  0.1177637E+00
         -2   -1    0    0    0  501 -0.00000000000E+00  0.00000000000E+00  0.20943778384E+03  0.20943778384E+03  0.00000000000E+00 0.  1.
          2   -1    0    0  501    0  0.00000000000E+00 -0.00000000000E+00 -0.33111452010E+03  0.33111452010E+03  0.00000000000E+00 0. -1.
         23    2    1    2    0    0 -0.31340477539E+02 -0.10021863404E+03  0.10214114992E+03  0.17289942852E+03  0.91844421355E+02 0.  0.
          5    1    1    2  502    0  0.96639792451E+02  0.10393905608E+03 -0.81201177890E+01  0.14221809160E+03  0.41800000000E+01 0. -1.
         -5    1    1    2    0  502 -0.65299314913E+02 -0.37204220438E+01 -0.21569776840E+03  0.22543478383E+03  0.41800000000E+01 0.  1.
        -11    1    3    3    0    0 -0.29082521828E+02  0.33607539458E+01  0.47427440280E+02  0.55735534755E+02  0.00000000000E+00 0.  1.
         11    1    3    3    0    0 -0.22579557108E+01 -0.10357938799E+03  0.54713709644E+02  0.11716389377E+03  0.00000000000E+00 0. -1.
</event>
<event>
 7    1  0.8061721E-006  0.1049246E+03  0.7561462E-02  0.1270268E+00
         -2   -1    0    0    0  501 -0.00000000000E+00  0.00000000000E+00  0.40341414338E+02  0.40341414338E+02  0.00000000000E+00 0.  1.
          2   -1    0    0  501    0  0.00000000000E+00 -0.00000000000E+00 -0.15382117815E+04  0.15382117815E+04  0.00000000000E+00 0. -1.
         23    2    1    2    0    0 -0.13798413252E+02 -0.49461999758E+02 -0.18864664654E+03  0.21660910873E+03  0.93247322254E+02 0.  0.
          5    1    1    2  502    0 -0.41224487411E+02  0.27457675728E+01 -0.12850329124E+04  0.12857037202E+04  0.41800000000E+01 0. -1.
         -5    1    1    2    0  502  0.55022900663E+02  0.46716232186E+02 -0.24190808156E+02  0.76240366908E+02  0.41800000000E+01 0.  1.
        -11    1    3    3    0    0 -0.17071799489E+02  0.20106327779E+02 -0.10245822791E+03  0.10579886210E+03  0.00000000000E+00 0.  1.
         11    1    3    3    0    0  0.32733862364E+01 -0.69568327538E+02 -0.86188418626E+02  0.11081024663E+03  0.00000000000E+00 0. -1.
</event>
<event>
 8    1  0.8061721E-006  0.8720178E+02  0.7561462E-02  0.1309773E+00
         -3   -1    0    0    0  501 -0.00000000000E+00  0.00000000000E+00  0.31200233449E+02  0.31200233449E+02  0.00000000000E+00 0.  1.
          3   -1    0    0  501    0  0.00000000000E+00 -0.00000000000E+00 -0.45231278379E+03  0.45231278379E+03  0.00000000000E+00 0. -1.
         23    2    1    2    0    0  0.38489830263E+02 -0.81486657412E+01 -0.12788804404E+03  0.16230598702E+03  0.91869547863E+02 0.  0.
         23    2    1    2    0    0 -0.38489830263E+02  0.81486657412E+01 -0.29322450630E+03  0.32120703022E+03  0.12508188272E+03 0.  0.
          5    1    4    4  502    0  0.80696065191E+01 -0.30720015732E+02 -0.23451061136E+03  0.23668869250E+03  0.41800000000E+01 0.  1.
         -5    1    4    4    0  502 -0.46559436782E+02  0.38868681473E+02 -0.58713894931E+02  0.84518337720E+02  0.41800000000E+01 0.  1.
        -11    1    3    3    0    0  0.25814074951E+02  0.31047811610E+02 -0.16633083414E+02  0.43669125651E+02  0.00000000000E+00 0.  1.
         11    1    3    3    0    0  0.12675755312E+02 -0.39196477351E+02 -0.11125496063E+03  0.11863686136E+03  0.00000000000E+00 0. -1.
</event>
<event>
 8    1  0.8061721E-006  0.1076121E+03  0.7561462E-02  0.1265057E+00
          2   -1    0    0  501    0  0.00000000000E+00  0.00000000000E+00  0.54211383307E+03  0.54211383307E+03  0.00000000000E+00 0.  1.
         -2   -1    0    0    0  501 -0.00000000000E+00 -0.00000000000E+00 -0.33130031975E+02  0.33130031975E+02  0.00000000000E+00 0. -1.
         23    2    1    2    0    0  0.65296098198E+02 -0.24583893171E+02  0.14818014708E+03  0.18705019359E+03  0.90346392802E+02 0.  0.
         23    2    1    2    0    0 -0.65296098198E+02  0.24583893171E+02  0.36080365402E+03  0.38819367146E+03  0.12508837499E+03 0.  0.
          5    1    4    4  502    0 -0.77328051131E+01  0.63147063422E+02  0.24518711167E+03  0.25334075871E+03  0.41800000000E+01 0. -1.
         -5    1    4    4    0  502 -0.57563293085E+02 -0.38563170252E+02  0.11561654235E+03  0.13485291274E+03  0.41800000000E+01 0. -1.
        -11    1    3    3    0    0  0.18015055968E+02  0.12533123674E+02 -0.49913626347E+01  0.22506335364E+02  0.00000000000E+00 0. -1.
         11    1    3    3    0    0  0.47281042230E+02 -0.37117016845E+02  0.15317150971E+03  0.16454385823E+03  0.00000000000E+00 0.  1.
</event>
<event>
 8    1  0.8061721E-006  0.1603175E+03  0.7561462E-02  0.1188339E+00
         -3   -1    0    0    0  501 -0.00000000000E+00  0.00000000000E+00  0.15265127222E+03  0.15265127222E+03  0.00000000000E+00 0.  1.
          3   -1    0    0  501    0  0.00000000000E+00 -0.00000000000E+00 -0.19961524433E+03  0.19961524433E+03  0.00000000000E+00 0. -1.
         23    2    1    2    0    0 -0.12774995625E+03 -0.10329539224E+02  0.23444444203E+02  0.15982936495E+03  0.92569072767E+02 0.  0.
         23    2    1    2    0    0  0.12774995625E+03  0.10329539224E+02 -0.70408416312E+02  0.19243715160E+03  0.12509181239E+03 0.  0.
          5    1    4    4  502    0  0.11028190736E+03  0.48449157124E+02 -0.13004985314E+02  0.12122715026E+03  0.41800000000E+01 0.  1.
         -5    1    4    4    0  502  0.17468048890E+02 -0.38119617900E+02 -0.57403430998E+02  0.71210001342E+02  0.41800000000E+01 0.  1.
        -11    1    3    3    0    0 -0.13880778741E+03  0.51986608784E+01  0.22732902018E+02  0.14075302041E+03  0.00000000000E+00 0.  1.
         11    1    3    3    0    0  0.11057831163E+02 -0.15528200103E+02  0.71154218571E+00  0.19076344533E+02  0.00000000000E+00 0. -1.
</event>
<event>
 8    1  0.8061721E-006  0.1257155E+03  0.7561462E-02  0.1233955E+00
          2   -1    0    0  501    0  0.00000000000E+00  0.00000000000E+00  0.56339602342E+03  0.56339602342E+03  0.00000000000E+00 0. -1.
         -2   -1    0    0    0  501 -0.00000000000E+00 -0.00000000000E+00 -0.36165049021E+02  0.36165049021E+02  0.00000000000E+00 0.  1.
         23    2    1    2    0    0  0.85886707160E+02 -0.23617699109E+02  0.18996012477E+03  0.22897695290E+03  0.91712996800E+02 0.  0.
         23    2    1    2    0    0 -0.85886707160E+02  0.23617699109E+02  0.33727084963E+03  0.37058411954E+03  0.12508653590E+03 0.  0.
          5    1    4    4  502    0 -0.11113143865E+03 -0.65719056200E+01  0.27609483898E+03  0.29772339362E+03  0.41800000000E+01 0.  1.
         -5    1    4    4    0  502  0.25244731485E+02  0.30189604729E+02  0.61176010654E+02  0.72860725916E+02  0.41800000000E+01 0.  1.
        -11    1    3    3    0    0  0.11941709576E+02 -0.23664518898E+02  0.13305788292E+03  0.13567245147E+03  0.00000000000E+00 0. -1.
         11    1    3    3    0    0  0.73944997584E+02  0.46819788811E-01  0.56902241849E+02  0.93304501431E+02  0.00000000000E+00 0.  1.
</event>
<event>
 8    1  0.8061721E-006  0.1263479E+03  0.7561462E-02  0.1232978E+00
          1   -1    0    0  501    0  0.00000000000E+00  0.00000000000E+00  0.64451954502E+03  0.64451954502E+03  0.00000000000E+00 0. -1.
         -1   -1    0    0    0  501 -0.00000000000E+00 -0.00000000000E+00 -0.25252170985E+02  0.25252170985E+02  0.00000000000E+00 0.  1.
         23    2    1    2    0    0  0.13799754174E+02 -0.64800119147E+02  0.23782176546E+03  0.26290894198E+03  0.90401498818E+02 0.  0.
         23    2    1    2    0    0 -0.13799754174E+02  0.64800119147E+02  0.38144560857E+03  0.40686277402E+03  0.12508827256E+03 0.  0.
          5    1    4    4  502    0 -0.69604020963E+02  0.36543598760E+02  0.22115575158E+03  0.23474985240E+03  0.41800000000E+01 0. -1.
         -5    1    4    4    0  502  0.55804266789E+02  0.28256520387E+02  0.16028985699E+03  0.17211292162E+03  0.41800000000E+01 0. -1.
        -11    1    3    3    0    0  0.24806714335E+02 -0.84853587772E+02  0.17522754336E+03  0.19626562712E+03  0.00000000000E+00 0. -1.
         11    1    3    3    0    0 -0.11006960161E+02  0.20053468625E+02  0.62594222100E+02  0.66643314865E+02  0.00000000000E+00 0.  1.
</event>
<event>
 8    1  0.8061721E-006  0.1682796E+03  0.7561462E-02  0.1179654E+00
          2   -1    0    0  501    0  0.00000000000E+00  0.00000000000E+00  0.13253068108E+04  0.13253068108E+04  0.00000000000E+00 0. -1.
         -2   -1    0    0    0  501 -0.00000000000E+00 -0.00000000000E+00 -0.30835432389E+02  0.30835432389E+02  0.00000000000E+00 0.  1.
         23    2    1    2    0    0  0.11360371121E+03 -0.90786920828E+02  0.32095137444E+03  0.36390437035E+03  0.90931500655E+02 0.  0.
         23    2    1    2    0    0 -0.11360371121E+03  0.90786920828E+02  0.97352000395E+03  0.99223787282E+03  0.12508688966E+03 0.  0.
          5    1    4    4  502    0  0.48460586644E+01  0.32327301284E+02  0.53941547091E+02  0.63211562197E+02  0.41800000000E+01 0. -1.
         -5    1    4    4    0  502 -0.11844976988E+03  0.58459619544E+02  0.91957845686E+03  0.92902631062E+03  0.41800000000E+01 0. -1.
        -11    1    3    3    0    0  0.12754219365E+02 -0.66504341744E+02  0.12190451688E+03  0.13944966410E+03  0.00000000000E+00 0.  1.
         11    1    3    3    0    0  0.10084949185E+03 -0.24282579084E+02  0.19904685756E+03  0.22445470625E+03  0.00000000000E+00 0. -1.
</event>
<event>
 8    1  0.1093927E-005  0.1194733E+03  0.7561462E-02  0.1243968E+00
         -1   -1    0    0    0  501 -0.00000000000E+00  0.00000000000E+00  0.10349461157E+02  0.10349461157E+02  0.00000000000E+00 0.  1.
          1   -1    0    0  501    0  0.00000000000E+00 -0.00000000000E+00 -0.18642708415E+04  0.18642708415E+04  0.00000000000E+00 0. -1.
         23    2    1    2    0    0  0.58360779187E+02 -0.57034207525E+02 -0.58749916615E+03  0.59942160772E+03  0.86556988174E+02 0.  0.
         23    2    1    2    0    0 -0.58360779187E+02  0.57034207525E+02 -0.12664222142E+04  0.12751986950E+04  0.12509038968E+03 0.  0.
          5    1    4    4  502    0 -0.59542661327E+02  0.79506442198E+02 -0.58467605451E+03  0.59306843111E+03  0.41800000000E+01 0. -1.
         -5    1    4    4    0  502  0.11818821397E+01 -0.22472234673E+02 -0.68174615973E+03  0.68213026386E+03  0.41800000000E+01 0. -1.
        -11    1    3    3    0    0 -0.21680305632E+02 -0.13181099934E+02 -0.85182868817E+02  0.88881371432E+02  0.00000000000E+00 0.  1.
         11    1    3    3    0    0  0.80041084820E+02 -0.43853107591E+02 -0.50231629734E+03  0.51054023629E+03  0.00000000000E+00 0. -1.
</event>
<event>
 8    1  0.8061721E-006  0.1063680E+03  0.7561462E-02  0.1267447E+00
         -2   -1    0    0    0  501 -0.00000000000E+00  0.00000000000E+00  0.16202892194E+03  0.16202892194E+03  0.00000000000E+00 0. -1.
          2   -1    0    0  501    0  0.00000000000E+00 -0.00000000000E+00 -0.11811559916E+03  0.11811559916E+03  0.00000000000E+00 0.  1.
         23    2    1    2    0    0  0.71519923978E+02  0.45148577286E+02  0.31518413382E+02  0.12863585503E+03  0.91653037381E+02 0.  0.
         23    2    1    2    0    0 -0.71519923978E+02 -0.45148577286E+02  0.12394909399E+02  0.15150866607E+03  0.12509096114E+03 0.  0.
          5    1    4    4  502    0 -0.57737579490E+01  0.35266672050E+01 -0.48686110527E+02  0.49331363458E+02  0.41800000000E+01 0.  1.
         -5    1    4    4    0  502 -0.65746166029E+02 -0.48675244491E+02  0.61081019925E+02  0.10217730261E+03  0.41800000000E+01 0.  1.
        -11    1    3    3    0    0  0.39951392624E+02 -0.24177519548E+02  0.22790274547E+02  0.51962128883E+02  0.00000000000E+00 0.  1.
         11    1    3    3    0    0  0.31568531353E+02  0.69326096835E+02  0.87281388345E+01  0.76673726150E+02  0.00000000000E+00 0. -1.
</event>
<event>
 8    1  0.8061721E-006  0.1260669E+03  0.7561462E-02  0.1233411E+00
          2   -1    0    0  501    0  0.00000000000E+00  0.00000000000E+00  0.20053414993E+04  0.20053414993E+04  0.00000000000E+00 0.  1.
         -2   -1    0    0    0  501 -0.00000000000E+00 -0.00000000000E+00 -0.14128543287E+02  0.14128543287E+02  0.00000000000E+00 0. -1.
         23    2    1    2    0    0  0.77972578089E+02 -0.14202005041E+02  0.31884990614E+03  0.34056290436E+03  0.89646022245E+02 0.  0.
         23    2    1    2    0    0 -0.77972578089E+02  0.14202005041E+02  0.16723630499E+04  0.16789071382E+04  0.12509831455E+03 0.  0.
          5    1    4    4  502    0  0.32924240437E+02 -0.56426512688E+01  0.28787118215E+03  0.28983294332E+03  0.41800000000E+01 0. -1.
         -5    1    4    4    0  502 -0.11089681853E+03  0.19844656309E+02  0.13844918677E+04  0.13890741949E+04  0.41800000000E+01 0. -1.
        -11    1    3    3    0    0  0.56713466824E+02 -0.42119115835E+02  0.12515997976E+03  0.14372006739E+03  0.00000000000E+00 0. -1.
         11    1    3    3    0    0  0.21259111265E+02  0.27917110795E+02  0.19368992638E+03  0.19684283697E+03  0.00000000000E+00 0.  1.
</event>
<event>
 8    1  0.8061721E-006  0.9208431E+02  0.7561462E-02  0.1297881E+00
         -2   -1    0    0    0  501 -0.00000000000E+00  0.00000000000E+00  0.63368613690E+02  0.63368613690E+02  0.00000000000E+00 0.  1.
          2   -1    0    0  501    0  0.00000000000E+00 -0.00000000000E+00 -0.24823236529E+03  0.24823236529E+03  0.00000000000E+00 0. -1.
         23    2    1    2    0    0  0.58454958568E+01  0.56157068552E+02 -0.41998174191E+02  0.11348455276E+03  0.89034324328E+02 0.  0.
         23    2    1    2    0    0 -0.58454958568E+01 -0.56157068552E+02 -0.14286557741E+03  0.19811642622E+03  0.12510699006E+03 0.  0.
          5    1    4    4  502    0 -0.59963278665E+01 -0.75461991254E+02 -0.26846846560E+02  0.80428189350E+02  0.41800000000E+01 0.  1.
         -5    1    4    4    0  502  0.15083200970E+00  0.19304922702E+02 -0.11601873084E+03  0.11768823687E+03  0.41800000000E+01 0.  1.
        -11    1    3    3    0    0  0.33672126199E+02  0.10752127812E+02  0.12304236120E+02  0.37427457324E+02  0.00000000000E+00 0.  1.
         11    1    3    3    0    0 -0.27826630342E+02  0.45404940740E+02 -0.54302410312E+02  0.76057095431E+02  0.00000000000E+00 0. -1.
</event>
<event>
 7    1  0.8061721E-006  0.1153937E+03  0.7561462E-02  0.1250895E+00
          1   -1    0    0  501    0  0.00000000000E+00  0.00000000000E+00  0.11745605023E+03  0.11745605023E+03  0.00000000000E+00 0. -1.
         -1   -1    0    0    0  501 -0.00000000000E+00 -0.00000000000E+00 -0.16208551687E+03  0.16208551687E+03  0.00000000000E+00 0.  1.
         23    2    1    2    0    0  0.28158694665E+02 -0.33832678549E+00 -0.88762147964E+02  0.13122638208E+03  0.92458736167E+02 0.  0.
          5    1    1    2  502    0 -0.23253213054E+02 -0.68193675436E+02  0.15810578834E+02  0.73881906377E+02  0.41800000000E+01 0. -1.
         -5    1    1    2    0  502 -0.49054816103E+01  0.68532002222E+02  0.28322102490E+02  0.74433278631E+02  0.41800000000E+01 0.  1.
        -11    1    3    3    0    0 -0.30810612824E+02  0.18126342467E+00 -0.91290723761E+01  0.32135131577E+02  0.00000000000E+00 0.  1.
         11    1    3    3    0    0  0.58969307489E+02 -0.51959021016E+00 -0.79633075588E+02  0.99091250508E+02  0.00000000000E+00 0. -1.
</event>
<event>
 8    1  0.8061721E-006  0.1134692E+03  0.7561462E-02  0.1254277E+00
          2   -1    0    0  501    0  0.00000000000E+00  0.00000000000E+00  0.95840833744E+03  0.95840833744E+03  0.00000000000E+00 0.  1.
         -2   -1    0    0    0  501 -0.00000000000E+00 -0.00000000000E+00 -0.19662339486E+02  0.19662339486E+02  0.00000000000E+00 0. -1.
         23    2    1    2    0    0  0.14709643053E+02  0.31135126408E+02  0.17710936244E+03  0.20546277747E+03  0.98292710650E+02 0.  0.
         23    2    1    2    0    0 -0.14709643053E+02 -0.31135126408E+02  0.76163663551E+03  0.77260789946E+03  0.12508729771E+03 0.  0.
          5    1    4    4  502    0 -0.68038861105E+02 -0.33255273918E+02  0.41782227081E+03  0.42465058843E+03  0.41800000000E+01 0.  1.
         -5    1    4    4    0  502  0.53329218052E+02  0.21201475100E+01  0.34381436470E+03  0.34795731103E+03  0.41800000000E+01 0.  1.
        -11    1    3    3    0    0  0.35652385084E+02 -0.20996912445E+02  0.11236752362E+03  0.11974315537E+03  0.00000000000E+00 0.  1.
         11    1    3    3    0    0 -0.20942742031E+02  0.52132038853E+02  0.64741838823E+02  0.85719622100E+02  0.00000000000E+00 0. -1.
</event>
<event>
 7    1  0.8061721E-006  0.1188608E+03  0.7561462E-02  0.1244988E+00
          1   -1    0    0  501    0  0.00000000000E+00  0.00000000000E+00  0.68149089159E+03  0.68149089159E+03  0.00000000000E+00 0. -1.
         -1   -1    0    0    0  501 -0.00000000000E+00 -0.00000000000E+00 -0.17283699864E+03  0.17283699864E+03  0.00000000000E+00 0.  1.
         23    2    1    2    0    0 -0.11118022687E+02  0.55802316402E+02 -0.14727941790E+03  0.18215308558E+03  0.90835074201E+02 0.  0.
          5    1    1    2  502    0 -0.61143147139E+02 -0.38724004662E+02  0.32114431522E+03  0.32922511535E+03  0.41800000000E+01 0. -1.
         -5    1    1    2    0  502  0.72261169825E+02 -0.17078311739E+02  0.33478899563E+03  0.34294968930E+03  0.41800000000E+01 0.  1.
        -11    1    3    3    0    0 -0.41143830469E+02  0.26737316355E+02 -0.29672639356E+02  0.57342518238E+02  0.00000000000E+00 0. -1.
         11    1    3    3    0    0  0.30025807783E+02  0.29065000046E+02 -0.11760677854E+03  0.12481056734E+03  0.00000000000E+00 0.  1.
</event>
<event>
 8    1  0.8061721E-006  0.1078489E+03  0.7561462E-02  0.1264606E+00
          1   -1    0    0  501    0  0.00000000000E+00  0.00000000000E+00  0.71648326728E+03  0.71648326728E+03  0.00000000000E+00 0. -1.
         -1   -1    0    0    0  501 -0.00000000000E+00 -0.00000000000E+00 -0.25432175601E+02  0.25432175601E+02  0.00000000000E+00 0.  1.
         23    2    1    2    0    0 -0.13367301227E+02 -0.35226992793E+02  0.11880288781E+03  0.15494331704E+03  0.92052591379E+02 0.  0.
         23    2    1    2    0    0  0.13367301227E+02  0.35226992793E+02  0.57224820387E+03  0.58697212585E+03  0.12509453994E+03 0.  0.
          5    1    4    4  502    0  0.13659551128E+02 -0.44442234334E+02  0.14467770658E+03  0.15202238884E+03  0.41800000000E+01 0.  1.
         -5    1    4    4    0  502 -0.29224990115E+00  0.79669227127E+02  0.42757049730E+03  0.43494973700E+03  0.41800000000E+01 0.  1.
        -11    1    3    3    0    0  0.11634601957E+02 -0.55712476132E+02  0.39421635798E+02  0.69233729702E+02  0.00000000000E+00 0.  1.
         11    1    3    3    0    0 -0.25001903184E+02  0.20485483338E+02  0.79381252012E+02  0.85709587337E+02  0.00000000000E+00 0. -1.
</event>
<event>
 8    1  0.8061721E-006  0.8280618E+02  0.7561462E-02  0.1321271E+00
         -2   -1    0    0    0  501 -0.00000000000E+00  0.00000000000E+00  0.30766721037E+02  0.30766721037E+02  0.00000000000E+00 0.  1.
          2   -1    0    0  501    0  0.00000000000E+00 -0.00000000000E+00 -0.51631417011E+03  0.51631417011E+03  0.00000000000E+00 0. -1.
         23    2    1    2    0    0 -0.28015833480E+02 -0.50805142695E+00 -0.93547833676E+02  0.13463909365E+03  0.92689499475E+02 0.  0.
         23    2    1    2    0    0  0.28015833480E+02  0.50805142695E+00 -0.39199961539E+03  0.41244179749E+03  0.12513749560E+03 0.  0.
          5    1    4    4  502    0  0.40967084079E+02 -0.28434572742E+02 -0.56720403085E+02  0.75640620245E+02  0.41800000000E+01 0. -1.
         -5    1    4    4    0  502 -0.12951250600E+02  0.28942624169E+02 -0.33527921231E+03  0.33680117724E+03  0.41800000000E+01 0. -1.
        -11    1    3    3    0    0 -0.40310257821E+02 -0.30907380714E+02 -0.20888042638E+02  0.54922612770E+02  0.00000000000E+00 0.  1.
         11    1    3    3    0    0  0.12294424341E+02  0.30399329287E+02 -0.72659791038E+02  0.79716480885E+02  0.00000000000E+00 0. -1.
</event>
<event>
 7    1  0.8061721E-006  0.1533609E+03  0.7561462E-02  0.1196403E+00
          1   -1    0    0  501    0  0.00000000000E+00  0.00000000000E+00  0.76886596572E+03  0.76886596572E+03  0.00000000000E+00 0. -1.
         -1   -1    0    0    0  501 -0.00000000000E+00 -0.00000000000E+00 -0.14425802135E+03  0.14425802135E+03  0.00000000000E+00 0.  1.
         23    2    1    2    0    0 -0.88723809353E+01 -0.12563231871E+03 -0.83601902169E+02  0.17620553976E+03  0.90536818744E+02 0.  0.
          5    1    1    2  502    0  0.47934927155E+02  0.29878560562E+02  0.51164250765E+03  0.51476792214E+03  0.41800000000E+01 0. -1.
         -5    1    1    2    0  502 -0.39062546220E+02  0.95753758149E+02  0.19656733889E+03  0.22215052518E+03  0.41800000000E+01 0.  1.
        -11    1    3    3    0    0  0.18535585430E+02 -0.11609212512E+03 -0.88004255159E+02  0.14685264168E+03  0.00000000000E+00 0.  1.
         11    1    3    3    0    0 -0.27407966365E+02 -0.95401935929E+01  0.44023529901E+01  0.29352898084E+02  0.00000000000E+00 0. -1.
</event>
<event>
 8    1  0.8061721E-006  0.1393808E+03  0.7561462E-02  0.1214165E+00
          1   -1    0    0  501    0  0.00000000000E+00  0.00000000000E+00  0.24224688381E+04  0.24224688381E+04  0.00000000000E+00 0. -1.
         -1   -1    0    0    0  501 -0.00000000000E+00 -0.00000000000E+00 -0.13631244889E+02  0.13631244889E+02  0.00000000000E+00 0.  1.
         23    2    1    2    0    0 -0.10455137539E+03  0.17586223254E+02  0.44394198979E+03  0.46437606919E+03  0.85559207554E+02 0.  0.
         23    2    1    2    0    0  0.10455137539E+03 -0.17586223254E+02  0.19648956034E+04  0.19717240138E+04  0.12506234000E+03 0.  0.
          5    1    4    4  502    0  0.73268534309E+02 -0.61903795849E+02  0.15905818122E+04  0.15934768061E+04  0.41800000000E+01 0. -1.
         -5    1    4    4    0  502  0.31282841083E+02  0.44317572596E+02  0.37431379124E+03  0.37824720766E+03  0.41800000000E+01 0.  1.
        -11    1    3    3    0    0 -0.92059511783E+02 -0.15157723680E+02  0.24098153468E+03  0.25841209406E+03  0.00000000000E+00 0.  1.
         11    1    3    3    0    0 -0.12491863609E+02  0.32743946934E+02  0.20296045510E+03  0.20596397514E+03  0.00000000000E+00 0. -1.
</event>
<event>
 8    1  0.8061721E-006  0.9793836E+02  0.7561462E-02  0.1284692E+00
         -1   -1    0    0    0  501 -0.00000000000E+00  0.00000000000E+00  0.48538615651E+02  0.48538615651E+02  0.00000000000E+00 0.  1.
          1   -1    0    0  501    0  0.00000000000E+00 -0.00000000000E+00 -0.29756257592E+03  0.29756257592E+03  0.00000000000E+00 0. -1.
         23    2    1    2    0    0 -0.13244840701E+02  0.18361879495E+02 -0.11529014174E+03  0.16159683732E+03  0.11094654850E+03 0.  0.
         23    2    1    2    0    0  0.13244840701E+02 -0.18361879495E+02 -0.13373381853E+03  0.18450435426E+03  0.12507812798E+03 0.  0.
          5    1    4    4  502    0 -0.30488989566E+02 -0.58404009577E+02 -0.85083314914E+02  0.10769052742E+03  0.41800000000E+01 0. -1.
         -5    1    4    4    0  502  0.43733830267E+02  0.40042130083E+02 -0.48650503613E+02  0.76813826836E+02  0.41800000000E+01 0. -1.
        -11    1    3    3    0    0  0.20899889840E+02  0.27998886542E+02  0.57990340482E+01  0.35417112231E+02  0.00000000000E+00 0.  1.
         11    1    3    3    0    0 -0.34144730541E+02 -0.96370070474E+01 -0.12108917579E+03  0.12617972508E+03  0.00000000000E+00 0. -1.
</event>
<event>
 8    1  0.8061721E-006  0.1337416E+03  0.7561462E-02  0.1222007E+00
         -1   -1    0    0    0  501 -0.00000000000E+00  0.00000000000E+00  0.10748807829E+03  0.10748807829E+03  0.00000000000E+00 0.  1.
          1   -1    0    0  501    0  0.00000000000E+00 -0.00000000000E+00 -0.24204226597E+03  0.24204226597E+03  0.00000000000E+00 0. -1.
         23    2    1    2    0    0  0.13346191142E+02  0.99007643121E+02  0.87719209427E+01  0.13465301094E+03  0.89854618929E+02 0.  0.
         23    2    1    2    0    0 -0.13346191142E+02 -0.99007643121E+02 -0.14332610862E+03  0.21487733332E+03  0.12509700536E+03 0.  0.
          5    1    4    4  502    0 -0.61250328830E+02 -0.17178504189E+02 -0.71895388557E+02  0.96089141342E+02  0.41800000000E+01 0. -1.
         -5    1    4    4    0  502  0.47904137687E+02 -0.81829138932E+02 -0.71430720062E+02  0.11878819198E+03  0.41800000000E+01 0. -1.
        -11    1    3    3    0    0 -0.14094728732E+02  0.56447787582E+02  0.44017119333E+02  0.72955609073E+02  0.00000000000E+00 0.  1.
         11    1    3    3    0    0  0.27440919875E+02  0.42559855539E+02 -0.35245198390E+02  0.61697401863E+02  0.00000000000E+00 0. -1.
</event>
<event>
 8    1  0.8061721E-006  0.1057316E+03  0.7561462E-02  0.1268685E+00
         -1   -1    0    0    0  501 -0.00000000000E+00  0.00000000000E+00  0.21353120859E+02  0.21353120859E+02  0.00000000000E+00 0.  1.
          1   -1    0    0  501    0  0.00000000000E+00 -0.00000000000E+00 -0.52645927088E+03  0.52645927088E+03  0.00000000000E+00 0. -1.
         23    2    1    2    0    0  0.31816367908E+01  0.87473739890E+01 -0.19998353781E+03  0.21791311551E+03  0.86058533304E+02 0.  0.
         23    2    1    2    0    0 -0.31816367908E+01 -0.87473739890E+01 -0.30512261221E+03  0.32989927623E+03  0.12508830723E+03 0.  0.
          5    1    4    4  502    0 -0.63443805797E+02 -0.12853039619E+02 -0.16078453224E+03  0.17337662855E+03  0.41800000000E+01 0. -1.
         -5    1    4    4    0  502  0.60262169006E+02  0.41056656297E+01 -0.14433807998E+03  0.15652264767E+03  0.41800000000E+01 0. -1.
        -11    1    3    3    0    0 -0.99690704761E+01 -0.37067387887E+02 -0.77580284281E+02  0.86556768194E+02  0.00000000000E+00 0.  1.
         11    1    3    3    0    0  0.13150707267E+02  0.45814761876E+02 -0.12240325353E+03  0.13135634732E+03  0.00000000000E+00 0. -1.
</event>
<event>
 8    1  0.8061721E-006  0.1923789E+03  0.7561462E-02  0.1156333E+00
         -2   -1    0    0    0  501 -0.00000000000E+00  0.00000000000E+00  0.10317442060E+04  0.10317442060E+04  0.00000000000E+00 0.  1.
          2   -1    0    0  501    0  0.00000000000E+00 -0.00000000000E+00 -0.45383922410E+02  0.45383922410E+02  0.00000000000E+00 0. -1.
         23    2    1    2    0    0  0.73117402110E+02 -0.17180546626E+03  0.50015396875E+03  0.54149126597E+03  0.90529144149E+02 0.  0.
         23    2    1    2    0    0 -0.73117402110E+02  0.17180546626E+03  0.48620631486E+03  0.53563686246E+03  0.12508794941E+03 0.  0.
          5    1    4    4  502    0 -0.10937645190E+02  0.18095599338E+02 -0.38146907113E+00  0.21556918063E+02  0.41800000000E+01 0. -1.
         -5    1    4    4    0  502 -0.62179756919E+02  0.15370986692E+03  0.48658778394E+03  0.51407994440E+03  0.41800000000E+01 0. -1.
        -11    1    3    3    0    0  0.23923685057E+02 -0.63851567945E+01  0.13940099452E+03  0.14158301525E+03  0.00000000000E+00 0.  1.
         11    1    3    3    0    0  0.49193717052E+02 -0.16542030946E+03  0.36075297423E+03  0.39990825072E+03  0.00000000000E+00 0. -1.
</event>
<event>
 8    1  0.8061721E-006  0.9378818E+02  0.7561462E-02  0.1293929E+00
          2   -1    0    0  501    0  0.00000000000E+00  0.00000000000E+00  0.62915845191E+03  0.62915845191E+03  0.00000000000E+00 0.  1.
         -2   -1    0    0    0  501 -0.00000000000E+00 -0.00000000000E+00 -0.26371045067E+02  0.26371045067E+02  0.00000000000E+00 0. -1.
         23    2    1    2    0    0 -0.32353053067E+00  0.62926495545E+02  0.19652943902E+03  0.22581715794E+03  0.91704524997E+02 0.  0.
         23    2    1    2    0    0  0.32353053067E+00 -0.62926495545E+02  0.40625796782E+03  0.42971233904E+03  0.12508920572E+03 0.  0.
          5    1    4    4  502    0 -0.33806799652E+02 -0.39838479442E+02  0.54836218479E+02  0.75858337736E+02  0.41800000000E+01 0. -1.
         -5    1    4    4    0  502  0.34130330182E+02 -0.23088016104E+02  0.35142174934E+03  0.35385400130E+03  0.41800000000E+01 0. -1.
        -11    1    3    3    0    0 -0.32101555137E+02  0.50038417417E+02  0.17618371057E+03  0.18594368215E+03  0.00000000000E+00 0.  1.
         11    1    3    3    0    0  0.31778024606E+02  0.12888078128E+02  0.20345728450E+02  0.39873475794E+02  0.00000000000E+00 0. -1.
</event>
<event>
 8    1  0.8061721E-006  0.9378385E+02  0.7561462E-02  0.1293939E+00
         -2   -1    0    0    0  501 -0.00000000000E+00  0.00000000000E+00  0.10550353962E+03  0.10550353962E+03  0.00000000000E+00 0.  1.
          2   -1    0    0  501    0  0.00000000000E+00 -0.00000000000E+00 -0.11615273752E+03  0.11615273752E+03  0.00000000000E+00 0. -1.
         23    2    1    2    0    0  0.38620330665E+01  0.94641371300E+01  0.20839371958E+02  0.92282756642E+02  0.89315970346E+02 0.  0.
         23    2    1    2    0    0 -0.38620330665E+01 -0.94641371300E+01 -0.31488569854E+02  0.12937352050E+03  0.12506595294E+03 0.  0.
          5    1    4    4  502    0 -0.27522449579E+02 -0.61626819177E+02 -0.22352150158E+02  0.71221071948E+02  0.41800000000E+01 0. -1.
         -5    1    4    4    0  502  0.23660416513E+02  0.52162682047E+02 -0.91364196961E+01  0.58152448553E+02  0.41800000000E+01 0. -1.
        -11    1    3    3    0    0 -0.24597354833E+02 -0.11514370470E+02 -0.23261565685E+02  0.35759069202E+02  0.00000000000E+00 0. -1.
         11    1    3    3    0    0  0.28459387900E+02  0.20978507600E+02  0.44100937643E+02  0.56523687439E+02  0.00000000000E+00 0.  1.
</event>
<event>
 8    1  0.8061721E-006  0.1197792E+03  0.7561462E-02  0.1243462E+00
         -1   -1    0    0    0  501 -0.00000000000E+00  0.00000000000E+00  0.59232657773E+02  0.59232657773E+02  0.00000000000E+00 0.  1.
          1   -1    0    0  501    0  0.00000000000E+00 -0.00000000000E+00 -0.26926393922E+03  0.26926393922E+03  0.00000000000E+00 0. -1.
         23    2    1    2    0    0  0.50212182431E+02 -0.48815970926E+02 -0.60227453345E+02  0.12114418594E+03  0.78385619654E+02 0.  0.
         23    2    1    2    0    0 -0.50212182431E+02  0.48815970926E+02 -0.14980382811E+03  0.20735241106E+03  0.12509825408E+03 0.  0.
          5    1    4    4  502    0 -0.43946965166E+02 -0.31801978631E+02 -0.95334238916E+02  0.10976698548E+03  0.41800000000E+01 0.  1.
         -5    1    4    4    0  502 -0.62652172649E+01  0.80617949557E+02 -0.54469589191E+02  0.97585425576E+02  0.41800000000E+01 0.  1.
        -11    1    3    3    0    0  0.56435108686E+01 -0.58335654979E+02 -0.41793097888E+02  0.71983059728E+02  0.00000000000E+00 0.  1.
         11    1    3    3    0    0  0.44568671562E+02  0.95196840522E+01 -0.18434355457E+02  0.49161126212E+02  0.00000000000E+00 0. -1.
</event>
<event>
 8    1  0.8061721E-006  0.8503652E+02  0.7561462E-02  0.1315337E+00
          3   -1    0    0  501    0  0.00000000000E+00  0.00000000000E+00  0.33513074624E+03  0.33513074624E+03  0.00000000000E+00 0. -1.
         -3   -1    0    0    0  501 -0.00000000000E+00 -0.00000000000E+00 -0.64745793879E+02  0.64745793879E+02  0.00000000000E+00 0.  1.
         23    2    1    2    0    0  0.46457463946E+02  0.11309052817E+02  0.20001877974E+01  0.99885879168E+02  0.87675523802E+02 0.  0.
         23    2    1    2    0    0 -0.46457463946E+02 -0.11309052817E+02  0.26838476456E+03  0.29999066095E+03  0.12521111842E+03 0.  0.
          5    1    4    4  502    0 -0.34944615320E+02  0.17606674740E+02  0.26556129511E+03  0.26846116106E+03  0.41800000000E+01 0. -1.
         -5    1    4    4    0  502 -0.11512848626E+02 -0.28915727557E+02  0.28234694507E+01  0.31529499891E+02  0.41800000000E+01 0. -1.
        -11    1    3    3    0    0  0.20001439429E+02  0.49197004991E+02  0.62802163461E+01  0.53477509260E+02  0.00000000000E+00 0.  1.
         11    1    3    3    0    0  0.26456024517E+02 -0.37887952174E+02 -0.42800285486E+01  0.46408369908E+02  0.00000000000E+00 0. -1.
</event>
<event>
 8    1  0.8061721E-006  0.1130886E+03  0.7561462E-02  0.1254955E+00
         -2   -1    0    0    0  501 -0.00000000000E+00  0.00000000000E+00  0.27807779931E+02  0.27807779931E+02  0.00000000000E+00 0.  1.
          2   -1    0    0  501    0  0.00000000000E+00 -0.00000000000E+00 -0.59502809858E+03  0.59502809858E+03  0.00000000000E+00 0. -1.
         23    2    1    2    0    0  0.45041325668E+02 -0.47604350855E+02 -0.25699247881E+03  0.28197915670E+03  0.95771683766E+02 0.  0.
         23    2    1    2    0    0 -0.45041325668E+02  0.47604350855E+02 -0.31022783984E+03  0.34085672181E+03  0.12508835658E+03 0.  0.
          5    1    4    4  502    0  0.65856795422E+01  0.66431715647E+02 -0.80756011128E+02  0.10485966695E+03  0.41800000000E+01 0.  1.
         -5    1    4    4    0  502 -0.51627005210E+02 -0.18827364792E+02 -0.22947182871E+03  0.23599705486E+03  0.41800000000E+01 0.  1.
        -11    1    3    3    0    0  0.32078438582E+02  0.18353602414E+02 -0.38447209550E+02  0.53329812165E+02  0.00000000000E+00 0.  1.
         11    1    3    3    0    0  0.12962887086E+02 -0.65957953269E+02 -0.21854526926E+03  0.22864934454E+03  0.00000000000E+00 0. -1.
</event>
<event>
 8    1  0.8061721E-006  0.1614476E+03  0.7561462E-02  0.1187072E+00
         -2   -1    0    0    0  501 -0.00000000000E+00  0.00000000000E+00  0.27810461222E+02  0.27810461222E+02  0.00000000000E+00 0.  1.
          2   -1    0    0  501    0  0.00000000000E+00 -0.00000000000E+00 -0.13237393576E+04  0.13237393576E+04  0.00000000000E+00 0. -1.
         23    2    1    2    0    0 -0.86361138253E+02  0.13443843438E+03 -0.53568994776E+03  0.56469384347E+03  0.79896670049E+02 0.  0.
         23    2    1    2    0    0  0.86361138253E+02 -0.13443843438E+03 -0.76023894864E+03  0.78685597538E+03  0.12508848113E+03 0.  0.
          5    1    4    4  502    0  0.58001630139E+02 -0.67800334398E+02 -0.16872233767E+03  0.19090776326E+03  0.41800000000E+01 0. -1.
         -5    1    4    4    0  502  0.28359508115E+02 -0.66638099981E+02 -0.59151661097E+03  0.59594821212E+03  0.41800000000E+01 0. -1.
        -11    1    3    3    0    0 -0.21229794287E+02  0.50541495986E+02 -0.31548999060E+03  0.32021724056E+03  0.00000000000E+00 0. -1.
         11    1    3    3    0    0 -0.65131343966E+02  0.83896938394E+02 -0.22019995716E+03  0.24447660291E+03  0.00000000000E+00 0.  1.
</event>
<event>
 8    1  0.8160282E-006  0.1223980E+03  0.7561462E-02  0.1239193E+00
         -1   -1    0    0    0  501 -0.00000000000E+00  0.00000000000E+00  0.17385252380E+03  0.17385252380E+03  0.00000000000E+00 0.  1.
          1   -1    0    0  501    0  0.00000000000E+00 -0.00000000000E+00 -0.10314437354E+03  0.10314437354E+03  0.00000000000E+00 0. -1.
         23    2    1    2    0    0  0.52688260849E+02 -0.53061871273E+02  0.48594540399E+02  0.12959094673E+03  0.94025364150E+02 0.  0.
         23    2    1    2    0    0 -0.52688260849E+02  0.53061871273E+02  0.22113609863E+02  0.14740595061E+03  0.12509151658E+03 0.  0.
          5    1    4    4  502    0  0.23073638719E+02 -0.24555235354E+02 -0.77548918247E+01  0.34827620278E+02  0.41800000000E+01 0.  1.
         -5    1    4    4    0  502 -0.75761899568E+02  0.77617106627E+02  0.29868501687E+02  0.11257833033E+03  0.41800000000E+01 0.  1.
        -11    1    3    3    0    0  0.26153640989E+02 -0.67287562536E+02  0.63364604869E+02  0.96055724240E+02  0.00000000000E+00 0.  1.
         11    1    3    3    0    0  0.26534619860E+02  0.14225691263E+02 -0.14770064470E+02  0.33535222490E+02  0.00000000000E+00 0. -1.
</event>
<event>
 8    1  0.8061721E-006  0.1186350E+03  0.7561462E-02  0.1245366E+00
          2   -1    0    0  501    0  0.00000000000E+00  0.00000000000E+00  0.48104622660E+03  0.48104622660E+03  0.00000000000E+00 0.  1.
         -2   -1    0    0    0  501 -0.00000000000E+00 -0.00000000000E+00 -0.34721221996E+02  0.34721221996E+02  0.00000000000E+00 0. -1.
         23    2    1    2    0    0 -0.60547068064E+00  0.55030164989E+02  0.11460717647E+03  0.15700192751E+03  0.92120110124E+02 0.  0.
         23    2    1    2    0    0  0.60547068064E+00 -0.55030164989E+02  0.33171782813E+03  0.35876552109E+03  0.12508915207E+03 0.  0.
          5    1    4    4  502    0  0.39373988641E+02  0.24939260454E+02  0.13451291531E+03  0.14242006347E+03  0.41800000000E+01 0.  1.
         -5    1    4    4    0  502 -0.38768517960E+02 -0.79969425442E+02  0.19720491282E+03  0.21634545762E+03  0.41800000000E+01 0.  1.
        -11    1    3    3    0    0  0.40150332986E+02  0.43398328730E+02  0.90909558233E+02  0.10844358881E+03  0.00000000000E+00 0.  1.
         11    1    3    3    0    0 -0.40755803666E+02  0.11631836259E+02  0.23697618241E+02  0.48558338702E+02  0.00000000000E+00 0. -1.
</event>
<event>
 8    1  0.8061721E-006  0.1401030E+03  0.7561462E-02  0.1213190E+00
          1   -1    0    0  501    0  0.00000000000E+00  0.00000000000E+00  0.25043184605E+02  0.25043184605E+02  0.00000000000E+00 0. -1.
         -1   -1    0    0    0  501 -0.00000000000E+00 -0.00000000000E+00 -0.94292575911E+03  0.94292575911E+03  0.00000000000E+00 0.  1.
         23    2    1    2    0    0 -0.81675107817E+02 -0.36497632714E+02 -0.61893862449E+03  0.63177986249E+03  0.89765657866E+02 0.  0.
         23    2    1    2    0    0  0.81675107817E+02  0.36497632714E+02 -0.29894395002E+03  0.33618908123E+03  0.12511080151E+03 0.  0.
          5    1    4    4  502    0  0.11432835864E+03  0.38099942251E+02 -0.22640650092E+03  0.25651501953E+03  0.41800000000E+01 0.  1.
         -5    1    4    4    0  502 -0.32653250820E+02 -0.16023095371E+01 -0.72537449098E+02  0.79674061692E+02  0.41800000000E+01 0.  1.
        -11    1    3    3    0    0 -0.59546737680E+02  0.22498662594E+02 -0.32123952218E+03  0.32748562471E+03  0.00000000000E+00 0. -1.
         11    1    3    3    0    0 -0.22128370137E+02 -0.58996295308E+02 -0.29769910231E+03  0.30429423778E+03  0.00000000000E+00 0.  1.
</event>
<event>
 8    1  0.8061721E-006  0.2181091E+03  0.7561462E-02  0.1135301E+00
         -2   -1    0    0    0  501 -0.00000000000E+00  0.00000000000E+00  0.18495257374E+03  0.18495257374E+03  0.00000000000E+00 0.  1.
          2   -1    0    0  501    0  0.00000000000E+00 -0.00000000000E+00 -0.33312705864E+03  0.33312705864E+03  0.00000000000E+00 0. -1.
         23    2    1    2    0    0  0.20220599432E+01 -0.19377299419E+03  0.42907487018E+02  0.21855735070E+03  0.91510661133E+02 0.  0.
         23    2    1    2    0    0 -0.20220599432E+01  0.19377299419E+03 -0.19108197191E+03  0.29952228168E+03  0.12509682342E+03 0.  0.
          5    1    4    4  502    0 -0.54509065614E+02  0.62985269007E+02 -0.38769018989E+02  0.91972232654E+02  0.41800000000E+01 0. -1.
         -5    1    4    4    0  502  0.52487005671E+02  0.13078772518E+03 -0.15231295293E+03  0.20755004903E+03  0.41800000000E+01 0. -1.
        -11    1    3    3    0    0 -0.33237778685E+02 -0.15852261647E+03  0.18430579807E+02  0.16301489545E+03  0.00000000000E+00 0.  1.
         11    1    3    3    0    0  0.35259838629E+02 -0.35250377712E+02  0.24476907211E+02  0.55542455253E+02  0.00000000000E+00 0. -1.
</event>
<event>
 8    1  0.8061721E-006  0.1322552E+03  0.7561462E-02  0.1224147E+00
         -2   -1    0    0    0  501 -0.00000000000E+00  0.00000000000E+00  0.40405591695E+03  0.40405591695E+03  0.00000000000E+00 0. -1.
          2   -1    0    0  501    0  0.00000000000E+00 -0.00000000000E+00 -0.69938628124E+02  0.69938628124E+02  0.00000000000E+00 0.  1.
         23    2    1    2    0    0 -0.48474875898E+02  0.81115258438E+02  0.28507801710E+03  0.30973699553E+03  0.75749797518E+02 0.  0.
         23    2    1    2    0    0  0.48474875898E+02 -0.81115258438E+02  0.49039271724E+02  0.16425754954E+03  0.12508474593E+03 0.  0.
          5    1    4    4  502    0 -0.35512781440E+02 -0.44847457512E+02 -0.55777345632E+01  0.57628427132E+02  0.41800000000E+01 0.  1.
         -5    1    4    4    0  502  0.83987657338E+02 -0.36267800926E+02  0.54617006287E+02  0.10662912240E+03  0.41800000000E+01 0.  1.
        -11    1    3    3    0    0 -0.35698208630E+02  0.92066746130E+02  0.20044999998E+03  0.22345212090E+03  0.00000000000E+00 0.  1.
         11    1    3    3    0    0 -0.12776667268E+02 -0.10951487692E+02  0.84628017115E+02  0.86284874630E+02  0.00000000000E+00 0. -1.
</event>
<event>
 8    1  0.8061721E-006  0.1743358E+03  0.7561462E-02  0.1173400E+00
          1   -1    0    0  501    0  0.00000000000E+00  0.00000000000E+00  0.39455786978E+03  0.39455786978E+03  0.00000000000E+00 0. -1.
         -1   -1    0    0    0  501 -0.00000000000E+00 -0.00000000000E+00 -0.91252957729E+02  0.91252957729E+02  0.00000000000E+00 0.  1.
         23    2    1    2    0    0 -0.96514369517E+02 -0.10253185510E+03  0.60590655995E+02  0.17857618109E+03  0.91599235942E+02 0.  0.
         23    2    1    2    0    0  0.96514369517E+02  0.10253185510E+03  0.24271425606E+03  0.30723464643E+03  0.12512039417E+03 0.  0.
          5    1    4    4  502    0  0.32907222827E+01 -0.27560145497E+02  0.31337467476E+02  0.42070176381E+02  0.41800000000E+01 0.  1.
         -5    1    4    4    0  502  0.93223647234E+02  0.13009200059E+03  0.21137678858E+03  0.26516447004E+03  0.41800000000E+01 0.  1.
        -11    1    3    3    0    0 -0.70649603047E+02 -0.11244958243E+03  0.27852336463E+02  0.13569092691E+03  0.00000000000E+00 0.  1.
         11    1    3    3    0    0 -0.25864766470E+02  0.99177273347E+01  0.32738319532E+02  0.42885254177E+02  0.00000000000E+00 0. -1.
</event>
<event>
 8    1  0.8061721E-006  0.1173754E+03  0.7561462E-02  0.1247491E+00
         -1   -1    0    0    0  501 -0.00000000000E+00  0.00000000000E+00  0.55957786606E+02  0.55957786606E+02  0.00000000000E+00 0.  1.
          1   -1    0    0  501    0  0.00000000000E+00 -0.00000000000E+00 -0.41738367807E+03  0.41738367807E+03  0.00000000000E+00 0. -1.
         23    2    1    2    0    0 -0.36118198791E+02  0.62390021906E+02 -0.29904999584E+02  0.11174731616E+03  0.79975712264E+02 0.  0.
         23    2    1    2    0    0  0.36118198791E+02 -0.62390021906E+02 -0.33152089188E+03  0.36159414852E+03  0.12508871799E+03 0.  0.
          5    1    4    4  502    0 -0.25527475420E+02  0.14662745813E+02 -0.22829472572E+02  0.37487402338E+02  0.41800000000E+01 0. -1.
         -5    1    4    4    0  502  0.61645674211E+02 -0.77052767719E+02 -0.30869141931E+03  0.32410674618E+03  0.41800000000E+01 0. -1.
        -11    1    3    3    0    0 -0.59266846712E+02  0.57529903276E+02 -0.15457939531E+02  0.84030927548E+02  0.00000000000E+00 0.  1.
         11    1    3    3    0    0  0.23148647921E+02  0.48601186304E+01 -0.14447060053E+02  0.27716388615E+02  0.00000000000E+00 0. -1.
</event>
<event>
 8    1  0.8061721E-006  0.1258406E+03  0.7561462E-02  0.1233761E+00
         -1   -1    0    0    0  501 -0.00000000000E+00  0.00000000000E+00  0.27216380834E+03  0.27216380834E+03  0.00000000000E+00 0.  1.
          1   -1    0    0  501    0  0.00000000000E+00 -0.00000000000E+00 -0.11233007669E+03  0.11233007669E+03  0.00000000000E+00 0. -1.
         23    2    1    2    0    0  0.57526773555E+02 -0.48014755926E+02  0.20093938399E+03  0.23299709283E+03  0.91083822741E+02 0.  0.
         23    2    1    2    0    0 -0.57526773555E+02  0.48014755926E+02 -0.41105652343E+02  0.15149679220E+03  0.12508739717E+03 0.  0.
          5    1    4    4  502    0  0.28452111395E+02  0.50127933469E+02 -0.28621005196E+02  0.64490051133E+02  0.41800000000E+01 0.  1.
         -5    1    4    4    0  502 -0.85978884950E+02 -0.21131775433E+01 -0.12484647147E+02  0.87006741066E+02  0.41800000000E+01 0.  1.
        -11    1    3    3    0    0  0.22061975918E+02 -0.64868854696E+02  0.16906774723E+03  0.18242423700E+03  0.00000000000E+00 0.  1.
         11    1    3    3    0    0  0.35464797636E+02  0.16854098770E+02  0.31871636755E+02  0.50572855824E+02  0.00000000000E+00 0. -1.
</event>
<event>
 8    1  0.8061721E-006  0.5362472E+02  0.7561462E-02  0.1426717E+00
          1   -1    0    0  501    0  0.00000000000E+00  0.00000000000E+00  0.12464370810E+03  0.12464370810E+03  0.00000000000E+00 0.  1.
         -1   -1    0    0    0  501 -0.00000000000E+00 -0.00000000000E+00 -0.12759667962E+03  0.12759667962E+03  0.00000000000E+00 0. -1.
         23    2    1    2    0    0 -0.16721017012E+02 -0.25486252337E+02 -0.58479910312E+02  0.11202652128E+03  0.90558821169E+02 0.  0.
         23    2    1    2    0    0  0.16721017012E+02  0.25486252337E+02  0.55526938792E+02  0.14021386645E+03  0.12509015127E+03 0.  0.
          5    1    4    4  502    0 -0.22345066220E+02  0.50145764334E+00 -0.33066809244E+02  0.40130284296E+02  0.41800000000E+01 0.  1.
         -5    1    4    4    0  502  0.39066083231E+02  0.24984794694E+02  0.88593748035E+02  0.10008358215E+03  0.41800000000E+01 0.  1.
        -11    1    3    3    0    0  0.10032128916E+01 -0.19077025692E+02 -0.80676580249E+02  0.82907478228E+02  0.00000000000E+00 0. -1.
         11    1    3    3    0    0 -0.17724229903E+02 -0.64092266447E+01  0.22196669938E+02  0.29119043050E+02  0.00000000000E+00 0.  1.
</event>
<event>
 8    1  0.8061721E-006  0.1311702E+03  0.7561462E-02  0.1225730E+00
          1   -1    0    0  501    0  0.00000000000E+00  0.00000000000E+00  0.36885912057E+03  0.36885912057E+03  0.00000000000E+00 0. -1.
         -1   -1    0    0    0  501 -0.00000000000E+00 -0.00000000000E+00 -0.53061866654E+02  0.53061866654E+02  0.00000000000E+00 0.  1.
         23    2    1    2    0    0  0.76127511550E+02  0.47622066658E+02  0.15725448260E+03  0.20251091554E+03  0.90655608583E+02 0.  0.
         23    2    1    2    0    0 -0.76127511550E+02 -0.47622066658E+02  0.15854277132E+03  0.21941007168E+03  0.12223628746E+03 0.  0.
          5    1    4    4  502    0  0.32036090013E+02 -0.17381970020E+01  0.49003117078E+02  0.58720612016E+02  0.41800000000E+01 0. -1.
         -5    1    4    4    0  502 -0.10816360156E+03 -0.45883869656E+02  0.10953965424E+03  0.16068945967E+03  0.41800000000E+01 0.  1.
        -11    1    3    3    0    0  0.57960752689E+02  0.65131650939E+02  0.15413809272E+03  0.17708792289E+03  0.00000000000E+00 0.  1.
         11    1    3    3    0    0  0.18166758861E+02 -0.17509584281E+02  0.31163898749E+01  0.25422992646E+02  0.00000000000E+00 0. -1.
</event>
<event>
 8    1  0.8061721E-006  0.1069102E+03  0.7561462E-02  0.1266401E+00
         -1   -1    0    0    0  501 -0.00000000000E+00  0.00000000000E+00  0.53925568567E+02  0.53925568567E+02  0.00000000000E+00 0.  1.
          1   -1    0    0  501    0  0.00000000000E+00 -0.00000000000E+00 -0.33095537873E+03  0.33095537873E+03  0.00000000000E+00 0. -1.
         23    2    1    2    0    0  0.44888690033E+02 -0.54954803619E+02 -0.12328855485E+03  0.17436316902E+03  0.10083363535E+03 0.  0.
         23    2    1    2    0    0 -0.44888690033E+02  0.54954803619E+02 -0.15374125531E+03  0.21051777828E+03  0.12508531670E+03 0.  0.
          5    1    4    4  502    0  0.21415816258E+02  0.51507063589E+02 -0.12708346974E+03  0.13884990265E+03  0.41800000000E+01 0. -1.
         -5    1    4    4    0  502 -0.66304506290E+02  0.34477400301E+01 -0.26657785575E+02  0.71667875631E+02  0.41800000000E+01 0. -1.
        -11    1    3    3    0    0  0.56548702012E+02 -0.30465555481E+02 -0.19557473560E+02  0.67144624074E+02  0.00000000000E+00 0.  1.
         11    1    3    3    0    0 -0.11660011979E+02 -0.24489248138E+02 -0.10373108129E+03  0.10721854494E+03  0.00000000000E+00 0. -1.
</event>
<event>
 8    1  0.8061721E-006  0.1079690E+03  0.7561462E-02  0.1264378E+00
          1   -1    0    0  501    0  0.00000000000E+00  0.00000000000E+00  0.47782453739E+02  0.47782453739E+02  0.00000000000E+00 0. -1.
         -1   -1    0    0    0  501 -0.00000000000E+00 -0.00000000000E+00 -0.45605016606E+03  0.45605016606E+03  0.00000000000E+00 0.  1.
         23    2    1    2    0    0  0.10898682816E+02 -0.43644161303E+02 -0.33894445359E+03  0.35391396540E+03  0.91368255860E+02 0.  0.
         23    2    1    2    0    0 -0.10898682816E+02  0.43644161303E+02 -0.69323258733E+02  0.14991865441E+03  0.12508514954E+03 0.  0.
          5    1    4    4  502    0  0.17008088652E+02 -0.32958831167E+02 -0.55858887131E+02  0.67180706331E+02  0.41800000000E+01 0. -1.
         -5    1    4    4    0  502 -0.27906771467E+02  0.76602992470E+02 -0.13464371601E+02  0.82737948075E+02  0.41800000000E+01 0. -1.
        -11    1    3    3    0    0 -0.26391933894E+02  0.12798036754E+02 -0.15880788968E+03  0.16149386906E+03  0.00000000000E+00 0.  1.
         11    1    3    3    0    0  0.37290616709E+02 -0.56442198057E+02 -0.18013656391E+03  0.19242009634E+03  0.00000000000E+00 0. -1.
</event>
<event>
 8    1  0.8061721E-006  0.1253123E+03  0.7561462E-02  0.1234582E+00
          2   -1    0    0  501    0  0.00000000000E+00  0.00000000000E+00  0.16620331975E+03  0.16620331975E+03  0.00000000000E+00 0. -1.
         -2   -1    0    0    0  501 -0.00000000000E+00 -0.00000000000E+00 -0.98294852408E+02  0.98294852408E+02  0.00000000000E+00 0.  1.
         23    2    1    2    0    0  0.14297108039E+02  0.66820048131E+02  0.31503433900E+02  0.11738559466E+03  0.90097643450E+02 0.  0.
         23    2    1    2    0    0 -0.14297108039E+02 -0.66820048131E+02  0.36405033447E+02  0.14711257750E+03  0.12508979922E+03 0.  0.
          5    1    4    4  502    0 -0.69236354694E+02 -0.39201175905E+02  0.10919174590E+02  0.80418317424E+02  0.41800000000E+01 0. -1.
         -5    1    4    4    0  502  0.54939246655E+02 -0.27618872226E+02  0.25485858857E+02  0.66694260081E+02  0.41800000000E+01 0. -1.
        -11    1    3    3    0    0  0.14082559343E+02 -0.18915735791E+02  0.19922000868E+02  0.30870854487E+02  0.00000000000E+00 0. -1.
         11    1    3    3    0    0  0.21454869559E+00  0.85735783921E+02  0.11581433032E+02  0.86514740171E+02  0.00000000000E+00 0.  1.
</event>
<event>
 8    1  0.8061721E-006  0.1193501E+03  0.7561462E-02  0.1244173E+00
          1   -1    0    0  501    0  0.00000000000E+00  0.00000000000E+00  0.62807926264E+03  0.62807926264E+03  0.00000000000E+00 0. -1.
         -1   -1    0    0    0  501 -0.00000000000E+00 -0.00000000000E+00 -0.40929491810E+02  0.40929491810E+02  0.00000000000E+00 0.  1.
         23    2    1    2    0    0  0.52748539589E+02 -0.78592655524E+02  0.12604288139E+03  0.18194902899E+03  0.90881391226E+02 0.  0.
         23    2    1    2    0    0 -0.52748539589E+02  0.78592655524E+02  0.46110688943E+03  0.48705972545E+03  0.12509355996E+03 0.  0.
          5    1    4    4  502    0 -0.37326262531E+02  0.82794963815E+01  0.36443156518E+03  0.36645550622E+03  0.41800000000E+01 0.  1.
         -5    1    4    4    0  502 -0.15422277058E+02  0.70313159143E+02  0.96675324252E+02  0.12060421924E+03  0.41800000000E+01 0.  1.
        -11    1    3    3    0    0  0.40539552599E+01  0.18807154197E+02  0.35299237611E+02  0.40201738497E+02  0.00000000000E+00 0. -1.
         11    1    3    3    0    0  0.48694584329E+02 -0.97399809721E+02  0.90743643782E+02  0.14174729050E+03  0.00000000000E+00 0.  1.
</event>
<event>
 8    1  0.8061721E-006  0.1685368E+03  0.7561462E-02  0.1179382E+00
         -1   -1    0    0    0  501 -0.00000000000E+00  0.00000000000E+00  0.22422090751E+02  0.22422090751E+02  0.00000000000E+00 0.  1.
          1   -1    0    0  501    0  0.00000000000E+00 -0.00000000000E+00 -0.14339652360E+04  0.14339652360E+04  0.00000000000E+00 0. -1.
         23    2    1    2    0    0 -0.97946790367E+02 -0.90525087002E+02 -0.48716926718E+03  0.51411241199E+03  0.95860900044E+02 0.  0.
         23    2    1    2    0    0  0.97946790367E+02  0.90525087002E+02 -0.92437387808E+03  0.94227491478E+03  0.12500633349E+03 0.  0.
          5    1    4    4  502    0  0.10423016836E+03  0.11511679146E+03 -0.74130997832E+03  0.75741254283E+03  0.41800000000E+01 0.  1.
         -5    1    4    4    0  502 -0.62833779879E+01 -0.24591704454E+02 -0.18306389976E+03  0.18486237195E+03  0.41800000000E+01 0.  1.
        -11    1    3    3    0    0 -0.71788537495E+02 -0.10416001529E+03 -0.31531255506E+03  0.33974241755E+03  0.00000000000E+00 0.  1.
         11    1    3    3    0    0 -0.26158252872E+02  0.13634928283E+02 -0.17185671211E+03  0.17436999444E+03  0.00000000000E+00 0. -1.
</event>
<event>
 7    1  0.8061721E-006  0.1033911E+03  0.7561462E-02  0.1273322E+00
         -2   -1    0    0    0  501 -0.00000000000E+00  0.00000000000E+00  0.15209253390E+02  0.15209253390E+02  0.00000000000E+00 0.  1.
          2   -1    0    0  501    0  0.00000000000E+00 -0.00000000000E+00 -0.18195174629E+04  0.18195174629E+04  0.00000000000E+00 0. -1.
         23    2    1    2    0    0 -0.29245902891E+02  0.52106328529E+02 -0.35170417586E+03  0.36831336136E+03  0.91588823192E+02 0.  0.
          5    1    1    2  502    0  0.37206878015E+02 -0.69375687246E+02 -0.14421713563E+04  0.14443244204E+04  0.41800000000E+01 0. -1.
         -5    1    1    2    0  502 -0.79609751231E+01  0.17269358716E+02 -0.10432677322E+02  0.22088934594E+02  0.41800000000E+01 0.  1.
        -11    1    3    3    0    0  0.32044205911E+02  0.28216906041E+02 -0.11625760804E+03  0.12385013665E+03  0.00000000000E+00 0.  1.
         11    1    3    3    0    0 -0.61290108802E+02  0.23889422488E+02 -0.23544656781E+03  0.24446322472E+03  0.00000000000E+00 0. -1.
</event>
<event>
 8    1  0.8061721E-006  0.9960341E+02  0.7561462E-02  0.1281132E+00
          1   -1    0    0  501    0  0.00000000000E+00  0.00000000000E+00  0.37411349412E+03  0.37411349412E+03  0.00000000000E+00 0. -1.
         -1   -1    0    0    0  501 -0.00000000000E+00 -0.00000000000E+00 -0.41169006852E+02  0.41169006852E+02  0.00000000000E+00 0.  1.
         23    2    1    2    0    0  0.44301656920E+02  0.35177239227E+02  0.11372887453E+03  0.15662584173E+03  0.91636905392E+02 0.  0.
         23    2    1    2    0    0 -0.44301656920E+02 -0.35177239227E+02  0.21921561274E+03  0.25865665925E+03  0.12509079718E+03 0.  0.
          5    1    4    4  502    0 -0.47519934256E+02 -0.59695616251E+02  0.59135736747E+02  0.96624109372E+02  0.41800000000E+01 0. -1.
         -5    1    4    4    0  502  0.32182773359E+01  0.24518377025E+02  0.16007987599E+03  0.16203254988E+03  0.41800000000E+01 0. -1.
        -11    1    3    3    0    0  0.20813208174E+02  0.60018652186E+02  0.39243072751E+02  0.74668915913E+02  0.00000000000E+00 0.  1.
         11    1    3    3    0    0  0.23488448746E+02 -0.24841412960E+02  0.74485801780E+02  0.81956925816E+02  0.00000000000E+00 0. -1.
</event>
<event>
 7    1  0.8061721E-006  0.7093977E+02  0.7561462E-02  0.1356926E+00
          2   -1    0    0  501    0  0.00000000000E+00  0.00000000000E+00  0.11643920436E+04  0.11643920436E+04  0.00000000000E+00 0. -1.
         -2   -1    0    0    0  501 -0.00000000000E+00 -0.00000000000E+00 -0.19697199162E+02  0.19697199162E+02  0.00000000000E+00 0.  1.
         23    2    1    2    0    0  0.23912160550E+01 -0.27185829152E+02  0.23824548385E+03  0.25923067932E+03  0.98462415696E+02 0.  0.
          5    1    1    2  502    0  0.12582863578E+02  0.14767261136E+02  0.90466324968E+03  0.90488091381E+03  0.41800000000E+01 0. -1.
         -5    1    1    2    0  502 -0.14974079633E+02  0.12418568015E+02  0.17861109020E+01  0.19977649626E+02  0.41800000000E+01 0.  1.
        -11    1    3    3    0    0 -0.15694044164E+02  0.34474028438E+02  0.84925808803E+02  0.92990078287E+02  0.00000000000E+00 0.  1.
         11    1    3    3    0    0  0.18085260219E+02 -0.61659857589E+02  0.15331967505E+03  0.16624060104E+03  0.00000000000E+00 0. -1.
</event>
<event>
 8    1  0.8061721E-006  0.1018317E+03  0.7561462E-02  0.1276491E+00
          2   -1    0    0  501    0  0.00000000000E+00  0.00000000000E+00  0.27967755236E+03  0.27967755236E+03  0.00000000000E+00 0. -1.
         -2   -1    0    0    0  501 -0.00000000000E+00 -0.00000000000E+00 -0.49171455291E+02  0.49171455291E+02  0.00000000000E+00 0.  1.
         23    2    1    2    0    0  0.21120255615E+02 -0.23962250854E+02  0.51636102162E+02  0.10825607164E+03  0.89626086254E+02 0.  0.
         23    2    1    2    0    0 -0.21120255615E+02  0.23962250854E+02  0.17886999490E+03  0.22059293601E+03  0.12508602510E+03 0.  0.
          5    1    4    4  502    0  0.14498063802E+02  0.62352361353E+02  0.14370733865E+03  0.15737624472E+03  0.41800000000E+01 0.  1.
         -5    1    4    4    0  502 -0.35618319418E+02 -0.38390110500E+02  0.35162656252E+02  0.63216691285E+02  0.41800000000E+01 0.  1.
        -11    1    3    3    0    0  0.44111988851E+02 -0.39511569247E+02  0.12911125071E+02  0.60611292804E+02  0.00000000000E+00 0.  1.
         11    1    3    3    0    0 -0.22991733235E+02  0.15549318394E+02  0.38724977091E+02  0.47644778836E+02  0.00000000000E+00 0. -1.
</event>
<event>
 8    1  0.8061721E-006  0.1168267E+03  0.7561462E-02  0.1248426E+00
         -1   -1    0    0    0  501 -0.00000000000E+00  0.00000000000E+00  0.47253731584E+02  0.47253731584E+02  0.00000000000E+00 0. -1.
          1   -1    0    0  501    0  0.00000000000E+00 -0.00000000000E+00 -0.46581988585E+03  0.46581988585E+03  0.00000000000E+00 0.  1.
         23    2    1    2    0    0 -0.11619928739E+02 -0.19401730724E+02 -0.47545593583E+02  0.12088097966E+03  0.10881258142E+03 0.  0.
         23    2    1    2    0    0  0.11619928739E+02  0.19401730724E+02 -0.37102056069E+03  0.39219263778E+03  0.12508940313E+03 0.  0.
          5    1    4    4  502    0  0.43912902066E+02  0.59915617537E+02 -0.19728663366E+03  0.21084997608E+03  0.41800000000E+01 0.  1.
         -5    1    4    4    0  502 -0.32292973327E+02 -0.40513886812E+02 -0.17373392702E+03  0.18134266169E+03  0.41800000000E+01 0.  1.
        -11    1    3    3    0    0  0.40083379586E+02  0.17515226855E+02 -0.41401213641E+01  0.43938605983E+02  0.00000000000E+00 0.  1.
         11    1    3    3    0    0 -0.51703308325E+02 -0.36916957579E+02 -0.43405472219E+02  0.76942373678E+02  0.00000000000E+00 0. -1.
</event>
<event>
 8    1  0.8061721E-006  0.8538318E+02  0.7561462E-02  0.1314433E+00
         -1   -1    0    0    0  501 -0.00000000000E+00  0.00000000000E+00  0.20270463919E+03  0.20270463919E+03  0.00000000000E+00 0.  1.
          1   -1    0    0  501    0  0.00000000000E+00 -0.00000000000E+00 -0.76354106868E+02  0.76354106868E+02  0.00000000000E+00 0. -1.
         23    2    1    2    0    0  0.55745383105E+02 -0.13381720208E+02  0.75875797871E+02  0.13249123854E+03  0.92250601151E+02 0.  0.
         23    2    1    2    0    0 -0.55745383105E+02  0.13381720208E+02  0.50474734456E+02  0.14656750753E+03  0.12509083608E+03 0.  0.
          5    1    4    4  502    0 -0.83488926692E+02  0.79557911132E+01 -0.50475498379E+01  0.84122801022E+02  0.41800000000E+01 0.  1.
         -5    1    4    4    0  502  0.27743543587E+02  0.54259290949E+01  0.55522284294E+02  0.62444706505E+02  0.41800000000E+01 0.  1.
        -11    1    3    3    0    0  0.44936050942E+02 -0.64978554174E+01  0.97387643136E+02  0.10745149527E+03  0.00000000000E+00 0.  1.
         11    1    3    3    0    0  0.10809332164E+02 -0.68838647907E+01 -0.21511845265E+02  0.25039743269E+02  0.00000000000E+00 0. -1.
</event>
<event>
 8    1  0.8061721E-006  0.8416956E+02  0.7561462E-02  0.1317619E+00
         -3   -1    0    0    0  501 -0.00000000000E+00  0.00000000000E+00  0.10268758116E+03  0.10268758116E+03  0.00000000000E+00 0. -1.
          3   -1    0    0  501    0  0.00000000000E+00 -0.00000000000E+00 -0.12184871090E+03  0.12184871090E+03  0.00000000000E+00 0.  1.
         23    2    1    2    0    0 -0.41226536649E+01 -0.28385106457E+02 -0.57788465033E+01  0.95506231233E+02  0.90913885604E+02 0.  0.
         23    2    1    2    0    0  0.41226536649E+01  0.28385106457E+02 -0.13382283230E+02  0.12903006083E+03  0.12508781136E+03 0.  0.
          5    1    4    4  502    0 -0.18754637924E+02  0.47571339547E+02  0.41780957865E+02  0.66165622721E+02  0.41800000000E+01 0.  1.
         -5    1    4    4    0  502  0.22877291589E+02 -0.19186233090E+02 -0.55163241095E+02  0.62864438108E+02  0.41800000000E+01 0.  1.
        -11    1    3    3    0    0 -0.35419946705E+02 -0.40067093817E+02  0.15767037760E+02  0.55754319216E+02  0.00000000000E+00 0. -1.
         11    1    3    3    0    0  0.31297293040E+02  0.11681987360E+02 -0.21545884264E+02  0.39751912017E+02  0.00000000000E+00 0.  1.
</event>
<event>
 8    1  0.8061721E-006  0.1556730E+03  0.7561462E-02  0.1193670E+00
         -1   -1    0    0    0  501 -0.00000000000E+00  0.00000000000E+00  0.28048259645E+02  0.28048259645E+02  0.00000000000E+00 0.  1.
          1   -1    0    0  501    0  0.00000000000E+00 -0.00000000000E+00 -0.95289220379E+03  0.95289220379E+03  0.00000000000E+00 0. -1.
         23    2    1    2    0    0 -0.11272048520E+03  0.27770475211E+02 -0.33933038530E+03  0.37106602136E+03  0.95224864123E+02 0.  0.
         23    2    1    2    0    0  0.11272048520E+03 -0.27770475211E+02 -0.58551355885E+03  0.60987444207E+03  0.12507437956E+03 0.  0.
          5    1    4    4  502    0  0.11207751894E+03  0.24277527354E+02 -0.33915748572E+03  0.35804474735E+03  0.41800000000E+01 0.  1.
         -5    1    4    4    0  502  0.64296625719E+00 -0.52048002564E+02 -0.24635607313E+03  0.25182969472E+03  0.41800000000E+01 0.  1.
        -11    1    3    3    0    0 -0.60742642378E+02  0.58216011436E+02 -0.24594503159E+03  0.25993793712E+03  0.00000000000E+00 0. -1.
         11    1    3    3    0    0 -0.51977842820E+02 -0.30445536226E+02 -0.93385353706E+02  0.11112808424E+03  0.00000000000E+00 0.  1.
</event>
<event>
 8    1  0.8061721E-006  0.1244400E+03  0.7561462E-02  0.1235947E+00
         -2   -1    0    0    0  501 -0.00000000000E+00  0.00000000000E+00  0.48087583384E+03  0.48087583384E+03  0.00000000000E+00 0.  1.
          2   -1    0    0  501    0  0.00000000000E+00 -0.00000000000E+00 -0.43677285902E+02  0.43677285902E+02  0.00000000000E+00 0. -1.
         23    2    1    2    0    0 -0.27773467898E+02  0.90030907495E+02  0.22766914348E+03  0.26296594622E+03  0.91874480448E+02 0.  0.
         23    2    1    2    0    0  0.27773467898E+02 -0.90030907495E+02  0.20952940446E+03  0.26158717352E+03  0.12509335791E+03 0.  0.
          5    1    4    4  502    0  0.62951611933E+02 -0.97118620299E+01  0.56891599013E+02  0.85506445063E+02  0.41800000000E+01 0. -1.
         -5    1    4    4    0  502 -0.35178144034E+02 -0.80319045465E+02  0.15263780545E+03  0.17608072846E+03  0.41800000000E+01 0. -1.
        -11    1    3    3    0    0 -0.52294754719E+01  0.57186459807E+02  0.37305712225E+02  0.68478863627E+02  0.00000000000E+00 0. -1.
         11    1    3    3    0    0 -0.22543992427E+02  0.32844447688E+02  0.19036343125E+03  0.19448708260E+03  0.00000000000E+00 0.  1.
</event>
<event>
 8    1  0.8061721E-006  0.1313285E+03  0.7561462E-02  0.1225498E+00
         -1   -1    0    0    0  501 -0.00000000000E+00  0.00000000000E+00  0.13713061766E+03  0.13713061766E+03  0.00000000000E+00 0.  1.
          1   -1    0    0  501    0  0.00000000000E+00 -0.00000000000E+00 -0.13552991592E+03  0.13552991592E+03  0.00000000000E+00 0. -1.
         23    2    1    2    0    0 -0.33477986305E+02  0.71315812053E+02 -0.24636091778E+02  0.12251887151E+03  0.90538479346E+02 0.  0.
         23    2    1    2    0    0  0.33477986305E+02 -0.71315812053E+02  0.26236793516E+02  0.15014166207E+03  0.12508968279E+03 0.  0.
          5    1    4    4  502    0 -0.20847372432E+02  0.24904228236E+02  0.22066611116E+02  0.39487228917E+02  0.41800000000E+01 0.  1.
         -5    1    4    4    0  502  0.54325358737E+02 -0.96220040289E+02  0.41701824002E+01  0.11065443315E+03  0.41800000000E+01 0.  1.
        -11    1    3    3    0    0  0.18832090524E+02  0.63758882598E+02 -0.72325518361E+01  0.66874154572E+02  0.00000000000E+00 0.  1.
         11    1    3    3    0    0 -0.52310076829E+02  0.75569294542E+01 -0.17403539942E+02  0.55644716938E+02  0.00000000000E+00 0. -1.
</event>
<event>
 8    1  0.8061721E-006  0.1701844E+03  0.7561462E-02  0.1177656E+00
         -2   -1    0    0    0  501 -0.00000000000E+00  0.00000000000E+00  0.11193803391E+03  0.11193803391E+03  0.00000000000E+00 0.  1.
          2   -1    0    0  501    0  0.00000000000E+00 -0.00000000000E+00 -0.30411332679E+03  0.30411332679E+03  0.00000000000E+00 0. -1.
         23    2    1    2    0    0 -0.14570631282E+03 -0.41398371217E+01 -0.77322823129E+02  0.19225228478E+03  0.98664351107E+02 0.  0.
         23    2    1    2    0    0  0.14570631282E+03  0.41398371217E+01 -0.11485246975E+03  0.22379907592E+03  0.12508984262E+03 0.  0.
          5    1    4    4  502    0  0.16327377914E+02  0.30284809700E+02  0.15746443227E+02  0.38068042271E+02  0.41800000000E+01 0.  1.
         -5    1    4    4    0  502  0.12937893491E+03 -0.26144972578E+02 -0.13059891298E+03  0.18573103365E+03  0.41800000000E+01 0.  1.
        -11    1    3    3    0    0 -0.36825755959E+02 -0.44292274993E+02 -0.11174874536E+02  0.58675546414E+02  0.00000000000E+00 0. -1.
         11    1    3    3    0    0 -0.10888055686E+03  0.40152437872E+02 -0.66147948593E+02  0.13357673837E+03  0.00000000000E+00 0.  1.
</event>
<event>
 8    1  0.8061721E-006  0.6429744E+02  0.7561462E-02  0.1380634E+00
         -2   -1    0    0    0  501 -0.00000000000E+00  0.00000000000E+00  0.11068723202E+03  0.11068723202E+03  0.00000000000E+00 0.  1.
          2   -1    0    0  501    0  0.00000000000E+00 -0.00000000000E+00 -0.25877731545E+03  0.25877731545E+03  0.00000000000E+00 0. -1.
         23    2    1    2    0    0 -0.25491762628E+02 -0.14982619183E+02  0.67601742962E+02  0.11837674309E+03  0.92567536504E+02 0.  0.
         23    2    1    2    0    0  0.25491762628E+02  0.14982619183E+02 -0.21569182640E+03  0.25108780438E+03  0.12509121749E+03 0.  0.
          5    1    4    4  502    0  0.39565274752E+02  0.18311133306E+02 -0.10101227848E+02  0.44946810490E+02  0.41800000000E+01 0.  1.
         -5    1    4    4    0  502 -0.14073512124E+02 -0.33285141236E+01 -0.20559059855E+03  0.20614099389E+03  0.41800000000E+01 0.  1.
        -11    1    3    3    0    0  0.24331519895E+01  0.22706813446E+02  0.67722524947E+02  0.71469294041E+02  0.00000000000E+00 0.  1.
         11    1    3    3    0    0 -0.27924914618E+02 -0.37689432629E+02 -0.12078198562E+00  0.46907449052E+02  0.00000000000E+00 0. -1.
</event>
<event>
 8    1  0.8061721E-006  0.1341628E+03  0.7561462E-02  0.1221406E+00
         -2   -1    0    0    0  501 -0.00000000000E+00  0.00000000000E+00  0.88809923728E+02  0.88809923728E+02  0.00000000000E+00 0. -1.
          2   -1    0    0  501    0  0.00000000000E+00 -0.00000000000E+00 -0.32309497322E+03  0.32309497322E+03  0.00000000000E+00 0.  1.
         23    2    1    2    0    0 -0.69233715515E+02 -0.46396045760E+02  0.10459840511E+02  0.12468695429E+03  0.92149486602E+02 0.  0.
         23    2    1    2    0    0  0.69233715515E+02  0.46396045760E+02 -0.24474489000E+03  0.28721794265E+03  0.12509270552E+03 0.  0.
          5    1    4    4  502    0  0.68894343459E+02 -0.25846836983E+02 -0.15732493488E+03  0.17373283247E+03  0.41800000000E+01 0.  1.
         -5    1    4    4    0  502  0.33937205529E+00  0.72242882743E+02 -0.87419955122E+02  0.11348511019E+03  0.41800000000E+01 0.  1.
        -11    1    3    3    0    0  0.42776532241E+01 -0.48528733748E+02 -0.66827769599E+01  0.49173120953E+02  0.00000000000E+00 0. -1.
         11    1    3    3    0    0 -0.73511368739E+02  0.21326879883E+01  0.17142617471E+02  0.75513833340E+02  0.00000000000E+00 0.  1.
</event>
<event>
 8    1  0.8061721E-006  0.8514132E+02  0.7561462E-02  0.1315063E+00
         -1   -1    0    0    0  501 -0.00000000000E+00  0.00000000000E+00  0.21732537906E+02  0.21732537906E+02  0.00000000000E+00 0.  1.
          1   -1    0    0  501    0  0.00000000000E+00 -0.00000000000E+00 -0.85098887012E+03  0.85098887012E+03  0.00000000000E+00 0. -1.
         23    2    1    2    0    0 -0.27739680049E+01 -0.66915846243E+01 -0.12228390653E+03  0.15473176030E+03  0.94530903116E+02 0.  0.
         23    2    1    2    0    0  0.27739680049E+01  0.66915846243E+01 -0.70697242568E+03  0.71798964773E+03  0.12508657551E+03 0.  0.
          5    1    4    4  502    0  0.54982528365E+02 -0.26446433591E+02 -0.28479727496E+03  0.29128929349E+03  0.41800000000E+01 0. -1.
         -5    1    4    4    0  502 -0.52208560360E+02  0.33138018215E+02 -0.42217515072E+03  0.42670035424E+03  0.41800000000E+01 0. -1.
        -11    1    3    3    0    0  0.21485186897E+02  0.15167701881E+01 -0.12689480186E+03  0.12870976881E+03  0.00000000000E+00 0. -1.
         11    1    3    3    0    0 -0.24259154902E+02 -0.82083548124E+01  0.46108953257E+01  0.26021991488E+02  0.00000000000E+00 0.  1.
</event>
<event>
 8    1  0.8061721E-006  0.3807040E+02  0.7561462E-02  0.1522911E+00
          1   -1    0    0  501    0  0.00000000000E+00  0.00000000000E+00  0.11007730460E+03  0.11007730460E+03  0.00000000000E+00 0. -1.
         -1   -1    0    0    0  501 -0.00000000000E+00 -0.00000000000E+00 -0.13253836763E+03  0.13253836763E+03  0.00000000000E+00 0.  1.
         23    2    1    2    0    0 -0.73417999700E+01  0.30266928930E+01 -0.61338713748E+02  0.11138218907E+03  0.92630941598E+02 0.  0.
         23    2    1    2    0    0  0.73417999700E+01 -0.30266928930E+01  0.38877650714E+02  0.13123348315E+03  0.12509073698E+03 0.  0.
          5    1    4    4  502    0  0.21536509720E+02  0.54767557747E+01 -0.42470263035E+02  0.48114568968E+02  0.41800000000E+01 0. -1.
         -5    1    4    4    0  502 -0.14194709750E+02 -0.85034486678E+01  0.81347913749E+02  0.83118914186E+02  0.41800000000E+01 0. -1.
        -11    1    3    3    0    0  0.10159675845E+02  0.12858998322E+02 -0.81381474909E+02  0.83015163130E+02  0.00000000000E+00 0.  1.
         11    1    3    3    0    0 -0.17501475815E+02 -0.98323054288E+01  0.20042761161E+02  0.28367025941E+02  0.00000000000E+00 0. -1.
</event>
<event>
 8    1  0.8061721E-006  0.8329602E+02  0.7561462E-02  0.1319950E+00
         -1   -1    0    0    0  501 -0.00000000000E+00  0.00000000000E+00  0.68181687153E+02  0.68181687153E+02  0.00000000000E+00 0.  1.
          1   -1    0    0  501    0  0.00000000000E+00 -0.00000000000E+00 -0.25782640168E+03  0.25782640168E+03  0.00000000000E+00 0. -1.
         23    2    1    2    0    0  0.33050603256E+02  0.42759366918E+02 -0.18134813203E+02  0.10696141911E+03  0.90505071096E+02 0.  0.
         23    2    1    2    0    0 -0.33050603256E+02 -0.42759366918E+02 -0.17150990132E+03  0.21904666972E+03  0.12508033989E+03 0.  0.
          5    1    4    4  502    0 -0.20806859324E+01 -0.24658318085E+02 -0.18016908155E+03  0.18190858212E+03  0.41800000000E+01 0.  1.
         -5    1    4    4    0  502 -0.30969917323E+02 -0.18101048833E+02  0.86591802262E+01  0.37138087593E+02  0.41800000000E+01 0.  1.
        -11    1    3    3    0    0 -0.27654524669E+02  0.34346150678E+02 -0.62929205619E+01  0.44542470186E+02  0.00000000000E+00 0. -1.
         11    1    3    3    0    0  0.60705127925E+02  0.84132162406E+01 -0.11841892641E+02  0.62418948928E+02  0.00000000000E+00 0.  1.
</event>
<event>
 8    1  0.8061721E-006  0.9773571E+02  0.7561462E-02  0.1285131E+00
          2   -1    0    0  501    0  0.00000000000E+00  0.00000000000E+00  0.77969353736E+03  0.77969353736E+03  0.00000000000E+00 0.  1.
         -2   -1    0    0    0  501 -0.00000000000E+00 -0.00000000000E+00 -0.21588383554E+02  0.21588383554E+02  0.00000000000E+00 0. -1.
         23    2    1    2    0    0  0.20120519167E+02 -0.42834088597E+02  0.25834431419E+03  0.28392995876E+03  0.10786492649E+03 0.  0.
         23    2    1    2    0    0 -0.20120519167E+02  0.42834088597E+02  0.49976083961E+03  0.51735196215E+03  0.12511019743E+03 0.  0.
          5    1    4    4  502    0  0.24002000465E+02  0.77166869891E+01  0.15687023906E+02  0.29986637081E+02  0.41800000000E+01 0. -1.
         -5    1    4    4    0  502 -0.44122519632E+02  0.35117401608E+02  0.48407381570E+03  0.48736532507E+03  0.41800000000E+01 0. -1.
        -11    1    3    3    0    0  0.55221485859E+02  0.33929259348E+01  0.16482249313E+03  0.17386022745E+03  0.00000000000E+00 0.  1.
         11    1    3    3    0    0 -0.35100966692E+02 -0.46227014532E+02  0.93521821066E+02  0.11006973131E+03  0.00000000000E+00 0. -1.
</event>
<event>
 8    1  0.8061721E-006  0.1028980E+03  0.7561462E-02  0.1274317E+00
          1   -1    0    0  501    0  0.00000000000E+00  0.00000000000E+00  0.13962220729E+04  0.13962220729E+04  0.00000000000E+00 0. -1.
         -1   -1    0    0    0  501 -0.00000000000E+00 -0.00000000000E+00 -0.13501603551E+02  0.13501603551E+02  0.00000000000E+00 0.  1.
         23    2    1    2    0    0  0.12137531339E+02 -0.76876912950E+02  0.47743870224E+03  0.49253220387E+03  0.92643823541E+02 0.  0.
         23    2    1    2    0    0 -0.12137531339E+02  0.76876912950E+02  0.90528176708E+03  0.91719147255E+03  0.12509092734E+03 0.  0.
          5    1    4    4  502    0 -0.21725640777E+02  0.33075609946E+02  0.81808861689E+03  0.81905583261E+03  0.41800000000E+01 0.  1.
         -5    1    4    4    0  502  0.95881094384E+01  0.43801303004E+02  0.87193150185E+02  0.98135639941E+02  0.41800000000E+01 0.  1.
        -11    1    3    3    0    0 -0.37080060272E+02 -0.10882573252E+02  0.15736857624E+03  0.16204391398E+03  0.00000000000E+00 0.  1.
         11    1    3    3    0    0  0.49217591610E+02 -0.65994339698E+02  0.32007012600E+03  0.33048828989E+03  0.00000000000E+00 0. -1.
</event>
<event>
 8    1  0.8061721E-006  0.9267041E+02  0.7561462E-02  0.1296511E+00
          2   -1    0    0  501    0  0.00000000000E+00  0.00000000000E+00  0.37948997105E+02  0.37948997105E+02  0.00000000000E+00 0. -1.
         -2   -1    0    0    0  501 -0.00000000000E+00 -0.00000000000E+00 -0.38903791411E+03  0.38903791411E+03  0.00000000000E+00 0.  1.
         23    2    1    2    0    0 -0.74971284657E+01  0.28472851327E+02 -0.26211243910E+03  0.27931609269E+03  0.91911036897E+02 0.  0.
         23    2    1    2    0    0  0.74971284657E+01 -0.28472851327E+02 -0.88976477906E+02  0.14767081853E+03  0.11411812664E+03 0.  0.
          5    1    4    4  502    0  0.51583238199E+02  0.11677091222E+02 -0.20760152725E+02  0.56970529782E+02  0.41800000000E+01 0. -1.
         -5    1    4    4    0  502 -0.44086109733E+02 -0.40149942549E+02 -0.68216325180E+02  0.90700288749E+02  0.41800000000E+01 0.  1.
        -11    1    3    3    0    0 -0.18119562242E+02 -0.17582353809E+02 -0.18859933738E+02  0.31514358662E+02  0.00000000000E+00 0.  1.
         11    1    3    3    0    0  0.10622433776E+02  0.46055205136E+02 -0.24325250536E+03  0.24780173402E+03  0.00000000000E+00 0. -1.
</event>
<event>
 8    1  0.8061721E-006  0.2250151E+03  0.7561462E-02  0.1130198E+00
         -2   -1    0    0    0  501 -0.00000000000E+00  0.00000000000E+00  0.51314269590E+02  0.51314269590E+02  0.00000000000E+00 0.  1.
          2   -1    0    0  501    0  0.00000000000E+00 -0.00000000000E+00 -0.11400487303E+04  0.11400487303E+04  0.00000000000E+00 0. -1.
         23    2    1    2    0    0 -0.17451205435E+03 -0.12121548619E+03 -0.44315838738E+03  0.50030360335E+03  0.93630593387E+02 0.  0.
         23    2    1    2    0    0  0.17451205435E+03  0.12121548619E+03 -0.64557607334E+03  0.69105939655E+03  0.12508785663E+03 0.  0.
          5    1    4    4  502    0  0.15928495490E+03  0.53752240841E+02 -0.53272176623E+03  0.55863311115E+03  0.41800000000E+01 0.  1.
         -5    1    4    4    0  502  0.15227099447E+02  0.67463245353E+02 -0.11285430711E+03  0.13242628540E+03  0.41800000000E+01 0.  1.
        -11    1    3    3    0    0 -0.12681115471E+03 -0.84474805847E+02 -0.39445528088E+03  0.42286171546E+03  0.00000000000E+00 0. -1.
         11    1    3    3    0    0 -0.47700899639E+02 -0.36740680347E+02 -0.48703106493E+02  0.77441887895E+02  0.00000000000E+00 0.  1.
</event>
<event>
 8    1  0.1190422E-005  0.1240715E+03  0.7561462E-02  0.1236528E+00
          1   -1    0    0  501    0  0.00000000000E+00  0.00000000000E+00  0.33423714154E+03  0.33423714154E+03  0.00000000000E+00 0. -1.
         -1   -1    0    0    0  501 -0.00000000000E+00 -0.00000000000E+00 -0.68378995229E+02  0.68378995229E+02  0.00000000000E+00 0.  1.
         23    2    1    2    0    0  0.14179113833E+02  0.94647011152E+02  0.48803759584E+02  0.13443932865E+03  0.80827112703E+02 0.  0.
         23    2    1    2    0    0 -0.14179113833E+02 -0.94647011152E+02  0.21705438673E+03  0.26817680812E+03  0.12508832731E+03 0.  0.
          5    1    4    4  502    0  0.45761753789E+01 -0.11955146909E+03  0.13572249143E+03  0.18097392691E+03  0.41800000000E+01 0.  1.
         -5    1    4    4    0  502 -0.18755289212E+02  0.24904457938E+02  0.81331895295E+02  0.87202881208E+02  0.41800000000E+01 0.  1.
        -11    1    3    3    0    0  0.16763182224E+02  0.62004296566E+02  0.70334904631E+02  0.95249860265E+02  0.00000000000E+00 0. -1.
         11    1    3    3    0    0 -0.25840683908E+01  0.32642714585E+02 -0.21531145046E+02  0.39189468381E+02  0.00000000000E+00 0.  1.
</event>
<event>
 8    1  0.8061721E-006  0.8891962E+02  0.7561462E-02  0.1305489E+00
          1   -1    0    0  501    0  0.00000000000E+00  0.00000000000E+00  0.65951019900E+03  0.65951019900E+03  0.00000000000E+00 0. -1.
         -1   -1    0    0    0  501 -0.00000000000E+00 -0.00000000000E+00 -0.21555018331E+02  0.21555018331E+02  0.00000000000E+00 0.  1.
         23    2    1    2    0    0  0.36654682621E+02 -0.46897698788E+02  0.25235259126E+03  0.27456670013E+03  0.90344244966E+02 0.  0.
         23    2    1    2    0    0 -0.36654682621E+02  0.46897698788E+02  0.38560258941E+03  0.40649851720E+03  0.11405580921E+03 0.  0.
          5    1    4    4  502    0 -0.44736799722E+02  0.22785236832E+02  0.37542408539E+03  0.37878920861E+03  0.41800000000E+01 0. -1.
         -5    1    4    4    0  502  0.80821171014E+01  0.24112461956E+02  0.10178504022E+02  0.27709308590E+02  0.41800000000E+01 0.  1.
        -11    1    3    3    0    0  0.44966103082E+02 -0.66569164532E+02  0.15152978716E+03  0.17150708583E+03  0.00000000000E+00 0.  1.
         11    1    3    3    0    0 -0.83114204611E+01  0.19671465744E+02  0.10082280409E+03  0.10305961430E+03  0.00000000000E+00 0. -1.
</event>
<event>
 8    1  0.8061721E-006  0.8222834E+02  0.7561462E-02  0.1322844E+00
         -1   -1    0    0    0  501 -0.00000000000E+00  0.00000000000E+00  0.22642131415E+02  0.22642131415E+02  0.00000000000E+00 0.  1.
          1   -1    0    0  501    0  0.00000000000E+00 -0.00000000000E+00 -0.11505458118E+04  0.11505458118E+04  0.00000000000E+00 0. -1.
         23    2    1    2    0    0 -0.72865038265E+02 -0.36821345523E+02 -0.20412702208E+03  0.23741231292E+03  0.89619416963E+02 0.  0.
         23    2    1    2    0    0  0.72865038265E+02  0.36821345523E+02 -0.92377665827E+03  0.93577563026E+03  0.12509032948E+03 0.  0.
          5    1    4    4  502    0  0.25236171723E+02  0.17863090514E+02 -0.81345973895E+03  0.81405784417E+03  0.41800000000E+01 0.  1.
         -5    1    4    4    0  502  0.47628866541E+02  0.18958255009E+02 -0.11031691932E+03  0.12171778609E+03  0.41800000000E+01 0.  1.
        -11    1    3    3    0    0 -0.30899509432E+02 -0.12601316218E+02 -0.65837034646E+01  0.34013497393E+02  0.00000000000E+00 0.  1.
         11    1    3    3    0    0 -0.41965528832E+02 -0.24220029305E+02 -0.19754331861E+03  0.20339881553E+03  0.00000000000E+00 0. -1.
</event>
<event>
 7    1  0.8061721E-006  0.1990573E+03  0.7561462E-02  0.1150537E+00
          2   -1    0    0  501    0  0.00000000000E+00  0.00000000000E+00  0.16042184390E+03  0.16042184390E+03  0.00000000000E+00 0. -1.
         -2   -1    0    0    0  501 -0.00000000000E+00 -0.00000000000E+00 -0.28435342574E+03  0.28435342574E+03  0.00000000000E+00 0.  1.
         23    2    1    2    0    0  0.10432144045E+03  0.47340456632E+02 -0.59457364402E+02  0.15845295603E+03  0.91913433857E+02 0.  0.
          5    1    1    2  502    0  0.59795310582E+02 -0.62242530637E+02  0.35622603319E+02  0.93466860731E+02  0.41800000000E+01 0. -1.
         -5    1    1    2    0  502 -0.16411675103E+03  0.14902074005E+02 -0.10009682076E+03  0.19285545288E+03  0.41800000000E+01 0.  1.
        -11    1    3    3    0    0 -0.16186293574E+02 -0.26325716918E+01 -0.58814517453E+01  0.17421768222E+02  0.00000000000E+00 0. -1.
         11    1    3    3    0    0  0.12050773402E+03  0.49973028324E+02 -0.53575912657E+02  0.14103118781E+03  0.00000000000E+00 0.  1.
</event>
<event>
 8    1  0.8061721E-006  0.9964398E+02  0.7561462E-02  0.1281046E+00
         -1   -1    0    0    0  501 -0.00000000000E+00  0.00000000000E+00  0.19010748639E+02  0.19010748639E+02  0.00000000000E+00 0.  1.
          1   -1    0    0  501    0  0.00000000000E+00 -0.00000000000E+00 -0.72645758823E+03  0.72645758823E+03  0.00000000000E+00 0. -1.
         23    2    1    2    0    0 -0.38127285624E+02 -0.52873594156E+01 -0.21024473556E+03  0.23132856450E+03  0.88478301543E+02 0.  0.
         23    2    1    2    0    0  0.38127285624E+02  0.52873594156E+01 -0.49720210402E+03  0.51413977236E+03  0.12509247460E+03 0.  0.
          5    1    4    4  502    0 -0.11578312978E+02 -0.37605115685E+02 -0.59082120509E+02  0.71108167048E+02  0.41800000000E+01 0.  1.
         -5    1    4    4    0  502  0.49705598602E+02  0.42892475101E+02 -0.43811998351E+03  0.44303160531E+03  0.41800000000E+01 0.  1.
        -11    1    3    3    0    0  0.27318502289E+02  0.47292237058E+01 -0.40055188922E+02  0.48714312925E+02  0.00000000000E+00 0.  1.
         11    1    3    3    0    0 -0.65445787913E+02 -0.10016583121E+02 -0.17018954664E+03  0.18261425158E+03  0.00000000000E+00 0. -1.
</event>
<event>
 8    1  0.8061721E-006  0.2288658E+03  0.7561462E-02  0.1127441E+00
          1   -1    0    0  501    0  0.00000000000E+00  0.00000000000E+00  0.12205537877E+04  0.12205537877E+04  0.00000000000E+00 0. -1.
         -1   -1    0    0    0  501 -0.00000000000E+00 -0.00000000000E+00 -0.14582123560E+03  0.14582123560E+03  0.00000000000E+00 0.  1.
         23    2    1    2    0    0  0.94340284639E+02  0.19033804847E+03 -0.31518253941E+02  0.23298745744E+03  0.90338767918E+02 0.  0.
         23    2    1    2    0    0 -0.94340284639E+02 -0.19033804847E+03  0.11062508061E+04  0.11333875659E+04  0.12509143297E+03 0.  0.
          5    1    4    4  502    0 -0.43809443555E+02 -0.18438961579E+03  0.75443838101E+03  0.77789044273E+03  0.41800000000E+01 0.  1.
         -5    1    4    4    0  502 -0.50530841084E+02 -0.59484326823E+01  0.35181242505E+03  0.35549712316E+03  0.41800000000E+01 0.  1.
        -11    1    3    3    0    0  0.23090733858E+02  0.96869483579E+02 -0.54069256326E+02  0.11331532694E+03  0.00000000000E+00 0.  1.
         11    1    3    3    0    0  0.71249550781E+02  0.93468564893E+02  0.22551002385E+02  0.11967213050E+03  0.00000000000E+00 0. -1.
</event>
<event>
 8    1  0.8061721E-006  0.1458405E+03  0.7561462E-02  0.1205679E+00
         -2   -1    0    0    0  501 -0.00000000000E+00  0.00000000000E+00  0.14946017765E+02  0.14946017765E+02  0.00000000000E+00 0.  1.
          2   -1    0    0  501    0  0.00000000000E+00 -0.00000000000E+00 -0.16430272478E+04  0.16430272478E+04  0.00000000000E+00 0. -1.
         23    2    1    2    0    0 -0.94011894935E+02  0.50896602750E+02 -0.56460128444E+03  0.58183870377E+03  0.91285082316E+02 0.  0.
         23    2    1    2    0    0  0.94011894935E+02 -0.50896602750E+02 -0.10634799456E+04  0.10761345618E+04  0.12508916758E+03 0.  0.
          5    1    4    4  502    0  0.43663821081E+02  0.32526627958E+02 -0.60141333505E+03  0.60388739246E+03  0.41800000000E+01 0. -1.
         -5    1    4    4    0  502  0.50348073854E+02 -0.83423230709E+02 -0.46206661051E+03  0.47224716930E+03  0.41800000000E+01 0. -1.
        -11    1    3    3    0    0 -0.50352269556E+02  0.74494957523E+02 -0.39630903405E+03  0.40638122522E+03  0.00000000000E+00 0.  1.
         11    1    3    3    0    0 -0.43659625379E+02 -0.23598354773E+02 -0.16829225039E+03  0.17545747855E+03  0.00000000000E+00 0. -1.
</event>
<event>
 8    1  0.8061721E-006  0.8627539E+02  0.7561462E-02  0.1312131E+00
         -2   -1    0    0    0  501 -0.00000000000E+00  0.00000000000E+00  0.56535006673E+02  0.56535006673E+02  0.00000000000E+00 0.  1.
          2   -1    0    0  501    0  0.00000000000E+00 -0.00000000000E+00 -0.23743705760E+03  0.23743705760E+03  0.00000000000E+00 0. -1.
         23    2    1    2    0    0 -0.26924375566E+02 -0.27996446770E+02 -0.59067791674E+02  0.11508711197E+03  0.90814736119E+02 0.  0.
         23    2    1    2    0    0  0.26924375566E+02  0.27996446770E+02 -0.12183425925E+03  0.17888495231E+03  0.12509003319E+03 0.  0.
          5    1    4    4  502    0  0.30455102269E+02 -0.45771946237E+02 -0.37363564751E+02  0.66603999035E+02  0.41800000000E+01 0. -1.
         -5    1    4    4    0  502 -0.35307267036E+01  0.73768393007E+02 -0.84470694502E+02  0.11228095327E+03  0.41800000000E+01 0. -1.
        -11    1    3    3    0    0 -0.13868387033E+02 -0.26994606636E+02 -0.82687261319E+02  0.88080781847E+02  0.00000000000E+00 0. -1.
         11    1    3    3    0    0 -0.13055988533E+02 -0.10018401341E+01  0.23619469645E+02  0.27006330120E+02  0.00000000000E+00 0.  1.
</event>
<event>
 8    1  0.8061721E-006  0.1546849E+03  0.7561462E-02  0.1194832E+00
         -1   -1    0    0    0  501 -0.00000000000E+00  0.00000000000E+00  0.57570183859E+02  0.57570183859E+02  0.00000000000E+00 0.  1.
          1   -1    0    0  501    0  0.00000000000E+00 -0.00000000000E+00 -0.55327576045E+03  0.55327576045E+03  0.00000000000E+00 0. -1.
         23    2    1    2    0    0 -0.11574647245E+03 -0.62457644201E+02 -0.13441422141E+03  0.20652233357E+03  0.85358585623E+02 0.  0.
         23    2    1    2    0    0  0.11574647245E+03  0.62457644201E+02 -0.36129135518E+03  0.40432361074E+03  0.12509170905E+03 0.  0.
          5    1    4    4  502    0  0.21202248173E+02  0.53698880000E+02 -0.42896306736E+02  0.72046308528E+02  0.41800000000E+01 0. -1.
         -5    1    4    4    0  502  0.94544224279E+02  0.87587642008E+01 -0.31839504844E+03  0.33227730222E+03  0.41800000000E+01 0. -1.
        -11    1    3    3    0    0  0.12009925816E+02 -0.17056953014E+02 -0.13447262729E+02  0.24819485070E+02  0.00000000000E+00 0.  1.
         11    1    3    3    0    0 -0.12775639827E+03 -0.45400691187E+02 -0.12096695868E+03  0.18170284850E+03  0.00000000000E+00 0. -1.
</event>
<event>
 8    1  0.8061721E-006  0.1871056E+03  0.7561462E-02  0.1161098E+00
         -2   -1    0    0    0  501 -0.00000000000E+00  0.00000000000E+00  0.68203954326E+02  0.68203954326E+02  0.00000000000E+00 0. -1.
          2   -1    0    0  501    0  0.00000000000E+00 -0.00000000000E+00 -0.57600242744E+03  0.57600242744E+03  0.00000000000E+00 0.  1.
         23    2    1    2    0    0  0.15690057094E+02  0.16442874571E+03 -0.23974623231E+03  0.30540992726E+03  0.92271216815E+02 0.  0.
         23    2    1    2    0    0 -0.15690057094E+02 -0.16442874571E+03 -0.26805224080E+03  0.33879645451E+03  0.12509213996E+03 0.  0.
          5    1    4    4  502    0 -0.50780990746E+02 -0.10437731913E+03 -0.23400408798E+03  0.26124455853E+03  0.41800000000E+01 0. -1.
         -5    1    4    4    0  502  0.35090933652E+02 -0.60051426587E+02 -0.34048152824E+02  0.77551895982E+02  0.41800000000E+01 0. -1.
        -11    1    3    3    0    0 -0.36831949953E+02  0.46752892466E+02 -0.89321313642E+02  0.10733462890E+03  0.00000000000E+00 0.  1.
         11    1    3    3    0    0  0.52522007047E+02  0.11767585325E+03 -0.15042491867E+03  0.19807529835E+03  0.00000000000E+00 0. -1.
</event>
<event>
 8    1  0.8061721E-006  0.1066316E+03  0.7561462E-02  0.1266938E+00
         -2   -1    0    0    0  501 -0.00000000000E+00  0.00000000000E+00  0.11696271703E+03  0.11696271703E+03  0.00000000000E+00 0. -1.
          2   -1    0    0  501    0  0.00000000000E+00 -0.00000000000E+00 -0.13924758577E+03  0.13924758577E+03  0.00000000000E+00 0.  1.
         23    2    1    2    0    0 -0.26423968491E+02  0.35044411245E+02  0.40370262936E+02  0.10957648528E+03  0.91928837298E+02 0.  0.
         23    2    1    2    0    0  0.26423968491E+02 -0.35044411245E+02 -0.62655131677E+02  0.14663381752E+03  0.12509785787E+03 0.  0.
          5    1    4    4  502    0 -0.43851998687E+02 -0.81913975818E+01  0.53639898399E+01  0.45125841490E+02  0.41800000000E+01 0. -1.
         -5    1    4    4    0  502  0.70275967177E+02 -0.26853013663E+02 -0.68019121516E+02  0.10150797603E+03  0.41800000000E+01 0. -1.
        -11    1    3    3    0    0 -0.48198320067E+02  0.47793786855E+02  0.48093804991E+02  0.83188570115E+02  0.00000000000E+00 0. -1.
         11    1    3    3    0    0  0.21774351576E+02 -0.12749375610E+02 -0.77235420548E+01  0.26387915167E+02  0.00000000000E+00 0.  1.
</event>
<event>
 8    1  0.8061721E-006  0.9892095E+02  0.7561462E-02  0.1282582E+00
         -2   -1    0    0    0  501 -0.00000000000E+00  0.00000000000E+00  0.13733393775E+02  0.13733393775E+02  0.00000000000E+00 0.  1.
          2   -1    0    0  501    0  0.00000000000E+00 -0.00000000000E+00 -0.10653347352E+04  0.10653347352E+04  0.00000000000E+00 0. -1.
         23    2    1    2    0    0  0.26226876170E+02  0.43612083683E+02 -0.41940055091E+03  0.43260726595E+03  0.93071808666E+02 0.  0.
         23    2    1    2    0    0 -0.26226876170E+02 -0.43612083683E+02 -0.63220079055E+03  0.64646086306E+03  0.12507575715E+03 0.  0.
          5    1    4    4  502    0 -0.28483696482E+02  0.19312499949E+02 -0.49953181755E+02  0.60803670835E+02  0.41800000000E+01 0.  1.
         -5    1    4    4    0  502  0.22568203122E+01 -0.62924583632E+02 -0.58224760879E+03  0.58565719223E+03  0.41800000000E+01 0.  1.
        -11    1    3    3    0    0 -0.23056489294E+02 -0.11811275428E+02 -0.55807901245E+02  0.61527471646E+02  0.00000000000E+00 0.  1.
         11    1    3    3    0    0  0.49283365464E+02  0.55423359111E+02 -0.36359264967E+03  0.37107979430E+03  0.00000000000E+00 0. -1.
</event>
<event>
 8    1  0.8061721E-006  0.1094168E+03  0.7561462E-02  0.1261654E+00
         -1   -1    0    0    0  501 -0.00000000000E+00  0.00000000000E+00  0.22188815583E+02  0.22188815583E+02  0.00000000000E+00 0.  1.
          1   -1    0    0  501    0  0.00000000000E+00 -0.00000000000E+00 -0.13949286572E+04  0.13949286572E+04  0.00000000000E+00 0. -1.
         23    2    1    2    0    0  0.90592925342E+02  0.13052063439E+02 -0.22485396000E+03  0.25881411657E+03  0.89710696846E+02 0.  0.
         23    2    1    2    0    0 -0.90592925342E+02 -0.13052063439E+02 -0.11478858817E+04  0.11583033563E+04  0.12508890162E+03 0.  0.
          5    1    4    4  502    0 -0.10454251128E+03 -0.18770371109E+02 -0.11280173864E+04  0.11330146336E+04  0.41800000000E+01 0. -1.
         -5    1    4    4    0  502  0.13949585938E+02  0.57183076696E+01 -0.19868495282E+02  0.25288722688E+02  0.41800000000E+01 0. -1.
        -11    1    3    3    0    0  0.49396089978E+02 -0.89312809023E+01 -0.30077078726E+02  0.58518135209E+02  0.00000000000E+00 0.  1.
         11    1    3    3    0    0  0.41196835364E+02  0.21983344342E+02 -0.19477688127E+03  0.20029598136E+03  0.00000000000E+00 0. -1.
</event>
<event>
 8    1  0.8061721E-006  0.1033820E+03  0.7561462E-02  0.1273341E+00
         -2   -1    0    0    0  501 -0.00000000000E+00  0.00000000000E+00  0.16562194188E+03  0.16562194188E+03  0.00000000000E+00 0.  1.
          2   -1    0    0  501    0  0.00000000000E+00 -0.00000000000E+00 -0.11975570118E+03  0.11975570118E+03  0.00000000000E+00 0. -1.
         23    2    1    2    0    0 -0.35562433527E+02  0.32699852573E+02  0.99335464688E+02  0.14071951888E+03  0.87180739923E+02 0.  0.
         23    2    1    2    0    0  0.35562433527E+02 -0.32699852573E+02 -0.53469223991E+02  0.14465812417E+03  0.12543144717E+03 0.  0.
          5    1    4    4  502    0  0.67321257279E+02 -0.73452868216E+01 -0.72754057513E+02  0.99482311015E+02  0.41800000000E+01 0. -1.
         -5    1    4    4    0  502 -0.31758823752E+02 -0.25354565751E+02  0.19284833522E+02  0.45175813158E+02  0.41800000000E+01 0.  1.
        -11    1    3    3    0    0 -0.28571830392E+01  0.57153603010E+02  0.70127071515E+02  0.90512452133E+02  0.00000000000E+00 0.  1.
         11    1    3    3    0    0 -0.32705250488E+02 -0.24453750437E+02  0.29208393173E+02  0.50207066751E+02  0.00000000000E+00 0. -1.
</event>
<event>
 8    1  0.8061721E-006  0.1562799E+03  0.7561462E-02  0.1192962E+00
         -1   -1    0    0    0  501 -0.00000000000E+00  0.00000000000E+00  0.41305687686E+02  0.41305687686E+02  0.00000000000E+00 0.  1.
          1   -1    0    0  501    0  0.00000000000E+00 -0.00000000000E+00 -0.10130933028E+04  0.10130933028E+04  0.00000000000E+00 0. -1.
         23    2    1    2    0    0 -0.89502773995E+02 -0.73956904488E+02 -0.13353678566E+03  0.19895405312E+03  0.90941035043E+02 0.  0.
         23    2    1    2    0    0  0.89502773995E+02  0.73956904488E+02 -0.83825082944E+03  0.85544493735E+03  0.12506485319E+03 0.  0.
          5    1    4    4  502    0  0.75631768493E+01  0.82548001617E+02 -0.52467888693E+03  0.53120314476E+03  0.41800000000E+01 0.  1.
         -5    1    4    4    0  502  0.81939597146E+02 -0.85910971285E+01 -0.31357194251E+03  0.32424179259E+03  0.41800000000E+01 0.  1.
        -11    1    3    3    0    0 -0.46905935426E+02  0.14325045977E+02 -0.51691826748E+02  0.71256007978E+02  0.00000000000E+00 0. -1.
         11    1    3    3    0    0 -0.42596838569E+02 -0.88281950465E+02 -0.81844958907E+02  0.12769804514E+03  0.00000000000E+00 0.  1.
</event>
<event>
 8    1  0.8061721E-006  0.1003286E+03  0.7561462E-02  0.1279607E+00
          2   -1    0    0  501    0  0.00000000000E+00  0.00000000000E+00  0.26353536366E+03  0.26353536366E+03  0.00000000000E+00 0. -1.
         -2   -1    0    0    0  501 -0.00000000000E+00 -0.00000000000E+00 -0.55404503868E+02  0.55404503868E+02  0.00000000000E+00 0.  1.
         23    2    1    2    0    0 -0.15454346781E+02  0.43340467650E+02  0.52312144823E+02  0.11389293274E+03  0.90098871591E+02 0.  0.
         23    2    1    2    0    0  0.15454346781E+02 -0.43340467650E+02  0.15581871497E+03  0.20504693479E+03  0.12509012975E+03 0.  0.
          5    1    4    4  502    0 -0.43259941683E+02  0.11824593434E+02  0.91086960247E+02  0.10161471494E+03  0.41800000000E+01 0. -1.
         -5    1    4    4    0  502  0.58714288464E+02 -0.55165061084E+02  0.64731754727E+02  0.10343221986E+03  0.41800000000E+01 0. -1.
        -11    1    3    3    0    0  0.19782053029E+02  0.32553918387E+02 -0.11856660384E+02  0.39895709292E+02  0.00000000000E+00 0.  1.
         11    1    3    3    0    0 -0.35236399810E+02  0.10786549263E+02  0.64168805207E+02  0.73997223450E+02  0.00000000000E+00 0. -1.
</event>
<event>
 8    1  0.8061721E-006  0.1041918E+03  0.7561462E-02  0.1271720E+00
         -1   -1    0    0    0  501 -0.00000000000E+00  0.00000000000E+00  0.56803786029E+02  0.56803786029E+02  0.00000000000E+00 0.  1.
          1   -1    0    0  501    0  0.00000000000E+00 -0.00000000000E+00 -0.26803170274E+03  0.26803170274E+03  0.00000000000E+00 0. -1.
         23    2    1    2    0    0  0.46942533048E+02  0.21666479567E+02 -0.57669388323E+02  0.12014225719E+03  0.91844247868E+02 0.  0.
         23    2    1    2    0    0 -0.46942533048E+02 -0.21666479567E+02 -0.15355852839E+03  0.20469323159E+03  0.12508421031E+03 0.  0.
          5    1    4    4  502    0 -0.62596594336E+02 -0.48480085619E+02 -0.15416573410E+03  0.17335858298E+03  0.41800000000E+01 0. -1.
         -5    1    4    4    0  502  0.15654061288E+02  0.26813606052E+02  0.60720570500E+00  0.31334648603E+02  0.41800000000E+01 0. -1.
        -11    1    3    3    0    0  0.20074592770E+02  0.52893582918E+02 -0.10542798095E+02  0.57548857334E+02  0.00000000000E+00 0.  1.
         11    1    3    3    0    0  0.26867940278E+02 -0.31227103352E+02 -0.47126590228E+02  0.62593399852E+02  0.00000000000E+00 0. -1.
</event>
<event>
 8    1  0.8061721E-006  0.1179501E+03  0.7561462E-02  0.1246518E+00
          2   -1    0    0  501    0  0.00000000000E+00  0.00000000000E+00  0.88504974387E+03  0.88504974387E+03  0.00000000000E+00 0. -1.
         -2   -1    0    0    0  501 -0.00000000000E+00 -0.00000000000E+00 -0.20228276712E+02  0.20228276712E+02  0.00000000000E+00 0.  1.
         23    2    1    2    0    0  0.51418103647E+02  0.18515790192E+02  0.19539339184E+03  0.22207198786E+03  0.90281417532E+02 0.  0.
         23    2    1    2    0    0 -0.51418103647E+02 -0.18515790192E+02  0.66942807533E+03  0.68320603272E+03  0.12509947740E+03 0.  0.
          5    1    4    4  502    0 -0.76205905307E+02  0.24978567533E+02  0.30770301199E+03  0.31800925273E+03  0.41800000000E+01 0. -1.
         -5    1    4    4    0  502  0.24787801659E+02 -0.43494357726E+02  0.36172506334E+03  0.36519677999E+03  0.41800000000E+01 0. -1.
        -11    1    3    3    0    0 -0.16980838581E+02  0.31457007177E+02  0.72431128417E+02  0.80772275833E+02  0.00000000000E+00 0.  1.
         11    1    3    3    0    0  0.68398942228E+02 -0.12941216984E+02  0.12296226342E+03  0.14129971203E+03  0.00000000000E+00 0. -1.
</event>
<event>
 8    1  0.8061721E-006  0.1951671E+03  0.7561462E-02  0.1153882E+00
          1   -1    0    0  501    0  0.00000000000E+00  0.00000000000E+00  0.42002059965E+03  0.42002059965E+03  0.00000000000E+00 0. -1.
         -1   -1    0    0    0  501 -0.00000000000E+00 -0.00000000000E+00 -0.10376417871E+03  0.10376417871E+03  0.00000000000E+00 0.  1.
         23    2    1    2    0    0 -0.67537221951E+02  0.16154643206E+03  0.19229756351E+03  0.27544756295E+03  0.90744040795E+02 0.  0.
         23    2    1    2    0    0  0.67537221951E+02 -0.16154643206E+03  0.12395885743E+03  0.24833721542E+03  0.12508816157E+03 0.  0.
          5    1    4    4  502    0  0.81076657171E+02 -0.54751799909E+02  0.22765136799E+02  0.10053311785E+03  0.41800000000E+01 0.  1.
         -5    1    4    4    0  502 -0.13539435221E+02 -0.10679463215E+03  0.10119372063E+03  0.14780409757E+03  0.41800000000E+01 0.  1.
        -11    1    3    3    0    0 -0.78246270277E+02  0.13468421495E+03  0.19105289560E+03  0.24650258718E+03  0.00000000000E+00 0. -1.
         11    1    3    3    0    0  0.10709048327E+02  0.26862217113E+02  0.12446679194E+01  0.28944975773E+02  0.00000000000E+00 0.  1.
</event>
<event>
 8    1  0.8061721E-006  0.1161466E+03  0.7561462E-02  0.1249593E+00
          2   -1    0    0  501    0  0.00000000000E+00  0.00000000000E+00  0.17119833056E+04  0.17119833056E+04  0.00000000000E+00 0. -1.
         -2   -1    0    0    0  501 -0.00000000000E+00 -0.00000000000E+00 -0.11688646856E+02  0.11688646856E+02  0.00000000000E+00 0.  1.
         23    2    1    2    0    0 -0.40189411739E+01 -0.43189767062E+02  0.28476730795E+03  0.30196989876E+03  0.90619491339E+02 0.  0.
         23    2    1    2    0    0  0.40189411739E+01  0.43189767062E+02  0.14155273508E+04  0.14217020537E+04  0.12505015307E+03 0.  0.
          5    1    4    4  502    0 -0.59503916664E+02  0.32004833304E+02  0.70897556229E+03  0.71220000406E+03  0.41800000000E+01 0.  1.
         -5    1    4    4    0  502  0.63522857838E+02  0.11184933757E+02  0.70655178849E+03  0.70950204963E+03  0.41800000000E+01 0.  1.
        -11    1    3    3    0    0  0.42471028076E+02 -0.12555335799E+02  0.14130606720E+03  0.14808385904E+03  0.00000000000E+00 0. -1.
         11    1    3    3    0    0 -0.46489969250E+02 -0.30634431263E+02  0.14346124076E+03  0.15388603972E+03  0.00000000000E+00 0.  1.
</event>
<event>
 8    1  0.8061721E-006  0.9032788E+02  0.7561462E-02  0.1302060E+00
         -1   -1    0    0    0  501 -0.00000000000E+00  0.00000000000E+00  0.49789322732E+03  0.49789322732E+03  0.00000000000E+00 0.  1.
          1   -1    0    0  501    0  0.00000000000E+00 -0.00000000000E+00 -0.26969585371E+02  0.26969585371E+02  0.00000000000E+00 0. -1.
         23    2    1    2    0    0  0.22355449965E+02  0.33458160054E+02  0.17577910508E+03  0.20178930643E+03  0.90561668438E+02 0.  0.
         23    2    1    2    0    0 -0.22355449965E+02 -0.33458160054E+02  0.29514453688E+03  0.32307350627E+03  0.12508788185E+03 0.  0.
          5    1    4    4  502    0 -0.66005421841E+01 -0.65905058360E+02  0.75818043689E+02  0.10076156025E+03  0.41800000000E+01 0.  1.
         -5    1    4    4    0  502 -0.15754907781E+02  0.32446898306E+02  0.21932649319E+03  0.22231194602E+03  0.41800000000E+01 0.  1.
        -11    1    3    3    0    0  0.16399136293E+02  0.54080861355E+02  0.17058766391E+03  0.17970481995E+03  0.00000000000E+00 0.  1.
         11    1    3    3    0    0  0.59563136712E+01 -0.20622701301E+02  0.51914411655E+01  0.22084486475E+02  0.00000000000E+00 0. -1.
</event>
<event>
 8    1  0.8061721E-006  0.1449992E+03  0.7561462E-02  0.1206756E+00
         -4   -1    0    0    0  501 -0.00000000000E+00  0.00000000000E+00  0.13340888020E+03  0.13340888020E+03  0.00000000000E+00 0.  1.
          4   -1    0    0  501    0  0.00000000000E+00 -0.00000000000E+00 -0.23819993581E+03  0.23819993581E+03  0.00000000000E+00 0. -1.
         23    2    1    2    0    0 -0.12819387298E+03 -0.38179135507E+02 -0.87389806263E+02  0.18765437651E+03  0.98416824422E+02 0.  0.
         23    2    1    2    0    0  0.12819387298E+03  0.38179135507E+02 -0.17401249350E+02  0.18395443949E+03  0.12508044161E+03 0.  0.
          5    1    4    4  502    0  0.12954193542E+03  0.44644298783E+02 -0.53400376368E+02  0.14711661715E+03  0.41800000000E+01 0.  1.
         -5    1    4    4    0  502 -0.13480624444E+01 -0.64651632756E+01  0.35999127018E+02  0.36837822338E+02  0.41800000000E+01 0.  1.
        -11    1    3    3    0    0 -0.43607671363E+02  0.13896622163E+02  0.11814280758E+02  0.47268618968E+02  0.00000000000E+00 0.  1.
         11    1    3    3    0    0 -0.84586201614E+02 -0.52075757670E+02 -0.99204087021E+02  0.14038575755E+03  0.00000000000E+00 0. -1.
</event>
<event>
 8    1  0.8061721E-006  0.8128186E+02  0.7561462E-02  0.1325453E+00
         -1   -1    0    0    0  501 -0.00000000000E+00  0.00000000000E+00  0.12978454699E+03  0.12978454699E+03  0.00000000000E+00 0.  1.
          1   -1    0    0  501    0  0.00000000000E+00 -0.00000000000E+00 -0.15852907202E+03  0.15852907202E+03  0.00000000000E+00 0. -1.
         23    2    1    2    0    0  0.55429113364E+01  0.20896263183E+02  0.76557265650E+02  0.12339526193E+03  0.94329200469E+02 0.  0.
         23    2    1    2    0    0 -0.55429113364E+01 -0.20896263183E+02 -0.10530179067E+03  0.16491835708E+03  0.12506885984E+03 0.  0.
          5    1    4    4  502    0 -0.58369532132E+02 -0.48074206327E+01 -0.17783928981E+02  0.61350257574E+02  0.41800000000E+01 0. -1.
         -5    1    4    4    0  502  0.52826620796E+02 -0.16088842550E+02 -0.87517861694E+02  0.10356809950E+03  0.41800000000E+01 0. -1.
        -11    1    3    3    0    0 -0.15971398851E+02 -0.30669929517E+01  0.87793598977E+02  0.89287222201E+02  0.00000000000E+00 0.  1.
         11    1    3    3    0    0  0.21514310187E+02  0.23963256135E+02 -0.11236333326E+02  0.34108039727E+02  0.00000000000E+00 0. -1.
</event>
<event>
 8    1  0.8061721E-006  0.7652756E+02  0.7561462E-02  0.1339205E+00
         -1   -1    0    0    0  501 -0.00000000000E+00  0.00000000000E+00  0.23513286341E+03  0.23513286341E+03  0.00000000000E+00 0.  1.
          1   -1    0    0  501    0  0.00000000000E+00 -0.00000000000E+00 -0.12020862907E+03  0.12020862907E+03  0.00000000000E+00 0. -1.
         23    2    1    2    0    0  0.14443326936E+02  0.17587914051E+01  0.18807622083E+03  0.20970376047E+03  0.91604035248E+02 0.  0.
         23    2    1    2    0    0 -0.14443326936E+02 -0.17587914051E+01 -0.73151986495E+02  0.14563773201E+03  0.12508969908E+03 0.  0.
          5    1    4    4  502    0  0.19001400637E+02 -0.30463695347E+02  0.20852462304E+02  0.41729935831E+02  0.41800000000E+01 0. -1.
         -5    1    4    4    0  502 -0.33444727574E+02  0.28704903942E+02 -0.94004448799E+02  0.10390779618E+03  0.41800000000E+01 0. -1.
        -11    1    3    3    0    0  0.39640112504E+02 -0.14991801068E+02  0.16830810396E+03  0.17356183474E+03  0.00000000000E+00 0.  1.
         11    1    3    3    0    0 -0.25196785568E+02  0.16750592473E+02  0.19768116870E+02  0.36141925734E+02  0.00000000000E+00 0. -1.
</event>
<event>
 8    1  0.8061721E-006  0.1236080E+03  0.7561462E-02  0.1237261E+00
         -2   -1    0    0    0  501 -0.00000000000E+00  0.00000000000E+00  0.31274833492E+02  0.31274833492E+02  0.00000000000E+00 0.  1.
          2   -1    0    0  501    0  0.00000000000E+00 -0.00000000000E+00 -0.73641724545E+03  0.73641724545E+03  0.00000000000E+00 0. -1.
         23    2    1    2    0    0 -0.12873838050E+02  0.98200505204E+02 -0.23032744659E+03  0.26678673977E+03  0.91188578962E+02 0.  0.
         23    2    1    2    0    0  0.12873838050E+02 -0.98200505204E+02 -0.47481496536E+03  0.50090533917E+03  0.12509129687E+03 0.  0.
          5    1    4    4  502    0 -0.25563767723E+02 -0.10365013770E+03 -0.23782493503E+03  0.26072021285E+03  0.41800000000E+01 0.  1.
         -5    1    4    4    0  502  0.38437605773E+02  0.54496324919E+01 -0.23699003033E+03  0.24018512632E+03  0.41800000000E+01 0.  1.
        -11    1    3    3    0    0  0.16364368539E+01  0.65916441623E+02 -0.22036230360E+03  0.23001565175E+03  0.00000000000E+00 0. -1.
         11    1    3    3    0    0 -0.14510274904E+02  0.32284063580E+02 -0.99651429920E+01  0.36771088017E+02  0.00000000000E+00 0.  1.
</event>
<event>
 8    1  0.8061721E-006  0.9613662E+02  0.7561462E-02  0.1288636E+00
         -1   -1    0    0    0  501 -0.00000000000E+00  0.00000000000E+00  0.46130959867E+03  0.46130959867E+03  0.00000000000E+00 0.  1.
          1   -1    0    0  501    0  0.00000000000E+00 -0.00000000000E+00 -0.39229031883E+02  0.39229031883E+02  0.00000000000E+00 0. -1.
         23    2    1    2    0    0 -0.10624936338E+02 -0.15924920724E+02  0.33291220985E+03  0.34573198481E+03  0.91288408245E+02 0.  0.
         23    2    1    2    0    0  0.10624936338E+02  0.15924920724E+02  0.89168356941E+02  0.15480664575E+03  0.12509040457E+03 0.  0.
          5    1    4    4  502    0 -0.43855427326E+02  0.25221245427E+02  0.11317073546E+01  0.50775613127E+02  0.41800000000E+01 0. -1.
         -5    1    4    4    0  502  0.54480363665E+02 -0.92963247031E+01  0.88036649587E+02  0.10403103262E+03  0.41800000000E+01 0. -1.
        -11    1    3    3    0    0  0.34919247498E+02 -0.20198699876E+02  0.91115475600E+02  0.99646230316E+02  0.00000000000E+00 0.  1.
         11    1    3    3    0    0 -0.45544183836E+02  0.42737791524E+01  0.24179673425E+03  0.24608575449E+03  0.00000000000E+00 0. -1.
</event>
<event>
 8    1  0.8061721E-006  0.1678603E+03  0.7561462E-02  0.1180098E+00
          1   -1    0    0  501    0  0.00000000000E+00  0.00000000000E+00  0.30868708235E+03  0.30868708235E+03  0.00000000000E+00 0. -1.
         -1   -1    0    0    0  501 -0.00000000000E+00 -0.00000000000E+00 -0.11282505933E+03  0.11282505933E+03  0.00000000000E+00 0.  1.
         23    2    1    2    0    0 -0.14922396990E+03 -0.11803510435E+02  0.72381268983E+02  0.19063857637E+03  0.93257185501E+02 0.  0.
         23    2    1    2    0    0  0.14922396990E+03  0.11803510435E+02  0.12348075404E+03  0.23087356532E+03  0.12509192817E+03 0.  0.
          5    1    4    4  502    0  0.10231585825E+03  0.37261897460E+02  0.15125345325E+02  0.11001469139E+03  0.41800000000E+01 0. -1.
         -5    1    4    4    0  502  0.46908111653E+02 -0.25458387025E+02  0.10835540871E+03  0.12085887392E+03  0.41800000000E+01 0. -1.
        -11    1    3    3    0    0 -0.45854183731E+02 -0.45396200993E+02  0.99325546815E+01  0.65284583730E+02  0.00000000000E+00 0. -1.
         11    1    3    3    0    0 -0.10336978617E+03  0.33592690559E+02  0.62448714301E+02  0.12535399264E+03  0.00000000000E+00 0.  1.
</event>
<event>
 8    1  0.8061721E-006  0.2447791E+03  0.7561462E-02  0.1116649E+00
         -2   -1    0    0    0  501 -0.00000000000E+00  0.00000000000E+00  0.81801013690E+03  0.81801013690E+03  0.00000000000E+00 0.  1.
          2   -1    0    0  501    0  0.00000000000E+00 -0.00000000000E+00 -0.10318219916E+03  0.10318219916E+03  0.00000000000E+00 0. -1.
         23    2    1    2    0    0  0.13811309302E+03  0.18120335198E+03  0.57786912283E+03  0.62739642799E+03  0.88225129649E+02 0.  0.
         23    2    1    2    0    0 -0.13811309302E+03 -0.18120335198E+03  0.13695881491E+03  0.29379590807E+03  0.12509371442E+03 0.  0.
          5    1    4    4  502    0 -0.55621277538E+01 -0.10695812436E+03  0.45724267613E+02  0.11652964722E+03  0.41800000000E+01 0.  1.
         -5    1    4    4    0  502 -0.13255096527E+03 -0.74245227613E+02  0.91234547297E+02  0.17726626085E+03  0.41800000000E+01 0.  1.
        -11    1    3    3    0    0  0.10162782849E+03  0.10625742335E+03  0.25913026375E+03  0.29793849891E+03  0.00000000000E+00 0. -1.
         11    1    3    3    0    0  0.36485264528E+02  0.74945928624E+02  0.31873885908E+03  0.32945792908E+03  0.00000000000E+00 0.  1.
</event>
<event>
 8    1  0.8061721E-006  0.1000083E+03  0.7561462E-02  0.1280279E+00
         -2   -1    0    0    0  501 -0.00000000000E+00  0.00000000000E+00  0.15167621712E+02  0.15167621712E+02  0.00000000000E+00 0.  1.
          2   -1    0    0  501    0  0.00000000000E+00 -0.00000000000E+00 -0.18278889860E+04  0.18278889860E+04  0.00000000000E+00 0. -1.
         23    2    1    2    0    0 -0.53970138125E+02 -0.25364605472E+02 -0.25003503969E+03  0.27423773549E+03  0.95565032679E+02 0.  0.
         23    2    1    2    0    0  0.53970138125E+02  0.25364605472E+02 -0.15626863246E+04  0.15688188722E+04  0.12509182927E+03 0.  0.
          5    1    4    4  502    0  0.79529334591E+02  0.30232693334E+02 -0.62684075322E+03  0.63260234991E+03  0.41800000000E+01 0. -1.
         -5    1    4    4    0  502 -0.25559196467E+02 -0.48680878624E+01 -0.93584557136E+03  0.93621652231E+03  0.41800000000E+01 0. -1.
        -11    1    3    3    0    0 -0.53169369613E+01 -0.37872925081E+02 -0.19894385136E+03  0.20258648590E+03  0.00000000000E+00 0. -1.
         11    1    3    3    0    0 -0.48653201163E+02  0.12508319609E+02 -0.51091188330E+02  0.71651249590E+02  0.00000000000E+00 0.  1.
</event>
<event>
 8    1  0.8061721E-006  0.2009062E+03  0.7561462E-02  0.1148977E+00
         -4   -1    0    0    0  501 -0.00000000000E+00  0.00000000000E+00  0.15361658668E+03  0.15361658668E+03  0.00000000000E+00 0. -1.
          4   -1    0    0  501    0  0.00000000000E+00 -0.00000000000E+00 -0.32708153502E+03  0.32708153502E+03  0.00000000000E+00 0.  1.
         23    2    1    2    0    0 -0.40729173962E+02 -0.17803905941E+03 -0.15905539315E+03  0.25885584482E+03  0.91383576314E+02 0.  0.
         23    2    1    2    0    0  0.40729173962E+02  0.17803905941E+03 -0.14409555183E+02  0.22184227688E+03  0.12509831432E+03 0.  0.
          5    1    4    4  502    0  0.51934692730E+02  0.19292826012E+03 -0.35470164917E+01  0.19987140763E+03  0.41800000000E+01 0.  1.
         -5    1    4    4    0  502 -0.11205518767E+02 -0.14889200714E+02 -0.10862538691E+02  0.21970869249E+02  0.41800000000E+01 0.  1.
        -11    1    3    3    0    0 -0.10232904384E+02 -0.64709682207E+02 -0.11717523841E+03  0.13424638468E+03  0.00000000000E+00 0.  1.
         11    1    3    3    0    0 -0.30496269579E+02 -0.11332937720E+03 -0.41880154743E+02  0.12460946014E+03  0.00000000000E+00 0. -1.
</event>
<event>
 8    1  0.8061721E-006  0.1067276E+03  0.7561462E-02  0.1266753E+00
         -2   -1    0    0    0  501 -0.00000000000E+00  0.00000000000E+00  0.19144492271E+03  0.19144492271E+03  0.00000000000E+00 0.  1.
          2   -1    0    0  501    0  0.00000000000E+00 -0.00000000000E+00 -0.69296836638E+02  0.69296836638E+02  0.00000000000E+00 0. -1.
         23    2    1    2    0    0 -0.99576056525E+00  0.32937089682E+02  0.61832750136E+02  0.11801578339E+03  0.94966271507E+02 0.  0.
         23    2    1    2    0    0  0.99576056525E+00 -0.32937089682E+02  0.60315335938E+02  0.14272597596E+03  0.12508765346E+03 0.  0.
          5    1    4    4  502    0  0.20557573903E+02 -0.68801136038E+02  0.70178928748E+02  0.10049260970E+03  0.41800000000E+01 0.  1.
         -5    1    4    4    0  502 -0.19561813337E+02  0.35864046357E+02 -0.98635928103E+01  0.42233366255E+02  0.41800000000E+01 0.  1.
        -11    1    3    3    0    0 -0.41816242458E+01  0.66558331358E+02  0.39117907164E+02  0.77315639527E+02  0.00000000000E+00 0. -1.
         11    1    3    3    0    0  0.31858636805E+01 -0.33621241676E+02  0.22714842972E+02  0.40700143863E+02  0.00000000000E+00 0.  1.
</event>
<event>
 8    1  0.8061721E-006  0.1328559E+03  0.7561462E-02  0.1223279E+00
         -1   -1    0    0    0  501 -0.00000000000E+00  0.00000000000E+00  0.73731295523E+02  0.73731295523E+02  0.00000000000E+00 0.  1.
          1   -1    0    0  501    0  0.00000000000E+00 -0.00000000000E+00 -0.31594548619E+03  0.31594548619E+03  0.00000000000E+00 0. -1.
         23    2    1    2    0    0  0.24833770703E+02 -0.10092309505E+03 -0.80032283126E+02  0.15999902479E+03  0.91609684583E+02 0.  0.
         23    2    1    2    0    0 -0.24833770703E+02  0.10092309505E+03 -0.16218190754E+03  0.22967775692E+03  0.12508682428E+03 0.  0.
          5    1    4    4  502    0 -0.48014502029E+02  0.10903843268E+03 -0.79419742675E+02  0.14324712958E+03  0.41800000000E+01 0.  1.
         -5    1    4    4    0  502  0.23180731326E+02 -0.81153376292E+01 -0.82762164864E+02  0.86430627341E+02  0.41800000000E+01 0.  1.
        -11    1    3    3    0    0 -0.66501027818E+00 -0.95514884707E+02 -0.90807623084E+02  0.13179362598E+03  0.00000000000E+00 0. -1.
         11    1    3    3    0    0  0.25498780982E+02 -0.54082103428E+01  0.10775339958E+02  0.28205398807E+02  0.00000000000E+00 0.  1.
</event>
<event>
 8    1  0.8061721E-006  0.9803699E+02  0.7561462E-02  0.1284479E+00
         -1   -1    0    0    0  501 -0.00000000000E+00  0.00000000000E+00  0.81110732420E+02  0.81110732420E+02  0.00000000000E+00 0.  1.
          1   -1    0    0  501    0  0.00000000000E+00 -0.00000000000E+00 -0.34064747453E+03  0.34064747453E+03  0.00000000000E+00 0. -1.
         23    2    1    2    0    0 -0.32644207042E+02  0.19358913800E+02  0.26489547538E+02  0.10727161804E+03  0.96773406013E+02 0.  0.
         23    2    1    2    0    0  0.32644207042E+02 -0.19358913800E+02 -0.28602628965E+03  0.31448658891E+03  0.12510141661E+03 0.  0.
          5    1    4    4  502    0 -0.39540462621E+02  0.23180903539E+02 -0.85060816555E+02  0.96714101279E+02  0.41800000000E+01 0. -1.
         -5    1    4    4    0  502  0.72184669663E+02 -0.42539817339E+02 -0.20096547310E+03  0.21777248764E+03  0.41800000000E+01 0. -1.
        -11    1    3    3    0    0 -0.24488996938E+02  0.38343174579E+02  0.55431188814E+02  0.71711412629E+02  0.00000000000E+00 0.  1.
         11    1    3    3    0    0 -0.81552101038E+01 -0.18984260779E+02 -0.28941641276E+02  0.35560205412E+02  0.00000000000E+00 0. -1.
</event>
<event>
 8    1  0.8061721E-006  0.8777130E+02  0.7561462E-02  0.1308340E+00
          2   -1    0    0  501    0  0.00000000000E+00  0.00000000000E+00  0.32017767195E+03  0.32017767195E+03  0.00000000000E+00 0. -1.
         -2   -1    0    0    0  501 -0.00000000000E+00 -0.00000000000E+00 -0.72529798315E+02  0.72529798315E+02  0.00000000000E+00 0.  1.
         23    2    1    2    0    0  0.45608267219E+01 -0.20690484130E+02 -0.26737911327E+02  0.94284212868E+02  0.87895959066E+02 0.  0.
         23    2    1    2    0    0 -0.45608267219E+01  0.20690484130E+02  0.27438578496E+03  0.29842325740E+03  0.11541223632E+03 0.  0.
          5    1    4    4  502    0  0.37598447326E+02 -0.66406837183E+01  0.29577253279E+02  0.48477089775E+02  0.41800000000E+01 0. -1.
         -5    1    4    4    0  502 -0.42159274048E+02  0.27331167848E+02  0.24480853168E+03  0.24994616762E+03  0.41800000000E+01 0.  1.
        -11    1    3    3    0    0  0.37707778624E+02 -0.34215203697E+02 -0.23590515169E+01  0.50971775100E+02  0.00000000000E+00 0. -1.
         11    1    3    3    0    0 -0.33146951902E+02  0.13524719567E+02 -0.24378859810E+02  0.43312437768E+02  0.00000000000E+00 0.  1.
</event>
<event>
 8    1  0.8061721E-006  0.1188636E+03  0.7561462E-02  0.1244984E+00
          2   -1    0    0  501    0  0.00000000000E+00  0.00000000000E+00  0.41295281208E+02  0.41295281208E+02  0.00000000000E+00 0. -1.
         -2   -1    0    0    0  501 -0.00000000000E+00 -0.00000000000E+00 -0.38586249385E+03  0.38586249385E+03  0.00000000000E+00 0.  1.
         23    2    1    2    0    0 -0.17036855682E+02  0.51525140624E+02 -0.16987174858E+03  0.20554977679E+03  0.10222135395E+03 0.  0.
         23    2    1    2    0    0  0.17036855682E+02 -0.51525140624E+02 -0.17469546406E+03  0.22160799827E+03  0.12508599109E+03 0.  0.
          5    1    4    4  502    0  0.21498097374E+02 -0.88505766966E+02 -0.15353135833E+03  0.17856312432E+03  0.41800000000E+01 0. -1.
         -5    1    4    4    0  502 -0.44612416927E+01  0.36980626342E+02 -0.21164105735E+02  0.43044873953E+02  0.41800000000E+01 0. -1.
        -11    1    3    3    0    0  0.26179541904E+02 -0.14674818053E+02 -0.19881546352E+02  0.35999924786E+02  0.00000000000E+00 0. -1.
         11    1    3    3    0    0 -0.43216397586E+02  0.66199958677E+02 -0.14999020223E+03  0.16954985200E+03  0.00000000000E+00 0.  1.
</event>
<event>
 8    1  0.8061721E-006  0.1616334E+03  0.7561462E-02  0.1186865E+00
          2   -1    0    0  501    0  0.00000000000E+00  0.00000000000E+00  0.54318287893E+03  0.54318287893E+03  0.00000000000E+00 0. -1.
         -2   -1    0    0    0  501 -0.00000000000E+00 -0.00000000000E+00 -0.68097155767E+02  0.68097155767E+02  0.00000000000E+00 0.  1.
         23    2    1    2    0    0  0.93122350330E+02  0.83085070690E+02  0.67172700879E+02  0.16674024364E+03  0.87836416156E+02 0.  0.
         23    2    1    2    0    0 -0.93122350330E+02 -0.83085070690E+02  0.40791302229E+03  0.44453979106E+03  0.12509073100E+03 0.  0.
          5    1    4    4  502    0 -0.11840105927E+03 -0.46975340219E+02  0.25104833288E+03  0.28154614411E+03  0.41800000000E+01 0. -1.
         -5    1    4    4    0  502  0.25278708943E+02 -0.36109730471E+02  0.15686468941E+03  0.16299364694E+03  0.41800000000E+01 0. -1.
        -11    1    3    3    0    0  0.10496048480E+03  0.89623730717E+02  0.66489479601E+02  0.15319911023E+03  0.00000000000E+00 0.  1.
         11    1    3    3    0    0 -0.11838134472E+02 -0.65386600269E+01  0.68322127797E+00  0.13541133410E+02  0.00000000000E+00 0. -1.
</event>
<event>
 8    1  0.8061721E-006  0.2093864E+03  0.7561462E-02  0.1142053E+00
         -2   -1    0    0    0  501 -0.00000000000E+00  0.00000000000E+00  0.21050295375E+03  0.21050295375E+03  0.00000000000E+00 0.  1.
          2   -1    0    0  501    0  0.00000000000E+00 -0.00000000000E+00 -0.33490898503E+03  0.33490898503E+03  0.00000000000E+00 0. -1.
         23    2    1    2    0    0 -0.17046427320E+02 -0.19524840798E+03  0.85724792008E+02  0.23202003605E+03  0.89844508239E+02 0.  0.
         23    2    1    2    0    0  0.17046427320E+02  0.19524840798E+03 -0.21013082328E+03  0.31339190273E+03  0.12508797024E+03 0.  0.
          5    1    4    4  502    0 -0.12898916330E+02  0.12942666932E+01 -0.72217766095E+02  0.73491055976E+02  0.41800000000E+01 0. -1.
         -5    1    4    4    0  502  0.29945343650E+02  0.19395414129E+03 -0.13791305719E+03  0.23990084675E+03  0.41800000000E+01 0. -1.
        -11    1    3    3    0    0 -0.35211374145E+02 -0.43230524995E+02  0.49809833916E+02  0.74764555207E+02  0.00000000000E+00 0.  1.
         11    1    3    3    0    0  0.18164946825E+02 -0.15201788299E+03  0.35914958091E+02  0.15725548085E+03  0.00000000000E+00 0. -1.
</event>
<event>
 8    1  0.8061721E-006  0.1018914E+03  0.7561462E-02  0.1276368E+00
         -1   -1    0    0    0  501 -0.00000000000E+00  0.00000000000E+00  0.12748978524E+03  0.12748978524E+03  0.00000000000E+00 0.  1.
          1   -1    0    0  501    0  0.00000000000E+00 -0.00000000000E+00 -0.13766982505E+03  0.13766982505E+03  0.00000000000E+00 0. -1.
         23    2    1    2    0    0  0.50321144215E+02 -0.42308655658E+02  0.34105035359E+02  0.11706760343E+03  0.90661074545E+02 0.  0.
         23    2    1    2    0    0 -0.50321144215E+02  0.42308655658E+02 -0.44285075172E+02  0.14809200686E+03  0.12509130552E+03 0.  0.
          5    1    4    4  502    0 -0.86429548788E+02  0.51271360255E+02 -0.46032130762E+02  0.11061305867E+03  0.41800000000E+01 0.  1.
         -5    1    4    4    0  502  0.36108404573E+02 -0.89627045972E+01  0.17470555894E+01  0.37478948194E+02  0.41800000000E+01 0.  1.
        -11    1    3    3    0    0  0.89154389410E+01 -0.83419515098E+01 -0.30675418048E+02  0.33015973087E+02  0.00000000000E+00 0. -1.
         11    1    3    3    0    0  0.41405705274E+02 -0.33966704149E+02  0.64780453407E+02  0.84051630344E+02  0.00000000000E+00 0.  1.
</event>
<event>
 8    1  0.8061721E-006  0.7122949E+02  0.7561462E-02  0.1355961E+00
         -1   -1    0    0    0  501 -0.00000000000E+00  0.00000000000E+00  0.72184395543E+02  0.72184395543E+02  0.00000000000E+00 0.  1.
          1   -1    0    0  501    0  0.00000000000E+00 -0.00000000000E+00 -0.20683692825E+03  0.20683692825E+03  0.00000000000E+00 0. -1.
         23    2    1    2    0    0 -0.31818447325E+02 -0.43757712472E+02 -0.48536796628E+02  0.11780528415E+03  0.92709834195E+02 0.  0.
         23    2    1    2    0    0  0.31818447325E+02  0.43757712472E+02 -0.86115736075E+02  0.16121603964E+03  0.12509012929E+03 0.  0.
          5    1    4    4  502    0  0.39553662704E+02  0.50266005957E+02 -0.11426511669E+03  0.13101584973E+03  0.41800000000E+01 0. -1.
         -5    1    4    4    0  502 -0.77352153794E+01 -0.65082934854E+01  0.28149380618E+02  0.30200189904E+02  0.41800000000E+01 0. -1.
        -11    1    3    3    0    0 -0.40380773016E+02 -0.26919540515E+02 -0.72529559715E+02  0.87268582683E+02  0.00000000000E+00 0. -1.
         11    1    3    3    0    0  0.85623256912E+01 -0.16838171957E+02  0.23992763088E+02  0.30536701470E+02  0.00000000000E+00 0.  1.
</event>
<event>
 8    1  0.8061721E-006  0.6527452E+02  0.7561462E-02  0.1376942E+00
         -2   -1    0    0    0  501 -0.00000000000E+00  0.00000000000E+00  0.99313898139E+02  0.99313898139E+02  0.00000000000E+00 0.  1.
          2   -1    0    0  501    0  0.00000000000E+00 -0.00000000000E+00 -0.13653416169E+03  0.13653416169E+03  0.00000000000E+00 0. -1.
         23    2    1    2    0    0 -0.23385889382E+02  0.34112326634E+02 -0.11816755025E+02  0.10167242926E+03  0.92125439055E+02 0.  0.
         23    2    1    2    0    0  0.23385889382E+02 -0.34112326634E+02 -0.25403508524E+02  0.13417563057E+03  0.12508881222E+03 0.  0.
          5    1    4    4  502    0 -0.16885517804E+02 -0.43328997672E+02  0.36756295996E+02  0.59422390108E+02  0.41800000000E+01 0. -1.
         -5    1    4    4    0  502  0.40271407186E+02  0.92166710378E+01 -0.62159804520E+02  0.74753240464E+02  0.41800000000E+01 0. -1.
        -11    1    3    3    0    0 -0.19081102360E+02  0.20266933810E+02  0.39513452171E+02  0.48333735380E+02  0.00000000000E+00 0.  1.
         11    1    3    3    0    0 -0.43047870219E+01  0.13845392824E+02 -0.51330207196E+02  0.53338693877E+02  0.00000000000E+00 0. -1.
</event>
<event>
 8    1  0.8061721E-006  0.9753088E+02  0.7561462E-02  0.1285576E+00
          2   -1    0    0  501    0  0.00000000000E+00  0.00000000000E+00  0.40938725944E+03  0.40938725944E+03  0.00000000000E+00 0. -1.
         -2   -1    0    0    0  501 -0.00000000000E+00 -0.00000000000E+00 -0.38671233828E+02  0.38671233828E+02  0.00000000000E+00 0.  1.
         23    2    1    2    0    0  0.33101548004E+02 -0.54406090654E+02  0.15263066611E+03  0.18870558981E+03  0.90873231521E+02 0.  0.
         23    2    1    2    0    0 -0.33101548004E+02  0.54406090654E+02  0.21808535950E+03  0.25935290346E+03  0.12508784643E+03 0.  0.
          5    1    4    4  502    0 -0.58212984102E+02  0.33439450926E+01  0.36272284148E+02  0.68797416261E+02  0.41800000000E+01 0.  1.
         -5    1    4    4    0  502  0.25111436098E+02  0.51062145562E+02  0.18181307535E+03  0.19055548720E+03  0.41800000000E+01 0.  1.
        -11    1    3    3    0    0 -0.11077701162E+02 -0.22409830508E+02 -0.16626378646E+01  0.25053549272E+02  0.00000000000E+00 0.  1.
         11    1    3    3    0    0  0.44179249166E+02 -0.31996260146E+02  0.15429330397E+03  0.16365204054E+03  0.00000000000E+00 0. -1.
</event>
<event>
 8    1  0.8061721E-006  0.1304027E+03  0.7561462E-02  0.1226859E+00
         -3   -1    0    0    0  501 -0.00000000000E+00  0.00000000000E+00  0.14456087949E+03  0.14456087949E+03  0.00000000000E+00 0.  1.
          3   -1    0    0  501    0  0.00000000000E+00 -0.00000000000E+00 -0.26952512934E+03  0.26952512934E+03  0.00000000000E+00 0. -1.
         23    2    1    2    0    0  0.67675436322E+02 -0.94888405770E+02  0.60777248212E+02  0.16163777304E+03  0.94069769538E+02 0.  0.
         23    2    1    2    0    0 -0.67675436322E+02  0.94888405770E+02 -0.18574149806E+03  0.25244823579E+03  0.12508570430E+03 0.  0.
          5    1    4    4  502    0 -0.68845129407E+02  0.86453028525E+02 -0.58993011719E+02  0.12534522654E+03  0.41800000000E+01 0.  1.
         -5    1    4    4    0  502  0.11696930851E+01  0.84353772445E+01 -0.12674848634E+03  0.12710300925E+03  0.41800000000E+01 0.  1.
        -11    1    3    3    0    0  0.31467078365E+02  0.73062846167E+01 -0.79528080549E+01  0.33268693568E+02  0.00000000000E+00 0. -1.
         11    1    3    3    0    0  0.36208357957E+02 -0.10219469039E+03  0.68730056266E+02  0.12836907947E+03  0.00000000000E+00 0.  1.
</event>
<event>
 8    1  0.8061721E-006  0.1451434E+03  0.7561462E-02  0.1206571E+00
         -2   -1    0    0    0  501 -0.00000000000E+00  0.00000000000E+00  0.29355650261E+02  0.29355650261E+02  0.00000000000E+00 0.  1.
          2   -1    0    0  501    0  0.00000000000E+00 -0.00000000000E+00 -0.81076678549E+03  0.81076678549E+03  0.00000000000E+00 0. -1.
         23    2    1    2    0    0  0.94891689320E+01 -0.97610166267E+02 -0.21696721976E+03  0.25372519592E+03  0.87657924392E+02 0.  0.
         23    2    1    2    0    0 -0.94891689320E+01  0.97610166267E+02 -0.56444391548E+03  0.58639723984E+03  0.12508797018E+03 0.  0.
          5    1    4    4  502    0 -0.53143261696E+02  0.15714976003E+01 -0.19577595752E+03  0.20290976766E+03  0.41800000000E+01 0. -1.
         -5    1    4    4    0  502  0.43654092764E+02  0.96038668667E+02 -0.36866795795E+03  0.38348747217E+03  0.41800000000E+01 0. -1.
        -11    1    3    3    0    0  0.17210603812E+02  0.12327670627E+02 -0.39699636992E+02  0.44991527246E+02  0.00000000000E+00 0.  1.
         11    1    3    3    0    0 -0.77214348803E+01 -0.10993783689E+03 -0.17726758276E+03  0.20873366867E+03  0.00000000000E+00 0. -1.
</event>
<event>
 8    1  0.8061721E-006  0.1064364E+03  0.7561462E-02  0.1267315E+00
         -2   -1    0    0    0  501 -0.00000000000E+00  0.00000000000E+00  0.44444654077E+02  0.44444654077E+02  0.00000000000E+00 0.  1.
          2   -1    0    0  501    0  0.00000000000E+00 -0.00000000000E+00 -0.39987886286E+03  0.39987886286E+03  0.00000000000E+00 0. -1.
         23    2    1    2    0    0  0.57756979908E+02  0.32422991211E+02 -0.10310718995E+03  0.15500925482E+03  0.94919214985E+02 0.  0.
         23    2    1    2    0    0 -0.57756979908E+02 -0.32422991211E+02 -0.25232701883E+03  0.28931426211E+03  0.12508676486E+03 0.  0.
          5    1    4    4  502    0  0.25742602076E+02 -0.18252532935E+01 -0.52207099177E+01  0.26659732243E+02  0.41800000000E+01 0.  1.
         -5    1    4    4    0  502 -0.83499581985E+02 -0.30597737917E+02 -0.24710630891E+03  0.26265452987E+03  0.41800000000E+01 0.  1.
        -11    1    3    3    0    0  0.16980479593E+02 -0.23189577501E+02 -0.75398025373E+02  0.80690491521E+02  0.00000000000E+00 0. -1.
         11    1    3    3    0    0  0.40776500315E+02  0.55612568712E+02 -0.27709164576E+02  0.74318763298E+02  0.00000000000E+00 0.  1.
</event>
<event>
 8    1  0.1584214E-005  0.1181760E+03  0.7561462E-02  0.1246137E+00
          2   -1    0    0  501    0  0.00000000000E+00  0.00000000000E+00  0.64200250418E+03  0.64200250418E+03  0.00000000000E+00 0.  1.
         -2   -1    0    0    0  501 -0.00000000000E+00 -0.00000000000E+00 -0.30161703627E+02  0.30161703627E+02  0.00000000000E+00 0. -1.
         23    2    1    2    0    0  0.11024649300E+02  0.91370287049E+02  0.21003412795E+03  0.24139022379E+03  0.75397831480E+02 0.  0.
         23    2    1    2    0    0 -0.11024649300E+02 -0.91370287049E+02  0.40180667261E+03  0.43077398402E+03  0.12509017110E+03 0.  0.
          5    1    4    4  502    0 -0.21974822041E+02  0.12965027018E+02  0.14826536494E+02  0.29804082165E+02  0.41800000000E+01 0.  1.
         -5    1    4    4    0  502  0.10950172740E+02 -0.10433531407E+03  0.38698013611E+03  0.40096990185E+03  0.41800000000E+01 0.  1.
        -11    1    3    3    0    0  0.31634130065E+02  0.47982420322E+02  0.56799868996E+02  0.80803811562E+02  0.00000000000E+00 0. -1.
         11    1    3    3    0    0 -0.20609480764E+02  0.43387866727E+02  0.15323425895E+03  0.16058641223E+03  0.00000000000E+00 0.  1.
</event>
<event>
 8    1  0.8061721E-006  0.1197993E+03  0.7561462E-02  0.1243429E+00
          2   -1    0    0  501    0  0.00000000000E+00  0.00000000000E+00  0.22473977687E+03  0.22473977687E+03  0.00000000000E+00 0. -1.
         -2   -1    0    0    0  501 -0.00000000000E+00 -0.00000000000E+00 -0.83651977982E+02  0.83651977982E+02  0.00000000000E+00 0.  1.
         23    2    1    2    0    0  0.56772747655E+02 -0.48772490742E+02  0.23049516521E+02  0.12082174953E+03  0.92003881534E+02 0.  0.
         23    2    1    2    0    0 -0.56772747655E+02  0.48772490742E+02  0.11803828236E+03  0.18757000532E+03  0.12509024768E+03 0.  0.
          5    1    4    4  502    0  0.24272864944E+02 -0.25701243956E+02  0.27263175537E+02  0.44838365869E+02  0.41800000000E+01 0. -1.
         -5    1    4    4    0  502 -0.81045612599E+02  0.74473734698E+02  0.90775106825E+02  0.14273163945E+03  0.41800000000E+01 0. -1.
        -11    1    3    3    0    0 -0.81053875863E+01 -0.22399501900E+02 -0.26043883505E+02  0.35294742687E+02  0.00000000000E+00 0.  1.
         11    1    3    3    0    0  0.64878135241E+02 -0.26372988843E+02  0.49093400026E+02  0.85527006840E+02  0.00000000000E+00 0. -1.
</event>
<event>
 8    1  0.8061721E-006  0.1772941E+03  0.7561462E-02  0.1170448E+00
         -2   -1    0    0    0  501 -0.00000000000E+00  0.00000000000E+00  0.37801775155E+02  0.37801775155E+02  0.00000000000E+00 0.  1.
          2   -1    0    0  501    0  0.00000000000E+00 -0.00000000000E+00 -0.12070098973E+04  0.12070098973E+04  0.00000000000E+00 0. -1.
         23    2    1    2    0    0  0.10180076851E+03  0.11708510354E+03 -0.28106891481E+03  0.33458412530E+03  0.94204480217E+02 0.  0.
         23    2    1    2    0    0 -0.10180076851E+03 -0.11708510354E+03 -0.88813920738E+03  0.91022754720E+03  0.12510243026E+03 0.  0.
          5    1    4    4  502    0 -0.92406778966E+02 -0.14291331827E+03 -0.79528136016E+03  0.81329769676E+03  0.41800000000E+01 0. -1.
         -5    1    4    4    0  502 -0.93939895397E+01  0.25828214732E+02 -0.92857847218E+02  0.96929850436E+02  0.41800000000E+01 0. -1.
        -11    1    3    3    0    0  0.44520137792E+02  0.35891566298E+02 -0.30021725520E+02  0.64587546814E+02  0.00000000000E+00 0.  1.
         11    1    3    3    0    0  0.57280630714E+02  0.81193537240E+02 -0.25104718929E+03  0.26999657849E+03  0.00000000000E+00 0. -1.
</event>
<event>
 8    1  0.8061721E-006  0.1482029E+03  0.7561462E-02  0.1202699E+00
         -2   -1    0    0    0  501 -0.00000000000E+00  0.00000000000E+00  0.13896308511E+03  0.13896308511E+03  0.00000000000E+00 0.  1.
          2   -1    0    0  501    0  0.00000000000E+00 -0.00000000000E+00 -0.19661785110E+03  0.19661785110E+03  0.00000000000E+00 0. -1.
         23    2    1    2    0    0  0.54851631896E+01  0.12140837395E+03  0.39580500842E+00  0.15176435109E+03  0.90896541841E+02 0.  0.
         23    2    1    2    0    0 -0.54851631896E+01 -0.12140837395E+03 -0.58050570998E+02  0.18381658512E+03  0.12509431599E+03 0.  0.
          5    1    4    4  502    0  0.54903072691E+02 -0.87963819385E+02 -0.46432497168E+02  0.11369006159E+03  0.41800000000E+01 0.  1.
         -5    1    4    4    0  502 -0.60388235881E+02 -0.33444554565E+02 -0.11618073830E+02  0.70126523530E+02  0.41800000000E+01 0.  1.
        -11    1    3    3    0    0  0.13449932960E+02  0.56584803413E+02 -0.43882359981E+02  0.72858782528E+02  0.00000000000E+00 0. -1.
         11    1    3    3    0    0 -0.79647697705E+01  0.64823570537E+02  0.44278164990E+02  0.78905568558E+02  0.00000000000E+00 0.  1.
</event>
<event>
 8    1  0.8061721E-006  0.1839351E+03  0.7561462E-02  0.1164048E+00
         -2   -1    0    0    0  501 -0.00000000000E+00  0.00000000000E+00  0.13675650924E+02  0.13675650924E+02  0.00000000000E+00 0.  1.
          2   -1    0    0  501    0  0.00000000000E+00 -0.00000000000E+00 -0.31839435709E+04  0.31839435709E+04  0.00000000000E+00 0. -1.
         23    2    1    2    0    0 -0.78124104158E+02  0.14031106144E+03 -0.92289010590E+03  0.94104098681E+03  0.89673974421E+02 0.  0.
         23    2    1    2    0    0  0.78124104158E+02 -0.14031106144E+03 -0.22473778140E+04  0.22565782350E+04  0.12509085455E+03 0.  0.
          5    1    4    4  502    0 -0.58380902177E+01  0.11075201926E+02 -0.59606628976E+03  0.59621240978E+03  0.41800000000E+01 0. -1.
         -5    1    4    4    0  502  0.83962194376E+02 -0.15138626337E+03 -0.16513115243E+04  0.16603658252E+04  0.41800000000E+01 0. -1.
        -11    1    3    3    0    0 -0.29867292054E+02 -0.32608150635E+01 -0.10364605792E+03  0.10791289716E+03  0.00000000000E+00 0.  1.
         11    1    3    3    0    0 -0.48256812104E+02  0.14357187651E+03 -0.81924404797E+03  0.83312808966E+03  0.00000000000E+00 0. -1.
</event>
<event>
 8    1  0.8061721E-006  0.1125938E+03  0.7561462E-02  0.1255841E+00
         -2   -1    0    0    0  501 -0.00000000000E+00  0.00000000000E+00  0.15049432335E+03  0.15049432335E+03  0.00000000000E+00 0.  1.
          2   -1    0    0  501    0  0.00000000000E+00 -0.00000000000E+00 -0.12063232909E+03  0.12063232909E+03  0.00000000000E+00 0. -1.
         23    2    1    2    0    0 -0.56236500713E+02 -0.56763128034E+02  0.12917876065E+02  0.12173788463E+03  0.90932086280E+02 0.  0.
         23    2    1    2    0    0  0.56236500713E+02  0.56763128034E+02  0.16944118193E+02  0.14938876782E+03  0.12508119000E+03 0.  0.
          5    1    4    4  502    0 -0.39490610619E+01  0.47894055841E+02  0.58329847519E+02  0.75692002086E+02  0.41800000000E+01 0.  1.
         -5    1    4    4    0  502  0.60185561775E+02  0.88690721934E+01 -0.41385729326E+02  0.73696765733E+02  0.41800000000E+01 0.  1.
        -11    1    3    3    0    0 -0.72726860410E+02 -0.19613157890E+02  0.24948699758E+02  0.79349289897E+02  0.00000000000E+00 0.  1.
         11    1    3    3    0    0  0.16490359697E+02 -0.37149970144E+02 -0.12030823692E+02  0.42388594732E+02  0.00000000000E+00 0. -1.
</event>
<event>
 8    1  0.8061721E-006  0.1383769E+03  0.7561462E-02  0.1215530E+00
         -1   -1    0    0    0  501 -0.00000000000E+00  0.00000000000E+00  0.59171369959E+03  0.59171369959E+03  0.00000000000E+00 0.  1.
          1   -1    0    0  501    0  0.00000000000E+00 -0.00000000000E+00 -0.53385656164E+02  0.53385656164E+02  0.00000000000E+00 0. -1.
         23    2    1    2    0    0  0.99262298128E+02  0.71763124601E+02  0.37806916306E+03  0.40775250040E+03  0.91229708111E+02 0.  0.
         23    2    1    2    0    0 -0.99262298128E+02 -0.71763124601E+02  0.16025888037E+03  0.23734685536E+03  0.12509065165E+03 0.  0.
          5    1    4    4  502    0 -0.10509041042E+03 -0.85583411859E+02  0.17114391560E+03  0.21834886534E+03  0.41800000000E+01 0. -1.
         -5    1    4    4    0  502  0.58281122957E+01  0.13820287258E+02 -0.10885035229E+02  0.18997990019E+02  0.41800000000E+01 0. -1.
        -11    1    3    3    0    0  0.10245430577E+02 -0.14291333125E+01 -0.20516181985E+01  0.10546108617E+02  0.00000000000E+00 0. -1.
         11    1    3    3    0    0  0.89016867550E+02  0.73192257913E+02  0.38012078126E+03  0.39720639178E+03  0.00000000000E+00 0.  1.
</event>
<event>
 8    1  0.8061721E-006  0.1190513E+03  0.7561462E-02  0.1244670E+00
          1   -1    0    0  501    0  0.00000000000E+00  0.00000000000E+00  0.93565304969E+02  0.93565304969E+02  0.00000000000E+00 0. -1.
         -1   -1    0    0    0  501 -0.00000000000E+00 -0.00000000000E+00 -0.25780503513E+03  0.25780503513E+03  0.00000000000E+00 0.  1.
         23    2    1    2    0    0 -0.28637377556E+02 -0.49737785117E+02 -0.18357054585E+03  0.21239012075E+03  0.90097011211E+02 0.  0.
         23    2    1    2    0    0  0.28637377556E+02  0.49737785117E+02  0.19330815686E+02  0.13898021935E+03  0.12509146363E+03 0.  0.
          5    1    4    4  502    0 -0.28809514348E+00 -0.39977378989E+02  0.19380802046E+02  0.44624676106E+02  0.41800000000E+01 0.  1.
         -5    1    4    4    0  502  0.28925472699E+02  0.89715164106E+02 -0.49986359996E-01  0.94355543240E+02  0.41800000000E+01 0.  1.
        -11    1    3    3    0    0 -0.46605454225E+02 -0.64995778506E+02 -0.11661014039E+03  0.14140171296E+03  0.00000000000E+00 0. -1.
         11    1    3    3    0    0  0.17968076669E+02  0.15257993389E+02 -0.66960405461E+02  0.70988407793E+02  0.00000000000E+00 0.  1.
</event>
<event>
 8    1  0.8061721E-006  0.1046931E+03  0.7561462E-02  0.1270725E+00
          3   -1    0    0  501    0  0.00000000000E+00  0.00000000000E+00  0.46043138729E+03  0.46043138729E+03  0.00000000000E+00 0. -1.
         -3   -1    0    0    0  501 -0.00000000000E+00 -0.00000000000E+00 -0.28660243424E+02  0.28660243424E+02  0.00000000000E+00 0.  1.
         23    2    1    2    0    0 -0.30921149600E+02  0.13215456104E+02  0.15252599468E+03  0.18126727301E+03  0.91993909786E+02 0.  0.
         23    2    1    2    0    0  0.30921149600E+02 -0.13215456104E+02  0.27924514918E+03  0.30782435770E+03  0.12508883276E+03 0.  0.
          5    1    4    4  502    0 -0.39286269327E+02  0.16961722813E+02  0.48979587265E+02  0.65173486688E+02  0.41800000000E+01 0. -1.
         -5    1    4    4    0  502  0.70207418927E+02 -0.30177178916E+02  0.23026556191E+03  0.24265087101E+03  0.41800000000E+01 0. -1.
        -11    1    3    3    0    0 -0.36491212573E+02 -0.29412071124E+02  0.11507046490E+03  0.12424930751E+03  0.00000000000E+00 0. -1.
         11    1    3    3    0    0  0.55700629728E+01  0.42627527227E+02  0.37455529781E+02  0.57017965504E+02  0.00000000000E+00 0.  1.
</event>
<event>
 8    1  0.8061721E-006  0.6398656E+02  0.7561462E-02  0.1381825E+00
          1   -1    0    0  501    0  0.00000000000E+00  0.00000000000E+00  0.63713345954E+03  0.63713345954E+03  0.00000000000E+00 0. -1.
         -1   -1    0    0    0  501 -0.00000000000E+00 -0.00000000000E+00 -0.21103182654E+02  0.21103182654E+02  0.00000000000E+00 0.  1.
         23    2    1    2    0    0 -0.15538751273E+02  0.34953775695E+02  0.23781299630E+03  0.25803797837E+03  0.92549218503E+02 0.  0.
         23    2    1    2    0    0  0.15538751273E+02 -0.34953775695E+02  0.37821728058E+03  0.40019866382E+03  0.12508972766E+03 0.  0.
          5    1    4    4  502    0  0.23492373408E+01 -0.14379720482E+01 -0.95273173421E+01  0.10762381494E+02  0.41800000000E+01 0.  1.
         -5    1    4    4    0  502  0.13189513932E+02 -0.33515803647E+02  0.38774459792E+03  0.38943628233E+03  0.41800000000E+01 0.  1.
        -11    1    3    3    0    0  0.31799696173E+02  0.10956428366E+02  0.16224413139E+03  0.16569376020E+03  0.00000000000E+00 0. -1.
         11    1    3    3    0    0 -0.47338447446E+02  0.23997347329E+02  0.75568864913E+02  0.92344218171E+02  0.00000000000E+00 0.  1.
</event>
<event>
 8    1  0.8061721E-006  0.1656824E+03  0.7561462E-02  0.1182427E+00
          2   -1    0    0  501    0  0.00000000000E+00  0.00000000000E+00  0.10436769464E+04  0.10436769464E+04  0.00000000000E+00 0. -1.
         -2   -1    0    0    0  501 -0.00000000000E+00 -0.00000000000E+00 -0.47382529196E+02  0.47382529196E+02  0.00000000000E+00 0.  1.
         23    2    1    2    0    0 -0.62334749685E+02 -0.13040026652E+03  0.16245817660E+03  0.23559487984E+03  0.90677658429E+02 0.  0.
         23    2    1    2    0    0  0.62334749685E+02  0.13040026652E+03  0.83383624060E+03  0.85546459574E+03  0.12508776081E+03 0.  0.
          5    1    4    4  502    0  0.80313302741E+02  0.12496289116E+03  0.81534819451E+03  0.82877988722E+03  0.41800000000E+01 0. -1.
         -5    1    4    4    0  502 -0.17978553056E+02  0.54373753665E+01  0.18488046085E+02  0.26684708522E+02  0.41800000000E+01 0. -1.
        -11    1    3    3    0    0  0.52782562702E+01 -0.77472918511E+02  0.11108358996E+03  0.13553404388E+03  0.00000000000E+00 0.  1.
         11    1    3    3    0    0 -0.67613005955E+02 -0.52927348013E+02  0.51374586635E+02  0.10006083596E+03  0.00000000000E+00 0. -1.
</event>
<event>
 7    1  0.8061721E-006  0.1568224E+03  0.7561462E-02  0.1192332E+00
          1   -1    0    0  501    0  0.00000000000E+00  0.00000000000E+00  0.16691513145E+04  0.16691513145E+04  0.00000000000E+00 0. -1.
         -1   -1    0    0    0  501 -0.00000000000E+00 -0.00000000000E+00 -0.21409883214E+02  0.21409883214E+02  0.00000000000E+00 0.  1.
         23    2    1    2    0    0  0.20184164474E+01 -0.82716276443E+02  0.27148324197E+03  0.29765410307E+03  0.89714870604E+02 0.  0.
          5    1    1    2  502    0  0.90559359887E+02  0.27067559007E+02  0.87653537240E+03  0.88162655466E+03  0.41800000000E+01 0. -1.
         -5    1    1    2    0  502 -0.92577776335E+02  0.55648717436E+02  0.49972281687E+03  0.51128053994E+03  0.41800000000E+01 0.  1.
        -11    1    3    3    0    0 -0.33026678496E+02 -0.18691563690E+02  0.40895672989E+02  0.55790609559E+02  0.00000000000E+00 0.  1.
         11    1    3    3    0    0  0.35045094944E+02 -0.64024712753E+02  0.23058756898E+03  0.24186349351E+03  0.00000000000E+00 0. -1.
</event>
<event>
 8    1  0.8061721E-006  0.1085348E+03  0.7561462E-02  0.1263307E+00
          2   -1    0    0  501    0  0.00000000000E+00  0.00000000000E+00  0.34379728374E+02  0.34379728374E+02  0.00000000000E+00 0. -1.
         -2   -1    0    0    0  501 -0.00000000000E+00 -0.00000000000E+00 -0.40065298924E+03  0.40065298924E+03  0.00000000000E+00 0.  1.
         23    2    1    2    0    0  0.14896647915E+01 -0.43038408860E+02 -0.18845273886E+03  0.21339890554E+03  0.90388795549E+02 0.  0.
         23    2    1    2    0    0 -0.14896647915E+01  0.43038408860E+02 -0.17782052201E+03  0.22163381208E+03  0.12508750886E+03 0.  0.
          5    1    4    4  502    0 -0.23785563270E+02  0.82678930571E+02 -0.10695968508E+03  0.13732954967E+03  0.41800000000E+01 0. -1.
         -5    1    4    4    0  502  0.22295898479E+02 -0.39640521711E+02 -0.70860836926E+02  0.84304262409E+02  0.41800000000E+01 0. -1.
        -11    1    3    3    0    0 -0.35860716278E+02 -0.16686585358E+02 -0.14511869177E+03  0.15041232597E+03  0.00000000000E+00 0.  1.
         11    1    3    3    0    0  0.37350381070E+02 -0.26351823502E+02 -0.43334047094E+02  0.62986579566E+02  0.00000000000E+00 0. -1.
</event>
<event>
 8    1  0.8061721E-006  0.1140909E+03  0.7561462E-02  0.1253176E+00
         -4   -1    0    0    0  501 -0.00000000000E+00  0.00000000000E+00  0.20194080093E+03  0.20194080093E+03  0.00000000000E+00 0.  1.
          4   -1    0    0  501    0  0.00000000000E+00 -0.00000000000E+00 -0.81628249775E+02  0.81628249775E+02  0.00000000000E+00 0. -1.
         23    2    1    2    0    0  0.65781008703E+01  0.85123824026E+02  0.58884055371E+02  0.12013629778E+03  0.60630530583E+02 0.  0.
         23    2    1    2    0    0 -0.65781008703E+01 -0.85123824026E+02  0.61428495782E+02  0.16343275293E+03  0.12508983894E+03 0.  0.
          5    1    4    4  502    0 -0.56366410817E+02 -0.23312216202E+02 -0.28606716440E+01  0.61206923913E+02  0.41800000000E+01 0. -1.
         -5    1    4    4    0  502  0.49788309947E+02 -0.61811607824E+02  0.64289167425E+02  0.10222582901E+03  0.41800000000E+01 0. -1.
        -11    1    3    3    0    0 -0.34563429112E+01  0.64838666247E+02  0.92501645363E+01  0.65586313290E+02  0.00000000000E+00 0. -1.
         11    1    3    3    0    0  0.10034443782E+02  0.20285157778E+02  0.49633890835E+02  0.54549984487E+02  0.00000000000E+00 0.  1.
</event>
<event>
 8    1  0.8061721E-006  0.1960042E+03  0.7561462E-02  0.1153155E+00
         -2   -1    0    0    0  501 -0.00000000000E+00  0.00000000000E+00  0.67720179124E+02  0.67720179124E+02  0.00000000000E+00 0.  1.
          2   -1    0    0  501    0  0.00000000000E+00 -0.00000000000E+00 -0.89761505933E+03  0.89761505933E+03  0.00000000000E+00 0. -1.
         23    2    1    2    0    0  0.14997622739E+03  0.10978789607E+03 -0.16842206873E+03  0.26695070934E+03  0.91380725937E+02 0.  0.
         23    2    1    2    0    0 -0.14997622739E+03 -0.10978789607E+03 -0.66147281148E+03  0.69838452912E+03  0.12509364205E+03 0.  0.
          5    1    4    4  502    0 -0.94133769179E+02 -0.15532886280E+02 -0.17150415375E+03  0.19629973054E+03  0.41800000000E+01 0. -1.
         -5    1    4    4    0  502 -0.55842458213E+02 -0.94255009794E+02 -0.48996865773E+03  0.50208479858E+03  0.41800000000E+01 0. -1.
        -11    1    3    3    0    0  0.54227394762E+02  0.51467774344E+02 -0.12711496061E+03  0.14747120177E+03  0.00000000000E+00 0. -1.
         11    1    3    3    0    0  0.95748832630E+02  0.58320121730E+02 -0.41307108120E+02  0.11947950757E+03  0.00000000000E+00 0.  1.
</event>
<event>
 8    1  0.8061721E-006  0.1148475E+03  0.7561462E-02  0.1251847E+00
         -1   -1    0    0    0  501 -0.00000000000E+00  0.00000000000E+00  0.15170198027E+02  0.15170198027E+02  0.00000000000E+00 0.  1.
          1   -1    0    0  501    0  0.00000000000E+00 -0.00000000000E+00 -0.10308558648E+04  0.10308558648E+04  0.00000000000E+00 0. -1.
         23    2    1    2    0    0 -0.50566723229E+02  0.30427247136E+02 -0.36957738251E+03  0.38527989261E+03  0.91489579316E+02 0.  0.
         23    2    1    2    0    0  0.50566723229E+02 -0.30427247136E+02 -0.64610828423E+03  0.66074617018E+03  0.12508707203E+03 0.  0.
          5    1    4    4  502    0  0.66448437782E+01 -0.70049413144E+02 -0.23377788062E+03  0.24417338941E+03  0.41800000000E+01 0.  1.
         -5    1    4    4    0  502  0.43921879450E+02  0.39622166007E+02 -0.41233040361E+03  0.41657278077E+03  0.41800000000E+01 0.  1.
        -11    1    3    3    0    0  0.21169830600E+02 -0.18356088572E+01 -0.30328937089E+02  0.37032088956E+02  0.00000000000E+00 0.  1.
         11    1    3    3    0    0 -0.71736553829E+02  0.32262855993E+02 -0.33924844542E+03  0.34824780365E+03  0.00000000000E+00 0. -1.
</event>
<event>
 8    1  0.8061721E-006  0.1247616E+03  0.7561462E-02  0.1235442E+00
         -1   -1    0    0    0  501 -0.00000000000E+00  0.00000000000E+00  0.38040336081E+03  0.38040336081E+03  0.00000000000E+00 0.  1.
          1   -1    0    0  501    0  0.00000000000E+00 -0.00000000000E+00 -0.77753318446E+02  0.77753318446E+02  0.00000000000E+00 0. -1.
         23    2    1    2    0    0 -0.32822490856E+02  0.68511975197E+02  0.28755178042E+03  0.31102952145E+03  0.91006209339E+02 0.  0.
         23    2    1    2    0    0  0.32822490856E+02 -0.68511975197E+02  0.15098261937E+02  0.14712715780E+03  0.12508891397E+03 0.  0.
          5    1    4    4  502    0 -0.39563703653E+02 -0.31796571009E+02  0.37005242035E+02  0.62953704519E+02  0.41800000000E+01 0. -1.
         -5    1    4    4    0  502  0.72386194509E+02 -0.36715404188E+02 -0.21906980098E+02  0.84173453281E+02  0.41800000000E+01 0. -1.
        -11    1    3    3    0    0 -0.41589295100E+02 -0.62419288999E+01  0.82503139747E+02  0.92603451401E+02  0.00000000000E+00 0. -1.
         11    1    3    3    0    0  0.87668042435E+01  0.74753904097E+02  0.20504864068E+03  0.21842607005E+03  0.00000000000E+00 0.  1.
</event>
<event>
 8    1  0.8061721E-006  0.7027835E+02  0.7561462E-02  0.1359149E+00
         -2   -1    0    0    0  501 -0.00000000000E+00  0.00000000000E+00  0.47726373339E+02  0.47726373339E+02  0.00000000000E+00 0. -1.
          2   -1    0    0  501    0  0.00000000000E+00 -0.00000000000E+00 -0.33656465810E+03  0.33656465810E+03  0.00000000000E+00 0.  1.
         23    2    1    2    0    0  0.53753980603E+02  0.20108223311E+02 -0.12977214835E+03  0.17392095154E+03  0.10056766788E+03 0.  0.
         23    2    1    2    0    0 -0.53753980603E+02 -0.20108223311E+02 -0.15906613641E+03  0.21037007990E+03  0.12513873775E+03 0.  0.
          5    1    4    4  502    0 -0.66679944222E+02 -0.19338456107E+02 -0.17564940362E+03  0.18891896738E+03  0.41800000000E+01 0.  1.
         -5    1    4    4    0  502  0.12925963619E+02 -0.76976720330E+00  0.16583267202E+02  0.21451112515E+02  0.41800000000E+01 0.  1.
        -11    1    3    3    0    0  0.24845211567E+02  0.96835034290E+01 -0.13923548294E+03  0.14176591440E+03  0.00000000000E+00 0.  1.
         11    1    3    3    0    0  0.28908769036E+02  0.10424719882E+02  0.94633345947E+01  0.32155037139E+02  0.00000000000E+00 0. -1.
</event>
<event>
 8    1  0.8061721E-006  0.8876992E+02  0.7561462E-02  0.1305858E+00
         -2   -1    0    0    0  501 -0.00000000000E+00  0.00000000000E+00  0.13616737058E+03  0.13616737058E+03  0.00000000000E+00 0.  1.
          2   -1    0    0  501    0  0.00000000000E+00 -0.00000000000E+00 -0.10645256485E+03  0.10645256485E+03  0.00000000000E+00 0. -1.
         23    2    1    2    0    0  0.19222287596E+02 -0.32231828142E+02  0.49120837710E+02  0.11059044611E+03  0.91700616067E+02 0.  0.
         23    2    1    2    0    0 -0.19222287596E+02  0.32231828142E+02 -0.19406031974E+02  0.13202948933E+03  0.12508718915E+03 0.  0.
          5    1    4    4  502    0 -0.45540488227E+02 -0.49789686568E+01 -0.56683087392E+02  0.73001171176E+02  0.41800000000E+01 0. -1.
         -5    1    4    4    0  502  0.26318200631E+02  0.37210796799E+02  0.37277055418E+02  0.59028318149E+02  0.41800000000E+01 0. -1.
        -11    1    3    3    0    0 -0.29951257001E+02 -0.82932846288E+01  0.46381526355E+02  0.55831016047E+02  0.00000000000E+00 0.  1.
         11    1    3    3    0    0  0.49173544597E+02 -0.23938543514E+02  0.27393113558E+01  0.54759430060E+02  0.00000000000E+00 0. -1.
</event>
<event>
 8    1  0.8061721E-006  0.1435517E+03  0.7561462E-02  0.1208628E+00
          2   -1    0    0  501    0  0.00000000000E+00  0.00000000000E+00  0.65584218029E+03  0.65584218029E+03  0.00000000000E+00 0. -1.
         -2   -1    0    0    0  501 -0.00000000000E+00 -0.00000000000E+00 -0.32195719652E+02  0.32195719652E+02  0.00000000000E+00 0.  1.
         23    2    1    2    0    0 -0.72938348098E+02  0.59853393955E+02  0.31805553320E+03  0.34461984454E+03  0.93279599383E+02 0.  0.
         23    2    1    2    0    0  0.72938348098E+02 -0.59853393955E+02  0.30559092744E+03  0.34341805540E+03  0.12509082481E+03 0.  0.
          5    1    4    4  502    0  0.91672837590E+02  0.17274190673E+01  0.19136735140E+03  0.21224002617E+03  0.41800000000E+01 0.  1.
         -5    1    4    4    0  502 -0.18734489492E+02 -0.61580813022E+02  0.11422357604E+03  0.13117802923E+03  0.41800000000E+01 0.  1.
        -11    1    3    3    0    0 -0.61131799443E+02  0.84027867199E+02  0.22660750302E+03  0.24929648974E+03  0.00000000000E+00 0. -1.
         11    1    3    3    0    0 -0.11806548655E+02 -0.24174473244E+02  0.91448030175E+02  0.95323354802E+02  0.00000000000E+00 0.  1.
</event>
<event>
 8    1  0.8061721E-006  0.1132173E+03  0.7561462E-02  0.1254725E+00
         -2   -1    0    0    0  501 -0.00000000000E+00  0.00000000000E+00  0.41763669481E+02  0.41763669481E+02  0.00000000000E+00 0. -1.
          2   -1    0    0  501    0  0.00000000000E+00 -0.00000000000E+00 -0.10132995985E+04  0.10132995985E+04  0.00000000000E+00 0.  1.
         23    2    1    2    0    0 -0.19615184518E+02 -0.32063386143E+02 -0.27498489886E+02  0.10203287419E+03  0.90783942828E+02 0.  0.
         23    2    1    2    0    0  0.19615184518E+02  0.32063386143E+02 -0.94403743910E+03  0.95303039375E+03  0.12508968304E+03 0.  0.
          5    1    4    4  502    0 -0.52125551830E+02  0.23800598678E+02 -0.47168964387E+03  0.47517589816E+03  0.41800000000E+01 0. -1.
         -5    1    4    4    0  502  0.71740736348E+02  0.82627874653E+01 -0.47234779522E+03  0.47785449560E+03  0.41800000000E+01 0. -1.
        -11    1    3    3    0    0  0.13379592485E+02 -0.54906869829E+02 -0.69263448942E+01  0.56936386459E+02  0.00000000000E+00 0. -1.
         11    1    3    3    0    0 -0.32994777003E+02  0.22843483685E+02 -0.20572144992E+02  0.45096487734E+02  0.00000000000E+00 0.  1.
</event>
<event>
 8    1  0.8061721E-006  0.1983867E+03  0.7561462E-02  0.1151107E+00
         -1   -1    0    0    0  501 -0.00000000000E+00  0.00000000000E+00  0.15315801759E+03  0.15315801759E+03  0.00000000000E+00 0.  1.
          1   -1    0    0  501    0  0.00000000000E+00 -0.00000000000E+00 -0.30875289166E+03  0.30875289166E+03  0.00000000000E+00 0. -1.
         23    2    1    2    0    0  0.10153426113E+03  0.13902282080E+03  0.10470419129E+01  0.19767684091E+03  0.97151872097E+02 0.  0.
         23    2    1    2    0    0 -0.10153426113E+03 -0.13902282080E+03 -0.15664191598E+03  0.26423406833E+03  0.12508557927E+03 0.  0.
          5    1    4    4  502    0  0.23931114456E+02 -0.46382198343E+02 -0.64361228227E+02  0.82968949982E+02  0.41800000000E+01 0.  1.
         -5    1    4    4    0  502 -0.12546537558E+03 -0.92640622455E+02 -0.92280687753E+02  0.18126511835E+03  0.41800000000E+01 0.  1.
        -11    1    3    3    0    0  0.79217202726E+02  0.43648039783E+02 -0.29397194890E+02  0.95103688951E+02  0.00000000000E+00 0. -1.
         11    1    3    3    0    0  0.22317058400E+02  0.95374781014E+02  0.30444236803E+02  0.10257315196E+03  0.00000000000E+00 0.  1.
</event>
<event>
 8    1  0.8061721E-006  0.1291283E+03  0.7561462E-02  0.1228755E+00
          1   -1    0    0  501    0  0.00000000000E+00  0.00000000000E+00  0.96546727478E+03  0.96546727478E+03  0.00000000000E+00 0. -1.
         -1   -1    0    0    0  501 -0.00000000000E+00 -0.00000000000E+00 -0.20297282627E+02  0.20297282627E+02  0.00000000000E+00 0.  1.
         23    2    1    2    0    0  0.71325017266E+02 -0.40773156208E+02  0.31622617542E+03  0.33925871604E+03  0.91366153661E+02 0.  0.
         23    2    1    2    0    0 -0.71325017266E+02  0.40773156208E+02  0.62894381673E+03  0.64650584136E+03  0.12509904059E+03 0.  0.
          5    1    4    4  502    0 -0.43287693427E+02 -0.37893501878E+02  0.36796019871E+03  0.37245391946E+03  0.41800000000E+01 0.  1.
         -5    1    4    4    0  502 -0.28037323839E+02  0.78666658086E+02  0.26098361801E+03  0.27405192189E+03  0.41800000000E+01 0.  1.
        -11    1    3    3    0    0 -0.11524288848E+02 -0.31557698312E+02  0.49615710405E+02  0.59920082403E+02  0.00000000000E+00 0.  1.
         11    1    3    3    0    0  0.82849306115E+02 -0.92154578965E+01  0.26661046502E+03  0.27933863364E+03  0.00000000000E+00 0. -1.
</event>
<event>
 8    1  0.8061721E-006  0.1185446E+03  0.7561462E-02  0.1245518E+00
         -2   -1    0    0    0  501 -0.00000000000E+00  0.00000000000E+00  0.15408758338E+02  0.15408758338E+02  0.00000000000E+00 0.  1.
          2   -1    0    0  501    0  0.00000000000E+00 -0.00000000000E+00 -0.93923282475E+03  0.93923282475E+03  0.00000000000E+00 0. -1.
         23    2    1    2    0    0 -0.53053099316E+02 -0.32468486604E+02 -0.40737876133E+03  0.42140946797E+03  0.88088878631E+02 0.  0.
         23    2    1    2    0    0  0.53053099316E+02  0.32468486604E+02 -0.51644530508E+03  0.53323211512E+03  0.11726850169E+03 0.  0.
          5    1    4    4  502    0 -0.28467036593E+02  0.39893267637E+02 -0.15532813653E+03  0.16292988484E+03  0.41800000000E+01 0. -1.
         -5    1    4    4    0  502  0.81520135909E+02 -0.74247810322E+01 -0.36111716855E+03  0.37030223028E+03  0.41800000000E+01 0.  1.
        -11    1    3    3    0    0  0.10106292254E+02 -0.40980259314E+02 -0.20230815916E+03  0.20666424476E+03  0.00000000000E+00 0.  1.
         11    1    3    3    0    0 -0.63159391570E+02  0.85117727090E+01 -0.20507060217E+03  0.21474522321E+03  0.00000000000E+00 0. -1.
</event>
<event>
 8    1  0.8061721E-006  0.1983778E+03  0.7561462E-02  0.1151115E+00
          2   -1    0    0  501    0  0.00000000000E+00  0.00000000000E+00  0.20546027710E+03  0.20546027710E+03  0.00000000000E+00 0. -1.
         -2   -1    0    0    0  501 -0.00000000000E+00 -0.00000000000E+00 -0.37866286319E+03  0.37866286319E+03  0.00000000000E+00 0.  1.
         23    2    1    2    0    0 -0.30262974931E+02 -0.18437228813E+03 -0.26887629953E+03  0.33976379996E+03  0.90752338971E+02 0.  0.
         23    2    1    2    0    0  0.30262974931E+02  0.18437228813E+03  0.95673713436E+02  0.24435934034E+03  0.12509612098E+03 0.  0.
          5    1    4    4  502    0  0.69458961645E+01  0.12954969086E+03 -0.20642039564E+01  0.12981949473E+03  0.41800000000E+01 0. -1.
         -5    1    4    4    0  502  0.23317078767E+02  0.54822597276E+02  0.97737917393E+02  0.11453984560E+03  0.41800000000E+01 0. -1.
        -11    1    3    3    0    0 -0.62190862266E+02 -0.13153471016E+03 -0.17793176393E+03  0.22984515644E+03  0.00000000000E+00 0.  1.
         11    1    3    3    0    0  0.31927887335E+02 -0.52837577977E+02 -0.90944535601E+02  0.10991864351E+03  0.00000000000E+00 0. -1.
</event>
<event>
 8    1  0.8061721E-006  0.1586906E+03  0.7561462E-02  0.1190183E+00
          2   -1    0    0  501    0  0.00000000000E+00  0.00000000000E+00  0.16302587213E+03  0.16302587213E+03  0.00000000000E+00 0.  1.
         -2   -1    0    0    0  501 -0.00000000000E+00 -0.00000000000E+00 -0.18264700948E+03  0.18264700948E+03  0.00000000000E+00 0. -1.
         23    2    1    2    0    0 -0.39509716993E+02 -0.12803050915E+03 -0.16894262679E+01  0.16149381134E+03  0.90136385163E+02 0.  0.
         23    2    1    2    0    0  0.39509716993E+02  0.12803050915E+03 -0.17931711075E+02  0.18417907027E+03  0.12509018608E+03 0.  0.
          5    1    4    4  502    0  0.70038747877E+02  0.13456342630E+03 -0.13252635642E+02  0.15233465349E+03  0.41800000000E+01 0. -1.
         -5    1    4    4    0  502 -0.30529030884E+02 -0.65329171524E+01 -0.46790754336E+01  0.31844416781E+02  0.41800000000E+01 0. -1.
        -11    1    3    3    0    0 -0.13636866964E+02 -0.54331249137E+02  0.43797017424E+02  0.71105748774E+02  0.00000000000E+00 0.  1.
         11    1    3    3    0    0 -0.25872850029E+02 -0.73699260010E+02 -0.45486443692E+02  0.90388062565E+02  0.00000000000E+00 0. -1.
</event>
<event>
 8    1  0.8061721E-006  0.1935984E+03  0.7561462E-02  0.1155255E+00
         -3   -1    0    0    0  501 -0.00000000000E+00  0.00000000000E+00  0.20081189211E+03  0.20081189211E+03  0.00000000000E+00 0.  1.
          3   -1    0    0  501    0  0.00000000000E+00 -0.00000000000E+00 -0.22624156492E+03  0.22624156492E+03  0.00000000000E+00 0. -1.
         23    2    1    2    0    0 -0.37635156669E+02  0.16014465130E+03  0.66561775076E+02  0.20084121401E+03  0.94042591352E+02 0.  0.
         23    2    1    2    0    0  0.37635156669E+02 -0.16014465130E+03 -0.91991447884E+02  0.22621224301E+03  0.12508732169E+03 0.  0.
          5    1    4    4  502    0 -0.31612659119E+02 -0.11602358010E+02 -0.43653664267E+02  0.55290955245E+02  0.41800000000E+01 0. -1.
         -5    1    4    4    0  502  0.69247815788E+02 -0.14854229329E+03 -0.48337783617E+02  0.17092128777E+03  0.41800000000E+01 0. -1.
        -11    1    3    3    0    0 -0.62394898526E+02  0.61476027816E+02  0.35047969860E+02  0.94343974632E+02  0.00000000000E+00 0.  1.
         11    1    3    3    0    0  0.24759741857E+02  0.98668623482E+02  0.31513805217E+02  0.10649723938E+03  0.00000000000E+00 0. -1.
</event>
<event>
 8    1  0.8061721E-006  0.1873040E+03  0.7561462E-02  0.1160916E+00
          2   -1    0    0  501    0  0.00000000000E+00  0.00000000000E+00  0.17032343262E+04  0.17032343262E+04  0.00000000000E+00 0. -1.
         -2   -1    0    0    0  501 -0.00000000000E+00 -0.00000000000E+00 -0.21376174165E+02  0.21376174165E+02  0.00000000000E+00 0.  1.
         23    2    1    2    0    0 -0.57403163024E+01  0.15430024773E+03  0.67587947498E+03  0.69919240883E+03  0.90639076421E+02 0.  0.
         23    2    1    2    0    0  0.57403163024E+01 -0.15430024773E+03  0.10059786770E+04  0.10254180915E+04  0.12509055156E+03 0.  0.
          5    1    4    4  502    0  0.52739052963E+02 -0.24762453232E+02  0.23090585715E+03  0.23817970960E+03  0.41800000000E+01 0.  1.
         -5    1    4    4    0  502 -0.46998736660E+02 -0.12953779450E+03  0.77507281989E+03  0.78723838193E+03  0.41800000000E+01 0.  1.
        -11    1    3    3    0    0 -0.30543972832E+02  0.10334921048E+02  0.99866064510E+02  0.10494272586E+03  0.00000000000E+00 0.  1.
         11    1    3    3    0    0  0.24803656529E+02  0.14396532669E+03  0.57601341047E+03  0.59424968297E+03  0.00000000000E+00 0. -1.
</event>
<event>
 8    1  0.8061721E-006  0.1045605E+03  0.7561462E-02  0.1270988E+00
         -2   -1    0    0    0  501 -0.00000000000E+00  0.00000000000E+00  0.31829246920E+02  0.31829246920E+02  0.00000000000E+00 0.  1.
          2   -1    0    0  501    0  0.00000000000E+00 -0.00000000000E+00 -0.41557641355E+03  0.41557641355E+03  0.00000000000E+00 0. -1.
         23    2    1    2    0    0  0.18540778230E+02 -0.51043626511E+01 -0.97989209443E+02  0.13487459709E+03  0.90661219924E+02 0.  0.
         23    2    1    2    0    0 -0.18540778230E+02  0.51043626511E+01 -0.28575795719E+03  0.31253106338E+03  0.12509292748E+03 0.  0.
          5    1    4    4  502    0  0.22374498279E+02 -0.46363766769E+02 -0.18555803320E+03  0.19261223515E+03  0.41800000000E+01 0.  1.
         -5    1    4    4    0  502 -0.40915276509E+02  0.51468129420E+02 -0.10019992399E+03  0.11991882823E+03  0.41800000000E+01 0.  1.
        -11    1    3    3    0    0  0.42562343851E+02  0.27808960492E+02 -0.44020086835E+02  0.67250720759E+02  0.00000000000E+00 0.  1.
         11    1    3    3    0    0 -0.24021565621E+02 -0.32913323143E+02 -0.53969122608E+02  0.67623876333E+02  0.00000000000E+00 0. -1.
</event>
<event>
 8    1  0.9315748E-006  0.1234160E+03  0.7561462E-02  0.1237566E+00
         -1   -1    0    0    0  501 -0.00000000000E+00  0.00000000000E+00  0.18302691845E+03  0.18302691845E+03  0.00000000000E+00 0.  1.
          1   -1    0    0  501    0  0.00000000000E+00 -0.00000000000E+00 -0.12744295608E+03  0.12744295608E+03  0.00000000000E+00 0. -1.
         23    2    1    2    0    0  0.37753200487E+02  0.94846106979E+02  0.56157597537E+02  0.14901122187E+03  0.92895534484E+02 0.  0.
         23    2    1    2    0    0 -0.37753200487E+02 -0.94846106979E+02 -0.57363516755E+00  0.16145865265E+03  0.12508988489E+03 0.  0.
          5    1    4    4  502    0  0.15513103762E+02 -0.67339537737E+01  0.45395929233E+02  0.48623711424E+02  0.41800000000E+01 0. -1.
         -5    1    4    4    0  502 -0.53266304249E+02 -0.88112153205E+02 -0.45969564400E+02  0.11283494123E+03  0.41800000000E+01 0. -1.
        -11    1    3    3    0    0 -0.22866091917E+02  0.24899475264E+02  0.44254979110E+02  0.55689722607E+02  0.00000000000E+00 0.  1.
         11    1    3    3    0    0  0.60619292405E+02  0.69946631715E+02  0.11902618427E+02  0.93321499266E+02  0.00000000000E+00 0. -1.
</event>
<event>
 8    1  0.8061721E-006  0.1544026E+03  0.7561462E-02  0.1195165E+00
          2   -1    0    0  501    0  0.00000000000E+00  0.00000000000E+00  0.79545105726E+02  0.79545105726E+02  0.00000000000E+00 0. -1.
         -2   -1    0    0    0  501 -0.00000000000E+00 -0.00000000000E+00 -0.48701900943E+03  0.48701900943E+03  0.00000000000E+00 0.  1.
         23    2    1    2    0    0  0.27287323221E+02  0.12244465600E+03 -0.34471743661E+03  0.37861903560E+03  0.93728177322E+02 0.  0.
         23    2    1    2    0    0 -0.27287323221E+02 -0.12244465600E+03 -0.62756467085E+02  0.18794507955E+03  0.12509071498E+03 0.  0.
          5    1    4    4  502    0  0.12022147518E+02 -0.12005804688E+03 -0.88499877783E+01  0.12105478650E+03  0.41800000000E+01 0.  1.
         -5    1    4    4    0  502 -0.39309470739E+02 -0.23866091231E+01 -0.53906479307E+02  0.66890293049E+02  0.41800000000E+01 0.  1.
        -11    1    3    3    0    0  0.41909478485E+02  0.22703413606E+02 -0.17351419539E+03  0.17994172773E+03  0.00000000000E+00 0. -1.
         11    1    3    3    0    0 -0.14622155264E+02  0.99741242393E+02 -0.17120324123E+03  0.19867730788E+03  0.00000000000E+00 0.  1.
</event>
<event>
 6    1  0.8061721E-006  0.1330853E+03  0.7561462E-02  0.1222948E+00
         -2   -1    0    0    0  501 -0.00000000000E+00  0.00000000000E+00  0.23865654639E+02  0.23865654639E+02  0.00000000000E+00 0.  1.
          2   -1    0    0  501    0  0.00000000000E+00 -0.00000000000E+00 -0.90367415881E+03  0.90367415881E+03  0.00000000000E+00 0. -1.
          5    1    1    2  502    0 -0.14742103185E+01 -0.99728411090E+02 -0.50826776126E+03  0.51797829956E+03  0.41800000000E+01 0. -1.
         -5    1    1    2    0  502  0.90203641530E+01  0.12938774807E+03 -0.32538411514E+03  0.35030679569E+03  0.41800000000E+01 0.  1.
        -11    1    1    2    0    0  0.26269472052E+01 -0.25416829626E+02 -0.36772922726E+02  0.44779056775E+02  0.00000000000E+00 0.  1.
         11    1    1    2    0    0 -0.10173101040E+02 -0.42425073570E+01 -0.93837050455E+01  0.14475661429E+02  0.00000000000E+00 0. -1.
</event>
<event>
 8    1  0.8061721E-006  0.1063262E+03  0.7561462E-02  0.1267528E+00
         -1   -1    0    0    0  501 -0.00000000000E+00  0.00000000000E+00  0.45910812000E+02  0.45910812000E+02  0.00000000000E+00 0.  1.
          1   -1    0    0  501    0  0.00000000000E+00 -0.00000000000E+00 -0.35078679470E+03  0.35078679470E+03  0.00000000000E+00 0. -1.
         23    2    1    2    0    0  0.36007720352E+02  0.41224059956E+02 -0.99898967199E+02  0.15040566785E+03  0.98214470568E+02 0.  0.
         23    2    1    2    0    0 -0.36007720352E+02 -0.41224059956E+02 -0.20497701550E+03  0.24629193886E+03  0.12509261855E+03 0.  0.
          5    1    4    4  502    0 -0.72328939735E+02 -0.28551400840E+02 -0.18902610304E+03  0.20443824995E+03  0.41800000000E+01 0. -1.
         -5    1    4    4    0  502  0.36321219383E+02 -0.12672659116E+02 -0.15950912467E+02  0.41853688906E+02  0.41800000000E+01 0. -1.
        -11    1    3    3    0    0 -0.25391906399E+02  0.11876748238E+02 -0.71254227319E+02  0.76570039638E+02  0.00000000000E+00 0.  1.
         11    1    3    3    0    0  0.61399626752E+02  0.29347311718E+02 -0.28644739880E+02  0.73835628210E+02  0.00000000000E+00 0. -1.
</event>
<event>
 8    1  0.8061721E-006  0.8015169E+02  0.7561462E-02  0.1328622E+00
         -1   -1    0    0    0  501 -0.00000000000E+00  0.00000000000E+00  0.13425710392E+03  0.13425710392E+03  0.00000000000E+00 0.  1.
          1   -1    0    0  501    0  0.00000000000E+00 -0.00000000000E+00 -0.94004812458E+02  0.94004812458E+02  0.00000000000E+00 0. -1.
         23    2    1    2    0    0 -0.31505380330E+02 -0.14951434727E+02  0.41030031863E+01  0.93468618639E+02  0.86622246825E+02 0.  0.
         23    2    1    2    0    0  0.31505380330E+02  0.14951434727E+02  0.36149288272E+02  0.13479329774E+03  0.12508528163E+03 0.  0.
          5    1    4    4  502    0  0.66201403808E+02  0.15282583906E+02 -0.17940383041E+02  0.70395404542E+02  0.41800000000E+01 0. -1.
         -5    1    4    4    0  502 -0.34696023478E+02 -0.33114917919E+00  0.54089671313E+02  0.64397893193E+02  0.41800000000E+01 0. -1.
        -11    1    3    3    0    0 -0.18641080462E+02 -0.31330657815E+02  0.38648784205E+02  0.53130297575E+02  0.00000000000E+00 0.  1.
         11    1    3    3    0    0 -0.12864299868E+02  0.16379223088E+02 -0.34545781019E+02  0.40338321064E+02  0.00000000000E+00 0. -1.
</event>
<event>
 8    1  0.8061721E-006  0.1909943E+03  0.7561462E-02  0.1157568E+00
         -1   -1    0    0    0  501 -0.00000000000E+00  0.00000000000E+00  0.57040398689E+02  0.57040398689E+02  0.00000000000E+00 0.  1.
          1   -1    0    0  501    0  0.00000000000E+00 -0.00000000000E+00 -0.11227958348E+04  0.11227958348E+04  0.00000000000E+00 0. -1.
         23    2    1    2    0    0 -0.13746644043E+02  0.17935413332E+03 -0.18763736595E+03  0.27479678622E+03  0.89155018092E+02 0.  0.
         23    2    1    2    0    0  0.13746644043E+02 -0.17935413332E+03 -0.87811807020E+03  0.90503944731E+03  0.12509268815E+03 0.  0.
          5    1    4    4  502    0 -0.17962711465E+02 -0.55631230451E+02 -0.95449361418E+02  0.11200690068E+03  0.41800000000E+01 0. -1.
         -5    1    4    4    0  502  0.31709355508E+02 -0.12372290287E+03 -0.78266870878E+03  0.79303254664E+03  0.41800000000E+01 0. -1.
        -11    1    3    3    0    0  0.18480850512E+02  0.15257008186E+03 -0.11896943495E+03  0.19435251005E+03  0.00000000000E+00 0.  1.
         11    1    3    3    0    0 -0.32227494556E+02  0.26784051463E+02 -0.68667931008E+02  0.80444276161E+02  0.00000000000E+00 0. -1.
</event>
<event>
 8    1  0.8061721E-006  0.1175656E+03  0.7561462E-02  0.1247168E+00
          2   -1    0    0  501    0  0.00000000000E+00  0.00000000000E+00  0.76499411390E+03  0.76499411390E+03  0.00000000000E+00 0. -1.
         -2   -1    0    0    0  501 -0.00000000000E+00 -0.00000000000E+00 -0.26254118569E+02  0.26254118569E+02  0.00000000000E+00 0.  1.
         23    2    1    2    0    0 -0.24388031972E+02 -0.83412288951E+02  0.26965848521E+03  0.29805696771E+03  0.92573599369E+02 0.  0.
         23    2    1    2    0    0  0.24388031972E+02  0.83412288951E+02  0.46908151012E+03  0.49319126476E+03  0.12509106464E+03 0.  0.
          5    1    4    4  502    0  0.41804667041E+02  0.28610073109E+02  0.39997739953E+03  0.40319419515E+03  0.41800000000E+01 0.  1.
         -5    1    4    4    0  502 -0.17416635069E+02  0.54802215842E+02  0.69104110590E+02  0.89997069612E+02  0.41800000000E+01 0.  1.
        -11    1    3    3    0    0 -0.53673036011E+02 -0.81124152032E+02  0.19771369407E+03  0.22034660801E+03  0.00000000000E+00 0.  1.
         11    1    3    3    0    0  0.29285004039E+02 -0.22881369189E+01  0.71944791144E+02  0.77710359701E+02  0.00000000000E+00 0. -1.
</event>
<event>
 8    1  0.8061721E-006  0.1032509E+03  0.7561462E-02  0.1273605E+00
         -4   -1    0    0    0  501 -0.00000000000E+00  0.00000000000E+00  0.18008620844E+03  0.18008620844E+03  0.00000000000E+00 0. -1.
          4   -1    0    0  501    0  0.00000000000E+00 -0.00000000000E+00 -0.92379710120E+02  0.92379710120E+02  0.00000000000E+00 0.  1.
         23    2    1    2    0    0 -0.39916773676E+02  0.38752515112E+02  0.82993468310E+02  0.13548601375E+03  0.91506490982E+02 0.  0.
         23    2    1    2    0    0  0.39916773676E+02 -0.38752515112E+02  0.47130300116E+01  0.13697990481E+03  0.12508467301E+03 0.  0.
          5    1    4    4  502    0  0.12322390936E+02 -0.73431746920E+02 -0.30148071033E+02  0.80439053706E+02  0.41800000000E+01 0.  1.
         -5    1    4    4    0  502  0.27594382740E+02  0.34679231807E+02  0.34861101045E+02  0.56540851104E+02  0.41800000000E+01 0.  1.
        -11    1    3    3    0    0 -0.45984332620E+01  0.50103239410E+02  0.68391855600E+01  0.50776516688E+02  0.00000000000E+00 0.  1.
         11    1    3    3    0    0 -0.35318340414E+02 -0.11350724297E+02  0.76154282750E+02  0.84709497063E+02  0.00000000000E+00 0. -1.
</event>
<event>
 8    1  0.8061721E-006  0.1216529E+03  0.7561462E-02  0.1240395E+00
          2   -1    0    0  501    0  0.00000000000E+00  0.00000000000E+00  0.21322674521E+03  0.21322674521E+03  0.00000000000E+00 0.  1.
         -2   -1    0    0    0  501 -0.00000000000E+00 -0.00000000000E+00 -0.13307584553E+03  0.13307584553E+03  0.00000000000E+00 0. -1.
         23    2    1    2    0    0 -0.80117003882E+02  0.55112584198E+02 -0.52402531413E+02  0.13972473408E+03  0.85561935268E+02 0.  0.
         23    2    1    2    0    0  0.80117003882E+02 -0.55112584198E+02  0.13255343109E+03  0.20657785666E+03  0.12509143663E+03 0.  0.
          5    1    4    4  502    0  0.31648113215E+02 -0.64249991693E+02  0.75610151378E+01  0.72140875047E+02  0.41800000000E+01 0.  1.
         -5    1    4    4    0  502  0.48468890667E+02  0.91374074954E+01  0.12499241596E+03  0.13443698161E+03  0.41800000000E+01 0.  1.
        -11    1    3    3    0    0 -0.94455448945E+02  0.49733472896E+02 -0.60185663731E+02  0.12254617203E+03  0.00000000000E+00 0. -1.
         11    1    3    3    0    0  0.14338445063E+02  0.53791113014E+01  0.77831323180E+01  0.17178562044E+02  0.00000000000E+00 0.  1.
</event>
<event>
 8    1  0.8061721E-006  0.8561842E+02  0.7561462E-02  0.1313823E+00
         -2   -1    0    0    0  501 -0.00000000000E+00  0.00000000000E+00  0.90496531015E+02  0.90496531015E+02  0.00000000000E+00 0.  1.
          2   -1    0    0  501    0  0.00000000000E+00 -0.00000000000E+00 -0.26316062314E+03  0.26316062314E+03  0.00000000000E+00 0. -1.
         23    2    1    2    0    0 -0.15918389907E+02 -0.70214876671E+02  0.17224525307E+02  0.11514380119E+03  0.88192327542E+02 0.  0.
         23    2    1    2    0    0  0.15918389907E+02  0.70214876671E+02 -0.18988861743E+03  0.23851335297E+03  0.12508960176E+03 0.  0.
          5    1    4    4  502    0 -0.17200330771E+02  0.14571836989E+02 -0.16870367866E+03  0.17025449599E+03  0.41800000000E+01 0. -1.
         -5    1    4    4    0  502  0.33118720678E+02  0.55643039682E+02 -0.21184938770E+02  0.68258856972E+02  0.41800000000E+01 0. -1.
        -11    1    3    3    0    0 -0.28312530530E+02 -0.29612779485E+02  0.47704839482E+02  0.62882969108E+02  0.00000000000E+00 0.  1.
         11    1    3    3    0    0  0.12394140623E+02 -0.40602097185E+02 -0.30480314175E+02  0.52260832081E+02  0.00000000000E+00 0. -1.
</event>
<event>
 8    1  0.8061721E-006  0.1605077E+03  0.7561462E-02  0.1188125E+00
          1   -1    0    0  501    0  0.00000000000E+00  0.00000000000E+00  0.17101403472E+04  0.17101403472E+04  0.00000000000E+00 0. -1.
         -1   -1    0    0    0  501 -0.00000000000E+00 -0.00000000000E+00 -0.24520815043E+02  0.24520815043E+02  0.00000000000E+00 0.  1.
         23    2    1    2    0    0 -0.10823592109E+02  0.14477041364E+03  0.41340028395E+03  0.44809000969E+03  0.93857547386E+02 0.  0.
         23    2    1    2    0    0  0.10823592109E+02 -0.14477041364E+03  0.12722192482E+04  0.12865711525E+04  0.12509153555E+03 0.  0.
          5    1    4    4  502    0  0.46666329999E+02 -0.12479948004E+03  0.11473265356E+04  0.11550447214E+04  0.41800000000E+01 0.  1.
         -5    1    4    4    0  502 -0.35842737889E+02 -0.19970933598E+02  0.12489271253E+03  0.13152643115E+03  0.41800000000E+01 0.  1.
        -11    1    3    3    0    0  0.10702780622E+01  0.10380215422E+03  0.37996092528E+03  0.39388619862E+03  0.00000000000E+00 0.  1.
         11    1    3    3    0    0 -0.11893870171E+02  0.40968259413E+02  0.33439358670E+02  0.54203811077E+02  0.00000000000E+00 0. -1.
</event>
<event>
 8    1  0.8061721E-006  0.1073729E+03  0.7561462E-02  0.1265514E+00
         -1   -1    0    0    0  501 -0.00000000000E+00  0.00000000000E+00  0.16406186455E+03  0.16406186455E+03  0.00000000000E+00 0.  1.
          1   -1    0    0  501    0  0.00000000000E+00 -0.00000000000E+00 -0.90162254403E+02  0.90162254403E+02  0.00000000000E+00 0. -1.
         23    2    1    2    0    0 -0.23583276574E+02  0.49122252232E+02  0.19942977353E+02  0.10749894853E+03  0.90493839519E+02 0.  0.
         23    2    1    2    0    0  0.23583276574E+02 -0.49122252232E+02  0.53956632796E+02  0.14672517043E+03  0.12509113004E+03 0.  0.
          5    1    4    4  502    0  0.42455594703E+02  0.13754434063E+02 -0.18830098910E+02  0.48617969959E+02  0.41800000000E+01 0.  1.
         -5    1    4    4    0  502 -0.18872318129E+02 -0.62876686295E+02  0.72786731706E+02  0.98107200467E+02  0.41800000000E+01 0.  1.
        -11    1    3    3    0    0  0.22948749654E+02  0.52692345949E+02  0.19929393389E+02  0.60830166473E+02  0.00000000000E+00 0. -1.
         11    1    3    3    0    0 -0.46532026228E+02 -0.35700937174E+01  0.13583964003E-01  0.46668782056E+02  0.00000000000E+00 0.  1.
</event>
<event>
 7    1  0.8061721E-006  0.2787562E+03  0.7561462E-02  0.1096370E+00
          1   -1    0    0  501    0  0.00000000000E+00  0.00000000000E+00  0.13026774782E+04  0.13026774782E+04  0.00000000000E+00 0. -1.
         -1   -1    0    0    0  501 -0.00000000000E+00 -0.00000000000E+00 -0.76990774691E+02  0.76990774691E+02  0.00000000000E+00 0.  1.
         23    2    1    2    0    0  0.24020785696E+03  0.89393622833E+02  0.29340200794E+03  0.40021589850E+03  0.91635106834E+02 0.  0.
          5    1    1    2  502    0 -0.88005888554E+02  0.42727397300E+02  0.33866645485E+03  0.35253809289E+03  0.41800000000E+01 0. -1.
         -5    1    1    2    0  502 -0.15220196841E+03 -0.13212102013E+03  0.59361824069E+03  0.62691426147E+03  0.41800000000E+01 0.  1.
        -11    1    3    3    0    0  0.20097699306E+03  0.62620823905E+02  0.17891349832E+03  0.27626646413E+03  0.00000000000E+00 0.  1.
         11    1    3    3    0    0  0.39230863899E+02  0.26772798928E+02  0.11448850962E+03  0.12394943437E+03  0.00000000000E+00 0. -1.
</event>
<event>
 8    1  0.8061721E-006  0.1261475E+03  0.7561462E-02  0.1233287E+00
         -1   -1    0    0    0  501 -0.00000000000E+00  0.00000000000E+00  0.15981357886E+03  0.15981357886E+03  0.00000000000E+00 0.  1.
          1   -1    0    0  501    0  0.00000000000E+00 -0.00000000000E+00 -0.15487719572E+03  0.15487719572E+03  0.00000000000E+00 0. -1.
         23    2    1    2    0    0  0.94499174400E+02  0.42102984982E+02  0.47127865336E+02  0.14697145526E+03  0.93149437269E+02 0.  0.
         23    2    1    2    0    0 -0.94499174400E+02 -0.42102984982E+02 -0.42191482200E+02  0.16771931932E+03  0.12508754373E+03 0.  0.
          5    1    4    4  502    0 -0.70984598381E+02 -0.77071248616E+02  0.41487264029E+01  0.10494510423E+03  0.41800000000E+01 0.  1.
         -5    1    4    4    0  502 -0.23514576019E+02  0.34968263634E+02 -0.46340208603E+02  0.62774215091E+02  0.41800000000E+01 0.  1.
        -11    1    3    3    0    0  0.54578483296E+02  0.14247558890E+02  0.72674575897E+02  0.91996726871E+02  0.00000000000E+00 0.  1.
         11    1    3    3    0    0  0.39920691104E+02  0.27855426092E+02 -0.25546710561E+02  0.54974728389E+02  0.00000000000E+00 0. -1.
</event>
<event>
 8    1  0.8061721E-006  0.8435709E+02  0.7561462E-02  0.1317122E+00
         -2   -1    0    0    0  501 -0.00000000000E+00  0.00000000000E+00  0.26162533840E+02  0.26162533840E+02  0.00000000000E+00 0. -1.
          2   -1    0    0  501    0  0.00000000000E+00 -0.00000000000E+00 -0.56433159262E+03  0.56433159262E+03  0.00000000000E+00 0.  1.
         23    2    1    2    0    0  0.90355974644E+01 -0.32140748885E+02 -0.13431769744E+03  0.16639697798E+03  0.92369046082E+02 0.  0.
         23    2    1    2    0    0 -0.90355974644E+01  0.32140748885E+02 -0.40385136134E+03  0.42409714848E+03  0.12509116489E+03 0.  0.
          5    1    4    4  502    0  0.25199866867E+02  0.51937482684E+02 -0.85359707312E+02  0.10313237818E+03  0.41800000000E+01 0. -1.
         -5    1    4    4    0  502 -0.34235464331E+02 -0.19796733798E+02 -0.31849165402E+03  0.32096477029E+03  0.41800000000E+01 0. -1.
        -11    1    3    3    0    0  0.34936749960E+02 -0.84006041610E+01 -0.12497931014E+03  0.13004220319E+03  0.00000000000E+00 0.  1.
         11    1    3    3    0    0 -0.25901152496E+02 -0.23740144724E+02 -0.93383872964E+01  0.36354774782E+02  0.00000000000E+00 0. -1.
</event>
<event>
 8    1  0.8061721E-006  0.1110452E+03  0.7561462E-02  0.1258646E+00
          1   -1    0    0  501    0  0.00000000000E+00  0.00000000000E+00  0.68604303979E+03  0.68604303979E+03  0.00000000000E+00 0. -1.
         -1   -1    0    0    0  501 -0.00000000000E+00 -0.00000000000E+00 -0.19321638925E+02  0.19321638925E+02  0.00000000000E+00 0.  1.
         23    2    1    2    0    0 -0.10030646956E+02 -0.28922928235E+02  0.21554330028E+03  0.23616802217E+03  0.91538356680E+02 0.  0.
         23    2    1    2    0    0  0.10030646956E+02  0.28922928235E+02  0.45117810058E+03  0.46919665654E+03  0.12508666760E+03 0.  0.
          5    1    4    4  502    0  0.54689059810E+02  0.52236972765E+02  0.22390084945E+03  0.23636551646E+03  0.41800000000E+01 0.  1.
         -5    1    4    4    0  502 -0.44658412854E+02 -0.23314044530E+02  0.22727725113E+03  0.23283114008E+03  0.41800000000E+01 0.  1.
        -11    1    3    3    0    0 -0.50088569134E+02 -0.23654928560E+02  0.11010850802E+03  0.12325706447E+03  0.00000000000E+00 0. -1.
         11    1    3    3    0    0  0.40057922179E+02 -0.52679996752E+01  0.10543479227E+03  0.11291095771E+03  0.00000000000E+00 0.  1.
</event>
<event>
 8    1  0.8061721E-006  0.1649227E+03  0.7561462E-02  0.1183248E+00
         -2   -1    0    0    0  501 -0.00000000000E+00  0.00000000000E+00  0.83500700346E+02  0.83500700346E+02  0.00000000000E+00 0.  1.
          2   -1    0    0  501    0  0.00000000000E+00 -0.00000000000E+00 -0.39984948121E+03  0.39984948121E+03  0.00000000000E+00 0. -1.
         23    2    1    2    0    0  0.12933890895E+03  0.67197446574E+02 -0.12323717777E+03  0.21098181926E+03  0.89899254039E+02 0.  0.
         23    2    1    2    0    0 -0.12933890895E+03 -0.67197446574E+02 -0.19311160309E+03  0.27236836230E+03  0.12509349839E+03 0.  0.
          5    1    4    4  502    0 -0.13495071225E+03 -0.79664582403E+02 -0.20187802241E+03  0.25559802182E+03  0.41800000000E+01 0. -1.
         -5    1    4    4    0  502  0.56118032986E+01  0.12467135829E+02  0.87664193222E+01  0.16770340479E+02  0.41800000000E+01 0. -1.
        -11    1    3    3    0    0  0.82169854371E+02  0.74665397322E+02 -0.46011530781E+02  0.12018264221E+03  0.00000000000E+00 0.  1.
         11    1    3    3    0    0  0.47169054579E+02 -0.74679507478E+01 -0.77225646994E+02  0.90799177044E+02  0.00000000000E+00 0. -1.
</event>
<event>
 8    1  0.8061721E-006  0.1144676E+03  0.7561462E-02  0.1252513E+00
          1   -1    0    0  501    0  0.00000000000E+00  0.00000000000E+00  0.22445181205E+03  0.22445181205E+03  0.00000000000E+00 0. -1.
         -1   -1    0    0    0  501 -0.00000000000E+00 -0.00000000000E+00 -0.10392400809E+03  0.10392400809E+03  0.00000000000E+00 0.  1.
         23    2    1    2    0    0  0.60551157497E+02 -0.66600519887E+02 -0.65742580402E+01  0.12861467437E+03  0.91632099570E+02 0.  0.
         23    2    1    2    0    0 -0.60551157497E+02  0.66600519887E+02  0.12710206200E+03  0.19976114577E+03  0.12509000468E+03 0.  0.
          5    1    4    4  502    0 -0.69683008988E+02  0.88229563860E+02  0.13397027081E+03  0.17494480141E+03  0.41800000000E+01 0.  1.
         -5    1    4    4    0  502  0.91318514913E+01 -0.21629043973E+02 -0.68682088098E+01  0.24816344354E+02  0.41800000000E+01 0.  1.
        -11    1    3    3    0    0  0.54736958821E+01 -0.19041309138E+02 -0.42920829340E+02  0.47272935085E+02  0.00000000000E+00 0.  1.
         11    1    3    3    0    0  0.55077461615E+02 -0.47559210749E+02  0.36346571300E+02  0.81341739287E+02  0.00000000000E+00 0. -1.
</event>
<event>
 8    1  0.8061721E-006  0.8537931E+02  0.7561462E-02  0.1314444E+00
          1   -1    0    0  501    0  0.00000000000E+00  0.00000000000E+00  0.15476434051E+03  0.15476434051E+03  0.00000000000E+00 0. -1.
         -1   -1    0    0    0  501 -0.00000000000E+00 -0.00000000000E+00 -0.14722272593E+03  0.14722272593E+03  0.00000000000E+00 0.  1.
         23    2    1    2    0    0  0.44045558712E+02 -0.28124968640E+02 -0.88863033751E+02  0.13563512417E+03  0.88143196207E+02 0.  0.
         23    2    1    2    0    0 -0.44045558712E+02  0.28124968640E+02  0.96404648328E+02  0.16635194227E+03  0.12509231541E+03 0.  0.
          5    1    4    4  502    0 -0.55870126879E+02  0.60561729620E+01  0.11944505472E+03  0.13207097260E+03  0.41800000000E+01 0.  1.
         -5    1    4    4    0  502  0.11824568167E+02  0.22068795678E+02 -0.23040406388E+02  0.34280969670E+02  0.41800000000E+01 0.  1.
        -11    1    3    3    0    0  0.33284441291E+02  0.20586549088E+02 -0.73782429729E+02  0.83519500550E+02  0.00000000000E+00 0.  1.
         11    1    3    3    0    0  0.10761117421E+02 -0.48711517728E+02 -0.15080604023E+02  0.52115623619E+02  0.00000000000E+00 0. -1.
</event>
<event>
 8    1  0.8061721E-006  0.1399555E+03  0.7561462E-02  0.1213389E+00
         -1   -1    0    0    0  501 -0.00000000000E+00  0.00000000000E+00  0.15750424819E+02  0.15750424819E+02  0.00000000000E+00 0.  1.
          1   -1    0    0  501    0  0.00000000000E+00 -0.00000000000E+00 -0.19807084861E+04  0.19807084861E+04  0.00000000000E+00 0. -1.
         23    2    1    2    0    0  0.91183230082E+02 -0.26833113526E+02 -0.33388534079E+03  0.35783788399E+03  0.86799383629E+02 0.  0.
         23    2    1    2    0    0 -0.91183230082E+02  0.26833113526E+02 -0.16310727205E+04  0.16386210269E+04  0.12508498278E+03 0.  0.
          5    1    4    4  502    0 -0.30547396751E+02 -0.50131132855E+02 -0.57449241744E+03  0.57749916365E+03  0.41800000000E+01 0.  1.
         -5    1    4    4    0  502 -0.60635833331E+02  0.76964246381E+02 -0.10565803031E+04  0.10611218633E+04  0.41800000000E+01 0.  1.
        -11    1    3    3    0    0  0.67821391005E+02 -0.54335075971E+02 -0.27842168313E+03  0.29166877651E+03  0.00000000000E+00 0. -1.
         11    1    3    3    0    0  0.23361839077E+02  0.27501962445E+02 -0.55463657660E+02  0.66169107478E+02  0.00000000000E+00 0.  1.
</event>
<event>
 8    1  0.8061721E-006  0.1169291E+03  0.7561462E-02  0.1248251E+00
         -2   -1    0    0    0  501 -0.00000000000E+00  0.00000000000E+00  0.58996397867E+02  0.58996397867E+02  0.00000000000E+00 0. -1.
          2   -1    0    0  501    0  0.00000000000E+00 -0.00000000000E+00 -0.32868483970E+03  0.32868483970E+03  0.00000000000E+00 0.  1.
         23    2    1    2    0    0  0.42104726549E+02 -0.56600628092E+02 -0.57648039472E+02  0.13161437927E+03  0.94987416423E+02 0.  0.
         23    2    1    2    0    0 -0.42104726549E+02  0.56600628092E+02 -0.21204040236E+03  0.25606685829E+03  0.12503065458E+03 0.  0.
          5    1    4    4  502    0  0.30294490972E+02  0.45243016797E+02 -0.36193392562E+02  0.65514279491E+02  0.41800000000E+01 0.  1.
         -5    1    4    4    0  502 -0.72399217521E+02  0.11357611295E+02 -0.17584700980E+03  0.19055257880E+03  0.41800000000E+01 0.  1.
        -11    1    3    3    0    0 -0.21758989440E+02 -0.29042224014E+02 -0.49796638202E+02  0.61616633902E+02  0.00000000000E+00 0.  1.
         11    1    3    3    0    0  0.63863715990E+02 -0.27558404078E+02 -0.78514012693E+01  0.69997745372E+02  0.00000000000E+00 0. -1.
</event>
<event>
 8    1  0.8061721E-006  0.1059480E+03  0.7561462E-02  0.1268263E+00
          1   -1    0    0  501    0  0.00000000000E+00  0.00000000000E+00  0.43166408114E+03  0.43166408114E+03  0.00000000000E+00 0. -1.
         -1   -1    0    0    0  501 -0.00000000000E+00 -0.00000000000E+00 -0.27522716368E+02  0.27522716368E+02  0.00000000000E+00 0.  1.
         23    2    1    2    0    0 -0.55167024360E+01 -0.76283090972E+01  0.14990103586E+03  0.17568264606E+03  0.91134222261E+02 0.  0.
         23    2    1    2    0    0  0.55167024360E+01  0.76283090972E+01  0.25424032891E+03  0.28350415145E+03  0.12509130242E+03 0.  0.
          5    1    4    4  502    0 -0.26407735367E+02  0.59010046043E+02  0.12851882545E+03  0.14392399006E+03  0.41800000000E+01 0.  1.
         -5    1    4    4    0  502  0.31924437803E+02 -0.51381736946E+02  0.12572150346E+03  0.13958016139E+03  0.41800000000E+01 0.  1.
        -11    1    3    3    0    0 -0.24508586443E+02 -0.41180102544E+02  0.11104972120E+03  0.12094838665E+03  0.00000000000E+00 0.  1.
         11    1    3    3    0    0  0.18991884007E+02  0.33551793447E+02  0.38851314666E+02  0.54734259408E+02  0.00000000000E+00 0. -1.
</event>
<event>
 8    1  0.8061721E-006  0.9176073E+02  0.7561462E-02  0.1298643E+00
         -1   -1    0    0    0  501 -0.00000000000E+00  0.00000000000E+00  0.31525638857E+02  0.31525638857E+02  0.00000000000E+00 0.  1.
          1   -1    0    0  501    0  0.00000000000E+00 -0.00000000000E+00 -0.48498081905E+03  0.48498081905E+03  0.00000000000E+00 0. -1.
         23    2    1    2    0    0 -0.45079744362E+02  0.37164781169E+02 -0.18435593991E+03  0.21405891055E+03  0.91764373789E+02 0.  0.
         23    2    1    2    0    0  0.45079744362E+02 -0.37164781169E+02 -0.26909924029E+03  0.30244754736E+03  0.12508682372E+03 0.  0.
          5    1    4    4  502    0  0.21947848031E+02  0.32119255384E+02 -0.22305382912E+02  0.45037285736E+02  0.41800000000E+01 0.  1.
         -5    1    4    4    0  502  0.23131896331E+02 -0.69284036553E+02 -0.24679385738E+03  0.25741026162E+03  0.41800000000E+01 0.  1.
        -11    1    3    3    0    0 -0.39273941121E+02  0.62388096754E+01 -0.16126309788E+02  0.42911805657E+02  0.00000000000E+00 0.  1.
         11    1    3    3    0    0 -0.58058032406E+01  0.30925971493E+02 -0.16822963012E+03  0.17114710490E+03  0.00000000000E+00 0. -1.
</event>
<event>
 8    1  0.8061721E-006  0.1120771E+03  0.7561462E-02  0.1256771E+00
          1   -1    0    0  501    0  0.00000000000E+00  0.00000000000E+00  0.11130178482E+04  0.11130178482E+04  0.00000000000E+00 0. -1.
         -1   -1    0    0    0  501 -0.00000000000E+00 -0.00000000000E+00 -0.13457108786E+02  0.13457108786E+02  0.00000000000E+00 0.  1.
         23    2    1    2    0    0  0.41985465218E+02 -0.24740812835E+02  0.33484502808E+03  0.35006469818E+03  0.89717406184E+02 0.  0.
         23    2    1    2    0    0 -0.41985465218E+02  0.24740812835E+02  0.76471571133E+03  0.77641025880E+03  0.12509150135E+03 0.  0.
          5    1    4    4  502    0 -0.21318071009E+00 -0.47863775842E+02  0.35157727503E+03  0.35484509184E+03  0.41800000000E+01 0. -1.
         -5    1    4    4    0  502 -0.41772284508E+02  0.72604588677E+02  0.41313843630E+03  0.42156516697E+03  0.41800000000E+01 0. -1.
        -11    1    3    3    0    0  0.23632027975E+02  0.27857810385E+02  0.21271438599E+03  0.21582849755E+03  0.00000000000E+00 0. -1.
         11    1    3    3    0    0  0.18353437243E+02 -0.52598623221E+02  0.12213064209E+03  0.13423620063E+03  0.00000000000E+00 0.  1.
</event>
<event>
 8    1  0.1195801E-005  0.1762364E+03  0.7561462E-02  0.1171496E+00
         -3   -1    0    0    0  501 -0.00000000000E+00  0.00000000000E+00  0.14150929622E+03  0.14150929622E+03  0.00000000000E+00 0.  1.
          3   -1    0    0  501    0  0.00000000000E+00 -0.00000000000E+00 -0.23550758356E+03  0.23550758356E+03  0.00000000000E+00 0. -1.
         23    2    1    2    0    0 -0.38724383864E+02  0.13579142904E+03 -0.54582405425E+01  0.16862820428E+03  0.92015155171E+02 0.  0.
         23    2    1    2    0    0  0.38724383864E+02 -0.13579142904E+03 -0.88540046801E+02  0.20838867551E+03  0.12509040765E+03 0.  0.
          5    1    4    4  502    0 -0.23965193703E+02  0.12647316644E+02 -0.11412921299E+02  0.29698691892E+02  0.41800000000E+01 0.  1.
         -5    1    4    4    0  502  0.62689577566E+02 -0.14843874569E+03 -0.77127125502E+02  0.17868998362E+03  0.41800000000E+01 0.  1.
        -11    1    3    3    0    0 -0.15673955950E+02 -0.84421645427E+01 -0.13500767951E+02  0.22343092279E+02  0.00000000000E+00 0. -1.
         11    1    3    3    0    0 -0.23050427913E+02  0.14423359359E+03  0.80425274086E+01  0.14628511200E+03  0.00000000000E+00 0.  1.
</event>
<event>
 8    1  0.8061721E-006  0.8800071E+02  0.7561462E-02  0.1307767E+00
          2   -1    0    0  501    0  0.00000000000E+00  0.00000000000E+00  0.14582139627E+03  0.14582139627E+03  0.00000000000E+00 0. -1.
         -2   -1    0    0    0  501 -0.00000000000E+00 -0.00000000000E+00 -0.14643919006E+03  0.14643919006E+03  0.00000000000E+00 0.  1.
         23    2    1    2    0    0  0.41597812017E+02  0.20919821309E+02 -0.85379855696E+02  0.13414840872E+03  0.92401617493E+02 0.  0.
         23    2    1    2    0    0 -0.41597812017E+02 -0.20919821309E+02  0.84762061903E+02  0.15811217761E+03  0.12508731623E+03 0.  0.
          5    1    4    4  502    0 -0.32392966557E+02  0.22655226290E+02 -0.19782010245E+02  0.44400043806E+02  0.41800000000E+01 0. -1.
         -5    1    4    4    0  502 -0.92048454597E+01 -0.43575047599E+02  0.10454407215E+03  0.11371213380E+03  0.41800000000E+01 0. -1.
        -11    1    3    3    0    0 -0.80838140357E+01  0.38102266404E+02 -0.66995219892E+01  0.39522327226E+02  0.00000000000E+00 0. -1.
         11    1    3    3    0    0  0.49681626053E+02 -0.17182445095E+02 -0.78680333707E+02  0.94626081494E+02  0.00000000000E+00 0.  1.
</event>
<event>
 7    1  0.8061721E-006  0.6060884E+02  0.7561462E-02  0.1395294E+00
         -2   -1    0    0    0  501 -0.00000000000E+00  0.00000000000E+00  0.42636930785E+02  0.42636930785E+02  0.00000000000E+00 0.  1.
          2   -1    0    0  501    0  0.00000000000E+00 -0.00000000000E+00 -0.16186374330E+03  0.16186374330E+03  0.00000000000E+00 0. -1.
         23    2    1    2    0    0  0.83053597345E+01  0.18084456479E+02 -0.94302655639E+02  0.14716013386E+03  0.11120740789E+03 0.  0.
          5    1    3    3  502    0  0.10773118594E+02  0.42909155723E+02 -0.10913636846E+03  0.11783664562E+03  0.41800000000E+01 0. -1.
         -5    1    3    3    0  502 -0.24677588592E+01 -0.24824699244E+02  0.14833712826E+02  0.29323488239E+02  0.41800000000E+01 0.  1.
        -11    1    1    2    0    0  0.12454707481E+02 -0.26345872237E+02 -0.16300763924E+02  0.33390711686E+02  0.00000000000E+00 0. -1.
         11    1    1    2    0    0 -0.20760067215E+02  0.82614157579E+01 -0.86233929521E+01  0.23949828540E+02  0.00000000000E+00 0.  1.
</event>
<event>
 8    1  0.1101324E-005  0.1075042E+03  0.7561462E-02  0.1265263E+00
         -1   -1    0    0    0  501 -0.00000000000E+00  0.00000000000E+00  0.19811294879E+02  0.19811294879E+02  0.00000000000E+00 0.  1.
          1   -1    0    0  501    0  0.00000000000E+00 -0.00000000000E+00 -0.70865353353E+03  0.70865353353E+03  0.00000000000E+00 0. -1.
         23    2    1    2    0    0 -0.11878148837E+02  0.42774986465E+02 -0.24187214615E+03  0.26220233908E+03  0.90978797812E+02 0.  0.
         23    2    1    2    0    0  0.11878148837E+02 -0.42774986465E+02 -0.44697009251E+03  0.46626248933E+03  0.12509058907E+03 0.  0.
          5    1    4    4  502    0  0.56586487707E+02 -0.45469473198E+01 -0.33410713043E+03  0.33892145451E+03  0.41800000000E+01 0.  1.
         -5    1    4    4    0  502 -0.44708338869E+02 -0.38228039145E+02 -0.11286296208E+03  0.12734103482E+03  0.41800000000E+01 0.  1.
        -11    1    3    3    0    0  0.38317404601E+02  0.11640695102E+02 -0.72484989007E+02  0.82811852468E+02  0.00000000000E+00 0.  1.
         11    1    3    3    0    0 -0.50195553438E+02  0.31134291363E+02 -0.16938715714E+03  0.17939048662E+03  0.00000000000E+00 0. -1.
</event>
<event>
 8    1  0.8061721E-006  0.1037139E+03  0.7561462E-02  0.1272675E+00
         -2   -1    0    0    0  501 -0.00000000000E+00  0.00000000000E+00  0.15740181617E+02  0.15740181617E+02  0.00000000000E+00 0.  1.
          2   -1    0    0  501    0  0.00000000000E+00 -0.00000000000E+00 -0.11712754813E+04  0.11712754813E+04  0.00000000000E+00 0. -1.
         23    2    1    2    0    0 -0.36371201786E+02 -0.25952154000E+02 -0.21226777832E+03  0.23444159050E+03  0.88931833582E+02 0.  0.
         23    2    1    2    0    0  0.36371201786E+02  0.25952154000E+02 -0.94326752133E+03  0.95257407239E+03  0.12508943990E+03 0.  0.
          5    1    4    4  502    0  0.63787399130E+02 -0.28231994146E+02 -0.41937198810E+03  0.42515434208E+03  0.41800000000E+01 0.  1.
         -5    1    4    4    0  502 -0.27416197344E+02  0.54184148146E+02 -0.52389553323E+03  0.52741973032E+03  0.41800000000E+01 0.  1.
        -11    1    3    3    0    0  0.13768290120E+02 -0.22552439629E+02 -0.13997697628E+02  0.29901737155E+02  0.00000000000E+00 0.  1.
         11    1    3    3    0    0 -0.50139491906E+02 -0.33997143709E+01 -0.19827008070E+03  0.20453985334E+03  0.00000000000E+00 0. -1.
</event>
<event>
 8    1  0.8473357E-006  0.1726283E+03  0.7561462E-02  0.1175134E+00
         -1   -1    0    0    0  501 -0.00000000000E+00  0.00000000000E+00  0.31434049113E+02  0.31434049113E+02  0.00000000000E+00 0.  1.
          1   -1    0    0  501    0  0.00000000000E+00 -0.00000000000E+00 -0.11167982643E+04  0.11167982643E+04  0.00000000000E+00 0. -1.
         23    2    1    2    0    0 -0.14076838166E+03  0.32120289565E+02 -0.36667898895E+03  0.40459022882E+03  0.91609617625E+02 0.  0.
         23    2    1    2    0    0  0.14076838166E+03 -0.32120289565E+02 -0.71868522619E+03  0.74364208455E+03  0.12509054836E+03 0.  0.
          5    1    4    4  502    0  0.88134025808E+02 -0.78698829158E+02 -0.39132175636E+03  0.40879249212E+03  0.41800000000E+01 0. -1.
         -5    1    4    4    0  502  0.52634355852E+02  0.46578539593E+02 -0.32736346984E+03  0.33484959243E+03  0.41800000000E+01 0. -1.
        -11    1    3    3    0    0 -0.12659338867E+03  0.58049227044E+01 -0.21151004394E+03  0.24656861493E+03  0.00000000000E+00 0.  1.
         11    1    3    3    0    0 -0.14174992990E+02  0.26315366861E+02 -0.15516894502E+03  0.15802161389E+03  0.00000000000E+00 0. -1.
</event>
<event>
 8    1  0.8061721E-006  0.1181643E+03  0.7561462E-02  0.1246156E+00
          2   -1    0    0  501    0  0.00000000000E+00  0.00000000000E+00  0.85031041988E+02  0.85031041988E+02  0.00000000000E+00 0. -1.
         -2   -1    0    0    0  501 -0.00000000000E+00 -0.00000000000E+00 -0.30552717525E+03  0.30552717525E+03  0.00000000000E+00 0.  1.
         23    2    1    2    0    0  0.12468656455E+02  0.79793009579E+02 -0.20911937761E+03  0.24123123028E+03  0.89102191869E+02 0.  0.
         23    2    1    2    0    0 -0.12468656455E+02 -0.79793009579E+02 -0.11376755645E+02  0.14932698696E+03  0.12508687658E+03 0.  0.
          5    1    4    4  502    0  0.35918050644E+02 -0.26823779885E+02  0.40608446518E+02  0.60631178926E+02  0.41800000000E+01 0.  1.
         -5    1    4    4    0  502 -0.48386707099E+02 -0.52969229694E+02 -0.51985202164E+02  0.88695808031E+02  0.41800000000E+01 0.  1.
        -11    1    3    3    0    0  0.13080483747E+02 -0.17665211123E+02 -0.50293186336E+02  0.54886822926E+02  0.00000000000E+00 0.  1.
         11    1    3    3    0    0 -0.61182729247E+00  0.97458220702E+02 -0.15882619128E+03  0.18634440735E+03  0.00000000000E+00 0. -1.
</event>
<event>
 7    1  0.8061721E-006  0.1186458E+03  0.7561462E-02  0.1245348E+00
          2   -1    0    0  501    0  0.00000000000E+00  0.00000000000E+00  0.10704850278E+03  0.10704850278E+03  0.00000000000E+00 0. -1.
         -2   -1    0    0    0  501 -0.00000000000E+00 -0.00000000000E+00 -0.18705829933E+03  0.18705829933E+03  0.00000000000E+00 0.  1.
         23    2    1    2    0    0  0.30418828983E+02  0.87147295400E+01 -0.68580627175E+02  0.11746347433E+03  0.89961734694E+02 0.  0.
          5    1    1    2  502    0 -0.28803189160E+02  0.65757705345E+02 -0.54740895400E+02  0.90375536221E+02  0.41800000000E+01 0. -1.
         -5    1    1    2    0  502 -0.16156398235E+01 -0.74472434885E+02  0.43311726028E+02  0.86267791564E+02  0.41800000000E+01 0.  1.
        -11    1    3    3    0    0  0.33629235244E+02  0.43979210148E+02 -0.23514877642E+02  0.60150194172E+02  0.00000000000E+00 0.  1.
         11    1    3    3    0    0 -0.32104062608E+01 -0.35264480608E+02 -0.45065749533E+02  0.57313280153E+02  0.00000000000E+00 0. -1.
</event>
<event>
 8    1  0.8061721E-006  0.9852811E+02  0.7561462E-02  0.1283422E+00
         -1   -1    0    0    0  501 -0.00000000000E+00  0.00000000000E+00  0.15902521948E+02  0.15902521948E+02  0.00000000000E+00 0.  1.
          1   -1    0    0  501    0  0.00000000000E+00 -0.00000000000E+00 -0.87074626577E+03  0.87074626577E+03  0.00000000000E+00 0. -1.
         23    2    1    2    0    0  0.20798646563E+02 -0.14418104078E+01 -0.21273779010E+03  0.23213985794E+03  0.90536643382E+02 0.  0.
         23    2    1    2    0    0 -0.20798646563E+02  0.14418104078E+01 -0.64210595372E+03  0.65450892977E+03  0.12508885174E+03 0.  0.
          5    1    4    4  502    0 -0.71190349682E+02 -0.15421821286E+02 -0.34052268877E+03  0.34825145000E+03  0.41800000000E+01 0.  1.
         -5    1    4    4    0  502  0.50391703119E+02  0.16863631694E+02 -0.30158326495E+03  0.30625747977E+03  0.41800000000E+01 0.  1.
        -11    1    3    3    0    0 -0.18408354655E+02 -0.20199299628E+02 -0.18268228671E+02  0.32872593529E+02  0.00000000000E+00 0.  1.
         11    1    3    3    0    0  0.39207001218E+02  0.18757489220E+02 -0.19446956143E+03  0.19926726441E+03  0.00000000000E+00 0. -1.
</event>
<event>
 8    1  0.8061721E-006  0.7479231E+02  0.7561462E-02  0.1344515E+00
         -2   -1    0    0    0  501 -0.00000000000E+00  0.00000000000E+00  0.30205532010E+03  0.30205532010E+03  0.00000000000E+00 0.  1.
          2   -1    0    0  501    0  0.00000000000E+00 -0.00000000000E+00 -0.45332363869E+02  0.45332363869E+02  0.00000000000E+00 0. -1.
         23    2    1    2    0    0 -0.16285442212E+02  0.17014149432E+01  0.17466906305E+03  0.19688123033E+03  0.89357858237E+02 0.  0.
         23    2    1    2    0    0  0.16285442212E+02 -0.17014149432E+01  0.82053893183E+02  0.15050645364E+03  0.12510491901E+03 0.  0.
          5    1    4    4  502    0  0.35861131384E+02  0.97995617003E+01  0.10887225587E+03  0.11512033987E+03  0.41800000000E+01 0.  1.
         -5    1    4    4    0  502 -0.19575689172E+02 -0.11500976644E+02 -0.26818362689E+02  0.35386113769E+02  0.41800000000E+01 0.  1.
        -11    1    3    3    0    0 -0.50878063074E+02 -0.11327464775E+02  0.12062270573E+03  0.13140291435E+03  0.00000000000E+00 0.  1.
         11    1    3    3    0    0  0.34592620862E+02  0.13028879718E+02  0.54046357317E+02  0.65478315984E+02  0.00000000000E+00 0. -1.
</event>
<event>
 8    1  0.8061721E-006  0.9710911E+02  0.7561462E-02  0.1286495E+00
         -1   -1    0    0    0  501 -0.00000000000E+00  0.00000000000E+00  0.39784935790E+02  0.39784935790E+02  0.00000000000E+00 0.  1.
          1   -1    0    0  501    0  0.00000000000E+00 -0.00000000000E+00 -0.34378245222E+03  0.34378245222E+03  0.00000000000E+00 0. -1.
         23    2    1    2    0    0  0.39500823196E+01  0.81638453052E+01 -0.60102559476E+02  0.10931499305E+03  0.90858123080E+02 0.  0.
         23    2    1    2    0    0 -0.39500823196E+01 -0.81638453052E+01 -0.24389495695E+03  0.27425239496E+03  0.12508946635E+03 0.  0.
          5    1    4    4  502    0 -0.31417212288E+02  0.37897356006E+02 -0.40554060924E+02  0.63916782441E+02  0.41800000000E+01 0.  1.
         -5    1    4    4    0  502  0.27467129968E+02 -0.46061201311E+02 -0.20334089603E+03  0.21033561252E+03  0.41800000000E+01 0.  1.
        -11    1    3    3    0    0 -0.43008737988E+02 -0.16872858089E+01 -0.24108321200E+02  0.49333656137E+02  0.00000000000E+00 0.  1.
         11    1    3    3    0    0  0.46958820308E+02  0.98511311141E+01 -0.35994238276E+02  0.59981336914E+02  0.00000000000E+00 0. -1.
</event>
<event>
 8    1  0.8061721E-006  0.7777957E+02  0.7561462E-02  0.1335473E+00
          1   -1    0    0  501    0  0.00000000000E+00  0.00000000000E+00  0.79094782980E+02  0.79094782980E+02  0.00000000000E+00 0. -1.
         -1   -1    0    0    0  501 -0.00000000000E+00 -0.00000000000E+00 -0.19971023176E+03  0.19971023176E+03  0.00000000000E+00 0.  1.
         23    2    1    2    0    0  0.21935546319E+02 -0.41654929431E+02 -0.10586854752E+03  0.14431779416E+03  0.86041705115E+02 0.  0.
         23    2    1    2    0    0 -0.21935546319E+02  0.41654929431E+02 -0.14746901256E+02  0.13448722058E+03  0.12511210998E+03 0.  0.
          5    1    4    4  502    0 -0.17431835898E+02 -0.78360087140E+01 -0.62469594608E+02  0.65461397677E+02  0.41800000000E+01 0.  1.
         -5    1    4    4    0  502 -0.45037104213E+01  0.49490938145E+02  0.47722693352E+02  0.69025822898E+02  0.41800000000E+01 0.  1.
        -11    1    3    3    0    0  0.29424868390E+02 -0.59716066962E+02 -0.10551679251E+03  0.12476227408E+03  0.00000000000E+00 0.  1.
         11    1    3    3    0    0 -0.74893220714E+01  0.18061137531E+02 -0.35175501529E+00  0.19555520080E+02  0.00000000000E+00 0. -1.
</event>
<event>
 8    1  0.8061721E-006  0.1122213E+03  0.7561462E-02  0.1256511E+00
          2   -1    0    0  501    0  0.00000000000E+00  0.00000000000E+00  0.65228196127E+03  0.65228196127E+03  0.00000000000E+00 0.  1.
         -2   -1    0    0    0  501 -0.00000000000E+00 -0.00000000000E+00 -0.21278817817E+02  0.21278817817E+02  0.00000000000E+00 0. -1.
         23    2    1    2    0    0 -0.30412667773E+01 -0.35464126028E+02  0.19171923743E+03  0.21542949215E+03  0.91578635864E+02 0.  0.
         23    2    1    2    0    0  0.30412667773E+01  0.35464126028E+02  0.43928390602E+03  0.45813128694E+03  0.12508785890E+03 0.  0.
          5    1    4    4  502    0  0.43526828018E+01 -0.46451747539E+02  0.19036804429E+03  0.19604636029E+03  0.41800000000E+01 0.  1.
         -5    1    4    4    0  502 -0.13114160246E+01  0.81915873568E+02  0.24891586173E+03  0.26208492664E+03  0.41800000000E+01 0.  1.
        -11    1    3    3    0    0 -0.11341260441E+02  0.28704796676E+02  0.87226825520E+02  0.92526259142E+02  0.00000000000E+00 0.  1.
         11    1    3    3    0    0  0.82999936635E+01 -0.64168922704E+02  0.10449241191E+03  0.12290323300E+03  0.00000000000E+00 0. -1.
</event>
<event>
 8    1  0.8061721E-006  0.2977672E+03  0.7561462E-02  0.1086362E+00
         -1   -1    0    0    0  501 -0.00000000000E+00  0.00000000000E+00  0.16883711695E+03  0.16883711695E+03  0.00000000000E+00 0.  1.
          1   -1    0    0  501    0  0.00000000000E+00 -0.00000000000E+00 -0.57748609615E+03  0.57748609615E+03  0.00000000000E+00 0. -1.
         23    2    1    2    0    0  0.13620439221E+03 -0.25110987344E+03 -0.27454543558E+03  0.40685767678E+03  0.92467118274E+02 0.  0.
         23    2    1    2    0    0 -0.13620439221E+03  0.25110987344E+03 -0.13410354362E+03  0.33946553632E+03  0.12508111343E+03 0.  0.
          5    1    4    4  502    0 -0.13052268295E+03  0.25646448565E+03 -0.10069812580E+03  0.30490619558E+03  0.41800000000E+01 0. -1.
         -5    1    4    4    0  502 -0.56817092555E+01 -0.53546122104E+01 -0.33405417822E+02  0.34559340732E+02  0.41800000000E+01 0. -1.
        -11    1    3    3    0    0  0.41646160196E+00 -0.82001969935E+02 -0.58473497040E+02  0.10071567092E+03  0.00000000000E+00 0. -1.
         11    1    3    3    0    0  0.13578793060E+03 -0.16910790351E+03 -0.21607193854E+03  0.30614200586E+03  0.00000000000E+00 0.  1.
</event>
<event>
 8    1  0.8061721E-006  0.3870918E+03  0.7561462E-02  0.1048343E+00
          1   -1    0    0  501    0  0.00000000000E+00  0.00000000000E+00  0.96536374085E+03  0.96536374085E+03  0.00000000000E+00 0. -1.
         -1   -1    0    0    0  501 -0.00000000000E+00 -0.00000000000E+00 -0.17751076329E+03  0.17751076329E+03  0.00000000000E+00 0.  1.
         23    2    1    2    0    0 -0.19724948647E+03 -0.31907414313E+03  0.20076248466E+03  0.43503657515E+03  0.90750084026E+02 0.  0.
         23    2    1    2    0    0  0.19724948647E+03  0.31907414313E+03  0.58709049290E+03  0.70783792898E+03  0.12507445037E+03 0.  0.
          5    1    4    4  502    0  0.17628871020E+03  0.19715573015E+03  0.45868149714E+03  0.52948491904E+03  0.41800000000E+01 0. -1.
         -5    1    4    4    0  502  0.20960776271E+02  0.12191841297E+03  0.12840899576E+03  0.17835300994E+03  0.41800000000E+01 0. -1.
        -11    1    3    3    0    0 -0.68304156895E+02 -0.41732542820E+02  0.44386298816E+02  0.91527080702E+02  0.00000000000E+00 0.  1.
         11    1    3    3    0    0 -0.12894532958E+03 -0.27734160031E+03  0.15637618584E+03  0.34350949445E+03  0.00000000000E+00 0. -1.
</event>
<event>
 8    1  0.8061721E-006  0.1063870E+03  0.7561462E-02  0.1267411E+00
         -1   -1    0    0    0  501 -0.00000000000E+00  0.00000000000E+00  0.40175509490E+02  0.40175509490E+02  0.00000000000E+00 0.  1.
          1   -1    0    0  501    0  0.00000000000E+00 -0.00000000000E+00 -0.32122159540E+03  0.32122159540E+03  0.00000000000E+00 0. -1.
         23    2    1    2    0    0  0.20604644296E+02 -0.19669583266E+02 -0.99909615859E+02  0.13942817583E+03  0.92988391759E+02 0.  0.
         23    2    1    2    0    0 -0.20604644296E+02  0.19669583266E+02 -0.18113647005E+03  0.22196892906E+03  0.12509332841E+03 0.  0.
          5    1    4    4  502    0 -0.11152919942E+02  0.66753873552E+02 -0.56250938609E+02  0.88102824879E+02  0.41800000000E+01 0. -1.
         -5    1    4    4    0  502 -0.94517243541E+01 -0.47084290286E+02 -0.12488553144E+03  0.13386610418E+03  0.41800000000E+01 0. -1.
        -11    1    3    3    0    0  0.57670776519E+02 -0.12383477951E+02 -0.67635449399E+02  0.89743094474E+02  0.00000000000E+00 0. -1.
         11    1    3    3    0    0 -0.37066132223E+02 -0.72861053152E+01 -0.32274166461E+02  0.49685081356E+02  0.00000000000E+00 0.  1.
</event>
<event>
 8    1  0.8061721E-006  0.1062211E+03  0.7561462E-02  0.1267732E+00
          2   -1    0    0  501    0  0.00000000000E+00  0.00000000000E+00  0.16525494902E+03  0.16525494902E+03  0.00000000000E+00 0. -1.
         -2   -1    0    0    0  501 -0.00000000000E+00 -0.00000000000E+00 -0.13250259637E+03  0.13250259637E+03  0.00000000000E+00 0.  1.
         23    2    1    2    0    0 -0.20067247374E+02 -0.38147106382E+02 -0.76369666662E+02  0.12625646658E+03  0.90832115602E+02 0.  0.
         23    2    1    2    0    0  0.20067247374E+02  0.38147106382E+02  0.10912201931E+03  0.17150107880E+03  0.12508840390E+03 0.  0.
          5    1    4    4  502    0  0.11759981366E+02  0.76260087442E+02  0.29454359764E+02  0.82697822265E+02  0.41800000000E+01 0.  1.
         -5    1    4    4    0  502  0.83072660077E+01 -0.38112981059E+02  0.79667659549E+02  0.88803256538E+02  0.41800000000E+01 0.  1.
        -11    1    3    3    0    0  0.38664472386E+01 -0.62015072305E+02 -0.30334339726E+02  0.69144708936E+02  0.00000000000E+00 0. -1.
         11    1    3    3    0    0 -0.23933694612E+02  0.23867965923E+02 -0.46035326936E+02  0.57111757644E+02  0.00000000000E+00 0.  1.
</event>
<event>
 8    1  0.8061721E-006  0.1278067E+03  0.7561462E-02  0.1230747E+00
         -2   -1    0    0    0  501 -0.00000000000E+00  0.00000000000E+00  0.58590871453E+02  0.58590871453E+02  0.00000000000E+00 0.  1.
          2   -1    0    0  501    0  0.00000000000E+00 -0.00000000000E+00 -0.32517269835E+03  0.32517269835E+03  0.00000000000E+00 0. -1.
         23    2    1    2    0    0  0.51065790473E+02  0.46161848502E+02 -0.52182535442E+02  0.12617200693E+03  0.91965901912E+02 0.  0.
         23    2    1    2    0    0 -0.51065790473E+02 -0.46161848502E+02 -0.21439929145E+03  0.25759156287E+03  0.12509087045E+03 0.  0.
          5    1    4    4  502    0 -0.16322413872E+02  0.42554190646E+02 -0.52113878508E+02  0.69358554406E+02  0.41800000000E+01 0.  1.
         -5    1    4    4    0  502 -0.34743376600E+02 -0.88716039148E+02 -0.16228541295E+03  0.18823300846E+03  0.41800000000E+01 0.  1.
        -11    1    3    3    0    0  0.20008789630E+02  0.71592576945E+02 -0.28816638834E+02  0.79726077351E+02  0.00000000000E+00 0. -1.
         11    1    3    3    0    0  0.31057000842E+02 -0.25430728443E+02 -0.23365896607E+02  0.46445929582E+02  0.00000000000E+00 0.  1.
</event>
<event>
 8    1  0.8061721E-006  0.1979297E+03  0.7561462E-02  0.1151498E+00
          2   -1    0    0  501    0  0.00000000000E+00  0.00000000000E+00  0.12023254010E+03  0.12023254010E+03  0.00000000000E+00 0. -1.
         -2   -1    0    0    0  501 -0.00000000000E+00 -0.00000000000E+00 -0.43822418002E+03  0.43822418002E+03  0.00000000000E+00 0.  1.
         23    2    1    2    0    0 -0.18895769259E+03 -0.98726961964E+01 -0.24056969508E+03  0.31878106675E+03  0.89135349960E+02 0.  0.
         23    2    1    2    0    0  0.18895769259E+03  0.98726961964E+01 -0.77421944837E+02  0.23967565336E+03  0.12509109302E+03 0.  0.
          5    1    4    4  502    0  0.16196763043E+03  0.22038278527E+01 -0.11047843171E+03  0.19611559458E+03  0.41800000000E+01 0.  1.
         -5    1    4    4    0  502  0.26990062160E+02  0.76688683436E+01  0.33056486871E+02  0.43560058784E+02  0.41800000000E+01 0.  1.
        -11    1    3    3    0    0 -0.18439537892E+03 -0.28225775137E+02 -0.23284144268E+03  0.29835128218E+03  0.00000000000E+00 0. -1.
         11    1    3    3    0    0 -0.45623136667E+01  0.18353078941E+02 -0.77282523996E+01  0.20429784574E+02  0.00000000000E+00 0.  1.
</event>
<event>
 8    1  0.8061721E-006  0.1013566E+03  0.7561462E-02  0.1277469E+00
          1   -1    0    0  501    0  0.00000000000E+00  0.00000000000E+00  0.68831968114E+03  0.68831968114E+03  0.00000000000E+00 0. -1.
         -1   -1    0    0    0  501 -0.00000000000E+00 -0.00000000000E+00 -0.28891669969E+02  0.28891669969E+02  0.00000000000E+00 0.  1.
         23    2    1    2    0    0 -0.73049484808E+02  0.10661769435E+02  0.15963102978E+03  0.19673612957E+03  0.88165403946E+02 0.  0.
         23    2    1    2    0    0  0.73049484808E+02 -0.10661769435E+02  0.49979698139E+03  0.52047522153E+03  0.12509009979E+03 0.  0.
          5    1    4    4  502    0 -0.72253979916E+01  0.19399542405E+02  0.32560897895E+03  0.32629316296E+03  0.41800000000E+01 0.  1.
         -5    1    4    4    0  502  0.80274882799E+02 -0.30061311840E+02  0.17418800244E+03  0.19418205858E+03  0.41800000000E+01 0.  1.
        -11    1    3    3    0    0 -0.17545700579E+02 -0.24451301819E+02  0.74739416642E+01  0.31009314301E+02  0.00000000000E+00 0.  1.
         11    1    3    3    0    0 -0.55503784228E+02  0.35113071253E+02  0.15215708811E+03  0.16572681527E+03  0.00000000000E+00 0. -1.
</event>
<event>
 8    1  0.8061721E-006  0.8716734E+02  0.7561462E-02  0.1309860E+00
          1   -1    0    0  501    0  0.00000000000E+00  0.00000000000E+00  0.55516162337E+03  0.55516162337E+03  0.00000000000E+00 0. -1.
         -1   -1    0    0    0  501 -0.00000000000E+00 -0.00000000000E+00 -0.69973492980E+02  0.69973492980E+02  0.00000000000E+00 0.  1.
         23    2    1    2    0    0  0.20707273147E+02 -0.37163380529E+02 -0.21046341686E+02  0.10194213186E+03  0.90218300447E+02 0.  0.
         23    2    1    2    0    0 -0.20707273147E+02  0.37163380529E+02  0.50623447208E+03  0.52319298450E+03  0.12509056836E+03 0.  0.
          5    1    4    4  502    0  0.42326885898E+02  0.22319378797E+02  0.36021095026E+03  0.36339939602E+03  0.41800000000E+01 0.  1.
         -5    1    4    4    0  502 -0.63034159046E+02  0.14844001732E+02  0.14602352181E+03  0.15979358847E+03  0.41800000000E+01 0.  1.
        -11    1    3    3    0    0 -0.60661400856E+01 -0.33897970430E+02  0.29045685007E+02  0.45050219448E+02  0.00000000000E+00 0. -1.
         11    1    3    3    0    0  0.26773413233E+02 -0.32654100990E+01 -0.50092026693E+02  0.56891912408E+02  0.00000000000E+00 0.  1.
</event>
<event>
 8    1  0.8061721E-006  0.1057921E+03  0.7561462E-02  0.1268567E+00
          2   -1    0    0  501    0  0.00000000000E+00  0.00000000000E+00  0.18908613885E+02  0.18908613885E+02  0.00000000000E+00 0. -1.
         -2   -1    0    0    0  501 -0.00000000000E+00 -0.00000000000E+00 -0.70625535425E+03  0.70625535425E+03  0.00000000000E+00 0.  1.
         23    2    1    2    0    0  0.32727304444E+02 -0.36693608402E+01 -0.36848308811E+03  0.38106192861E+03  0.91344767509E+02 0.  0.
         23    2    1    2    0    0 -0.32727304444E+02  0.36693608402E+01 -0.31886365225E+03  0.34410203952E+03  0.12509054404E+03 0.  0.
          5    1    4    4  502    0  0.41225146249E+02  0.90891410583E+01 -0.19597901513E+03  0.20051775966E+03  0.41800000000E+01 0.  1.
         -5    1    4    4    0  502 -0.73952450692E+02 -0.54197802181E+01 -0.12288463712E+03  0.14358427986E+03  0.41800000000E+01 0.  1.
        -11    1    3    3    0    0 -0.29287001080E+02  0.10798567702E+02 -0.16209837564E+03  0.16507640922E+03  0.00000000000E+00 0.  1.
         11    1    3    3    0    0  0.62014305523E+02 -0.14467928542E+02 -0.20638471247E+03  0.21598551939E+03  0.00000000000E+00 0. -1.
</event>
<event>
 6    1  0.8061721E-006  0.1035972E+03  0.7561462E-02  0.1272908E+00
          1   -1    0    0  501    0  0.00000000000E+00  0.00000000000E+00  0.40652339743E+03  0.40652339743E+03  0.00000000000E+00 0. -1.
         -1   -1    0    0    0  501 -0.00000000000E+00 -0.00000000000E+00 -0.24832957754E+03  0.24832957754E+03  0.00000000000E+00 0.  1.
          5    1    1    2  502    0 -0.16130336113E+02  0.40155690700E+02  0.31621344338E+03  0.31918815989E+03  0.41800000000E+01 0. -1.
         -5    1    1    2    0  502  0.53834835643E+02  0.23792152190E+02  0.49166426323E+02  0.76805376842E+02  0.41800000000E+01 0.  1.
        -11    1    1    2    0    0 -0.89854138741E+01 -0.73804240459E+02 -0.21501197608E+03  0.22750374377E+03  0.00000000000E+00 0.  1.
         11    1    1    2    0    0 -0.28719085655E+02  0.98563975691E+01  0.78259262697E+01  0.31355694473E+02  0.00000000000E+00 0. -1.
</event>
<event>
 8    1  0.8061721E-006  0.1426687E+03  0.7561462E-02  0.1209783E+00
         -2   -1    0    0    0  501 -0.00000000000E+00  0.00000000000E+00  0.56647911196E+02  0.56647911196E+02  0.00000000000E+00 0.  1.
          2   -1    0    0  501    0  0.00000000000E+00 -0.00000000000E+00 -0.43697890225E+03  0.43697890225E+03  0.00000000000E+00 0. -1.
         23    2    1    2    0    0  0.13289083407E+02  0.10495539176E+03 -0.10794092952E+03  0.17576642745E+03  0.89723791461E+02 0.  0.
         23    2    1    2    0    0 -0.13289083407E+02 -0.10495539176E+03 -0.27239006153E+03  0.31786038600E+03  0.12508655150E+03 0.  0.
          5    1    4    4  502    0  0.47075917464E+01 -0.12407836123E+03 -0.26074805844E+03  0.28883321056E+03  0.41800000000E+01 0.  1.
         -5    1    4    4    0  502 -0.17996675153E+02  0.19122969465E+02 -0.11642003098E+02  0.29027175437E+02  0.41800000000E+01 0.  1.
        -11    1    3    3    0    0  0.40506804249E+02  0.98546932778E+02 -0.65914391413E+02  0.12528769351E+03  0.00000000000E+00 0.  1.
         11    1    3    3    0    0 -0.27217720842E+02  0.64084589863E+01 -0.42026538112E+02  0.50478733939E+02  0.00000000000E+00 0. -1.
</event>
<event>
 8    1  0.8061721E-006  0.1183779E+03  0.7561462E-02  0.1245797E+00
          2   -1    0    0  501    0  0.00000000000E+00  0.00000000000E+00  0.26152726234E+03  0.26152726234E+03  0.00000000000E+00 0. -1.
         -2   -1    0    0    0  501 -0.00000000000E+00 -0.00000000000E+00 -0.69756519832E+02  0.69756519832E+02  0.00000000000E+00 0.  1.
         23    2    1    2    0    0  0.96717166329E+01  0.58792647292E+02  0.16081491654E+02  0.10753622120E+03  0.88064220985E+02 0.  0.
         23    2    1    2    0    0 -0.96717166329E+01 -0.58792647292E+02  0.17568925085E+03  0.22374756097E+03  0.12508453421E+03 0.  0.
          5    1    4    4  502    0 -0.65041620521E+02 -0.14364567596E+02  0.96286779355E+02  0.11715532203E+03  0.41800000000E+01 0. -1.
         -5    1    4    4    0  502  0.55369903888E+02 -0.44428079697E+02  0.79402471499E+02  0.10659223894E+03  0.41800000000E+01 0. -1.
        -11    1    3    3    0    0 -0.34428418025E+02  0.33632447373E+02  0.27588518473E+02  0.55475975300E+02  0.00000000000E+00 0.  1.
         11    1    3    3    0    0  0.44100134657E+02  0.25160199920E+02 -0.11507026819E+02  0.52060245899E+02  0.00000000000E+00 0. -1.
</event>
<event>
 8    1  0.8061721E-006  0.2454816E+03  0.7561462E-02  0.1116194E+00
         -1   -1    0    0    0  501 -0.00000000000E+00  0.00000000000E+00  0.60398345449E+02  0.60398345449E+02  0.00000000000E+00 0.  1.
          1   -1    0    0  501    0  0.00000000000E+00 -0.00000000000E+00 -0.19391446987E+04  0.19391446987E+04  0.00000000000E+00 0. -1.
         23    2    1    2    0    0 -0.23215738709E+03 -0.85823750546E+01 -0.26675364834E+03  0.36609907845E+03  0.94341490349E+02 0.  0.
         23    2    1    2    0    0  0.23215738709E+03  0.85823750546E+01 -0.16119927049E+04  0.16334439657E+04  0.12509196148E+03 0.  0.
          5    1    4    4  502    0  0.13060599368E+03 -0.25303294649E+02 -0.54211557491E+03  0.55821586440E+03  0.41800000000E+01 0. -1.
         -5    1    4    4    0  502  0.10155139341E+03  0.33885669703E+02 -0.10698771300E+04  0.10752281013E+04  0.41800000000E+01 0. -1.
        -11    1    3    3    0    0 -0.12691976938E+03 -0.51636370081E+02 -0.14376906624E+03  0.19860636189E+03  0.00000000000E+00 0. -1.
         11    1    3    3    0    0 -0.10523761771E+03  0.43053995027E+02 -0.12298458210E+03  0.16749271657E+03  0.00000000000E+00 0.  1.
</event>
<event>
 8    1  0.8061721E-006  0.1075807E+03  0.7561462E-02  0.1265117E+00
          1   -1    0    0  501    0  0.00000000000E+00  0.00000000000E+00  0.16807958576E+04  0.16807958576E+04  0.00000000000E+00 0. -1.
         -1   -1    0    0    0  501 -0.00000000000E+00 -0.00000000000E+00 -0.10796710086E+02  0.10796710086E+02  0.00000000000E+00 0.  1.
         23    2    1    2    0    0  0.47832220809E+02  0.38106264894E+02  0.41580432087E+03  0.42969274963E+03  0.89457347721E+02 0.  0.
         23    2    1    2    0    0 -0.47832220809E+02 -0.38106264894E+02  0.12541948266E+04  0.12618998180E+04  0.12508588590E+03 0.  0.
          5    1    4    4  502    0 -0.53218785483E+02 -0.62661357912E+02  0.46073640866E+03  0.46803225912E+03  0.41800000000E+01 0. -1.
         -5    1    4    4    0  502  0.53865646733E+01  0.24555093018E+02  0.79345841795E+03  0.79386755890E+03  0.41800000000E+01 0. -1.
        -11    1    3    3    0    0 -0.24633316520E+02 -0.16801590223E+01  0.73051266801E+02  0.77111029031E+02  0.00000000000E+00 0.  1.
         11    1    3    3    0    0  0.72465537329E+02  0.39786423916E+02  0.34275305407E+03  0.35258172060E+03  0.00000000000E+00 0. -1.
</event>
<event>
 8    1  0.8061721E-006  0.1010464E+03  0.7561462E-02  0.1278111E+00
          1   -1    0    0  501    0  0.00000000000E+00  0.00000000000E+00  0.61262531209E+03  0.61262531209E+03  0.00000000000E+00 0. -1.
         -1   -1    0    0    0  501 -0.00000000000E+00 -0.00000000000E+00 -0.35419776567E+02  0.35419776567E+02  0.00000000000E+00 0.  1.
         23    2    1    2    0    0 -0.77738983728E+02 -0.52307846313E+02  0.20769597280E+03  0.24681501713E+03  0.94871361249E+02 0.  0.
         23    2    1    2    0    0  0.77738983728E+02  0.52307846313E+02  0.36950956272E+03  0.40123007153E+03  0.12517504935E+03 0.  0.
          5    1    4    4  502    0  0.46700071494E+02  0.59986702761E+02  0.35948784357E+03  0.36746194804E+03  0.41800000000E+01 0.  1.
         -5    1    4    4    0  502  0.31038912234E+02 -0.76788564477E+01  0.10021719154E+02  0.33768123487E+02  0.41800000000E+01 0.  1.
        -11    1    3    3    0    0 -0.23426226762E+02 -0.14981240677E+02  0.16713119556E+03  0.16942863454E+03  0.00000000000E+00 0. -1.
         11    1    3    3    0    0 -0.54312756966E+02 -0.37326605636E+02  0.40564777241E+02  0.77386382589E+02  0.00000000000E+00 0.  1.
</event>
<event>
 8    1  0.8061721E-006  0.1370759E+03  0.7561462E-02  0.1217319E+00
          2   -1    0    0  501    0  0.00000000000E+00  0.00000000000E+00  0.21207636843E+04  0.21207636843E+04  0.00000000000E+00 0. -1.
         -2   -1    0    0    0  501 -0.00000000000E+00 -0.00000000000E+00 -0.12165841686E+02  0.12165841686E+02  0.00000000000E+00 0.  1.
         23    2    1    2    0    0 -0.99285288216E+02  0.26794896078E+01  0.54162810006E+03  0.55784086762E+03  0.89222680373E+02 0.  0.
         23    2    1    2    0    0  0.99285288216E+02 -0.26794896078E+01  0.15669697426E+04  0.15750886584E+04  0.12508141153E+03 0.  0.
          5    1    4    4  502    0  0.11480902450E+03  0.33255664642E+02  0.11093074916E+04  0.11157363644E+04  0.41800000000E+01 0. -1.
         -5    1    4    4    0  502 -0.15523736288E+02 -0.35935154250E+02  0.45766225095E+03  0.45935229405E+03  0.41800000000E+01 0. -1.
        -11    1    3    3    0    0 -0.15753476185E+01 -0.15683432028E+02  0.14494649018E+02  0.21413701465E+02  0.00000000000E+00 0.  1.
         11    1    3    3    0    0 -0.97709940597E+02  0.18362921636E+02  0.52713345104E+03  0.53642716616E+03  0.00000000000E+00 0. -1.
</event>
<event>
 8    1  0.8061721E-006  0.1201008E+03  0.7561462E-02  0.1242931E+00
         -2   -1    0    0    0  501 -0.00000000000E+00  0.00000000000E+00  0.13977319412E+02  0.13977319412E+02  0.00000000000E+00 0.  1.
          2   -1    0    0  501    0  0.00000000000E+00 -0.00000000000E+00 -0.17362784083E+04  0.17362784083E+04  0.00000000000E+00 0. -1.
         23    2    1    2    0    0 -0.40241241747E+02  0.26393186112E+02 -0.28684542157E+03  0.30855665726E+03  0.10300949983E+03 0.  0.
         23    2    1    2    0    0  0.40241241747E+02 -0.26393186112E+02 -0.14354556674E+04  0.14416990705E+04  0.12508908459E+03 0.  0.
          5    1    4    4  502    0 -0.42998561493E+02 -0.25040695099E+02 -0.46660224808E+03  0.46926649466E+03  0.41800000000E+01 0. -1.
         -5    1    4    4    0  502  0.83239803240E+02 -0.13524910131E+01 -0.96885341928E+03  0.97243257582E+03  0.41800000000E+01 0. -1.
        -11    1    3    3    0    0 -0.63560727104E+02 -0.93397065475E+01 -0.22055576615E+03  0.22972166230E+03  0.00000000000E+00 0. -1.
         11    1    3    3    0    0  0.23319485357E+02  0.35732892659E+02 -0.66289655418E+02  0.78834994961E+02  0.00000000000E+00 0.  1.
</event>
<event>
 8    1  0.8061721E-006  0.1017023E+03  0.7561462E-02  0.1276756E+00
         -2   -1    0    0    0  501 -0.00000000000E+00  0.00000000000E+00  0.10259511794E+02  0.10259511794E+02  0.00000000000E+00 0.  1.
          2   -1    0    0  501    0  0.00000000000E+00 -0.00000000000E+00 -0.11551070788E+04  0.11551070788E+04  0.00000000000E+00 0. -1.
         23    2    1    2    0    0  0.19527513397E+02 -0.83353543746E+01 -0.48536798989E+03  0.49379343772E+03  0.88312352561E+02 0.  0.
         23    2    1    2    0    0 -0.19527513397E+02  0.83353543746E+01 -0.65947957709E+03  0.67157315285E+03  0.12508551120E+03 0.  0.
          5    1    4    4  502    0  0.45864078496E+02  0.97943234061E+01 -0.44012330900E+03  0.44263465973E+03  0.41800000000E+01 0.  1.
         -5    1    4    4    0  502 -0.65391591892E+02 -0.14589690314E+01 -0.21935626809E+03  0.22893849312E+03  0.41800000000E+01 0.  1.
        -11    1    3    3    0    0  0.28576053273E+02 -0.44839076404E+02 -0.29227461998E+03  0.29707168676E+03  0.00000000000E+00 0.  1.
         11    1    3    3    0    0 -0.90485398759E+01  0.36503722029E+02 -0.19309336992E+03  0.19672175096E+03  0.00000000000E+00 0. -1.
</event>
<event>
 8    1  0.8061721E-006  0.1328123E+03  0.7561462E-02  0.1223341E+00
         -2   -1    0    0    0  501 -0.00000000000E+00  0.00000000000E+00  0.86622390330E+02  0.86622390330E+02  0.00000000000E+00 0.  1.
          2   -1    0    0  501    0  0.00000000000E+00 -0.00000000000E+00 -0.70249401515E+03  0.70249401515E+03  0.00000000000E+00 0. -1.
         23    2    1    2    0    0  0.80143516172E+02 -0.55851656752E+02  0.17465855505E+02  0.13619487552E+03  0.93282352367E+02 0.  0.
         23    2    1    2    0    0 -0.80143516172E+02  0.55851656752E+02 -0.63333748032E+03  0.65292152996E+03  0.12509104506E+03 0.  0.
          5    1    4    4  502    0 -0.18555993288E+02  0.82340886699E+02 -0.44524956782E+03  0.45319862815E+03  0.41800000000E+01 0. -1.
         -5    1    4    4    0  502 -0.61587522885E+02 -0.26489229947E+02 -0.18808791250E+03  0.19972290181E+03  0.41800000000E+01 0. -1.
        -11    1    3    3    0    0  0.19187788108E+02 -0.48975717824E+02 -0.28235759271E+02  0.59699667088E+02  0.00000000000E+00 0. -1.
         11    1    3    3    0    0  0.60955728064E+02 -0.68759389287E+01  0.45701614776E+02  0.76495208433E+02  0.00000000000E+00 0.  1.
</event>
<event>
 8    1  0.8061721E-006  0.1453933E+03  0.7561462E-02  0.1206251E+00
         -2   -1    0    0    0  501 -0.00000000000E+00  0.00000000000E+00  0.49816927229E+02  0.49816927229E+02  0.00000000000E+00 0.  1.
          2   -1    0    0  501    0  0.00000000000E+00 -0.00000000000E+00 -0.68363310858E+03  0.68363310858E+03  0.00000000000E+00 0. -1.
         23    2    1    2    0    0  0.93174705624E+02 -0.74944795720E+02 -0.11868140731E+03  0.19002577399E+03  0.87899204577E+02 0.  0.
         23    2    1    2    0    0 -0.93174705624E+02  0.74944795720E+02 -0.51513477404E+03  0.54342426182E+03  0.12509134557E+03 0.  0.
          5    1    4    4  502    0  0.19773690819E+02 -0.15169277056E+02 -0.45499763298E+02  0.52046197509E+02  0.41800000000E+01 0.  1.
         -5    1    4    4    0  502 -0.11294839644E+03  0.90114072776E+02 -0.46963501074E+03  0.49137806431E+03  0.41800000000E+01 0.  1.
        -11    1    3    3    0    0  0.52377274412E+02 -0.30400547956E+02 -0.43471713015E+01  0.60716308264E+02  0.00000000000E+00 0.  1.
         11    1    3    3    0    0  0.40797431211E+02 -0.44544247764E+02 -0.11433423601E+03  0.12930946572E+03  0.00000000000E+00 0. -1.
</event>
<event>
 8    1  0.8061721E-006  0.2332322E+03  0.7561462E-02  0.1124385E+00
          2   -1    0    0  501    0  0.00000000000E+00  0.00000000000E+00  0.88093198935E+03  0.88093198935E+03  0.00000000000E+00 0. -1.
         -2   -1    0    0    0  501 -0.00000000000E+00 -0.00000000000E+00 -0.83424176024E+02  0.83424176024E+02  0.00000000000E+00 0.  1.
         23    2    1    2    0    0  0.11225027523E+03  0.20036518984E+03  0.22240991613E+03  0.33258781598E+03  0.91663247572E+02 0.  0.
         23    2    1    2    0    0 -0.11225027523E+03 -0.20036518984E+03  0.57509789720E+03  0.63176834940E+03  0.12508925755E+03 0.  0.
          5    1    4    4  502    0 -0.69137818867E+02 -0.67890182044E+02  0.11202977293E+03  0.14817981387E+03  0.41800000000E+01 0.  1.
         -5    1    4    4    0  502 -0.43112456365E+02 -0.13247500779E+03  0.46306812427E+03  0.48358853553E+03  0.41800000000E+01 0.  1.
        -11    1    3    3    0    0  0.39554899520E+02  0.84813499781E+02  0.33259494487E+02  0.99318245025E+02  0.00000000000E+00 0. -1.
         11    1    3    3    0    0  0.72695375712E+02  0.11555169005E+03  0.18915042165E+03  0.23326957095E+03  0.00000000000E+00 0.  1.
</event>
<event>
 7    1  0.8061721E-006  0.9265139E+02  0.7561462E-02  0.1296555E+00
         -2   -1    0    0    0  501 -0.00000000000E+00  0.00000000000E+00  0.24338487377E+02  0.24338487377E+02  0.00000000000E+00 0.  1.
          2   -1    0    0  501    0  0.00000000000E+00 -0.00000000000E+00 -0.61314878996E+03  0.61314878996E+03  0.00000000000E+00 0. -1.
         23    2    1    2    0    0  0.37544970866E+01  0.37143172306E+02 -0.18817353738E+03  0.21255526036E+03  0.91524570672E+02 0.  0.
          5    1    1    2  502    0 -0.64946213048E+02 -0.10272753409E+02 -0.27251707338E+03  0.28036862831E+03  0.41800000000E+01 0. -1.
         -5    1    1    2    0  502  0.61191715962E+02 -0.26870418897E+02 -0.12811969181E+03  0.14456338867E+03  0.41800000000E+01 0.  1.
        -11    1    3    3    0    0  0.15065894644E+02  0.15951949361E+01  0.48907779628E+01  0.15919972908E+02  0.00000000000E+00 0.  1.
         11    1    3    3    0    0 -0.11311397558E+02  0.35547977370E+02 -0.19306431535E+03  0.19663528745E+03  0.00000000000E+00 0. -1.
</event>
<event>
 8    1  0.8061721E-006  0.7940739E+02  0.7561462E-02  0.1330742E+00
          3   -1    0    0  501    0  0.00000000000E+00  0.00000000000E+00  0.12948073544E+03  0.12948073544E+03  0.00000000000E+00 0. -1.
         -3   -1    0    0    0  501 -0.00000000000E+00 -0.00000000000E+00 -0.91346524282E+02  0.91346524282E+02  0.00000000000E+00 0.  1.
         23    2    1    2    0    0 -0.63414787841E+00 -0.15329440075E+02  0.12815588188E+02  0.90959283979E+02  0.88735326476E+02 0.  0.
         23    2    1    2    0    0  0.63414787841E+00  0.15329440075E+02  0.25318622972E+02  0.12986797574E+03  0.12644866381E+03 0.  0.
          5    1    4    4  502    0  0.45171780904E+02 -0.13827388600E+02 -0.27449990596E+02  0.54796540486E+02  0.41800000000E+01 0. -1.
         -5    1    4    4    0  502 -0.44537633026E+02  0.29156828675E+02  0.52768613568E+02  0.75071435258E+02  0.41800000000E+01 0.  1.
        -11    1    3    3    0    0 -0.21910837762E+02  0.10691856842E+02 -0.28625250295E+02  0.37600605961E+02  0.00000000000E+00 0.  1.
         11    1    3    3    0    0  0.21276689884E+02 -0.26021296917E+02  0.41440838483E+02  0.53358678018E+02  0.00000000000E+00 0. -1.
</event>
<event>
 8    1  0.8061721E-006  0.8452964E+02  0.7561462E-02  0.1316667E+00
         -2   -1    0    0    0  501 -0.00000000000E+00  0.00000000000E+00  0.11524565613E+02  0.11524565613E+02  0.00000000000E+00 0.  1.
          2   -1    0    0  501    0  0.00000000000E+00 -0.00000000000E+00 -0.10826796805E+04  0.10826796805E+04  0.00000000000E+00 0. -1.
         23    2    1    2    0    0  0.29808978668E+01  0.10715610846E+02 -0.33576066063E+03  0.34816387107E+03  0.91428386314E+02 0.  0.
         23    2    1    2    0    0 -0.29808978668E+01 -0.10715610846E+02 -0.73539445423E+03  0.74604037502E+03  0.12509007864E+03 0.  0.
          5    1    4    4  502    0  0.34989636112E+02 -0.26313586427E+02 -0.99229231484E+02  0.10853843673E+03  0.41800000000E+01 0. -1.
         -5    1    4    4    0  502 -0.37970533979E+02  0.15597975582E+02 -0.63616522275E+03  0.63750193829E+03  0.41800000000E+01 0. -1.
        -11    1    3    3    0    0 -0.16644401190E+02 -0.32411842150E+02 -0.78078957826E+02  0.86161982670E+02  0.00000000000E+00 0. -1.
         11    1    3    3    0    0  0.19625299057E+02  0.43127452995E+02 -0.25768170281E+03  0.26200188840E+03  0.00000000000E+00 0.  1.
</event>
<event>
 8    1  0.8061721E-006  0.1210935E+03  0.7561462E-02  0.1241304E+00
          2   -1    0    0  501    0  0.00000000000E+00  0.00000000000E+00  0.11789415717E+04  0.11789415717E+04  0.00000000000E+00 0.  1.
         -2   -1    0    0    0  501 -0.00000000000E+00 -0.00000000000E+00 -0.15414232756E+02  0.15414232756E+02  0.00000000000E+00 0. -1.
         23    2    1    2    0    0 -0.77124889016E+02  0.18858581843E+02  0.44929574296E+03  0.46491941533E+03  0.89328066631E+02 0.  0.
         23    2    1    2    0    0  0.77124889016E+02 -0.18858581843E+02  0.71423159597E+03  0.72943638912E+03  0.12508708357E+03 0.  0.
          5    1    4    4  502    0  0.88042384166E+02 -0.42854148488E+02  0.67442630902E+03  0.68151027737E+03  0.41800000000E+01 0. -1.
         -5    1    4    4    0  502 -0.10917495149E+02  0.23995566645E+02  0.39805286949E+02  0.47926111756E+02  0.41800000000E+01 0. -1.
        -11    1    3    3    0    0 -0.96142304177E+02  0.20816372809E+02  0.40298924497E+03  0.41482164311E+03  0.00000000000E+00 0. -1.
         11    1    3    3    0    0  0.19017415161E+02 -0.19577909663E+01  0.46306497991E+02  0.50097772216E+02  0.00000000000E+00 0.  1.
</event>
<event>
 8    1  0.8061721E-006  0.1323596E+03  0.7561462E-02  0.1223996E+00
         -2   -1    0    0    0  501 -0.00000000000E+00  0.00000000000E+00  0.24872346553E+02  0.24872346553E+02  0.00000000000E+00 0.  1.
          2   -1    0    0  501    0  0.00000000000E+00 -0.00000000000E+00 -0.93225343022E+03  0.93225343022E+03  0.00000000000E+00 0. -1.
         23    2    1    2    0    0 -0.69964808760E+02 -0.80152883306E+02 -0.42752618337E+03  0.44994959738E+03  0.91413585113E+02 0.  0.
         23    2    1    2    0    0  0.69964808760E+02  0.80152883306E+02 -0.47985490029E+03  0.50717617940E+03  0.12508953771E+03 0.  0.
          5    1    4    4  502    0  0.47565097180E+02 -0.18880429175E+02 -0.83690950152E+02  0.98186336183E+02  0.41800000000E+01 0. -1.
         -5    1    4    4    0  502  0.22399711580E+02  0.99033312481E+02 -0.39616395014E+03  0.40898984321E+03  0.41800000000E+01 0. -1.
        -11    1    3    3    0    0 -0.81605769961E+01 -0.33056771543E+02 -0.31542651932E+02  0.46414265616E+02  0.00000000000E+00 0.  1.
         11    1    3    3    0    0 -0.61804231764E+02 -0.47096111763E+02 -0.39598353144E+03  0.40353533176E+03  0.00000000000E+00 0. -1.
</event>
<event>
 8    1  0.8061721E-006  0.9854703E+02  0.7561462E-02  0.1283381E+00
          2   -1    0    0  501    0  0.00000000000E+00  0.00000000000E+00  0.55649829720E+03  0.55649829720E+03  0.00000000000E+00 0.  1.
         -2   -1    0    0    0  501 -0.00000000000E+00 -0.00000000000E+00 -0.62155362260E+02  0.62155362260E+02  0.00000000000E+00 0. -1.
         23    2    1    2    0    0 -0.44158785647E+02 -0.57074298927E+01 -0.11058451279E+00  0.10668376325E+03  0.96947614752E+02 0.  0.
         23    2    1    2    0    0  0.44158785647E+02  0.57074298927E+01  0.49445351945E+03  0.51196989621E+03  0.12508524542E+03 0.  0.
          5    1    4    4  502    0  0.54218426748E+02 -0.44503481229E+02  0.38098627756E+03  0.38741220132E+03  0.41800000000E+01 0.  1.
         -5    1    4    4    0  502 -0.10059641101E+02  0.50210911121E+02  0.11346724188E+03  0.12455769489E+03  0.41800000000E+01 0.  1.
        -11    1    3    3    0    0  0.13806450718E+02 -0.10409397255E+02  0.34796794942E+02  0.38856023611E+02  0.00000000000E+00 0.  1.
         11    1    3    3    0    0 -0.57965236365E+02  0.47019673623E+01 -0.34907379455E+02  0.67827739637E+02  0.00000000000E+00 0. -1.
</event>
<event>
 8    1  0.8061721E-006  0.2198841E+03  0.7561462E-02  0.1133969E+00
          2   -1    0    0  501    0  0.00000000000E+00  0.00000000000E+00  0.15253974511E+04  0.15253974511E+04  0.00000000000E+00 0. -1.
         -2   -1    0    0    0  501 -0.00000000000E+00 -0.00000000000E+00 -0.33410766365E+02  0.33410766365E+02  0.00000000000E+00 0.  1.
         23    2    1    2    0    0 -0.47819448522E+02  0.18745601239E+03  0.59251421527E+03  0.63029923559E+03  0.93688712508E+02 0.  0.
         23    2    1    2    0    0  0.47819448522E+02 -0.18745601239E+03  0.89947246947E+03  0.92850898187E+03  0.12510695367E+03 0.  0.
          5    1    4    4  502    0  0.65941586464E+02 -0.38268795971E+02  0.22925879139E+03  0.24163993751E+03  0.41800000000E+01 0.  1.
         -5    1    4    4    0  502 -0.18122137943E+02 -0.14918721642E+03  0.67021367807E+03  0.68686904436E+03  0.41800000000E+01 0.  1.
        -11    1    3    3    0    0  0.24069506804E+02  0.21745230408E+02  0.63659480591E+02  0.71447362949E+02  0.00000000000E+00 0. -1.
         11    1    3    3    0    0 -0.71888955326E+02  0.16571078198E+03  0.52885473468E+03  0.55885187264E+03  0.00000000000E+00 0.  1.
</event>
<event>
 8    1  0.8061721E-006  0.8002900E+02  0.7561462E-02  0.1328969E+00
         -1   -1    0    0    0  501 -0.00000000000E+00  0.00000000000E+00  0.28514018755E+03  0.28514018755E+03  0.00000000000E+00 0.  1.
          1   -1    0    0  501    0  0.00000000000E+00 -0.00000000000E+00 -0.61067592812E+02  0.61067592812E+02  0.00000000000E+00 0. -1.
         23    2    1    2    0    0 -0.18622701688E+02 -0.68432654983E+02  0.13343213022E+03  0.17622705551E+03  0.90675291192E+02 0.  0.
         23    2    1    2    0    0  0.18622701688E+02  0.68432654983E+02  0.90640464518E+02  0.16998072485E+03  0.12509164531E+03 0.  0.
          5    1    4    4  502    0 -0.12759836081E+02  0.22771783624E+02 -0.28285166706E+02  0.38715508544E+02  0.41800000000E+01 0. -1.
         -5    1    4    4    0  502  0.31382537769E+02  0.45660871359E+02  0.11892563122E+03  0.13126521631E+03  0.41800000000E+01 0. -1.
        -11    1    3    3    0    0  0.73947470126E+01 -0.34590862592E+02  0.12847232000E+03  0.13325294392E+03  0.00000000000E+00 0.  1.
         11    1    3    3    0    0 -0.26017448701E+02 -0.33841792391E+02  0.49598102183E+01  0.42974111585E+02  0.00000000000E+00 0. -1.
</event>
<event>
 8    1  0.8061721E-006  0.9745589E+02  0.7561462E-02  0.1285739E+00
          2   -1    0    0  501    0  0.00000000000E+00  0.00000000000E+00  0.56632904036E+03  0.56632904036E+03  0.00000000000E+00 0. -1.
         -2   -1    0    0    0  501 -0.00000000000E+00 -0.00000000000E+00 -0.45342204427E+02  0.45342204427E+02  0.00000000000E+00 0.  1.
         23    2    1    2    0    0 -0.81717000727E+02 -0.44963386688E+02  0.99655247486E+02  0.16237566063E+03  0.87950625146E+02 0.  0.
         23    2    1    2    0    0  0.81717000727E+02  0.44963386688E+02  0.42133158845E+03  0.44929558416E+03  0.12508733016E+03 0.  0.
          5    1    4    4  502    0  0.69373881888E+02  0.18444371632E+02  0.41211873268E+03  0.41834465762E+03  0.41800000000E+01 0. -1.
         -5    1    4    4    0  502  0.12343118839E+02  0.26519015056E+02  0.92128557714E+01  0.30950926540E+02  0.41800000000E+01 0. -1.
        -11    1    3    3    0    0 -0.70414346396E+02 -0.36320275248E+02  0.11614535075E+03  0.14059546605E+03  0.00000000000E+00 0. -1.
         11    1    3    3    0    0 -0.11302654331E+02 -0.86431114406E+01 -0.16490103266E+02  0.21780194582E+02  0.00000000000E+00 0.  1.
</event>
<event>
 8    1  0.8061721E-006  0.1313071E+03  0.7561462E-02  0.1225529E+00
          2   -1    0    0  501    0  0.00000000000E+00  0.00000000000E+00  0.22608046987E+03  0.22608046987E+03  0.00000000000E+00 0. -1.
         -2   -1    0    0    0  501 -0.00000000000E+00 -0.00000000000E+00 -0.83246893364E+02  0.83246893364E+02  0.00000000000E+00 0.  1.
         23    2    1    2    0    0 -0.62327460900E+02  0.47238116132E+02  0.25889639034E+02  0.12107365541E+03  0.88726572266E+02 0.  0.
         23    2    1    2    0    0  0.62327460900E+02 -0.47238116132E+02  0.11694393747E+03  0.18825370782E+03  0.12508965585E+03 0.  0.
          5    1    4    4  502    0 -0.14446210843E+02  0.32236715002E+02  0.40050818463E+02  0.53567147221E+02  0.41800000000E+01 0. -1.
         -5    1    4    4    0  502  0.76773671744E+02 -0.79474831134E+02  0.76893119004E+02  0.13468656060E+03  0.41800000000E+01 0. -1.
        -11    1    3    3    0    0 -0.64158778291E+02 -0.48501620103E+01  0.24758381050E+02  0.68940919167E+02  0.00000000000E+00 0.  1.
         11    1    3    3    0    0  0.18313173904E+01  0.52088278142E+02  0.11312579840E+01  0.52132736240E+02  0.00000000000E+00 0. -1.
</event>
<event>
 8    1  0.8061721E-006  0.1024771E+03  0.7561462E-02  0.1275172E+00
         -2   -1    0    0    0  501 -0.00000000000E+00  0.00000000000E+00  0.70437552718E+02  0.70437552718E+02  0.00000000000E+00 0.  1.
          2   -1    0    0  501    0  0.00000000000E+00 -0.00000000000E+00 -0.17385710125E+03  0.17385710125E+03  0.00000000000E+00 0. -1.
         23    2    1    2    0    0 -0.53301032367E+01  0.22504368875E+02 -0.29068640603E+02  0.96970701640E+02  0.89573849370E+02 0.  0.
         23    2    1    2    0    0  0.53301032367E+01 -0.22504368875E+02 -0.74350907930E+02  0.14732395233E+03  0.12506571393E+03 0.  0.
          5    1    4    4  502    0  0.55583480533E+02 -0.31798779349E+02 -0.71344842139E+02  0.95959598666E+02  0.41800000000E+01 0.  1.
         -5    1    4    4    0  502 -0.50253377297E+02  0.92944104739E+01 -0.30060657907E+01  0.51364353664E+02  0.41800000000E+01 0.  1.
        -11    1    3    3    0    0  0.26675132196E+02 -0.22076226138E+02  0.50672732134E+00  0.34629167053E+02  0.00000000000E+00 0.  1.
         11    1    3    3    0    0 -0.32005235433E+02  0.44580595013E+02 -0.29575367924E+02  0.62341534587E+02  0.00000000000E+00 0. -1.
</event>
<event>
 8    1  0.8061721E-006  0.3537106E+03  0.7561462E-02  0.1061102E+00
          1   -1    0    0  501    0  0.00000000000E+00  0.00000000000E+00  0.47633476266E+03  0.47633476266E+03  0.00000000000E+00 0. -1.
         -1   -1    0    0    0  501 -0.00000000000E+00 -0.00000000000E+00 -0.27284745745E+03  0.27284745745E+03  0.00000000000E+00 0.  1.
         23    2    1    2    0    0  0.30339223089E+03 -0.15121417520E+03  0.41901979602E+02  0.35336403243E+03  0.90541653255E+02 0.  0.
         23    2    1    2    0    0 -0.30339223089E+03  0.15121417520E+03  0.16158532561E+03  0.39581818768E+03  0.12509855193E+03 0.  0.
          5    1    4    4  502    0 -0.14045994707E+03  0.99365481784E+01  0.32936034690E+02  0.14467199626E+03  0.41800000000E+01 0.  1.
         -5    1    4    4    0  502 -0.16293228382E+03  0.14127762702E+03  0.12864929092E+03  0.25114619142E+03  0.41800000000E+01 0.  1.
        -11    1    3    3    0    0  0.23154702660E+03 -0.15544369418E+03  0.34685534322E+02  0.28103354583E+03  0.00000000000E+00 0.  1.
         11    1    3    3    0    0  0.71845204286E+02  0.42295189768E+01  0.72164452800E+01  0.72330486602E+02  0.00000000000E+00 0. -1.
</event>
<event>
 8    1  0.8061721E-006  0.1760410E+03  0.7561462E-02  0.1171691E+00
          2   -1    0    0  501    0  0.00000000000E+00  0.00000000000E+00  0.23353448234E+04  0.23353448234E+04  0.00000000000E+00 0. -1.
         -2   -1    0    0    0  501 -0.00000000000E+00 -0.00000000000E+00 -0.16446262274E+02  0.16446262274E+02  0.00000000000E+00 0.  1.
         23    2    1    2    0    0 -0.31352701787E+02 -0.14850403340E+03  0.75450118584E+03  0.77507887902E+03  0.91862883792E+02 0.  0.
         23    2    1    2    0    0  0.31352701787E+02  0.14850403340E+03  0.15643973753E+04  0.15767122066E+04  0.12508315226E+03 0.  0.
          5    1    4    4  502    0 -0.30596713960E+02  0.12265205096E+03  0.11437279115E+04  0.11507000879E+04  0.41800000000E+01 0. -1.
         -5    1    4    4    0  502  0.61949415747E+02  0.25851982437E+02  0.42066946382E+03  0.42601211872E+03  0.41800000000E+01 0. -1.
        -11    1    3    3    0    0  0.10984138328E+02 -0.48867336359E+02  0.10173066937E+03  0.11339222614E+03  0.00000000000E+00 0.  1.
         11    1    3    3    0    0 -0.42336840115E+02 -0.99636697038E+02  0.65277051647E+03  0.66168665288E+03  0.00000000000E+00 0. -1.
</event>
<event>
 8    1  0.8061721E-006  0.1011542E+03  0.7561462E-02  0.1277887E+00
          1   -1    0    0  501    0  0.00000000000E+00  0.00000000000E+00  0.23200786330E+03  0.23200786330E+03  0.00000000000E+00 0. -1.
         -1   -1    0    0    0  501 -0.00000000000E+00 -0.00000000000E+00 -0.53301901244E+02  0.53301901244E+02  0.00000000000E+00 0.  1.
         23    2    1    2    0    0  0.20582533789E+02 -0.17018653939E+02  0.77908336275E+02  0.12245748494E+03  0.90624784018E+02 0.  0.
         23    2    1    2    0    0 -0.20582533789E+02  0.17018653939E+02  0.10079762578E+03  0.16285227960E+03  0.12508968114E+03 0.  0.
          5    1    4    4  502    0 -0.52293331768E+02  0.48985044440E+02  0.27774407073E+02  0.76961140938E+02  0.41800000000E+01 0. -1.
         -5    1    4    4    0  502  0.31710797980E+02 -0.31966390502E+02  0.73023218703E+02  0.85891138658E+02  0.41800000000E+01 0. -1.
        -11    1    3    3    0    0  0.44608358889E+02  0.13374874225E+02  0.15651611104E+02  0.49130091323E+02  0.00000000000E+00 0.  1.
         11    1    3    3    0    0 -0.24025825100E+02 -0.30393528163E+02  0.62256725171E+02  0.73327393619E+02  0.00000000000E+00 0. -1.
</event>
<event>
 8    1  0.8061721E-006  0.1048738E+03  0.7561462E-02  0.1270368E+00
         -4   -1    0    0    0  501 -0.00000000000E+00  0.00000000000E+00  0.17469535574E+02  0.17469535574E+02  0.00000000000E+00 0.  1.
          4   -1    0    0  501    0  0.00000000000E+00 -0.00000000000E+00 -0.12461518548E+04  0.12461518548E+04  0.00000000000E+00 0. -1.
         23    2    1    2    0    0 -0.66402136820E+02 -0.47893056072E+01 -0.25044588699E+03  0.27517867277E+03  0.92563375135E+02 0.  0.
         23    2    1    2    0    0  0.66402136820E+02  0.47893056072E+01 -0.97823643220E+03  0.98844271756E+03  0.12506121461E+03 0.  0.
          5    1    4    4  502    0 -0.16266481718E+02  0.27047606308E+02 -0.79649564277E+02  0.85777018624E+02  0.41800000000E+01 0. -1.
         -5    1    4    4    0  502  0.82668618538E+02 -0.22258300701E+02 -0.89858686792E+03  0.90266569894E+03  0.41800000000E+01 0. -1.
        -11    1    3    3    0    0 -0.53581043540E+02  0.25473807063E+02 -0.69980708302E+02  0.91744986825E+02  0.00000000000E+00 0.  1.
         11    1    3    3    0    0 -0.12821093280E+02 -0.30263112670E+02 -0.18046517869E+03  0.18343368595E+03  0.00000000000E+00 0. -1.
</event>
<event>
 8    1  0.8061721E-006  0.1368871E+03  0.7561462E-02  0.1217580E+00
          4   -1    0    0  501    0  0.00000000000E+00  0.00000000000E+00  0.18215256290E+03  0.18215256290E+03  0.00000000000E+00 0. -1.
         -4   -1    0    0    0  501 -0.00000000000E+00 -0.00000000000E+00 -0.12718229761E+03  0.12718229761E+03  0.00000000000E+00 0.  1.
         23    2    1    2    0    0 -0.63488860022E+02 -0.69648698401E+02 -0.24796115422E+02  0.13357396830E+03  0.91353057593E+02 0.  0.
         23    2    1    2    0    0  0.63488860022E+02  0.69648698401E+02  0.79766380711E+02  0.17576089221E+03  0.12508972461E+03 0.  0.
          5    1    4    4  502    0 -0.29980700306E+02  0.43643384693E+02  0.52991163448E+02  0.75027483110E+02  0.41800000000E+01 0.  1.
         -5    1    4    4    0  502  0.93469560328E+02  0.26005313708E+02  0.26775217263E+02  0.10073340910E+03  0.41800000000E+01 0.  1.
        -11    1    3    3    0    0 -0.33362740383E+02  0.12828195682E+02 -0.28460752737E+02  0.45690803196E+02  0.00000000000E+00 0.  1.
         11    1    3    3    0    0 -0.30126119639E+02 -0.82476894083E+02  0.36646373149E+01  0.87883165104E+02  0.00000000000E+00 0. -1.
</event>
<event>
 8    1  0.8061721E-006  0.1115787E+03  0.7561462E-02  0.1257674E+00
          2   -1    0    0  501    0  0.00000000000E+00  0.00000000000E+00  0.10534723987E+04  0.10534723987E+04  0.00000000000E+00 0.  1.
         -2   -1    0    0    0  501 -0.00000000000E+00 -0.00000000000E+00 -0.15757483871E+02  0.15757483871E+02  0.00000000000E+00 0. -1.
         23    2    1    2    0    0 -0.68686804127E+02 -0.91102556573E+01  0.44982412814E+03  0.46419780351E+03  0.91307068190E+02 0.  0.
         23    2    1    2    0    0  0.68686804127E+02  0.91102556573E+01  0.58789078666E+03  0.60503207904E+03  0.12508943123E+03 0.  0.
          5    1    4    4  502    0 -0.21154949174E+02  0.27985583247E+01  0.34927175915E+03  0.34994799320E+03  0.41800000000E+01 0. -1.
         -5    1    4    4    0  502  0.89841753301E+02  0.63116973326E+01  0.23861902750E+03  0.25508408584E+03  0.41800000000E+01 0. -1.
        -11    1    3    3    0    0 -0.88170342031E+02 -0.17749828607E+02  0.40035001274E+03  0.41032815932E+03  0.00000000000E+00 0.  1.
         11    1    3    3    0    0  0.19483537904E+02  0.86395729494E+01  0.49474115408E+02  0.53869644192E+02  0.00000000000E+00 0. -1.
</event>
<event>
 8    1  0.8061721E-006  0.8282075E+02  0.7561462E-02  0.1321232E+00
          2   -1    0    0  501    0  0.00000000000E+00  0.00000000000E+00  0.10480645044E+04  0.10480645044E+04  0.00000000000E+00 0. -1.
         -2   -1    0    0    0  501 -0.00000000000E+00 -0.00000000000E+00 -0.14071398659E+02  0.14071398659E+02  0.00000000000E+00 0.  1.
         23    2    1    2    0    0  0.34108678459E+02  0.56778251337E+02  0.34622567440E+03  0.35995408405E+03  0.72852956281E+02 0.  0.
         23    2    1    2    0    0 -0.34108678459E+02 -0.56778251337E+02  0.68776743132E+03  0.70218181899E+03  0.12509234814E+03 0.  0.
          5    1    4    4  502    0 -0.28693083485E+02 -0.42460015988E+02  0.85948379807E+02  0.10015359399E+03  0.41800000000E+01 0.  1.
         -5    1    4    4    0  502 -0.54155949741E+01 -0.14318235349E+02  0.60181905151E+03  0.60202822500E+03  0.41800000000E+01 0.  1.
        -11    1    3    3    0    0  0.24953376813E+02  0.74413895611E+02  0.26938207319E+03  0.28058296497E+03  0.00000000000E+00 0.  1.
         11    1    3    3    0    0  0.91553016469E+01 -0.17635644274E+02  0.76843601209E+02  0.79371119080E+02  0.00000000000E+00 0. -1.
</event>
<event>
 8    1  0.8061721E-006  0.1703721E+03  0.7561462E-02  0.1177460E+00
          2   -1    0    0  501    0  0.00000000000E+00  0.00000000000E+00  0.17173739726E+04  0.17173739726E+04  0.00000000000E+00 0. -1.
         -2   -1    0    0    0  501 -0.00000000000E+00 -0.00000000000E+00 -0.39400557949E+02  0.39400557949E+02  0.00000000000E+00 0.  1.
         23    2    1    2    0    0  0.78663777181E+02  0.12862319104E+03  0.20572922460E+03  0.27155368305E+03  0.93193206861E+02 0.  0.
         23    2    1    2    0    0 -0.78663777181E+02 -0.12862319104E+03  0.14722441901E+04  0.14852208475E+04  0.12508435401E+03 0.  0.
          5    1    4    4  502    0 -0.52745925246E+02 -0.14105117313E+03  0.13871396263E+04  0.13952961625E+04  0.41800000000E+01 0.  1.
         -5    1    4    4    0  502 -0.25917851934E+02  0.12427982086E+02  0.85104563796E+02  0.89924684967E+02  0.41800000000E+01 0.  1.
        -11    1    3    3    0    0  0.58024263530E+02  0.41049568402E+02  0.14928368028E+03  0.16534055589E+03  0.00000000000E+00 0. -1.
         11    1    3    3    0    0  0.20639513651E+02  0.87573622643E+02  0.56445544328E+02  0.10621312716E+03  0.00000000000E+00 0.  1.
</event>
<event>
 8    1  0.8061721E-006  0.5458506E+03  0.7561462E-02  0.1002459E+00
         -2   -1    0    0    0  501 -0.00000000000E+00  0.00000000000E+00  0.55018250782E+03  0.55018250782E+03  0.00000000000E+00 0.  1.
          2   -1    0    0  501    0  0.00000000000E+00 -0.00000000000E+00 -0.65251671077E+03  0.65251671077E+03  0.00000000000E+00 0. -1.
         23    2    1    2    0    0 -0.12470492650E+03  0.52409906823E+03  0.18837937447E+03  0.57788532444E+03  0.90738676768E+02 0.  0.
         23    2    1    2    0    0  0.12470492650E+03 -0.52409906823E+03 -0.29071357742E+03  0.62481389415E+03  0.12508743427E+03 0.  0.
          5    1    4    4  502    0  0.13661808455E+03 -0.31367865890E+03 -0.17412093537E+03  0.38391975023E+03  0.41800000000E+01 0.  1.
         -5    1    4    4    0  502 -0.11913158058E+02 -0.21042040933E+03 -0.11659264205E+03  0.24089414392E+03  0.41800000000E+01 0.  1.
        -11    1    3    3    0    0 -0.99234791899E+02  0.42180124416E+03  0.11156927536E+03  0.44745003822E+03  0.00000000000E+00 0. -1.
         11    1    3    3    0    0 -0.25470134596E+02  0.10229782407E+03  0.76810099102E+02  0.13043528621E+03  0.00000000000E+00 0.  1.
</event>
<event>
 7    1  0.8061721E-006  0.1191484E+03  0.7561462E-02  0.1244509E+00
          2   -1    0    0  501    0  0.00000000000E+00  0.00000000000E+00  0.64775721145E+03  0.64775721145E+03  0.00000000000E+00 0. -1.
         -2   -1    0    0    0  501 -0.00000000000E+00 -0.00000000000E+00 -0.28947172943E+02  0.28947172943E+02  0.00000000000E+00 0.  1.
         23    2    1    2    0    0  0.36849248340E+02 -0.32778003291E+02  0.20804053482E+03  0.23287186864E+03  0.92283142936E+02 0.  0.
          5    1    1    2  502    0 -0.19044247147E+02 -0.50960656590E+02  0.29378140017E+03  0.29880538040E+03  0.41800000000E+01 0. -1.
         -5    1    1    2    0  502 -0.17805001193E+02  0.83738659881E+02  0.11698810352E+03  0.14502713536E+03  0.41800000000E+01 0.  1.
        -11    1    3    3    0    0 -0.23593353607E+02 -0.29105262821E+02  0.12225511125E+03  0.12786741135E+03  0.00000000000E+00 0.  1.
         11    1    3    3    0    0  0.60442601947E+02 -0.36727404697E+01  0.85785423570E+02  0.10500445729E+03  0.00000000000E+00 0. -1.
</event>
<event>
 8    1  0.8061721E-006  0.1154351E+03  0.7561462E-02  0.1250824E+00
         -2   -1    0    0    0  501 -0.00000000000E+00  0.00000000000E+00  0.26287123077E+02  0.26287123077E+02  0.00000000000E+00 0.  1.
          2   -1    0    0  501    0  0.00000000000E+00 -0.00000000000E+00 -0.85310565474E+03  0.85310565474E+03  0.00000000000E+00 0. -1.
         23    2    1    2    0    0 -0.74522632549E+02 -0.59970966584E+02 -0.26760634742E+03  0.29843162467E+03  0.91094115250E+02 0.  0.
         23    2    1    2    0    0  0.74522632549E+02  0.59970966584E+02 -0.55921218424E+03  0.58096115314E+03  0.12508978718E+03 0.  0.
          5    1    4    4  502    0  0.83695228733E+02  0.68072941877E+02 -0.55756787294E+03  0.56792448623E+03  0.41800000000E+01 0. -1.
         -5    1    4    4    0  502 -0.91725961842E+01 -0.81019752928E+01 -0.16443113050E+01  0.13036666908E+02  0.41800000000E+01 0. -1.
        -11    1    3    3    0    0 -0.40056893938E+02 -0.63761342722E+02 -0.89413686441E+02  0.11689683871E+03  0.00000000000E+00 0.  1.
         11    1    3    3    0    0 -0.34465738610E+02  0.37903761377E+01 -0.17819266097E+03  0.18153478596E+03  0.00000000000E+00 0. -1.
</event>
<event>
 8    1  0.8061721E-006  0.1331567E+03  0.7561462E-02  0.1222846E+00
          1   -1    0    0  501    0  0.00000000000E+00  0.00000000000E+00  0.16300805834E+03  0.16300805834E+03  0.00000000000E+00 0. -1.
         -1   -1    0    0    0  501 -0.00000000000E+00 -0.00000000000E+00 -0.16822547240E+03  0.16822547240E+03  0.00000000000E+00 0.  1.
         23    2    1    2    0    0  0.12300808954E+03  0.12191999838E+02 -0.17888638091E+02  0.15491586575E+03  0.91647624824E+02 0.  0.
         23    2    1    2    0    0 -0.12300808954E+03 -0.12191999838E+02  0.12671224027E+02  0.17631766500E+03  0.12509086346E+03 0.  0.
          5    1    4    4  502    0 -0.39672332945E+02 -0.38064345532E+02  0.56184724019E+02  0.78720924887E+02  0.41800000000E+01 0.  1.
         -5    1    4    4    0  502 -0.83335756593E+02  0.25872345694E+02 -0.43513499992E+02  0.97596740110E+02  0.41800000000E+01 0.  1.
        -11    1    3    3    0    0  0.49842678893E+02  0.84523179849E+01  0.37607493302E+02  0.63008395242E+02  0.00000000000E+00 0. -1.
         11    1    3    3    0    0  0.73165410645E+02  0.37396818527E+01 -0.55496131393E+02  0.91907470506E+02  0.00000000000E+00 0.  1.
</event>
<event>
 8    1  0.8061721E-006  0.8757335E+02  0.7561462E-02  0.1308837E+00
         -1   -1    0    0    0  501 -0.00000000000E+00  0.00000000000E+00  0.11111450199E+03  0.11111450199E+03  0.00000000000E+00 0.  1.
          1   -1    0    0  501    0  0.00000000000E+00 -0.00000000000E+00 -0.22307733415E+03  0.22307733415E+03  0.00000000000E+00 0. -1.
         23    2    1    2    0    0  0.10571688354E+02  0.48295255038E+02  0.57372131357E+02  0.11794357024E+03  0.90415330844E+02 0.  0.
         23    2    1    2    0    0 -0.10571688354E+02 -0.48295255038E+02 -0.16933496352E+03  0.21624826590E+03  0.12507913647E+03 0.  0.
          5    1    4    4  502    0  0.34184171257E+02 -0.55801615792E+02 -0.34865541058E+02  0.74266117730E+02  0.41800000000E+01 0. -1.
         -5    1    4    4    0  502 -0.44755859610E+02  0.75063607541E+01 -0.13446942246E+03  0.14198214817E+03  0.41800000000E+01 0. -1.
        -11    1    3    3    0    0 -0.67999316375E+01  0.45974227990E+02  0.78049304666E+02  0.90838112422E+02  0.00000000000E+00 0.  1.
         11    1    3    3    0    0  0.17371619991E+02  0.23210270483E+01 -0.20677173309E+02  0.27105457822E+02  0.00000000000E+00 0. -1.
</event>
<event>
 8    1  0.8061721E-006  0.1405366E+03  0.7561462E-02  0.1212609E+00
          2   -1    0    0  501    0  0.00000000000E+00  0.00000000000E+00  0.30085670722E+03  0.30085670722E+03  0.00000000000E+00 0. -1.
         -2   -1    0    0    0  501 -0.00000000000E+00 -0.00000000000E+00 -0.10147712820E+03  0.10147712820E+03  0.00000000000E+00 0.  1.
         23    2    1    2    0    0 -0.10187867246E+03  0.69324630867E+02  0.25741411570E+02  0.15538735867E+03  0.91090299258E+02 0.  0.
         23    2    1    2    0    0  0.10187867246E+03 -0.69324630867E+02  0.17363816745E+03  0.24694647675E+03  0.12508869188E+03 0.  0.
          5    1    4    4  502    0  0.28025950887E+02 -0.52517765268E+02  0.24731779306E+01  0.59725694646E+02  0.41800000000E+01 0. -1.
         -5    1    4    4    0  502  0.73852721571E+02 -0.16806865599E+02  0.17116498952E+03  0.18722078210E+03  0.41800000000E+01 0. -1.
        -11    1    3    3    0    0 -0.11147330522E+03  0.75037375830E+02  0.82417566836E+01  0.13462849661E+03  0.00000000000E+00 0.  1.
         11    1    3    3    0    0  0.95946327593E+01 -0.57127449630E+01  0.17499654886E+02  0.20758862058E+02  0.00000000000E+00 0. -1.
</event>
<event>
 8    1  0.8061721E-006  0.6269481E+02  0.7561462E-02  0.1386859E+00
          2   -1    0    0  501    0  0.00000000000E+00  0.00000000000E+00  0.60202242270E+03  0.60202242270E+03  0.00000000000E+00 0. -1.
         -2   -1    0    0    0  501 -0.00000000000E+00 -0.00000000000E+00 -0.40278165986E+02  0.40278165986E+02  0.00000000000E+00 0.  1.
         23    2    1    2    0    0 -0.42900057072E+02  0.17603650876E+02  0.45199912866E+02  0.10880391564E+03  0.87435441987E+02 0.  0.
         23    2    1    2    0    0  0.42900057072E+02 -0.17603650876E+02  0.51654434385E+03  0.53349667304E+03  0.12510130920E+03 0.  0.
          5    1    4    4  502    0  0.51594171238E+02 -0.28633861880E+02  0.96441711759E+02  0.11313855540E+03  0.41800000000E+01 0. -1.
         -5    1    4    4    0  502 -0.86941141665E+01  0.11030211004E+02  0.42010263209E+03  0.42035811764E+03  0.41800000000E+01 0. -1.
        -11    1    3    3    0    0 -0.29113428221E+02  0.22663888748E+02  0.70488382164E+02  0.79560389492E+02  0.00000000000E+00 0. -1.
         11    1    3    3    0    0 -0.13786628851E+02 -0.50602378717E+01 -0.25288469298E+02  0.29243526152E+02  0.00000000000E+00 0.  1.
</event>
<event>
 8    1  0.8061721E-006  0.1122307E+03  0.7561462E-02  0.1256494E+00
          3   -1    0    0  501    0  0.00000000000E+00  0.00000000000E+00  0.32737637645E+03  0.32737637645E+03  0.00000000000E+00 0. -1.
         -3   -1    0    0    0  501 -0.00000000000E+00 -0.00000000000E+00 -0.54208598780E+02  0.54208598780E+02  0.00000000000E+00 0.  1.
         23    2    1    2    0    0 -0.32800029396E+02 -0.31706543528E+02  0.35390864255E+02  0.10906704118E+03  0.92530856303E+02 0.  0.
         23    2    1    2    0    0  0.32800029396E+02  0.31706543528E+02  0.23777691341E+03  0.27251793405E+03  0.12508803698E+03 0.  0.
          5    1    4    4  502    0  0.39157817993E+02 -0.39639660423E+02  0.66749321018E+02  0.87049305825E+02  0.41800000000E+01 0. -1.
         -5    1    4    4    0  502 -0.63577885968E+01  0.71346203951E+02  0.17102759239E+03  0.18546862822E+03  0.41800000000E+01 0. -1.
        -11    1    3    3    0    0 -0.53039737765E+02  0.66606685177E+01  0.38037168795E+02  0.65607960624E+02  0.00000000000E+00 0. -1.
         11    1    3    3    0    0  0.20239708369E+02 -0.38367212046E+02 -0.26463045402E+01  0.43459080556E+02  0.00000000000E+00 0.  1.
</event>
<event>
 8    1  0.8061721E-006  0.9661758E+02  0.7561462E-02  0.1287574E+00
          1   -1    0    0  501    0  0.00000000000E+00  0.00000000000E+00  0.46086934802E+02  0.46086934802E+02  0.00000000000E+00 0. -1.
         -1   -1    0    0    0  501 -0.00000000000E+00 -0.00000000000E+00 -0.39210588088E+03  0.39210588088E+03  0.00000000000E+00 0.  1.
         23    2    1    2    0    0 -0.21593483709E+02  0.78467690867E+02 -0.15576266185E+03  0.19639222015E+03  0.87660939193E+02 0.  0.
         23    2    1    2    0    0  0.21593483709E+02 -0.78467690867E+02 -0.19025628423E+03  0.24180059553E+03  0.12508643916E+03 0.  0.
          5    1    4    4  502    0  0.15532497341E+02  0.11927490727E+02 -0.13310073026E+03  0.13459866383E+03  0.41800000000E+01 0. -1.
         -5    1    4    4    0  502  0.60609863681E+01 -0.90395181595E+02 -0.57155553969E+02  0.10720193170E+03  0.41800000000E+01 0. -1.
        -11    1    3    3    0    0 -0.20852676498E+02  0.51827133591E+02 -0.15994021575E+03  0.16941593345E+03  0.00000000000E+00 0.  1.
         11    1    3    3    0    0 -0.74080721135E+00  0.26640557276E+02  0.41775539022E+01  0.26976286696E+02  0.00000000000E+00 0. -1.
</event>
<event>
 6    1  0.3356484E-005  0.8297307E+02  0.7561462E-02  0.1320820E+00
          2   -1    0    0  501    0  0.00000000000E+00  0.00000000000E+00  0.14182203121E+04  0.14182203121E+04  0.00000000000E+00 0. -1.
         -2   -1    0    0    0  501 -0.00000000000E+00 -0.00000000000E+00 -0.20596247685E+02  0.20596247685E+02  0.00000000000E+00 0.  1.
          5    1    1    2  502    0 -0.52386617992E+02 -0.57914492954E+02  0.11770194907E+04  0.11796146829E+04  0.41800000000E+01 0. -1.
         -5    1    1    2    0  502  0.13630727007E+02  0.39115451963E+02  0.20632375891E+03  0.21048225861E+03  0.41800000000E+01 0.  1.
        -11    1    1    2    0    0  0.16395973631E+02 -0.74320018964E+00  0.18142332605E+01  0.16512775060E+02  0.00000000000E+00 0. -1.
         11    1    1    2    0    0  0.22359917354E+02  0.19542241181E+02  0.12466581562E+02  0.32206843221E+02  0.00000000000E+00 0.  1.
</event>
<event>
 8    1  0.8061721E-006  0.1204625E+03  0.7561462E-02  0.1242336E+00
         -1   -1    0    0    0  501 -0.00000000000E+00  0.00000000000E+00  0.13217855646E+02  0.13217855646E+02  0.00000000000E+00 0.  1.
          1   -1    0    0  501    0  0.00000000000E+00 -0.00000000000E+00 -0.11489372578E+04  0.11489372578E+04  0.00000000000E+00 0. -1.
         23    2    1    2    0    0 -0.52731437681E+02 -0.15377888327E+02 -0.41599637255E+03  0.42958051930E+03  0.92029107466E+02 0.  0.
         23    2    1    2    0    0  0.52731437681E+02  0.15377888327E+02 -0.71972302963E+03  0.73257459417E+03  0.12508881913E+03 0.  0.
          5    1    4    4  502    0  0.92554848539E+02  0.22394388302E+02 -0.47051971736E+03  0.48007727028E+03  0.41800000000E+01 0.  1.
         -5    1    4    4    0  502 -0.39823410858E+02 -0.70164999751E+01 -0.24920331227E+03  0.25249732389E+03  0.41800000000E+01 0.  1.
        -11    1    3    3    0    0 -0.56548398474E+02  0.26819288756E+02 -0.28912548187E+03  0.29582180428E+03  0.00000000000E+00 0. -1.
         11    1    3    3    0    0  0.38169607930E+01 -0.42197177083E+02 -0.12687089068E+03  0.13375871502E+03  0.00000000000E+00 0.  1.
</event>
<event>
 8    1  0.8061721E-006  0.7656901E+02  0.7561462E-02  0.1339080E+00
          1   -1    0    0  501    0  0.00000000000E+00  0.00000000000E+00  0.80181075616E+03  0.80181075616E+03  0.00000000000E+00 0. -1.
         -1   -1    0    0    0  501 -0.00000000000E+00 -0.00000000000E+00 -0.59715128290E+02  0.59715128290E+02  0.00000000000E+00 0.  1.
         23    2    1    2    0    0  0.57337978781E+01 -0.49103954594E+02 -0.66152922071E+01  0.10267680378E+03  0.89747920019E+02 0.  0.
         23    2    1    2    0    0 -0.57337978781E+01  0.49103954594E+02  0.74871092007E+03  0.75884908067E+03  0.11331288806E+03 0.  0.
          5    1    4    4  502    0  0.33786599988E+02  0.53174474800E+02  0.63862910994E+03  0.64174268330E+03  0.41800000000E+01 0. -1.
         -5    1    4    4    0  502 -0.39520397866E+02 -0.40705202051E+01  0.11008181014E+03  0.11710639737E+03  0.41800000000E+01 0.  1.
        -11    1    3    3    0    0  0.48927660358E+01 -0.12310044754E+02  0.40660760466E+02  0.42764164940E+02  0.00000000000E+00 0. -1.
         11    1    3    3    0    0  0.84103184227E+00 -0.36793909840E+02 -0.47276052673E+02  0.59912638836E+02  0.00000000000E+00 0.  1.
</event>
<event>
 8    1  0.8061721E-006  0.1095077E+03  0.7561462E-02  0.1261484E+00
          1   -1    0    0  501    0  0.00000000000E+00  0.00000000000E+00  0.41326069057E+03  0.41326069057E+03  0.00000000000E+00 0. -1.
         -1   -1    0    0    0  501 -0.00000000000E+00 -0.00000000000E+00 -0.53457106076E+02  0.53457106076E+02  0.00000000000E+00 0.  1.
         23    2    1    2    0    0  0.69987627993E+02  0.11826960528E+02  0.51739195709E+02  0.12673259829E+03  0.91356784259E+02 0.  0.
         23    2    1    2    0    0 -0.69987627993E+02 -0.11826960528E+02  0.30806438878E+03  0.33998519835E+03  0.12509245538E+03 0.  0.
          5    1    4    4  502    0  0.15585543977E+02 -0.14539213918E+02  0.16228225894E+01  0.21780814392E+02  0.41800000000E+01 0. -1.
         -5    1    4    4    0  502 -0.85573171971E+02  0.27122533895E+01  0.30644156620E+03  0.31820438396E+03  0.41800000000E+01 0. -1.
        -11    1    3    3    0    0 -0.20180354379E+02 -0.22925077479E+01 -0.26596523387E+01  0.20483555482E+02  0.00000000000E+00 0.  1.
         11    1    3    3    0    0  0.90167982372E+02  0.14119468276E+02  0.54398848047E+02  0.10624904281E+03  0.00000000000E+00 0. -1.
</event>
<event>
 8    1  0.8061721E-006  0.1262216E+03  0.7561462E-02  0.1233172E+00
         -1   -1    0    0    0  501 -0.00000000000E+00  0.00000000000E+00  0.39057875209E+02  0.39057875209E+02  0.00000000000E+00 0.  1.
          1   -1    0    0  501    0  0.00000000000E+00 -0.00000000000E+00 -0.46708157143E+03  0.46708157143E+03  0.00000000000E+00 0. -1.
         23    2    1    2    0    0 -0.53516503301E+02 -0.23195527366E+02 -0.12669147305E+03  0.17470519244E+03  0.10520991544E+03 0.  0.
         23    2    1    2    0    0  0.53516503301E+02  0.23195527366E+02 -0.30133222317E+03  0.33143425420E+03  0.12508200319E+03 0.  0.
          5    1    4    4  502    0 -0.34638223967E+02 -0.14455342245E+02 -0.12633437389E+03  0.13185829479E+03  0.41800000000E+01 0. -1.
         -5    1    4    4    0  502  0.88154727268E+02  0.37650869611E+02 -0.17499784929E+03  0.19957595942E+03  0.41800000000E+01 0. -1.
        -11    1    3    3    0    0  0.18272942984E+02  0.25942784193E+02 -0.47111126365E+02  0.56801291573E+02  0.00000000000E+00 0. -1.
         11    1    3    3    0    0 -0.71789446285E+02 -0.49138311559E+02 -0.79580346688E+02  0.11790390087E+03  0.00000000000E+00 0.  1.
</event>
<event>
 7    1  0.8061721E-006  0.1182660E+03  0.7561462E-02  0.1245985E+00
          2   -1    0    0  501    0  0.00000000000E+00  0.00000000000E+00  0.30494938491E+03  0.30494938491E+03  0.00000000000E+00 0. -1.
         -2   -1    0    0    0  501 -0.00000000000E+00 -0.00000000000E+00 -0.15149331772E+03  0.15149331772E+03  0.00000000000E+00 0.  1.
         23    2    1    2    0    0 -0.15484996046E+02 -0.21117508538E+02 -0.11582044927E+03  0.14968516067E+03  0.91134716703E+02 0.  0.
          5    1    1    2  502    0 -0.70707871582E+01  0.81335677386E+02  0.13507420463E+03  0.15788603992E+03  0.41800000000E+01 0. -1.
         -5    1    1    2    0  502  0.22555783204E+02 -0.60218168848E+02  0.13420231183E+03  0.14887150203E+03  0.41800000000E+01 0.  1.
        -11    1    3    3    0    0 -0.51071399765E+02 -0.51237742878E+01 -0.87613241497E+02  0.10154122819E+03  0.00000000000E+00 0.  1.
         11    1    3    3    0    0  0.35586403719E+02 -0.15993734250E+02 -0.28207207769E+02  0.48143932484E+02  0.00000000000E+00 0. -1.
</event>
<event>
 8    1  0.8061721E-006  0.8111015E+02  0.7561462E-02  0.1325930E+00
          3   -1    0    0  501    0  0.00000000000E+00  0.00000000000E+00  0.52318777608E+02  0.52318777608E+02  0.00000000000E+00 0. -1.
         -3   -1    0    0    0  501 -0.00000000000E+00 -0.00000000000E+00 -0.23484992788E+03  0.23484992788E+03  0.00000000000E+00 0.  1.
         23    2    1    2    0    0  0.28369728089E+01 -0.24904096105E+02 -0.69586801698E+02  0.11677663498E+03  0.90367013276E+02 0.  0.
         23    2    1    2    0    0 -0.28369728089E+01  0.24904096105E+02 -0.11294434857E+03  0.17039207051E+03  0.12509504147E+03 0.  0.
          5    1    4    4  502    0 -0.15438390300E+02  0.67806480517E+02 -0.29552334297E+02  0.75676122771E+02  0.41800000000E+01 0. -1.
         -5    1    4    4    0  502  0.12601417491E+02 -0.42902384413E+02 -0.83392014277E+02  0.94715947740E+02  0.41800000000E+01 0. -1.
        -11    1    3    3    0    0  0.80405229668E+01 -0.35200253115E+02 -0.87959689368E+02  0.95082147549E+02  0.00000000000E+00 0.  1.
         11    1    3    3    0    0 -0.52035501579E+01  0.10296157010E+02  0.18372887669E+02  0.21694487427E+02  0.00000000000E+00 0. -1.
</event>
<event>
 8    1  0.8061721E-006  0.8006981E+02  0.7561462E-02  0.1328853E+00
          3   -1    0    0  501    0  0.00000000000E+00  0.00000000000E+00  0.78462880861E+03  0.78462880861E+03  0.00000000000E+00 0. -1.
         -3   -1    0    0    0  501 -0.00000000000E+00 -0.00000000000E+00 -0.18649641767E+02  0.18649641767E+02  0.00000000000E+00 0.  1.
         23    2    1    2    0    0  0.23343739834E+02  0.46400390686E+02  0.31152237784E+03  0.32906709784E+03  0.92417728492E+02 0.  0.
         23    2    1    2    0    0 -0.23343739834E+02 -0.46400390686E+02  0.45445678901E+03  0.47421135254E+03  0.12508999705E+03 0.  0.
          5    1    4    4  502    0 -0.28583770415E+02 -0.48025096632E+02  0.46118398129E+03  0.46457677389E+03  0.41800000000E+01 0.  1.
         -5    1    4    4    0  502  0.52400305812E+01  0.16247059458E+01 -0.67271922813E+01  0.96345786567E+01  0.41800000000E+01 0.  1.
        -11    1    3    3    0    0  0.13277358040E+02  0.70154369111E+02  0.15788853340E+03  0.17328217658E+03  0.00000000000E+00 0.  1.
         11    1    3    3    0    0  0.10066381794E+02 -0.23753978425E+02  0.15363384444E+03  0.15578492126E+03  0.00000000000E+00 0. -1.
</event>
